<event>
 4    1  0.5017912E-001  0.5000050E+01  0.7818608E-02  0.2136455E+00
        -11   -1    0    0    0    0  0.00000000000E+00  0.00000000000E+00  0.50000499739E+01  0.50000500000E+01  0.51100000000E-03 0.  1.
         11   -1    0    0    0    0 -0.00000000000E+00 -0.00000000000E+00 -0.50000499739E+01  0.50000500000E+01  0.51100000000E-03 0. -1.
     100001    1    1    2    0    0  0.19008478966E-01  0.95643160128E-02 -0.68705230220E-02  0.50000500000E+01  0.50000000000E+01 0.  1.
     100001    1    1    2    0    0 -0.19008478966E-01 -0.95643160128E-02  0.68705230220E-02  0.50000500000E+01  0.50000000000E+01 0.  0.
</event>
<event>
 4    1  0.5017912E-001  0.5000050E+01  0.7818608E-02  0.2136455E+00
        -11   -1    0    0    0    0  0.00000000000E+00  0.00000000000E+00  0.50000499739E+01  0.50000500000E+01  0.51100000000E-03 0. -1.
         11   -1    0    0    0    0 -0.00000000000E+00 -0.00000000000E+00 -0.50000499739E+01  0.50000500000E+01  0.51100000000E-03 0.  1.
     100001    1    1    2    0    0 -0.10865687326E-01  0.19455726942E-01 -0.18477088774E-02  0.50000500000E+01  0.50000000000E+01 0. -1.
     100001    1    1    2    0    0  0.10865687326E-01 -0.19455726942E-01  0.18477088774E-02  0.50000500000E+01  0.50000000000E+01 0.  1.
</event>
<event>
 4    1  0.5017912E-001  0.5000050E+01  0.7818608E-02  0.2136455E+00
        -11   -1    0    0    0    0  0.00000000000E+00  0.00000000000E+00  0.50000499739E+01  0.50000500000E+01  0.51100000000E-03 0. -1.
         11   -1    0    0    0    0 -0.00000000000E+00 -0.00000000000E+00 -0.50000499739E+01  0.50000500000E+01  0.51100000000E-03 0.  1.
     100001    1    1    2    0    0  0.97860853795E-02  0.63475706433E-02 -0.19077300120E-01  0.50000500000E+01  0.50000000000E+01 0.  1.
     100001    1    1    2    0    0 -0.97860853795E-02 -0.63475706433E-02  0.19077300120E-01  0.50000500000E+01  0.50000000000E+01 0. -1.
</event>
<event>
 4    1  0.5017912E-001  0.5000050E+01  0.7818608E-02  0.2136455E+00
        -11   -1    0    0    0    0  0.00000000000E+00  0.00000000000E+00  0.50000499739E+01  0.50000500000E+01  0.51100000000E-03 0.  1.
         11   -1    0    0    0    0 -0.00000000000E+00 -0.00000000000E+00 -0.50000499739E+01  0.50000500000E+01  0.51100000000E-03 0. -1.
     100001    1    1    2    0    0  0.12975546099E-01  0.74737556460E-02  0.16606645657E-01  0.50000500000E+01  0.50000000000E+01 0.  1.
     100001    1    1    2    0    0 -0.12975546099E-01 -0.74737556460E-02 -0.16606645657E-01  0.50000500000E+01  0.50000000000E+01 0.  0.
</event>
<event>
 4    1  0.5017912E-001  0.5000050E+01  0.7818608E-02  0.2136455E+00
        -11   -1    0    0    0    0  0.00000000000E+00  0.00000000000E+00  0.50000499739E+01  0.50000500000E+01  0.51100000000E-03 0. -1.
         11   -1    0    0    0    0 -0.00000000000E+00 -0.00000000000E+00 -0.50000499739E+01  0.50000500000E+01  0.51100000000E-03 0.  1.
     100001    1    1    2    0    0  0.78759468915E-02 -0.11599323076E-01 -0.17419175202E-01  0.50000500000E+01  0.50000000000E+01 0.  1.
     100001    1    1    2    0    0 -0.78759468915E-02  0.11599323076E-01  0.17419175202E-01  0.50000500000E+01  0.50000000000E+01 0. -1.
</event>
<event>
 4    1  0.5017912E-001  0.5000050E+01  0.7818608E-02  0.2136455E+00
        -11   -1    0    0    0    0  0.00000000000E+00  0.00000000000E+00  0.50000499739E+01  0.50000500000E+01  0.51100000000E-03 0. -1.
         11   -1    0    0    0    0 -0.00000000000E+00 -0.00000000000E+00 -0.50000499739E+01  0.50000500000E+01  0.51100000000E-03 0.  1.
     100001    1    1    2    0    0  0.51472515155E-02  0.19362181984E-01  0.99304688026E-02  0.50000500000E+01  0.50000000000E+01 0. -1.
     100001    1    1    2    0    0 -0.51472515155E-02 -0.19362181984E-01 -0.99304688026E-02  0.50000500000E+01  0.50000000000E+01 0.  1.
</event>
<event>
 4    1  0.5017912E-001  0.5000050E+01  0.7818608E-02  0.2136455E+00
        -11   -1    0    0    0    0  0.00000000000E+00  0.00000000000E+00  0.50000499739E+01  0.50000500000E+01  0.51100000000E-03 0. -1.
         11   -1    0    0    0    0 -0.00000000000E+00 -0.00000000000E+00 -0.50000499739E+01  0.50000500000E+01  0.51100000000E-03 0.  1.
     100001    1    1    2    0    0  0.18165020308E-01 -0.11767881261E-01 -0.56170728891E-02  0.50000500000E+01  0.50000000000E+01 0.  1.
     100001    1    1    2    0    0 -0.18165020308E-01  0.11767881261E-01  0.56170728891E-02  0.50000500000E+01  0.50000000000E+01 0. -1.
</event>
<event>
 4    1  0.5017912E-001  0.5000050E+01  0.7818608E-02  0.2136455E+00
        -11   -1    0    0    0    0  0.00000000000E+00  0.00000000000E+00  0.50000499739E+01  0.50000500000E+01  0.51100000000E-03 0. -1.
         11   -1    0    0    0    0 -0.00000000000E+00 -0.00000000000E+00 -0.50000499739E+01  0.50000500000E+01  0.51100000000E-03 0.  1.
     100001    1    1    2    0    0 -0.30551858534E-02 -0.19313350802E-01  0.10847249429E-01  0.50000500000E+01  0.50000000000E+01 0. -1.
     100001    1    1    2    0    0  0.30551858534E-02  0.19313350802E-01 -0.10847249429E-01  0.50000500000E+01  0.50000000000E+01 0.  1.
</event>
<event>
 4    1  0.5017912E-001  0.5000050E+01  0.7818608E-02  0.2136455E+00
        -11   -1    0    0    0    0  0.00000000000E+00  0.00000000000E+00  0.50000499739E+01  0.50000500000E+01  0.51100000000E-03 0.  1.
         11   -1    0    0    0    0 -0.00000000000E+00 -0.00000000000E+00 -0.50000499739E+01  0.50000500000E+01  0.51100000000E-03 0. -1.
     100001    1    1    2    0    0 -0.10431694676E-01 -0.19457857622E-01 -0.35459868815E-02  0.50000500000E+01  0.50000000000E+01 0.  1.
     100001    1    1    2    0    0  0.10431694676E-01  0.19457857622E-01  0.35459868815E-02  0.50000500000E+01  0.50000000000E+01 0. -1.
</event>
<event>
 4    1  0.5017912E-001  0.5000050E+01  0.7818608E-02  0.2136455E+00
        -11   -1    0    0    0    0  0.00000000000E+00  0.00000000000E+00  0.50000499739E+01  0.50000500000E+01  0.51100000000E-03 0.  1.
         11   -1    0    0    0    0 -0.00000000000E+00 -0.00000000000E+00 -0.50000499739E+01  0.50000500000E+01  0.51100000000E-03 0. -1.
     100001    1    1    2    0    0 -0.16666805907E-01  0.12845909824E-01  0.75632454442E-02  0.50000500000E+01  0.50000000000E+01 0. -1.
     100001    1    1    2    0    0  0.16666805907E-01 -0.12845909824E-01 -0.75632454442E-02  0.50000500000E+01  0.50000000000E+01 0.  0.
</event>
<event>
 4    1  0.5017912E-001  0.5000050E+01  0.7818608E-02  0.2136455E+00
        -11   -1    0    0    0    0  0.00000000000E+00  0.00000000000E+00  0.50000499739E+01  0.50000500000E+01  0.51100000000E-03 0.  1.
         11   -1    0    0    0    0 -0.00000000000E+00 -0.00000000000E+00 -0.50000499739E+01  0.50000500000E+01  0.51100000000E-03 0. -1.
     100001    1    1    2    0    0  0.21387300763E-01  0.45219090088E-02 -0.47051253949E-02  0.50000500000E+01  0.50000000000E+01 0. -1.
     100001    1    1    2    0    0 -0.21387300763E-01 -0.45219090088E-02  0.47051253949E-02  0.50000500000E+01  0.50000000000E+01 0.  1.
</event>
<event>
 4    1  0.5017912E-001  0.5000050E+01  0.7818608E-02  0.2136455E+00
        -11   -1    0    0    0    0  0.00000000000E+00  0.00000000000E+00  0.50000499739E+01  0.50000500000E+01  0.51100000000E-03 0. -1.
         11   -1    0    0    0    0 -0.00000000000E+00 -0.00000000000E+00 -0.50000499739E+01  0.50000500000E+01  0.51100000000E-03 0.  1.
     100001    1    1    2    0    0 -0.16980332045E-01 -0.14132300509E-01  0.34567189603E-02  0.50000500000E+01  0.50000000000E+01 0.  1.
     100001    1    1    2    0    0  0.16980332045E-01  0.14132300509E-01 -0.34567189603E-02  0.50000500000E+01  0.50000000000E+01 0. -1.
</event>
<event>
 4    1  0.5017912E-001  0.5000050E+01  0.7818608E-02  0.2136455E+00
        -11   -1    0    0    0    0  0.00000000000E+00  0.00000000000E+00  0.50000499739E+01  0.50000500000E+01  0.51100000000E-03 0.  1.
         11   -1    0    0    0    0 -0.00000000000E+00 -0.00000000000E+00 -0.50000499739E+01  0.50000500000E+01  0.51100000000E-03 0. -1.
     100001    1    1    2    0    0 -0.20244438405E-01  0.90698670148E-03  0.94521208620E-02  0.50000500000E+01  0.50000000000E+01 0.  0.
     100001    1    1    2    0    0  0.20244438405E-01 -0.90698670148E-03 -0.94521208620E-02  0.50000500000E+01  0.50000000000E+01 0.  1.
</event>
<event>
 4    1  0.5017912E-001  0.5000050E+01  0.7818608E-02  0.2136455E+00
        -11   -1    0    0    0    0  0.00000000000E+00  0.00000000000E+00  0.50000499739E+01  0.50000500000E+01  0.51100000000E-03 0.  1.
         11   -1    0    0    0    0 -0.00000000000E+00 -0.00000000000E+00 -0.50000499739E+01  0.50000500000E+01  0.51100000000E-03 0. -1.
     100001    1    1    2    0    0 -0.12830668332E-01 -0.47374135384E-03  0.18307157597E-01  0.50000500000E+01  0.50000000000E+01 0.  1.
     100001    1    1    2    0    0  0.12830668332E-01  0.47374135384E-03 -0.18307157597E-01  0.50000500000E+01  0.50000000000E+01 0. -1.
</event>
<event>
 4    1  0.5017912E-001  0.5000050E+01  0.7818608E-02  0.2136455E+00
        -11   -1    0    0    0    0  0.00000000000E+00  0.00000000000E+00  0.50000499739E+01  0.50000500000E+01  0.51100000000E-03 0. -1.
         11   -1    0    0    0    0 -0.00000000000E+00 -0.00000000000E+00 -0.50000499739E+01  0.50000500000E+01  0.51100000000E-03 0.  1.
     100001    1    1    2    0    0 -0.85144114419E-02 -0.19321647528E-01  0.73607903521E-02  0.50000500000E+01  0.50000000000E+01 0.  1.
     100001    1    1    2    0    0  0.85144114419E-02  0.19321647528E-01 -0.73607903521E-02  0.50000500000E+01  0.50000000000E+01 0.  0.
</event>
<event>
 4    1  0.5017912E-001  0.5000050E+01  0.7818608E-02  0.2136455E+00
        -11   -1    0    0    0    0  0.00000000000E+00  0.00000000000E+00  0.50000499739E+01  0.50000500000E+01  0.51100000000E-03 0. -1.
         11   -1    0    0    0    0 -0.00000000000E+00 -0.00000000000E+00 -0.50000499739E+01  0.50000500000E+01  0.51100000000E-03 0.  1.
     100001    1    1    2    0    0  0.12389600277E-02 -0.10193382338E-01 -0.19863595711E-01  0.50000500000E+01  0.50000000000E+01 0.  0.
     100001    1    1    2    0    0 -0.12389600277E-02  0.10193382338E-01  0.19863595711E-01  0.50000500000E+01  0.50000000000E+01 0.  0.
</event>
<event>
 4    1  0.5017912E-001  0.5000050E+01  0.7818608E-02  0.2136455E+00
        -11   -1    0    0    0    0  0.00000000000E+00  0.00000000000E+00  0.50000499739E+01  0.50000500000E+01  0.51100000000E-03 0.  1.
         11   -1    0    0    0    0 -0.00000000000E+00 -0.00000000000E+00 -0.50000499739E+01  0.50000500000E+01  0.51100000000E-03 0. -1.
     100001    1    1    2    0    0  0.15541160356E-01 -0.14384745221E-01  0.71801072217E-02  0.50000500000E+01  0.50000000000E+01 0.  1.
     100001    1    1    2    0    0 -0.15541160356E-01  0.14384745221E-01 -0.71801072217E-02  0.50000500000E+01  0.50000000000E+01 0. -1.
</event>
<event>
 4    1  0.5017912E-001  0.5000050E+01  0.7818608E-02  0.2136455E+00
        -11   -1    0    0    0    0  0.00000000000E+00  0.00000000000E+00  0.50000499739E+01  0.50000500000E+01  0.51100000000E-03 0. -1.
         11   -1    0    0    0    0 -0.00000000000E+00 -0.00000000000E+00 -0.50000499739E+01  0.50000500000E+01  0.51100000000E-03 0.  1.
     100001    1    1    2    0    0 -0.10667084260E-01  0.19512897460E-01  0.23372304324E-02  0.50000500000E+01  0.50000000000E+01 0.  1.
     100001    1    1    2    0    0  0.10667084260E-01 -0.19512897460E-01 -0.23372304324E-02  0.50000500000E+01  0.50000000000E+01 0.  0.
</event>
<event>
 4    1  0.5017912E-001  0.5000050E+01  0.7818608E-02  0.2136455E+00
        -11   -1    0    0    0    0  0.00000000000E+00  0.00000000000E+00  0.50000499739E+01  0.50000500000E+01  0.51100000000E-03 0.  1.
         11   -1    0    0    0    0 -0.00000000000E+00 -0.00000000000E+00 -0.50000499739E+01  0.50000500000E+01  0.51100000000E-03 0. -1.
     100001    1    1    2    0    0 -0.20462725284E-01  0.37383075508E-02 -0.82039277559E-02  0.50000500000E+01  0.50000000000E+01 0. -1.
     100001    1    1    2    0    0  0.20462725284E-01 -0.37383075508E-02  0.82039277559E-02  0.50000500000E+01  0.50000000000E+01 0.  1.
</event>
<event>
 4    1  0.5017912E-001  0.5000050E+01  0.7818608E-02  0.2136455E+00
        -11   -1    0    0    0    0  0.00000000000E+00  0.00000000000E+00  0.50000499739E+01  0.50000500000E+01  0.51100000000E-03 0. -1.
         11   -1    0    0    0    0 -0.00000000000E+00 -0.00000000000E+00 -0.50000499739E+01  0.50000500000E+01  0.51100000000E-03 0.  1.
     100001    1    1    2    0    0 -0.18558589630E-01  0.11767717152E-01  0.41354665969E-02  0.50000500000E+01  0.50000000000E+01 0. -1.
     100001    1    1    2    0    0  0.18558589630E-01 -0.11767717152E-01 -0.41354665969E-02  0.50000500000E+01  0.50000000000E+01 0.  0.
</event>
<event>
 4    1  0.5017912E-001  0.5000050E+01  0.7818608E-02  0.2136455E+00
        -11   -1    0    0    0    0  0.00000000000E+00  0.00000000000E+00  0.50000499739E+01  0.50000500000E+01  0.51100000000E-03 0. -1.
         11   -1    0    0    0    0 -0.00000000000E+00 -0.00000000000E+00 -0.50000499739E+01  0.50000500000E+01  0.51100000000E-03 0.  1.
     100001    1    1    2    0    0  0.97398784955E-02 -0.19628002802E-01  0.44585617521E-02  0.50000500000E+01  0.50000000000E+01 0.  1.
     100001    1    1    2    0    0 -0.97398784955E-02  0.19628002802E-01 -0.44585617521E-02  0.50000500000E+01  0.50000000000E+01 0. -1.
</event>
<event>
 4    1  0.5017912E-001  0.5000050E+01  0.7818608E-02  0.2136455E+00
        -11   -1    0    0    0    0  0.00000000000E+00  0.00000000000E+00  0.50000499739E+01  0.50000500000E+01  0.51100000000E-03 0. -1.
         11   -1    0    0    0    0 -0.00000000000E+00 -0.00000000000E+00 -0.50000499739E+01  0.50000500000E+01  0.51100000000E-03 0.  1.
     100001    1    1    2    0    0  0.12642500290E-01  0.14459133695E-01 -0.11450027913E-01  0.50000500000E+01  0.50000000000E+01 0. -1.
     100001    1    1    2    0    0 -0.12642500290E-01 -0.14459133695E-01  0.11450027913E-01  0.50000500000E+01  0.50000000000E+01 0. -1.
</event>
<event>
 4    1  0.5017912E-001  0.5000050E+01  0.7818608E-02  0.2136455E+00
        -11   -1    0    0    0    0  0.00000000000E+00  0.00000000000E+00  0.50000499739E+01  0.50000500000E+01  0.51100000000E-03 0. -1.
         11   -1    0    0    0    0 -0.00000000000E+00 -0.00000000000E+00 -0.50000499739E+01  0.50000500000E+01  0.51100000000E-03 0.  1.
     100001    1    1    2    0    0  0.19461147718E-01 -0.10952925753E-01  0.11400205963E-02  0.50000500000E+01  0.50000000000E+01 0.  0.
     100001    1    1    2    0    0 -0.19461147718E-01  0.10952925753E-01 -0.11400205963E-02  0.50000500000E+01  0.50000000000E+01 0.  1.
</event>
<event>
 4    1  0.5017912E-001  0.5000050E+01  0.7818608E-02  0.2136455E+00
        -11   -1    0    0    0    0  0.00000000000E+00  0.00000000000E+00  0.50000499739E+01  0.50000500000E+01  0.51100000000E-03 0.  1.
         11   -1    0    0    0    0 -0.00000000000E+00 -0.00000000000E+00 -0.50000499739E+01  0.50000500000E+01  0.51100000000E-03 0. -1.
     100001    1    1    2    0    0  0.22239943394E-01 -0.97410586936E-04 -0.23190362210E-02  0.50000500000E+01  0.50000000000E+01 0.  0.
     100001    1    1    2    0    0 -0.22239943394E-01  0.97410586936E-04  0.23190362210E-02  0.50000500000E+01  0.50000000000E+01 0. -1.
</event>
<event>
 4    1  0.5017912E-001  0.5000050E+01  0.7818608E-02  0.2136455E+00
        -11   -1    0    0    0    0  0.00000000000E+00  0.00000000000E+00  0.50000499739E+01  0.50000500000E+01  0.51100000000E-03 0. -1.
         11   -1    0    0    0    0 -0.00000000000E+00 -0.00000000000E+00 -0.50000499739E+01  0.50000500000E+01  0.51100000000E-03 0.  1.
     100001    1    1    2    0    0 -0.49377921690E-02  0.65936591378E-02  0.20788082347E-01  0.50000500000E+01  0.50000000000E+01 0.  1.
     100001    1    1    2    0    0  0.49377921690E-02 -0.65936591378E-02 -0.20788082347E-01  0.50000500000E+01  0.50000000000E+01 0.  1.
</event>
<event>
 4    1  0.5017912E-001  0.5000050E+01  0.7818608E-02  0.2136455E+00
        -11   -1    0    0    0    0  0.00000000000E+00  0.00000000000E+00  0.50000499739E+01  0.50000500000E+01  0.51100000000E-03 0. -1.
         11   -1    0    0    0    0 -0.00000000000E+00 -0.00000000000E+00 -0.50000499739E+01  0.50000500000E+01  0.51100000000E-03 0.  1.
     100001    1    1    2    0    0  0.65061710776E-03  0.19926551778E-01 -0.10124807733E-01  0.50000500000E+01  0.50000000000E+01 0. -1.
     100001    1    1    2    0    0 -0.65061710776E-03 -0.19926551778E-01  0.10124807733E-01  0.50000500000E+01  0.50000000000E+01 0. -1.
</event>
<event>
 4    1  0.5017912E-001  0.5000050E+01  0.7818608E-02  0.2136455E+00
        -11   -1    0    0    0    0  0.00000000000E+00  0.00000000000E+00  0.50000499739E+01  0.50000500000E+01  0.51100000000E-03 0. -1.
         11   -1    0    0    0    0 -0.00000000000E+00 -0.00000000000E+00 -0.50000499739E+01  0.50000500000E+01  0.51100000000E-03 0.  1.
     100001    1    1    2    0    0 -0.15159867970E-01  0.16349460516E-01  0.16958903097E-02  0.50000500000E+01  0.50000000000E+01 0.  0.
     100001    1    1    2    0    0  0.15159867970E-01 -0.16349460516E-01 -0.16958903097E-02  0.50000500000E+01  0.50000000000E+01 0. -1.
</event>
<event>
 4    1  0.5017912E-001  0.5000050E+01  0.7818608E-02  0.2136455E+00
        -11   -1    0    0    0    0  0.00000000000E+00  0.00000000000E+00  0.50000499739E+01  0.50000500000E+01  0.51100000000E-03 0. -1.
         11   -1    0    0    0    0 -0.00000000000E+00 -0.00000000000E+00 -0.50000499739E+01  0.50000500000E+01  0.51100000000E-03 0.  1.
     100001    1    1    2    0    0 -0.18898473259E-01 -0.50752687852E-02  0.10820899003E-01  0.50000500000E+01  0.50000000000E+01 0. -1.
     100001    1    1    2    0    0  0.18898473259E-01  0.50752687852E-02 -0.10820899003E-01  0.50000500000E+01  0.50000000000E+01 0.  1.
</event>
<event>
 4    1  0.5017912E-001  0.5000050E+01  0.7818608E-02  0.2136455E+00
        -11   -1    0    0    0    0  0.00000000000E+00  0.00000000000E+00  0.50000499739E+01  0.50000500000E+01  0.51100000000E-03 0. -1.
         11   -1    0    0    0    0 -0.00000000000E+00 -0.00000000000E+00 -0.50000499739E+01  0.50000500000E+01  0.51100000000E-03 0.  1.
     100001    1    1    2    0    0  0.14821125059E-01  0.52386862889E-02 -0.15902607269E-01  0.50000500000E+01  0.50000000000E+01 0.  1.
     100001    1    1    2    0    0 -0.14821125059E-01 -0.52386862889E-02  0.15902607269E-01  0.50000500000E+01  0.50000000000E+01 0. -1.
</event>
<event>
 4    1  0.5017912E-001  0.5000050E+01  0.7818608E-02  0.2136455E+00
        -11   -1    0    0    0    0  0.00000000000E+00  0.00000000000E+00  0.50000499739E+01  0.50000500000E+01  0.51100000000E-03 0.  1.
         11   -1    0    0    0    0 -0.00000000000E+00 -0.00000000000E+00 -0.50000499739E+01  0.50000500000E+01  0.51100000000E-03 0. -1.
     100001    1    1    2    0    0  0.42776760489E-02 -0.21849052793E-01  0.20791535938E-02  0.50000500000E+01  0.50000000000E+01 0.  1.
     100001    1    1    2    0    0 -0.42776760489E-02  0.21849052793E-01 -0.20791535938E-02  0.50000500000E+01  0.50000000000E+01 0.  0.
</event>
<event>
 4    1  0.5017912E-001  0.5000050E+01  0.7818608E-02  0.2136455E+00
        -11   -1    0    0    0    0  0.00000000000E+00  0.00000000000E+00  0.50000499739E+01  0.50000500000E+01  0.51100000000E-03 0.  1.
         11   -1    0    0    0    0 -0.00000000000E+00 -0.00000000000E+00 -0.50000499739E+01  0.50000500000E+01  0.51100000000E-03 0. -1.
     100001    1    1    2    0    0 -0.24627490432E-02 -0.48660494347E-02 -0.21685454343E-01  0.50000500000E+01  0.50000000000E+01 0.  0.
     100001    1    1    2    0    0  0.24627490432E-02  0.48660494347E-02  0.21685454343E-01  0.50000500000E+01  0.50000000000E+01 0.  1.
</event>
<event>
 4    1  0.5017912E-001  0.5000050E+01  0.7818608E-02  0.2136455E+00
        -11   -1    0    0    0    0  0.00000000000E+00  0.00000000000E+00  0.50000499739E+01  0.50000500000E+01  0.51100000000E-03 0. -1.
         11   -1    0    0    0    0 -0.00000000000E+00 -0.00000000000E+00 -0.50000499739E+01  0.50000500000E+01  0.51100000000E-03 0.  1.
     100001    1    1    2    0    0  0.34919688845E-02  0.18553425160E-01 -0.11982448337E-01  0.50000500000E+01  0.50000000000E+01 0.  0.
     100001    1    1    2    0    0 -0.34919688845E-02 -0.18553425160E-01  0.11982448337E-01  0.50000500000E+01  0.50000000000E+01 0.  0.
</event>
<event>
 4    1  0.5017912E-001  0.5000050E+01  0.7818608E-02  0.2136455E+00
        -11   -1    0    0    0    0  0.00000000000E+00  0.00000000000E+00  0.50000499739E+01  0.50000500000E+01  0.51100000000E-03 0. -1.
         11   -1    0    0    0    0 -0.00000000000E+00 -0.00000000000E+00 -0.50000499739E+01  0.50000500000E+01  0.51100000000E-03 0.  1.
     100001    1    1    2    0    0 -0.18476368064E-01  0.69248845819E-02  0.10520090146E-01  0.50000500000E+01  0.50000000000E+01 0. -1.
     100001    1    1    2    0    0  0.18476368064E-01 -0.69248845819E-02 -0.10520090146E-01  0.50000500000E+01  0.50000000000E+01 0.  1.
</event>
<event>
 4    1  0.5017912E-001  0.5000050E+01  0.7818608E-02  0.2136455E+00
        -11   -1    0    0    0    0  0.00000000000E+00  0.00000000000E+00  0.50000499739E+01  0.50000500000E+01  0.51100000000E-03 0.  1.
         11   -1    0    0    0    0 -0.00000000000E+00 -0.00000000000E+00 -0.50000499739E+01  0.50000500000E+01  0.51100000000E-03 0. -1.
     100001    1    1    2    0    0  0.11417611025E-01 -0.65516671247E-02 -0.18075295748E-01  0.50000500000E+01  0.50000000000E+01 0.  0.
     100001    1    1    2    0    0 -0.11417611025E-01  0.65516671247E-02  0.18075295748E-01  0.50000500000E+01  0.50000000000E+01 0.  0.
</event>
<event>
 4    1  0.5017912E-001  0.5000050E+01  0.7818608E-02  0.2136455E+00
        -11   -1    0    0    0    0  0.00000000000E+00  0.00000000000E+00  0.50000499739E+01  0.50000500000E+01  0.51100000000E-03 0. -1.
         11   -1    0    0    0    0 -0.00000000000E+00 -0.00000000000E+00 -0.50000499739E+01  0.50000500000E+01  0.51100000000E-03 0.  1.
     100001    1    1    2    0    0  0.10596843706E-01  0.46047719409E-02 -0.19144332812E-01  0.50000500000E+01  0.50000000000E+01 0.  1.
     100001    1    1    2    0    0 -0.10596843706E-01 -0.46047719409E-02  0.19144332812E-01  0.50000500000E+01  0.50000000000E+01 0.  0.
</event>
<event>
 4    1  0.5017912E-001  0.5000050E+01  0.7818608E-02  0.2136455E+00
        -11   -1    0    0    0    0  0.00000000000E+00  0.00000000000E+00  0.50000499739E+01  0.50000500000E+01  0.51100000000E-03 0. -1.
         11   -1    0    0    0    0 -0.00000000000E+00 -0.00000000000E+00 -0.50000499739E+01  0.50000500000E+01  0.51100000000E-03 0.  1.
     100001    1    1    2    0    0 -0.18338211917E-01 -0.12660959517E-01  0.18473190793E-02  0.50000500000E+01  0.50000000000E+01 0. -1.
     100001    1    1    2    0    0  0.18338211917E-01  0.12660959517E-01 -0.18473190793E-02  0.50000500000E+01  0.50000000000E+01 0.  0.
</event>
<event>
 4    1  0.5017912E-001  0.5000050E+01  0.7818608E-02  0.2136455E+00
        -11   -1    0    0    0    0  0.00000000000E+00  0.00000000000E+00  0.50000499739E+01  0.50000500000E+01  0.51100000000E-03 0. -1.
         11   -1    0    0    0    0 -0.00000000000E+00 -0.00000000000E+00 -0.50000499739E+01  0.50000500000E+01  0.51100000000E-03 0.  1.
     100001    1    1    2    0    0  0.15112950089E-01  0.16396817966E-01 -0.16569852795E-02  0.50000500000E+01  0.50000000000E+01 0. -1.
     100001    1    1    2    0    0 -0.15112950089E-01 -0.16396817966E-01  0.16569852795E-02  0.50000500000E+01  0.50000000000E+01 0.  1.
</event>
<event>
 4    1  0.5017912E-001  0.5000050E+01  0.7818608E-02  0.2136455E+00
        -11   -1    0    0    0    0  0.00000000000E+00  0.00000000000E+00  0.50000499739E+01  0.50000500000E+01  0.51100000000E-03 0. -1.
         11   -1    0    0    0    0 -0.00000000000E+00 -0.00000000000E+00 -0.50000499739E+01  0.50000500000E+01  0.51100000000E-03 0.  1.
     100001    1    1    2    0    0  0.49505060298E-02 -0.10063849953E-01 -0.19344609434E-01  0.50000500000E+01  0.50000000000E+01 0.  0.
     100001    1    1    2    0    0 -0.49505060298E-02  0.10063849953E-01  0.19344609434E-01  0.50000500000E+01  0.50000000000E+01 0.  0.
</event>
<event>
 4    1  0.5017912E-001  0.5000050E+01  0.7818608E-02  0.2136455E+00
        -11   -1    0    0    0    0  0.00000000000E+00  0.00000000000E+00  0.50000499739E+01  0.50000500000E+01  0.51100000000E-03 0.  1.
         11   -1    0    0    0    0 -0.00000000000E+00 -0.00000000000E+00 -0.50000499739E+01  0.50000500000E+01  0.51100000000E-03 0. -1.
     100001    1    1    2    0    0  0.11407173926E-01  0.87129407608E-02 -0.17145365155E-01  0.50000500000E+01  0.50000000000E+01 0. -1.
     100001    1    1    2    0    0 -0.11407173926E-01 -0.87129407608E-02  0.17145365155E-01  0.50000500000E+01  0.50000000000E+01 0.  1.
</event>
<event>
 4    1  0.5017912E-001  0.5000050E+01  0.7818608E-02  0.2136455E+00
        -11   -1    0    0    0    0  0.00000000000E+00  0.00000000000E+00  0.50000499739E+01  0.50000500000E+01  0.51100000000E-03 0. -1.
         11   -1    0    0    0    0 -0.00000000000E+00 -0.00000000000E+00 -0.50000499739E+01  0.50000500000E+01  0.51100000000E-03 0.  1.
     100001    1    1    2    0    0 -0.65514924150E-02  0.17420070307E-01 -0.12394418002E-01  0.50000500000E+01  0.50000000000E+01 0. -1.
     100001    1    1    2    0    0  0.65514924150E-02 -0.17420070307E-01  0.12394418002E-01  0.50000500000E+01  0.50000000000E+01 0.  0.
</event>
<event>
 4    1  0.5017912E-001  0.5000050E+01  0.7818608E-02  0.2136455E+00
        -11   -1    0    0    0    0  0.00000000000E+00  0.00000000000E+00  0.50000499739E+01  0.50000500000E+01  0.51100000000E-03 0.  1.
         11   -1    0    0    0    0 -0.00000000000E+00 -0.00000000000E+00 -0.50000499739E+01  0.50000500000E+01  0.51100000000E-03 0. -1.
     100001    1    1    2    0    0  0.11240276401E-01 -0.18923952391E-01  0.39424246750E-02  0.50000500000E+01  0.50000000000E+01 0. -1.
     100001    1    1    2    0    0 -0.11240276401E-01  0.18923952391E-01 -0.39424246750E-02  0.50000500000E+01  0.50000000000E+01 0.  1.
</event>
<event>
 4    1  0.5017912E-001  0.5000050E+01  0.7818608E-02  0.2136455E+00
        -11   -1    0    0    0    0  0.00000000000E+00  0.00000000000E+00  0.50000499739E+01  0.50000500000E+01  0.51100000000E-03 0. -1.
         11   -1    0    0    0    0 -0.00000000000E+00 -0.00000000000E+00 -0.50000499739E+01  0.50000500000E+01  0.51100000000E-03 0.  1.
     100001    1    1    2    0    0 -0.18215676803E-01  0.12689787312E-01 -0.26759888971E-02  0.50000500000E+01  0.50000000000E+01 0.  1.
     100001    1    1    2    0    0  0.18215676803E-01 -0.12689787312E-01  0.26759888971E-02  0.50000500000E+01  0.50000000000E+01 0. -1.
</event>
<event>
 4    1  0.5017912E-001  0.5000050E+01  0.7818608E-02  0.2136455E+00
        -11   -1    0    0    0    0  0.00000000000E+00  0.00000000000E+00  0.50000499739E+01  0.50000500000E+01  0.51100000000E-03 0. -1.
         11   -1    0    0    0    0 -0.00000000000E+00 -0.00000000000E+00 -0.50000499739E+01  0.50000500000E+01  0.51100000000E-03 0.  1.
     100001    1    1    2    0    0  0.17874902162E-01  0.10563130344E-01 -0.83012438850E-02  0.50000500000E+01  0.50000000000E+01 0.  1.
     100001    1    1    2    0    0 -0.17874902162E-01 -0.10563130344E-01  0.83012438850E-02  0.50000500000E+01  0.50000000000E+01 0. -1.
</event>
<event>
 4    1  0.5017912E-001  0.5000050E+01  0.7818608E-02  0.2136455E+00
        -11   -1    0    0    0    0  0.00000000000E+00  0.00000000000E+00  0.50000499739E+01  0.50000500000E+01  0.51100000000E-03 0. -1.
         11   -1    0    0    0    0 -0.00000000000E+00 -0.00000000000E+00 -0.50000499739E+01  0.50000500000E+01  0.51100000000E-03 0.  1.
     100001    1    1    2    0    0 -0.24556243068E-02  0.12808806688E-01 -0.18163338913E-01  0.50000500000E+01  0.50000000000E+01 0.  1.
     100001    1    1    2    0    0  0.24556243068E-02 -0.12808806688E-01  0.18163338913E-01  0.50000500000E+01  0.50000000000E+01 0. -1.
</event>
<event>
 4    1  0.5017912E-001  0.5000050E+01  0.7818608E-02  0.2136455E+00
        -11   -1    0    0    0    0  0.00000000000E+00  0.00000000000E+00  0.50000499739E+01  0.50000500000E+01  0.51100000000E-03 0. -1.
         11   -1    0    0    0    0 -0.00000000000E+00 -0.00000000000E+00 -0.50000499739E+01  0.50000500000E+01  0.51100000000E-03 0.  1.
     100001    1    1    2    0    0 -0.21001845086E-01 -0.66790834502E-02 -0.37834966933E-02  0.50000500000E+01  0.50000000000E+01 0. -1.
     100001    1    1    2    0    0  0.21001845086E-01  0.66790834502E-02  0.37834966933E-02  0.50000500000E+01  0.50000000000E+01 0.  0.
</event>
<event>
 4    1  0.5017912E-001  0.5000050E+01  0.7818608E-02  0.2136455E+00
        -11   -1    0    0    0    0  0.00000000000E+00  0.00000000000E+00  0.50000499739E+01  0.50000500000E+01  0.51100000000E-03 0.  1.
         11   -1    0    0    0    0 -0.00000000000E+00 -0.00000000000E+00 -0.50000499739E+01  0.50000500000E+01  0.51100000000E-03 0. -1.
     100001    1    1    2    0    0  0.69814095633E-02 -0.59702661576E-02 -0.20386719759E-01  0.50000500000E+01  0.50000000000E+01 0. -1.
     100001    1    1    2    0    0 -0.69814095633E-02  0.59702661576E-02  0.20386719759E-01  0.50000500000E+01  0.50000000000E+01 0.  0.
</event>
<event>
 4    1  0.5017912E-001  0.5000050E+01  0.7818608E-02  0.2136455E+00
        -11   -1    0    0    0    0  0.00000000000E+00  0.00000000000E+00  0.50000499739E+01  0.50000500000E+01  0.51100000000E-03 0.  1.
         11   -1    0    0    0    0 -0.00000000000E+00 -0.00000000000E+00 -0.50000499739E+01  0.50000500000E+01  0.51100000000E-03 0. -1.
     100001    1    1    2    0    0  0.91958103233E-02 -0.95232685356E-03  0.20360074805E-01  0.50000500000E+01  0.50000000000E+01 0.  1.
     100001    1    1    2    0    0 -0.91958103233E-02  0.95232685356E-03 -0.20360074805E-01  0.50000500000E+01  0.50000000000E+01 0.  0.
</event>
<event>
 4    1  0.5017912E-001  0.5000050E+01  0.7818608E-02  0.2136455E+00
        -11   -1    0    0    0    0  0.00000000000E+00  0.00000000000E+00  0.50000499739E+01  0.50000500000E+01  0.51100000000E-03 0.  1.
         11   -1    0    0    0    0 -0.00000000000E+00 -0.00000000000E+00 -0.50000499739E+01  0.50000500000E+01  0.51100000000E-03 0. -1.
     100001    1    1    2    0    0  0.13924386402E-01  0.16532038044E-01 -0.57276244148E-02  0.50000500000E+01  0.50000000000E+01 0. -1.
     100001    1    1    2    0    0 -0.13924386402E-01 -0.16532038044E-01  0.57276244148E-02  0.50000500000E+01  0.50000000000E+01 0.  1.
</event>
<event>
 4    1  0.5017912E-001  0.5000050E+01  0.7818608E-02  0.2136455E+00
        -11   -1    0    0    0    0  0.00000000000E+00  0.00000000000E+00  0.50000499739E+01  0.50000500000E+01  0.51100000000E-03 0.  1.
         11   -1    0    0    0    0 -0.00000000000E+00 -0.00000000000E+00 -0.50000499739E+01  0.50000500000E+01  0.51100000000E-03 0. -1.
     100001    1    1    2    0    0 -0.13063861515E-01 -0.17174652007E-01  0.58625379098E-02  0.50000500000E+01  0.50000000000E+01 0.  0.
     100001    1    1    2    0    0  0.13063861515E-01  0.17174652007E-01 -0.58625379098E-02  0.50000500000E+01  0.50000000000E+01 0.  1.
</event>
<event>
 4    1  0.5017912E-001  0.5000050E+01  0.7818608E-02  0.2136455E+00
        -11   -1    0    0    0    0  0.00000000000E+00  0.00000000000E+00  0.50000499739E+01  0.50000500000E+01  0.51100000000E-03 0. -1.
         11   -1    0    0    0    0 -0.00000000000E+00 -0.00000000000E+00 -0.50000499739E+01  0.50000500000E+01  0.51100000000E-03 0.  1.
     100001    1    1    2    0    0  0.67231455589E-02  0.70213232463E-02  0.20137100925E-01  0.50000500000E+01  0.50000000000E+01 0. -1.
     100001    1    1    2    0    0 -0.67231455589E-02 -0.70213232463E-02 -0.20137100925E-01  0.50000500000E+01  0.50000000000E+01 0.  0.
</event>
<event>
 4    1  0.5017912E-001  0.5000050E+01  0.7818608E-02  0.2136455E+00
        -11   -1    0    0    0    0  0.00000000000E+00  0.00000000000E+00  0.50000499739E+01  0.50000500000E+01  0.51100000000E-03 0.  1.
         11   -1    0    0    0    0 -0.00000000000E+00 -0.00000000000E+00 -0.50000499739E+01  0.50000500000E+01  0.51100000000E-03 0. -1.
     100001    1    1    2    0    0 -0.16196716786E-01  0.13734745071E-01 -0.70018314166E-02  0.50000500000E+01  0.50000000000E+01 0. -1.
     100001    1    1    2    0    0  0.16196716786E-01 -0.13734745071E-01  0.70018314166E-02  0.50000500000E+01  0.50000000000E+01 0. -1.
</event>
<event>
 4    1  0.5017912E-001  0.5000050E+01  0.7818608E-02  0.2136455E+00
        -11   -1    0    0    0    0  0.00000000000E+00  0.00000000000E+00  0.50000499739E+01  0.50000500000E+01  0.51100000000E-03 0.  1.
         11   -1    0    0    0    0 -0.00000000000E+00 -0.00000000000E+00 -0.50000499739E+01  0.50000500000E+01  0.51100000000E-03 0. -1.
     100001    1    1    2    0    0  0.41687202355E-04  0.22355277756E-01  0.49225868009E-03  0.50000500000E+01  0.50000000000E+01 0. -1.
     100001    1    1    2    0    0 -0.41687202355E-04 -0.22355277756E-01 -0.49225868009E-03  0.50000500000E+01  0.50000000000E+01 0.  1.
</event>
<event>
 4    1  0.5017912E-001  0.5000050E+01  0.7818608E-02  0.2136455E+00
        -11   -1    0    0    0    0  0.00000000000E+00  0.00000000000E+00  0.50000499739E+01  0.50000500000E+01  0.51100000000E-03 0. -1.
         11   -1    0    0    0    0 -0.00000000000E+00 -0.00000000000E+00 -0.50000499739E+01  0.50000500000E+01  0.51100000000E-03 0.  1.
     100001    1    1    2    0    0  0.17817110507E-01 -0.11222380712E-01 -0.75240444133E-02  0.50000500000E+01  0.50000000000E+01 0. -1.
     100001    1    1    2    0    0 -0.17817110507E-01  0.11222380712E-01  0.75240444133E-02  0.50000500000E+01  0.50000000000E+01 0.  0.
</event>
<event>
 4    1  0.5017912E-001  0.5000050E+01  0.7818608E-02  0.2136455E+00
        -11   -1    0    0    0    0  0.00000000000E+00  0.00000000000E+00  0.50000499739E+01  0.50000500000E+01  0.51100000000E-03 0.  1.
         11   -1    0    0    0    0 -0.00000000000E+00 -0.00000000000E+00 -0.50000499739E+01  0.50000500000E+01  0.51100000000E-03 0. -1.
     100001    1    1    2    0    0 -0.57836661564E-03  0.18617291211E-01  0.12371922244E-01  0.50000500000E+01  0.50000000000E+01 0.  0.
     100001    1    1    2    0    0  0.57836661564E-03 -0.18617291211E-01 -0.12371922244E-01  0.50000500000E+01  0.50000000000E+01 0.  1.
</event>
<event>
 4    1  0.5017912E-001  0.5000050E+01  0.7818608E-02  0.2136455E+00
        -11   -1    0    0    0    0  0.00000000000E+00  0.00000000000E+00  0.50000499739E+01  0.50000500000E+01  0.51100000000E-03 0.  1.
         11   -1    0    0    0    0 -0.00000000000E+00 -0.00000000000E+00 -0.50000499739E+01  0.50000500000E+01  0.51100000000E-03 0. -1.
     100001    1    1    2    0    0  0.15124233647E-01  0.14052126347E-01  0.85905646910E-02  0.50000500000E+01  0.50000000000E+01 0.  0.
     100001    1    1    2    0    0 -0.15124233647E-01 -0.14052126347E-01 -0.85905646910E-02  0.50000500000E+01  0.50000000000E+01 0.  0.
</event>
<event>
 4    1  0.5017912E-001  0.5000050E+01  0.7818608E-02  0.2136455E+00
        -11   -1    0    0    0    0  0.00000000000E+00  0.00000000000E+00  0.50000499739E+01  0.50000500000E+01  0.51100000000E-03 0. -1.
         11   -1    0    0    0    0 -0.00000000000E+00 -0.00000000000E+00 -0.50000499739E+01  0.50000500000E+01  0.51100000000E-03 0.  1.
     100001    1    1    2    0    0 -0.52727476066E-02  0.21661067128E-01  0.17317053894E-02  0.50000500000E+01  0.50000000000E+01 0. -1.
     100001    1    1    2    0    0  0.52727476066E-02 -0.21661067128E-01 -0.17317053894E-02  0.50000500000E+01  0.50000000000E+01 0.  1.
</event>
<event>
 4    1  0.5017912E-001  0.5000050E+01  0.7818608E-02  0.2136455E+00
        -11   -1    0    0    0    0  0.00000000000E+00  0.00000000000E+00  0.50000499739E+01  0.50000500000E+01  0.51100000000E-03 0.  1.
         11   -1    0    0    0    0 -0.00000000000E+00 -0.00000000000E+00 -0.50000499739E+01  0.50000500000E+01  0.51100000000E-03 0. -1.
     100001    1    1    2    0    0 -0.98318035319E-02 -0.47268609599E-02 -0.19519091290E-01  0.50000500000E+01  0.50000000000E+01 0. -1.
     100001    1    1    2    0    0  0.98318035319E-02  0.47268609599E-02  0.19519091290E-01  0.50000500000E+01  0.50000000000E+01 0.  1.
</event>
<event>
 4    1  0.5017912E-001  0.5000050E+01  0.7818608E-02  0.2136455E+00
        -11   -1    0    0    0    0  0.00000000000E+00  0.00000000000E+00  0.50000499739E+01  0.50000500000E+01  0.51100000000E-03 0. -1.
         11   -1    0    0    0    0 -0.00000000000E+00 -0.00000000000E+00 -0.50000499739E+01  0.50000500000E+01  0.51100000000E-03 0.  1.
     100001    1    1    2    0    0  0.15171512023E-02 -0.75091475413E-02 -0.21007461899E-01  0.50000500000E+01  0.50000000000E+01 0.  1.
     100001    1    1    2    0    0 -0.15171512023E-02  0.75091475413E-02  0.21007461899E-01  0.50000500000E+01  0.50000000000E+01 0.  0.
</event>
<event>
 4    1  0.5017912E-001  0.5000050E+01  0.7818608E-02  0.2136455E+00
        -11   -1    0    0    0    0  0.00000000000E+00  0.00000000000E+00  0.50000499739E+01  0.50000500000E+01  0.51100000000E-03 0.  1.
         11   -1    0    0    0    0 -0.00000000000E+00 -0.00000000000E+00 -0.50000499739E+01  0.50000500000E+01  0.51100000000E-03 0. -1.
     100001    1    1    2    0    0 -0.19005104416E-01  0.10604628578E-01 -0.51332600622E-02  0.50000500000E+01  0.50000000000E+01 0. -1.
     100001    1    1    2    0    0  0.19005104416E-01 -0.10604628578E-01  0.51332600622E-02  0.50000500000E+01  0.50000000000E+01 0.  1.
</event>
<event>
 4    1  0.5017912E-001  0.5000050E+01  0.7818608E-02  0.2136455E+00
        -11   -1    0    0    0    0  0.00000000000E+00  0.00000000000E+00  0.50000499739E+01  0.50000500000E+01  0.51100000000E-03 0. -1.
         11   -1    0    0    0    0 -0.00000000000E+00 -0.00000000000E+00 -0.50000499739E+01  0.50000500000E+01  0.51100000000E-03 0.  1.
     100001    1    1    2    0    0 -0.26107004564E-02  0.94610205959E-02  0.20091685654E-01  0.50000500000E+01  0.50000000000E+01 0.  0.
     100001    1    1    2    0    0  0.26107004564E-02 -0.94610205959E-02 -0.20091685654E-01  0.50000500000E+01  0.50000000000E+01 0. -1.
</event>
<event>
 4    1  0.5017912E-001  0.5000050E+01  0.7818608E-02  0.2136455E+00
        -11   -1    0    0    0    0  0.00000000000E+00  0.00000000000E+00  0.50000499739E+01  0.50000500000E+01  0.51100000000E-03 0. -1.
         11   -1    0    0    0    0 -0.00000000000E+00 -0.00000000000E+00 -0.50000499739E+01  0.50000500000E+01  0.51100000000E-03 0.  1.
     100001    1    1    2    0    0 -0.11497226001E-01  0.41995600357E-03 -0.19173938856E-01  0.50000500000E+01  0.50000000000E+01 0.  1.
     100001    1    1    2    0    0  0.11497226001E-01 -0.41995600357E-03  0.19173938856E-01  0.50000500000E+01  0.50000000000E+01 0.  1.
</event>
<event>
 4    1  0.5017912E-001  0.5000050E+01  0.7818608E-02  0.2136455E+00
        -11   -1    0    0    0    0  0.00000000000E+00  0.00000000000E+00  0.50000499739E+01  0.50000500000E+01  0.51100000000E-03 0.  1.
         11   -1    0    0    0    0 -0.00000000000E+00 -0.00000000000E+00 -0.50000499739E+01  0.50000500000E+01  0.51100000000E-03 0. -1.
     100001    1    1    2    0    0 -0.91675943687E-02 -0.27059156821E-02 -0.20214740508E-01  0.50000500000E+01  0.50000000000E+01 0.  0.
     100001    1    1    2    0    0  0.91675943687E-02  0.27059156821E-02  0.20214740508E-01  0.50000500000E+01  0.50000000000E+01 0.  0.
</event>
<event>
 4    1  0.5017912E-001  0.5000050E+01  0.7818608E-02  0.2136455E+00
        -11   -1    0    0    0    0  0.00000000000E+00  0.00000000000E+00  0.50000499739E+01  0.50000500000E+01  0.51100000000E-03 0. -1.
         11   -1    0    0    0    0 -0.00000000000E+00 -0.00000000000E+00 -0.50000499739E+01  0.50000500000E+01  0.51100000000E-03 0.  1.
     100001    1    1    2    0    0 -0.12187009382E-01  0.11860191022E-01  0.14519475585E-01  0.50000500000E+01  0.50000000000E+01 0.  0.
     100001    1    1    2    0    0  0.12187009382E-01 -0.11860191022E-01 -0.14519475585E-01  0.50000500000E+01  0.50000000000E+01 0. -1.
</event>
<event>
 4    1  0.5017912E-001  0.5000050E+01  0.7818608E-02  0.2136455E+00
        -11   -1    0    0    0    0  0.00000000000E+00  0.00000000000E+00  0.50000499739E+01  0.50000500000E+01  0.51100000000E-03 0. -1.
         11   -1    0    0    0    0 -0.00000000000E+00 -0.00000000000E+00 -0.50000499739E+01  0.50000500000E+01  0.51100000000E-03 0.  1.
     100001    1    1    2    0    0 -0.15319146050E-01  0.15019814202E-01  0.63032884778E-02  0.50000500000E+01  0.50000000000E+01 0.  1.
     100001    1    1    2    0    0  0.15319146050E-01 -0.15019814202E-01 -0.63032884778E-02  0.50000500000E+01  0.50000000000E+01 0.  1.
</event>
<event>
 4    1  0.5017912E-001  0.5000050E+01  0.7818608E-02  0.2136455E+00
        -11   -1    0    0    0    0  0.00000000000E+00  0.00000000000E+00  0.50000499739E+01  0.50000500000E+01  0.51100000000E-03 0.  1.
         11   -1    0    0    0    0 -0.00000000000E+00 -0.00000000000E+00 -0.50000499739E+01  0.50000500000E+01  0.51100000000E-03 0. -1.
     100001    1    1    2    0    0  0.20265905753E-01  0.11200936260E-02 -0.93830141366E-02  0.50000500000E+01  0.50000000000E+01 0. -1.
     100001    1    1    2    0    0 -0.20265905753E-01 -0.11200936260E-02  0.93830141366E-02  0.50000500000E+01  0.50000000000E+01 0.  1.
</event>
<event>
 4    1  0.5017912E-001  0.5000050E+01  0.7818608E-02  0.2136455E+00
        -11   -1    0    0    0    0  0.00000000000E+00  0.00000000000E+00  0.50000499739E+01  0.50000500000E+01  0.51100000000E-03 0. -1.
         11   -1    0    0    0    0 -0.00000000000E+00 -0.00000000000E+00 -0.50000499739E+01  0.50000500000E+01  0.51100000000E-03 0.  1.
     100001    1    1    2    0    0  0.92275215807E-02  0.20203547435E-01 -0.25830246862E-02  0.50000500000E+01  0.50000000000E+01 0.  1.
     100001    1    1    2    0    0 -0.92275215807E-02 -0.20203547435E-01  0.25830246862E-02  0.50000500000E+01  0.50000000000E+01 0.  0.
</event>
<event>
 4    1  0.5017912E-001  0.5000050E+01  0.7818608E-02  0.2136455E+00
        -11   -1    0    0    0    0  0.00000000000E+00  0.00000000000E+00  0.50000499739E+01  0.50000500000E+01  0.51100000000E-03 0.  1.
         11   -1    0    0    0    0 -0.00000000000E+00 -0.00000000000E+00 -0.50000499739E+01  0.50000500000E+01  0.51100000000E-03 0. -1.
     100001    1    1    2    0    0 -0.13212860854E-01 -0.37186111213E-02 -0.17652046323E-01  0.50000500000E+01  0.50000000000E+01 0.  0.
     100001    1    1    2    0    0  0.13212860854E-01  0.37186111213E-02  0.17652046323E-01  0.50000500000E+01  0.50000000000E+01 0.  0.
</event>
<event>
 4    1  0.5017912E-001  0.5000050E+01  0.7818608E-02  0.2136455E+00
        -11   -1    0    0    0    0  0.00000000000E+00  0.00000000000E+00  0.50000499739E+01  0.50000500000E+01  0.51100000000E-03 0.  1.
         11   -1    0    0    0    0 -0.00000000000E+00 -0.00000000000E+00 -0.50000499739E+01  0.50000500000E+01  0.51100000000E-03 0. -1.
     100001    1    1    2    0    0  0.22255591111E-01  0.19422156175E-02 -0.95862547158E-03  0.50000500000E+01  0.50000000000E+01 0. -1.
     100001    1    1    2    0    0 -0.22255591111E-01 -0.19422156175E-02  0.95862547158E-03  0.50000500000E+01  0.50000000000E+01 0.  1.
</event>
<event>
 4    1  0.5017912E-001  0.5000050E+01  0.7818608E-02  0.2136455E+00
        -11   -1    0    0    0    0  0.00000000000E+00  0.00000000000E+00  0.50000499739E+01  0.50000500000E+01  0.51100000000E-03 0.  1.
         11   -1    0    0    0    0 -0.00000000000E+00 -0.00000000000E+00 -0.50000499739E+01  0.50000500000E+01  0.51100000000E-03 0. -1.
     100001    1    1    2    0    0  0.16464275865E-01  0.25591670800E-02 -0.14912437229E-01  0.50000500000E+01  0.50000000000E+01 0.  0.
     100001    1    1    2    0    0 -0.16464275865E-01 -0.25591670800E-02  0.14912437229E-01  0.50000500000E+01  0.50000000000E+01 0. -1.
</event>
<event>
 4    1  0.5017912E-001  0.5000050E+01  0.7818608E-02  0.2136455E+00
        -11   -1    0    0    0    0  0.00000000000E+00  0.00000000000E+00  0.50000499739E+01  0.50000500000E+01  0.51100000000E-03 0.  1.
         11   -1    0    0    0    0 -0.00000000000E+00 -0.00000000000E+00 -0.50000499739E+01  0.50000500000E+01  0.51100000000E-03 0. -1.
     100001    1    1    2    0    0 -0.87769865038E-02 -0.16493062709E-01  0.12286003842E-01  0.50000500000E+01  0.50000000000E+01 0.  0.
     100001    1    1    2    0    0  0.87769865038E-02  0.16493062709E-01 -0.12286003842E-01  0.50000500000E+01  0.50000000000E+01 0.  0.
</event>
<event>
 4    1  0.5017912E-001  0.5000050E+01  0.7818608E-02  0.2136455E+00
        -11   -1    0    0    0    0  0.00000000000E+00  0.00000000000E+00  0.50000499739E+01  0.50000500000E+01  0.51100000000E-03 0.  1.
         11   -1    0    0    0    0 -0.00000000000E+00 -0.00000000000E+00 -0.50000499739E+01  0.50000500000E+01  0.51100000000E-03 0. -1.
     100001    1    1    2    0    0  0.17288709344E-01 -0.92757327326E-02  0.10726780109E-01  0.50000500000E+01  0.50000000000E+01 0. -1.
     100001    1    1    2    0    0 -0.17288709344E-01  0.92757327326E-02 -0.10726780109E-01  0.50000500000E+01  0.50000000000E+01 0.  0.
</event>
<event>
 4    1  0.5017912E-001  0.5000050E+01  0.7818608E-02  0.2136455E+00
        -11   -1    0    0    0    0  0.00000000000E+00  0.00000000000E+00  0.50000499739E+01  0.50000500000E+01  0.51100000000E-03 0.  1.
         11   -1    0    0    0    0 -0.00000000000E+00 -0.00000000000E+00 -0.50000499739E+01  0.50000500000E+01  0.51100000000E-03 0. -1.
     100001    1    1    2    0    0 -0.37987228657E-02 -0.73346734082E-02  0.20779190807E-01  0.50000500000E+01  0.50000000000E+01 0.  0.
     100001    1    1    2    0    0  0.37987228657E-02  0.73346734082E-02 -0.20779190807E-01  0.50000500000E+01  0.50000000000E+01 0. -1.
</event>
<event>
 4    1  0.5017912E-001  0.5000050E+01  0.7818608E-02  0.2136455E+00
        -11   -1    0    0    0    0  0.00000000000E+00  0.00000000000E+00  0.50000499739E+01  0.50000500000E+01  0.51100000000E-03 0. -1.
         11   -1    0    0    0    0 -0.00000000000E+00 -0.00000000000E+00 -0.50000499739E+01  0.50000500000E+01  0.51100000000E-03 0.  1.
     100001    1    1    2    0    0 -0.86323317464E-03  0.94652021263E-02 -0.20240239060E-01  0.50000500000E+01  0.50000000000E+01 0.  1.
     100001    1    1    2    0    0  0.86323317464E-03 -0.94652021263E-02  0.20240239060E-01  0.50000500000E+01  0.50000000000E+01 0. -1.
</event>
<event>
 4    1  0.5017912E-001  0.5000050E+01  0.7818608E-02  0.2136455E+00
        -11   -1    0    0    0    0  0.00000000000E+00  0.00000000000E+00  0.50000499739E+01  0.50000500000E+01  0.51100000000E-03 0.  1.
         11   -1    0    0    0    0 -0.00000000000E+00 -0.00000000000E+00 -0.50000499739E+01  0.50000500000E+01  0.51100000000E-03 0. -1.
     100001    1    1    2    0    0  0.45740698763E-02  0.15840087838E-01 -0.15105363354E-01  0.50000500000E+01  0.50000000000E+01 0. -1.
     100001    1    1    2    0    0 -0.45740698763E-02 -0.15840087838E-01  0.15105363354E-01  0.50000500000E+01  0.50000000000E+01 0.  1.
</event>
<event>
 4    1  0.5017912E-001  0.5000050E+01  0.7818608E-02  0.2136455E+00
        -11   -1    0    0    0    0  0.00000000000E+00  0.00000000000E+00  0.50000499739E+01  0.50000500000E+01  0.51100000000E-03 0.  1.
         11   -1    0    0    0    0 -0.00000000000E+00 -0.00000000000E+00 -0.50000499739E+01  0.50000500000E+01  0.51100000000E-03 0. -1.
     100001    1    1    2    0    0 -0.20995600957E-01 -0.12951340323E-02  0.75835261119E-02  0.50000500000E+01  0.50000000000E+01 0.  1.
     100001    1    1    2    0    0  0.20995600957E-01  0.12951340323E-02 -0.75835261119E-02  0.50000500000E+01  0.50000000000E+01 0. -1.
</event>
<event>
 4    1  0.5017912E-001  0.5000050E+01  0.7818608E-02  0.2136455E+00
        -11   -1    0    0    0    0  0.00000000000E+00  0.00000000000E+00  0.50000499739E+01  0.50000500000E+01  0.51100000000E-03 0. -1.
         11   -1    0    0    0    0 -0.00000000000E+00 -0.00000000000E+00 -0.50000499739E+01  0.50000500000E+01  0.51100000000E-03 0.  1.
     100001    1    1    2    0    0  0.44598742242E-02 -0.20410733770E-01  0.79695651613E-02  0.50000500000E+01  0.50000000000E+01 0.  0.
     100001    1    1    2    0    0 -0.44598742242E-02  0.20410733770E-01 -0.79695651613E-02  0.50000500000E+01  0.50000000000E+01 0.  0.
</event>
<event>
 4    1  0.5017912E-001  0.5000050E+01  0.7818608E-02  0.2136455E+00
        -11   -1    0    0    0    0  0.00000000000E+00  0.00000000000E+00  0.50000499739E+01  0.50000500000E+01  0.51100000000E-03 0.  1.
         11   -1    0    0    0    0 -0.00000000000E+00 -0.00000000000E+00 -0.50000499739E+01  0.50000500000E+01  0.51100000000E-03 0. -1.
     100001    1    1    2    0    0  0.18793103949E-01  0.53492301881E-02  0.10872326355E-01  0.50000500000E+01  0.50000000000E+01 0.  1.
     100001    1    1    2    0    0 -0.18793103949E-01 -0.53492301881E-02 -0.10872326355E-01  0.50000500000E+01  0.50000000000E+01 0. -1.
</event>
<event>
 4    1  0.5017912E-001  0.5000050E+01  0.7818608E-02  0.2136455E+00
        -11   -1    0    0    0    0  0.00000000000E+00  0.00000000000E+00  0.50000499739E+01  0.50000500000E+01  0.51100000000E-03 0.  1.
         11   -1    0    0    0    0 -0.00000000000E+00 -0.00000000000E+00 -0.50000499739E+01  0.50000500000E+01  0.51100000000E-03 0. -1.
     100001    1    1    2    0    0  0.20796153625E-01 -0.17322848230E-02  0.80325390566E-02  0.50000500000E+01  0.50000000000E+01 0.  1.
     100001    1    1    2    0    0 -0.20796153625E-01  0.17322848230E-02 -0.80325390566E-02  0.50000500000E+01  0.50000000000E+01 0. -1.
</event>
<event>
 4    1  0.5017912E-001  0.5000050E+01  0.7818608E-02  0.2136455E+00
        -11   -1    0    0    0    0  0.00000000000E+00  0.00000000000E+00  0.50000499739E+01  0.50000500000E+01  0.51100000000E-03 0.  1.
         11   -1    0    0    0    0 -0.00000000000E+00 -0.00000000000E+00 -0.50000499739E+01  0.50000500000E+01  0.51100000000E-03 0. -1.
     100001    1    1    2    0    0  0.19606307301E-01  0.19899519263E-02 -0.10565760993E-01  0.50000500000E+01  0.50000000000E+01 0. -1.
     100001    1    1    2    0    0 -0.19606307301E-01 -0.19899519263E-02  0.10565760993E-01  0.50000500000E+01  0.50000000000E+01 0.  1.
</event>
<event>
 4    1  0.5017912E-001  0.5000050E+01  0.7818608E-02  0.2136455E+00
        -11   -1    0    0    0    0  0.00000000000E+00  0.00000000000E+00  0.50000499739E+01  0.50000500000E+01  0.51100000000E-03 0.  1.
         11   -1    0    0    0    0 -0.00000000000E+00 -0.00000000000E+00 -0.50000499739E+01  0.50000500000E+01  0.51100000000E-03 0. -1.
     100001    1    1    2    0    0  0.12349492385E-01  0.20401962563E-02 -0.18529169897E-01  0.50000500000E+01  0.50000000000E+01 0.  0.
     100001    1    1    2    0    0 -0.12349492385E-01 -0.20401962563E-02  0.18529169897E-01  0.50000500000E+01  0.50000000000E+01 0.  1.
</event>
<event>
 4    1  0.5017912E-001  0.5000050E+01  0.7818608E-02  0.2136455E+00
        -11   -1    0    0    0    0  0.00000000000E+00  0.00000000000E+00  0.50000499739E+01  0.50000500000E+01  0.51100000000E-03 0. -1.
         11   -1    0    0    0    0 -0.00000000000E+00 -0.00000000000E+00 -0.50000499739E+01  0.50000500000E+01  0.51100000000E-03 0.  1.
     100001    1    1    2    0    0 -0.10299881278E-01  0.35041427232E-02  0.19535504330E-01  0.50000500000E+01  0.50000000000E+01 0.  0.
     100001    1    1    2    0    0  0.10299881278E-01 -0.35041427232E-02 -0.19535504330E-01  0.50000500000E+01  0.50000000000E+01 0.  1.
</event>
<event>
 4    1  0.5017912E-001  0.5000050E+01  0.7818608E-02  0.2136455E+00
        -11   -1    0    0    0    0  0.00000000000E+00  0.00000000000E+00  0.50000499739E+01  0.50000500000E+01  0.51100000000E-03 0. -1.
         11   -1    0    0    0    0 -0.00000000000E+00 -0.00000000000E+00 -0.50000499739E+01  0.50000500000E+01  0.51100000000E-03 0.  1.
     100001    1    1    2    0    0  0.33850008249E-02 -0.23450169766E-02 -0.21978288486E-01  0.50000500000E+01  0.50000000000E+01 0.  1.
     100001    1    1    2    0    0 -0.33850008249E-02  0.23450169766E-02  0.21978288486E-01  0.50000500000E+01  0.50000000000E+01 0.  0.
</event>
<event>
 4    1  0.5017912E-001  0.5000050E+01  0.7818608E-02  0.2136455E+00
        -11   -1    0    0    0    0  0.00000000000E+00  0.00000000000E+00  0.50000499739E+01  0.50000500000E+01  0.51100000000E-03 0.  1.
         11   -1    0    0    0    0 -0.00000000000E+00 -0.00000000000E+00 -0.50000499739E+01  0.50000500000E+01  0.51100000000E-03 0. -1.
     100001    1    1    2    0    0  0.42965628119E-02 -0.21930087031E-01  0.78315439531E-03  0.50000500000E+01  0.50000000000E+01 0.  1.
     100001    1    1    2    0    0 -0.42965628119E-02  0.21930087031E-01 -0.78315439531E-03  0.50000500000E+01  0.50000000000E+01 0. -1.
</event>
<event>
 4    1  0.5017912E-001  0.5000050E+01  0.7818608E-02  0.2136455E+00
        -11   -1    0    0    0    0  0.00000000000E+00  0.00000000000E+00  0.50000499739E+01  0.50000500000E+01  0.51100000000E-03 0.  1.
         11   -1    0    0    0    0 -0.00000000000E+00 -0.00000000000E+00 -0.50000499739E+01  0.50000500000E+01  0.51100000000E-03 0. -1.
     100001    1    1    2    0    0  0.16115099266E-02 -0.12189455126E-01  0.18676796285E-01  0.50000500000E+01  0.50000000000E+01 0.  1.
     100001    1    1    2    0    0 -0.16115099266E-02  0.12189455126E-01 -0.18676796285E-01  0.50000500000E+01  0.50000000000E+01 0.  0.
</event>
<event>
 4    1  0.5017912E-001  0.5000050E+01  0.7818608E-02  0.2136455E+00
        -11   -1    0    0    0    0  0.00000000000E+00  0.00000000000E+00  0.50000499739E+01  0.50000500000E+01  0.51100000000E-03 0. -1.
         11   -1    0    0    0    0 -0.00000000000E+00 -0.00000000000E+00 -0.50000499739E+01  0.50000500000E+01  0.51100000000E-03 0.  1.
     100001    1    1    2    0    0 -0.11864636385E-01 -0.18835545151E-01  0.21107208038E-02  0.50000500000E+01  0.50000000000E+01 0.  0.
     100001    1    1    2    0    0  0.11864636385E-01  0.18835545151E-01 -0.21107208038E-02  0.50000500000E+01  0.50000000000E+01 0. -1.
</event>
<event>
 4    1  0.5017912E-001  0.5000050E+01  0.7818608E-02  0.2136455E+00
        -11   -1    0    0    0    0  0.00000000000E+00  0.00000000000E+00  0.50000499739E+01  0.50000500000E+01  0.51100000000E-03 0. -1.
         11   -1    0    0    0    0 -0.00000000000E+00 -0.00000000000E+00 -0.50000499739E+01  0.50000500000E+01  0.51100000000E-03 0.  1.
     100001    1    1    2    0    0  0.20656501411E-01 -0.32802526819E-02 -0.79089437846E-02  0.50000500000E+01  0.50000000000E+01 0.  1.
     100001    1    1    2    0    0 -0.20656501411E-01  0.32802526819E-02  0.79089437846E-02  0.50000500000E+01  0.50000000000E+01 0.  0.
</event>
<event>
 4    1  0.5017912E-001  0.5000050E+01  0.7818608E-02  0.2136455E+00
        -11   -1    0    0    0    0  0.00000000000E+00  0.00000000000E+00  0.50000499739E+01  0.50000500000E+01  0.51100000000E-03 0. -1.
         11   -1    0    0    0    0 -0.00000000000E+00 -0.00000000000E+00 -0.50000499739E+01  0.50000500000E+01  0.51100000000E-03 0.  1.
     100001    1    1    2    0    0 -0.18667929593E-03 -0.21386334814E-01 -0.65262802616E-02  0.50000500000E+01  0.50000000000E+01 0.  1.
     100001    1    1    2    0    0  0.18667929593E-03  0.21386334814E-01  0.65262802616E-02  0.50000500000E+01  0.50000000000E+01 0. -1.
</event>
<event>
 4    1  0.5017912E-001  0.5000050E+01  0.7818608E-02  0.2136455E+00
        -11   -1    0    0    0    0  0.00000000000E+00  0.00000000000E+00  0.50000499739E+01  0.50000500000E+01  0.51100000000E-03 0. -1.
         11   -1    0    0    0    0 -0.00000000000E+00 -0.00000000000E+00 -0.50000499739E+01  0.50000500000E+01  0.51100000000E-03 0.  1.
     100001    1    1    2    0    0 -0.18296620592E-01 -0.43673716445E-04  0.12854348195E-01  0.50000500000E+01  0.50000000000E+01 0. -1.
     100001    1    1    2    0    0  0.18296620592E-01  0.43673716445E-04 -0.12854348195E-01  0.50000500000E+01  0.50000000000E+01 0.  1.
</event>
<event>
 4    1  0.5017912E-001  0.5000050E+01  0.7818608E-02  0.2136455E+00
        -11   -1    0    0    0    0  0.00000000000E+00  0.00000000000E+00  0.50000499739E+01  0.50000500000E+01  0.51100000000E-03 0.  1.
         11   -1    0    0    0    0 -0.00000000000E+00 -0.00000000000E+00 -0.50000499739E+01  0.50000500000E+01  0.51100000000E-03 0. -1.
     100001    1    1    2    0    0  0.17036921479E-01  0.13000283511E-01  0.63826667727E-02  0.50000500000E+01  0.50000000000E+01 0.  1.
     100001    1    1    2    0    0 -0.17036921479E-01 -0.13000283511E-01 -0.63826667727E-02  0.50000500000E+01  0.50000000000E+01 0. -1.
</event>
<event>
 4    1  0.5017912E-001  0.5000050E+01  0.7818608E-02  0.2136455E+00
        -11   -1    0    0    0    0  0.00000000000E+00  0.00000000000E+00  0.50000499739E+01  0.50000500000E+01  0.51100000000E-03 0. -1.
         11   -1    0    0    0    0 -0.00000000000E+00 -0.00000000000E+00 -0.50000499739E+01  0.50000500000E+01  0.51100000000E-03 0.  1.
     100001    1    1    2    0    0  0.16799727811E-01 -0.27281113075E-02 -0.14502725750E-01  0.50000500000E+01  0.50000000000E+01 0.  0.
     100001    1    1    2    0    0 -0.16799727811E-01  0.27281113075E-02  0.14502725750E-01  0.50000500000E+01  0.50000000000E+01 0.  1.
</event>
<event>
 4    1  0.5017912E-001  0.5000050E+01  0.7818608E-02  0.2136455E+00
        -11   -1    0    0    0    0  0.00000000000E+00  0.00000000000E+00  0.50000499739E+01  0.50000500000E+01  0.51100000000E-03 0.  1.
         11   -1    0    0    0    0 -0.00000000000E+00 -0.00000000000E+00 -0.50000499739E+01  0.50000500000E+01  0.51100000000E-03 0. -1.
     100001    1    1    2    0    0 -0.19219846285E-01  0.44794858781E-02 -0.10513525338E-01  0.50000500000E+01  0.50000000000E+01 0.  1.
     100001    1    1    2    0    0  0.19219846285E-01 -0.44794858781E-02  0.10513525338E-01  0.50000500000E+01  0.50000000000E+01 0.  0.
</event>
<event>
 4    1  0.5017912E-001  0.5000050E+01  0.7818608E-02  0.2136455E+00
        -11   -1    0    0    0    0  0.00000000000E+00  0.00000000000E+00  0.50000499739E+01  0.50000500000E+01  0.51100000000E-03 0. -1.
         11   -1    0    0    0    0 -0.00000000000E+00 -0.00000000000E+00 -0.50000499739E+01  0.50000500000E+01  0.51100000000E-03 0.  1.
     100001    1    1    2    0    0  0.39736351774E-02  0.82867208079E-02  0.20384871393E-01  0.50000500000E+01  0.50000000000E+01 0.  0.
     100001    1    1    2    0    0 -0.39736351774E-02 -0.82867208079E-02 -0.20384871393E-01  0.50000500000E+01  0.50000000000E+01 0.  1.
</event>
<event>
 4    1  0.5017912E-001  0.5000050E+01  0.7818608E-02  0.2136455E+00
        -11   -1    0    0    0    0  0.00000000000E+00  0.00000000000E+00  0.50000499739E+01  0.50000500000E+01  0.51100000000E-03 0.  1.
         11   -1    0    0    0    0 -0.00000000000E+00 -0.00000000000E+00 -0.50000499739E+01  0.50000500000E+01  0.51100000000E-03 0. -1.
     100001    1    1    2    0    0  0.16130349211E-01 -0.14417543209E-01  0.56523253748E-02  0.50000500000E+01  0.50000000000E+01 0.  0.
     100001    1    1    2    0    0 -0.16130349211E-01  0.14417543209E-01 -0.56523253748E-02  0.50000500000E+01  0.50000000000E+01 0. -1.
</event>
<event>
 4    1  0.5017912E-001  0.5000050E+01  0.7818608E-02  0.2136455E+00
        -11   -1    0    0    0    0  0.00000000000E+00  0.00000000000E+00  0.50000499739E+01  0.50000500000E+01  0.51100000000E-03 0.  1.
         11   -1    0    0    0    0 -0.00000000000E+00 -0.00000000000E+00 -0.50000499739E+01  0.50000500000E+01  0.51100000000E-03 0. -1.
     100001    1    1    2    0    0  0.10297044053E-01 -0.91772935340E-02 -0.17599734860E-01  0.50000500000E+01  0.50000000000E+01 0. -1.
     100001    1    1    2    0    0 -0.10297044053E-01  0.91772935340E-02  0.17599734860E-01  0.50000500000E+01  0.50000000000E+01 0.  0.
</event>
<event>
 4    1  0.5017912E-001  0.5000050E+01  0.7818608E-02  0.2136455E+00
        -11   -1    0    0    0    0  0.00000000000E+00  0.00000000000E+00  0.50000499739E+01  0.50000500000E+01  0.51100000000E-03 0.  1.
         11   -1    0    0    0    0 -0.00000000000E+00 -0.00000000000E+00 -0.50000499739E+01  0.50000500000E+01  0.51100000000E-03 0. -1.
     100001    1    1    2    0    0 -0.13560701787E-01 -0.10134287892E-01 -0.14608424828E-01  0.50000500000E+01  0.50000000000E+01 0.  1.
     100001    1    1    2    0    0  0.13560701787E-01  0.10134287892E-01  0.14608424828E-01  0.50000500000E+01  0.50000000000E+01 0.  0.
</event>
<event>
 4    1  0.5017912E-001  0.5000050E+01  0.7818608E-02  0.2136455E+00
        -11   -1    0    0    0    0  0.00000000000E+00  0.00000000000E+00  0.50000499739E+01  0.50000500000E+01  0.51100000000E-03 0.  1.
         11   -1    0    0    0    0 -0.00000000000E+00 -0.00000000000E+00 -0.50000499739E+01  0.50000500000E+01  0.51100000000E-03 0. -1.
     100001    1    1    2    0    0 -0.18008884764E-01 -0.46647427423E-02  0.12406560551E-01  0.50000500000E+01  0.50000000000E+01 0. -1.
     100001    1    1    2    0    0  0.18008884764E-01  0.46647427423E-02 -0.12406560551E-01  0.50000500000E+01  0.50000000000E+01 0.  0.
</event>
<event>
 4    1  0.5017912E-001  0.5000050E+01  0.7818608E-02  0.2136455E+00
        -11   -1    0    0    0    0  0.00000000000E+00  0.00000000000E+00  0.50000499739E+01  0.50000500000E+01  0.51100000000E-03 0. -1.
         11   -1    0    0    0    0 -0.00000000000E+00 -0.00000000000E+00 -0.50000499739E+01  0.50000500000E+01  0.51100000000E-03 0.  1.
     100001    1    1    2    0    0  0.12601601965E-01  0.16335857498E-01  0.86221741882E-02  0.50000500000E+01  0.50000000000E+01 0.  1.
     100001    1    1    2    0    0 -0.12601601965E-01 -0.16335857498E-01 -0.86221741882E-02  0.50000500000E+01  0.50000000000E+01 0.  1.
</event>
<event>
 4    1  0.5017912E-001  0.5000050E+01  0.7818608E-02  0.2136455E+00
        -11   -1    0    0    0    0  0.00000000000E+00  0.00000000000E+00  0.50000499739E+01  0.50000500000E+01  0.51100000000E-03 0.  1.
         11   -1    0    0    0    0 -0.00000000000E+00 -0.00000000000E+00 -0.50000499739E+01  0.50000500000E+01  0.51100000000E-03 0. -1.
     100001    1    1    2    0    0  0.21837035530E-01  0.46906602429E-02 -0.10696194405E-02  0.50000500000E+01  0.50000000000E+01 0.  1.
     100001    1    1    2    0    0 -0.21837035530E-01 -0.46906602429E-02  0.10696194405E-02  0.50000500000E+01  0.50000000000E+01 0. -1.
</event>
<event>
 4    1  0.5017912E-001  0.5000050E+01  0.7818608E-02  0.2136455E+00
        -11   -1    0    0    0    0  0.00000000000E+00  0.00000000000E+00  0.50000499739E+01  0.50000500000E+01  0.51100000000E-03 0. -1.
         11   -1    0    0    0    0 -0.00000000000E+00 -0.00000000000E+00 -0.50000499739E+01  0.50000500000E+01  0.51100000000E-03 0.  1.
     100001    1    1    2    0    0  0.17613571818E-01 -0.82564898794E-02  0.11027010596E-01  0.50000500000E+01  0.50000000000E+01 0. -1.
     100001    1    1    2    0    0 -0.17613571818E-01  0.82564898794E-02 -0.11027010596E-01  0.50000500000E+01  0.50000000000E+01 0. -1.
</event>
<event>
 4    1  0.5017912E-001  0.5000050E+01  0.7818608E-02  0.2136455E+00
        -11   -1    0    0    0    0  0.00000000000E+00  0.00000000000E+00  0.50000499739E+01  0.50000500000E+01  0.51100000000E-03 0.  1.
         11   -1    0    0    0    0 -0.00000000000E+00 -0.00000000000E+00 -0.50000499739E+01  0.50000500000E+01  0.51100000000E-03 0. -1.
     100001    1    1    2    0    0 -0.68999756395E-02 -0.94309651650E-02 -0.19064357640E-01  0.50000500000E+01  0.50000000000E+01 0. -1.
     100001    1    1    2    0    0  0.68999756395E-02  0.94309651650E-02  0.19064357640E-01  0.50000500000E+01  0.50000000000E+01 0.  1.
</event>
<event>
 4    1  0.5017912E-001  0.5000050E+01  0.7818608E-02  0.2136455E+00
        -11   -1    0    0    0    0  0.00000000000E+00  0.00000000000E+00  0.50000499739E+01  0.50000500000E+01  0.51100000000E-03 0. -1.
         11   -1    0    0    0    0 -0.00000000000E+00 -0.00000000000E+00 -0.50000499739E+01  0.50000500000E+01  0.51100000000E-03 0.  1.
     100001    1    1    2    0    0  0.79319601677E-02  0.20171432685E-01  0.54954355004E-02  0.50000500000E+01  0.50000000000E+01 0. -1.
     100001    1    1    2    0    0 -0.79319601677E-02 -0.20171432685E-01 -0.54954355004E-02  0.50000500000E+01  0.50000000000E+01 0.  0.
</event>
<event>
 4    1  0.5017912E-001  0.5000050E+01  0.7818608E-02  0.2136455E+00
        -11   -1    0    0    0    0  0.00000000000E+00  0.00000000000E+00  0.50000499739E+01  0.50000500000E+01  0.51100000000E-03 0.  1.
         11   -1    0    0    0    0 -0.00000000000E+00 -0.00000000000E+00 -0.50000499739E+01  0.50000500000E+01  0.51100000000E-03 0. -1.
     100001    1    1    2    0    0  0.32787997944E-02  0.16344301215E-01 -0.14903549567E-01  0.50000500000E+01  0.50000000000E+01 0.  0.
     100001    1    1    2    0    0 -0.32787997944E-02 -0.16344301215E-01  0.14903549567E-01  0.50000500000E+01  0.50000000000E+01 0.  0.
</event>
<event>
 4    1  0.5017912E-001  0.5000050E+01  0.7818608E-02  0.2136455E+00
        -11   -1    0    0    0    0  0.00000000000E+00  0.00000000000E+00  0.50000499739E+01  0.50000500000E+01  0.51100000000E-03 0. -1.
         11   -1    0    0    0    0 -0.00000000000E+00 -0.00000000000E+00 -0.50000499739E+01  0.50000500000E+01  0.51100000000E-03 0.  1.
     100001    1    1    2    0    0  0.61352484841E-02 -0.11536850604E-01 -0.18145586355E-01  0.50000500000E+01  0.50000000000E+01 0.  1.
     100001    1    1    2    0    0 -0.61352484841E-02  0.11536850604E-01  0.18145586355E-01  0.50000500000E+01  0.50000000000E+01 0. -1.
</event>
<event>
 4    1  0.5017912E-001  0.5000050E+01  0.7818608E-02  0.2136455E+00
        -11   -1    0    0    0    0  0.00000000000E+00  0.00000000000E+00  0.50000499739E+01  0.50000500000E+01  0.51100000000E-03 0.  1.
         11   -1    0    0    0    0 -0.00000000000E+00 -0.00000000000E+00 -0.50000499739E+01  0.50000500000E+01  0.51100000000E-03 0. -1.
     100001    1    1    2    0    0  0.36522594336E-02 -0.21708300968E-01  0.39259610448E-02  0.50000500000E+01  0.50000000000E+01 0.  1.
     100001    1    1    2    0    0 -0.36522594336E-02  0.21708300968E-01 -0.39259610448E-02  0.50000500000E+01  0.50000000000E+01 0. -1.
</event>
<event>
 4    1  0.5017912E-001  0.5000050E+01  0.7818608E-02  0.2136455E+00
        -11   -1    0    0    0    0  0.00000000000E+00  0.00000000000E+00  0.50000499739E+01  0.50000500000E+01  0.51100000000E-03 0.  1.
         11   -1    0    0    0    0 -0.00000000000E+00 -0.00000000000E+00 -0.50000499739E+01  0.50000500000E+01  0.51100000000E-03 0. -1.
     100001    1    1    2    0    0  0.11873414262E-01 -0.11182641801E-01 -0.15296177826E-01  0.50000500000E+01  0.50000000000E+01 0.  1.
     100001    1    1    2    0    0 -0.11873414262E-01  0.11182641801E-01  0.15296177826E-01  0.50000500000E+01  0.50000000000E+01 0.  1.
</event>
<event>
 4    1  0.5017912E-001  0.5000050E+01  0.7818608E-02  0.2136455E+00
        -11   -1    0    0    0    0  0.00000000000E+00  0.00000000000E+00  0.50000499739E+01  0.50000500000E+01  0.51100000000E-03 0. -1.
         11   -1    0    0    0    0 -0.00000000000E+00 -0.00000000000E+00 -0.50000499739E+01  0.50000500000E+01  0.51100000000E-03 0.  1.
     100001    1    1    2    0    0  0.14882967805E-01 -0.16488095296E-01  0.25773014617E-02  0.50000500000E+01  0.50000000000E+01 0. -1.
     100001    1    1    2    0    0 -0.14882967805E-01  0.16488095296E-01 -0.25773014617E-02  0.50000500000E+01  0.50000000000E+01 0.  1.
</event>
<event>
 4    1  0.5017912E-001  0.5000050E+01  0.7818608E-02  0.2136455E+00
        -11   -1    0    0    0    0  0.00000000000E+00  0.00000000000E+00  0.50000499739E+01  0.50000500000E+01  0.51100000000E-03 0.  1.
         11   -1    0    0    0    0 -0.00000000000E+00 -0.00000000000E+00 -0.50000499739E+01  0.50000500000E+01  0.51100000000E-03 0. -1.
     100001    1    1    2    0    0  0.13338626183E-01 -0.11554768741E-01  0.13732110941E-01  0.50000500000E+01  0.50000000000E+01 0.  0.
     100001    1    1    2    0    0 -0.13338626183E-01  0.11554768741E-01 -0.13732110941E-01  0.50000500000E+01  0.50000000000E+01 0.  0.
</event>
<event>
 4    1  0.5017912E-001  0.5000050E+01  0.7818608E-02  0.2136455E+00
        -11   -1    0    0    0    0  0.00000000000E+00  0.00000000000E+00  0.50000499739E+01  0.50000500000E+01  0.51100000000E-03 0.  1.
         11   -1    0    0    0    0 -0.00000000000E+00 -0.00000000000E+00 -0.50000499739E+01  0.50000500000E+01  0.51100000000E-03 0. -1.
     100001    1    1    2    0    0  0.13907236776E-01  0.17362009497E-01 -0.22697778462E-02  0.50000500000E+01  0.50000000000E+01 0. -1.
     100001    1    1    2    0    0 -0.13907236776E-01 -0.17362009497E-01  0.22697778462E-02  0.50000500000E+01  0.50000000000E+01 0.  1.
</event>
<event>
 4    1  0.5017912E-001  0.5000050E+01  0.7818608E-02  0.2136455E+00
        -11   -1    0    0    0    0  0.00000000000E+00  0.00000000000E+00  0.50000499739E+01  0.50000500000E+01  0.51100000000E-03 0.  1.
         11   -1    0    0    0    0 -0.00000000000E+00 -0.00000000000E+00 -0.50000499739E+01  0.50000500000E+01  0.51100000000E-03 0. -1.
     100001    1    1    2    0    0 -0.10628337534E-01 -0.19592151475E-01 -0.17856488584E-02  0.50000500000E+01  0.50000000000E+01 0. -1.
     100001    1    1    2    0    0  0.10628337534E-01  0.19592151475E-01  0.17856488584E-02  0.50000500000E+01  0.50000000000E+01 0.  0.
</event>
<event>
 4    1  0.5017912E-001  0.5000050E+01  0.7818608E-02  0.2136455E+00
        -11   -1    0    0    0    0  0.00000000000E+00  0.00000000000E+00  0.50000499739E+01  0.50000500000E+01  0.51100000000E-03 0.  1.
         11   -1    0    0    0    0 -0.00000000000E+00 -0.00000000000E+00 -0.50000499739E+01  0.50000500000E+01  0.51100000000E-03 0. -1.
     100001    1    1    2    0    0 -0.17121149447E-01 -0.32111258392E-02  0.14019893453E-01  0.50000500000E+01  0.50000000000E+01 0.  1.
     100001    1    1    2    0    0  0.17121149447E-01  0.32111258392E-02 -0.14019893453E-01  0.50000500000E+01  0.50000000000E+01 0. -1.
</event>
<event>
 4    1  0.5017912E-001  0.5000050E+01  0.7818608E-02  0.2136455E+00
        -11   -1    0    0    0    0  0.00000000000E+00  0.00000000000E+00  0.50000499739E+01  0.50000500000E+01  0.51100000000E-03 0. -1.
         11   -1    0    0    0    0 -0.00000000000E+00 -0.00000000000E+00 -0.50000499739E+01  0.50000500000E+01  0.51100000000E-03 0.  1.
     100001    1    1    2    0    0 -0.32043112977E-02  0.22117130230E-01  0.75328580976E-03  0.50000500000E+01  0.50000000000E+01 0. -1.
     100001    1    1    2    0    0  0.32043112977E-02 -0.22117130230E-01 -0.75328580976E-03  0.50000500000E+01  0.50000000000E+01 0.  1.
</event>
<event>
 4    1  0.5017912E-001  0.5000050E+01  0.7818608E-02  0.2136455E+00
        -11   -1    0    0    0    0  0.00000000000E+00  0.00000000000E+00  0.50000499739E+01  0.50000500000E+01  0.51100000000E-03 0. -1.
         11   -1    0    0    0    0 -0.00000000000E+00 -0.00000000000E+00 -0.50000499739E+01  0.50000500000E+01  0.51100000000E-03 0.  1.
     100001    1    1    2    0    0 -0.15662237774E-01 -0.13945855837E-02 -0.15898174076E-01  0.50000500000E+01  0.50000000000E+01 0.  0.
     100001    1    1    2    0    0  0.15662237774E-01  0.13945855837E-02  0.15898174076E-01  0.50000500000E+01  0.50000000000E+01 0.  0.
</event>
<event>
 4    1  0.5017912E-001  0.5000050E+01  0.7818608E-02  0.2136455E+00
        -11   -1    0    0    0    0  0.00000000000E+00  0.00000000000E+00  0.50000499739E+01  0.50000500000E+01  0.51100000000E-03 0.  1.
         11   -1    0    0    0    0 -0.00000000000E+00 -0.00000000000E+00 -0.50000499739E+01  0.50000500000E+01  0.51100000000E-03 0. -1.
     100001    1    1    2    0    0  0.13619638797E-01  0.98328009564E-02  0.14758860538E-01  0.50000500000E+01  0.50000000000E+01 0.  1.
     100001    1    1    2    0    0 -0.13619638797E-01 -0.98328009564E-02 -0.14758860538E-01  0.50000500000E+01  0.50000000000E+01 0. -1.
</event>
<event>
 4    1  0.5017912E-001  0.5000050E+01  0.7818608E-02  0.2136455E+00
        -11   -1    0    0    0    0  0.00000000000E+00  0.00000000000E+00  0.50000499739E+01  0.50000500000E+01  0.51100000000E-03 0.  1.
         11   -1    0    0    0    0 -0.00000000000E+00 -0.00000000000E+00 -0.50000499739E+01  0.50000500000E+01  0.51100000000E-03 0. -1.
     100001    1    1    2    0    0 -0.14423202995E-01  0.15817907168E-01 -0.64627802222E-02  0.50000500000E+01  0.50000000000E+01 0.  0.
     100001    1    1    2    0    0  0.14423202995E-01 -0.15817907168E-01  0.64627802222E-02  0.50000500000E+01  0.50000000000E+01 0. -1.
</event>
<event>
 4    1  0.5017912E-001  0.5000050E+01  0.7818608E-02  0.2136455E+00
        -11   -1    0    0    0    0  0.00000000000E+00  0.00000000000E+00  0.50000499739E+01  0.50000500000E+01  0.51100000000E-03 0. -1.
         11   -1    0    0    0    0 -0.00000000000E+00 -0.00000000000E+00 -0.50000499739E+01  0.50000500000E+01  0.51100000000E-03 0.  1.
     100001    1    1    2    0    0 -0.21872102411E-01 -0.17497902988E-02 -0.43071881836E-02  0.50000500000E+01  0.50000000000E+01 0.  1.
     100001    1    1    2    0    0  0.21872102411E-01  0.17497902988E-02  0.43071881836E-02  0.50000500000E+01  0.50000000000E+01 0. -1.
</event>
<event>
 4    1  0.5017912E-001  0.5000050E+01  0.7818608E-02  0.2136455E+00
        -11   -1    0    0    0    0  0.00000000000E+00  0.00000000000E+00  0.50000499739E+01  0.50000500000E+01  0.51100000000E-03 0. -1.
         11   -1    0    0    0    0 -0.00000000000E+00 -0.00000000000E+00 -0.50000499739E+01  0.50000500000E+01  0.51100000000E-03 0.  1.
     100001    1    1    2    0    0 -0.16316436872E-01 -0.12806380913E-01  0.83530231479E-02  0.50000500000E+01  0.50000000000E+01 0. -1.
     100001    1    1    2    0    0  0.16316436872E-01  0.12806380913E-01 -0.83530231479E-02  0.50000500000E+01  0.50000000000E+01 0. -1.
</event>
<event>
 4    1  0.5017912E-001  0.5000050E+01  0.7818608E-02  0.2136455E+00
        -11   -1    0    0    0    0  0.00000000000E+00  0.00000000000E+00  0.50000499739E+01  0.50000500000E+01  0.51100000000E-03 0. -1.
         11   -1    0    0    0    0 -0.00000000000E+00 -0.00000000000E+00 -0.50000499739E+01  0.50000500000E+01  0.51100000000E-03 0.  1.
     100001    1    1    2    0    0  0.50699287211E-02 -0.79221402747E-02 -0.20286399785E-01  0.50000500000E+01  0.50000000000E+01 0.  0.
     100001    1    1    2    0    0 -0.50699287211E-02  0.79221402747E-02  0.20286399785E-01  0.50000500000E+01  0.50000000000E+01 0.  0.
</event>
<event>
 4    1  0.5017912E-001  0.5000050E+01  0.7818608E-02  0.2136455E+00
        -11   -1    0    0    0    0  0.00000000000E+00  0.00000000000E+00  0.50000499739E+01  0.50000500000E+01  0.51100000000E-03 0. -1.
         11   -1    0    0    0    0 -0.00000000000E+00 -0.00000000000E+00 -0.50000499739E+01  0.50000500000E+01  0.51100000000E-03 0.  1.
     100001    1    1    2    0    0 -0.57811183545E-02 -0.12024179901E-01  0.17944365920E-01  0.50000500000E+01  0.50000000000E+01 0. -1.
     100001    1    1    2    0    0  0.57811183545E-02  0.12024179901E-01 -0.17944365920E-01  0.50000500000E+01  0.50000000000E+01 0.  1.
</event>
<event>
 4    1  0.5017912E-001  0.5000050E+01  0.7818608E-02  0.2136455E+00
        -11   -1    0    0    0    0  0.00000000000E+00  0.00000000000E+00  0.50000499739E+01  0.50000500000E+01  0.51100000000E-03 0.  1.
         11   -1    0    0    0    0 -0.00000000000E+00 -0.00000000000E+00 -0.50000499739E+01  0.50000500000E+01  0.51100000000E-03 0. -1.
     100001    1    1    2    0    0  0.10627137644E-01 -0.51056995225E-02  0.18999954681E-01  0.50000500000E+01  0.50000000000E+01 0.  0.
     100001    1    1    2    0    0 -0.10627137644E-01  0.51056995225E-02 -0.18999954681E-01  0.50000500000E+01  0.50000000000E+01 0. -1.
</event>
<event>
 4    1  0.5017912E-001  0.5000050E+01  0.7818608E-02  0.2136455E+00
        -11   -1    0    0    0    0  0.00000000000E+00  0.00000000000E+00  0.50000499739E+01  0.50000500000E+01  0.51100000000E-03 0.  1.
         11   -1    0    0    0    0 -0.00000000000E+00 -0.00000000000E+00 -0.50000499739E+01  0.50000500000E+01  0.51100000000E-03 0. -1.
     100001    1    1    2    0    0 -0.96180886222E-02  0.13258787893E-01 -0.15221675823E-01  0.50000500000E+01  0.50000000000E+01 0. -1.
     100001    1    1    2    0    0  0.96180886222E-02 -0.13258787893E-01  0.15221675823E-01  0.50000500000E+01  0.50000000000E+01 0.  1.
</event>
<event>
 4    1  0.5017912E-001  0.5000050E+01  0.7818608E-02  0.2136455E+00
        -11   -1    0    0    0    0  0.00000000000E+00  0.00000000000E+00  0.50000499739E+01  0.50000500000E+01  0.51100000000E-03 0.  1.
         11   -1    0    0    0    0 -0.00000000000E+00 -0.00000000000E+00 -0.50000499739E+01  0.50000500000E+01  0.51100000000E-03 0. -1.
     100001    1    1    2    0    0  0.20904246342E-01 -0.43691195947E-02  0.66276525904E-02  0.50000500000E+01  0.50000000000E+01 0.  1.
     100001    1    1    2    0    0 -0.20904246342E-01  0.43691195947E-02 -0.66276525904E-02  0.50000500000E+01  0.50000000000E+01 0. -1.
</event>
<event>
 4    1  0.5017912E-001  0.5000050E+01  0.7818608E-02  0.2136455E+00
        -11   -1    0    0    0    0  0.00000000000E+00  0.00000000000E+00  0.50000499739E+01  0.50000500000E+01  0.51100000000E-03 0. -1.
         11   -1    0    0    0    0 -0.00000000000E+00 -0.00000000000E+00 -0.50000499739E+01  0.50000500000E+01  0.51100000000E-03 0.  1.
     100001    1    1    2    0    0  0.70256139680E-02 -0.19615800292E-01 -0.81156409032E-02  0.50000500000E+01  0.50000000000E+01 0. -1.
     100001    1    1    2    0    0 -0.70256139680E-02  0.19615800292E-01  0.81156409032E-02  0.50000500000E+01  0.50000000000E+01 0.  1.
</event>
<event>
 4    1  0.5017912E-001  0.5000050E+01  0.7818608E-02  0.2136455E+00
        -11   -1    0    0    0    0  0.00000000000E+00  0.00000000000E+00  0.50000499739E+01  0.50000500000E+01  0.51100000000E-03 0.  1.
         11   -1    0    0    0    0 -0.00000000000E+00 -0.00000000000E+00 -0.50000499739E+01  0.50000500000E+01  0.51100000000E-03 0. -1.
     100001    1    1    2    0    0  0.51356368402E-02  0.40581323051E-02 -0.21381283788E-01  0.50000500000E+01  0.50000000000E+01 0. -1.
     100001    1    1    2    0    0 -0.51356368402E-02 -0.40581323051E-02  0.21381283788E-01  0.50000500000E+01  0.50000000000E+01 0.  0.
</event>
<event>
 4    1  0.5017912E-001  0.5000050E+01  0.7818608E-02  0.2136455E+00
        -11   -1    0    0    0    0  0.00000000000E+00  0.00000000000E+00  0.50000499739E+01  0.50000500000E+01  0.51100000000E-03 0. -1.
         11   -1    0    0    0    0 -0.00000000000E+00 -0.00000000000E+00 -0.50000499739E+01  0.50000500000E+01  0.51100000000E-03 0.  1.
     100001    1    1    2    0    0  0.53929489908E-02 -0.47636065486E-02 -0.21171364005E-01  0.50000500000E+01  0.50000000000E+01 0.  0.
     100001    1    1    2    0    0 -0.53929489908E-02  0.47636065486E-02  0.21171364005E-01  0.50000500000E+01  0.50000000000E+01 0. -1.
</event>
<event>
 4    1  0.5017912E-001  0.5000050E+01  0.7818608E-02  0.2136455E+00
        -11   -1    0    0    0    0  0.00000000000E+00  0.00000000000E+00  0.50000499739E+01  0.50000500000E+01  0.51100000000E-03 0. -1.
         11   -1    0    0    0    0 -0.00000000000E+00 -0.00000000000E+00 -0.50000499739E+01  0.50000500000E+01  0.51100000000E-03 0.  1.
     100001    1    1    2    0    0 -0.18564545122E-01  0.10232385639E-01 -0.71174748712E-02  0.50000500000E+01  0.50000000000E+01 0.  0.
     100001    1    1    2    0    0  0.18564545122E-01 -0.10232385639E-01  0.71174748712E-02  0.50000500000E+01  0.50000000000E+01 0.  1.
</event>
<event>
 4    1  0.5017912E-001  0.5000050E+01  0.7818608E-02  0.2136455E+00
        -11   -1    0    0    0    0  0.00000000000E+00  0.00000000000E+00  0.50000499739E+01  0.50000500000E+01  0.51100000000E-03 0.  1.
         11   -1    0    0    0    0 -0.00000000000E+00 -0.00000000000E+00 -0.50000499739E+01  0.50000500000E+01  0.51100000000E-03 0. -1.
     100001    1    1    2    0    0  0.97867604039E-02 -0.20105190692E-01  0.55928670588E-04  0.50000500000E+01  0.50000000000E+01 0.  0.
     100001    1    1    2    0    0 -0.97867604039E-02  0.20105190692E-01 -0.55928670588E-04  0.50000500000E+01  0.50000000000E+01 0. -1.
</event>
<event>
 4    1  0.5017912E-001  0.5000050E+01  0.7818608E-02  0.2136455E+00
        -11   -1    0    0    0    0  0.00000000000E+00  0.00000000000E+00  0.50000499739E+01  0.50000500000E+01  0.51100000000E-03 0. -1.
         11   -1    0    0    0    0 -0.00000000000E+00 -0.00000000000E+00 -0.50000499739E+01  0.50000500000E+01  0.51100000000E-03 0.  1.
     100001    1    1    2    0    0 -0.20649003542E-01 -0.64291429425E-02  0.56821891669E-02  0.50000500000E+01  0.50000000000E+01 0. -1.
     100001    1    1    2    0    0  0.20649003542E-01  0.64291429425E-02 -0.56821891669E-02  0.50000500000E+01  0.50000000000E+01 0.  1.
</event>
<event>
 4    1  0.5017912E-001  0.5000050E+01  0.7818608E-02  0.2136455E+00
        -11   -1    0    0    0    0  0.00000000000E+00  0.00000000000E+00  0.50000499739E+01  0.50000500000E+01  0.51100000000E-03 0. -1.
         11   -1    0    0    0    0 -0.00000000000E+00 -0.00000000000E+00 -0.50000499739E+01  0.50000500000E+01  0.51100000000E-03 0.  1.
     100001    1    1    2    0    0  0.21495039715E-01  0.55233853966E-02 -0.27309305011E-02  0.50000500000E+01  0.50000000000E+01 0.  1.
     100001    1    1    2    0    0 -0.21495039715E-01 -0.55233853966E-02  0.27309305011E-02  0.50000500000E+01  0.50000000000E+01 0.  0.
</event>
<event>
 4    1  0.5017912E-001  0.5000050E+01  0.7818608E-02  0.2136455E+00
        -11   -1    0    0    0    0  0.00000000000E+00  0.00000000000E+00  0.50000499739E+01  0.50000500000E+01  0.51100000000E-03 0.  1.
         11   -1    0    0    0    0 -0.00000000000E+00 -0.00000000000E+00 -0.50000499739E+01  0.50000500000E+01  0.51100000000E-03 0. -1.
     100001    1    1    2    0    0  0.18779546418E-01  0.10396665763E-01  0.62642220048E-02  0.50000500000E+01  0.50000000000E+01 0.  1.
     100001    1    1    2    0    0 -0.18779546418E-01 -0.10396665763E-01 -0.62642220048E-02  0.50000500000E+01  0.50000000000E+01 0. -1.
</event>
<event>
 4    1  0.5017912E-001  0.5000050E+01  0.7818608E-02  0.2136455E+00
        -11   -1    0    0    0    0  0.00000000000E+00  0.00000000000E+00  0.50000499739E+01  0.50000500000E+01  0.51100000000E-03 0. -1.
         11   -1    0    0    0    0 -0.00000000000E+00 -0.00000000000E+00 -0.50000499739E+01  0.50000500000E+01  0.51100000000E-03 0.  1.
     100001    1    1    2    0    0 -0.10888209136E-01 -0.77896786011E-02  0.17910061672E-01  0.50000500000E+01  0.50000000000E+01 0.  0.
     100001    1    1    2    0    0  0.10888209136E-01  0.77896786011E-02 -0.17910061672E-01  0.50000500000E+01  0.50000000000E+01 0.  0.
</event>
<event>
 4    1  0.5017912E-001  0.5000050E+01  0.7818608E-02  0.2136455E+00
        -11   -1    0    0    0    0  0.00000000000E+00  0.00000000000E+00  0.50000499739E+01  0.50000500000E+01  0.51100000000E-03 0. -1.
         11   -1    0    0    0    0 -0.00000000000E+00 -0.00000000000E+00 -0.50000499739E+01  0.50000500000E+01  0.51100000000E-03 0.  1.
     100001    1    1    2    0    0 -0.87347675020E-02  0.19567039391E-01 -0.63904073534E-02  0.50000500000E+01  0.50000000000E+01 0. -1.
     100001    1    1    2    0    0  0.87347675020E-02 -0.19567039391E-01  0.63904073534E-02  0.50000500000E+01  0.50000000000E+01 0.  1.
</event>
<event>
 4    1  0.5017912E-001  0.5000050E+01  0.7818608E-02  0.2136455E+00
        -11   -1    0    0    0    0  0.00000000000E+00  0.00000000000E+00  0.50000499739E+01  0.50000500000E+01  0.51100000000E-03 0. -1.
         11   -1    0    0    0    0 -0.00000000000E+00 -0.00000000000E+00 -0.50000499739E+01  0.50000500000E+01  0.51100000000E-03 0.  1.
     100001    1    1    2    0    0  0.31616733295E-02 -0.21228286124E-01 -0.62742481599E-02  0.50000500000E+01  0.50000000000E+01 0. -1.
     100001    1    1    2    0    0 -0.31616733295E-02  0.21228286124E-01  0.62742481599E-02  0.50000500000E+01  0.50000000000E+01 0.  0.
</event>
<event>
 4    1  0.5017912E-001  0.5000050E+01  0.7818608E-02  0.2136455E+00
        -11   -1    0    0    0    0  0.00000000000E+00  0.00000000000E+00  0.50000499739E+01  0.50000500000E+01  0.51100000000E-03 0.  1.
         11   -1    0    0    0    0 -0.00000000000E+00 -0.00000000000E+00 -0.50000499739E+01  0.50000500000E+01  0.51100000000E-03 0. -1.
     100001    1    1    2    0    0 -0.54902625458E-02  0.17776794980E-01 -0.12403430066E-01  0.50000500000E+01  0.50000000000E+01 0. -1.
     100001    1    1    2    0    0  0.54902625458E-02 -0.17776794980E-01  0.12403430066E-01  0.50000500000E+01  0.50000000000E+01 0.  1.
</event>
<event>
 4    1  0.5017912E-001  0.5000050E+01  0.7818608E-02  0.2136455E+00
        -11   -1    0    0    0    0  0.00000000000E+00  0.00000000000E+00  0.50000499739E+01  0.50000500000E+01  0.51100000000E-03 0. -1.
         11   -1    0    0    0    0 -0.00000000000E+00 -0.00000000000E+00 -0.50000499739E+01  0.50000500000E+01  0.51100000000E-03 0.  1.
     100001    1    1    2    0    0 -0.23789645951E-02 -0.35581545242E-02  0.21947267799E-01  0.50000500000E+01  0.50000000000E+01 0. -1.
     100001    1    1    2    0    0  0.23789645951E-02  0.35581545242E-02 -0.21947267799E-01  0.50000500000E+01  0.50000000000E+01 0.  0.
</event>
<event>
 4    1  0.5017912E-001  0.5000050E+01  0.7818608E-02  0.2136455E+00
        -11   -1    0    0    0    0  0.00000000000E+00  0.00000000000E+00  0.50000499739E+01  0.50000500000E+01  0.51100000000E-03 0. -1.
         11   -1    0    0    0    0 -0.00000000000E+00 -0.00000000000E+00 -0.50000499739E+01  0.50000500000E+01  0.51100000000E-03 0.  1.
     100001    1    1    2    0    0 -0.83085228770E-04  0.20809492855E-01  0.81829459213E-02  0.50000500000E+01  0.50000000000E+01 0. -1.
     100001    1    1    2    0    0  0.83085228770E-04 -0.20809492855E-01 -0.81829459213E-02  0.50000500000E+01  0.50000000000E+01 0.  1.
</event>
<event>
 4    1  0.5017912E-001  0.5000050E+01  0.7818608E-02  0.2136455E+00
        -11   -1    0    0    0    0  0.00000000000E+00  0.00000000000E+00  0.50000499739E+01  0.50000500000E+01  0.51100000000E-03 0.  1.
         11   -1    0    0    0    0 -0.00000000000E+00 -0.00000000000E+00 -0.50000499739E+01  0.50000500000E+01  0.51100000000E-03 0. -1.
     100001    1    1    2    0    0 -0.21885843394E-01  0.20299875584E-02  0.41099281576E-02  0.50000500000E+01  0.50000000000E+01 0.  1.
     100001    1    1    2    0    0  0.21885843394E-01 -0.20299875584E-02 -0.41099281576E-02  0.50000500000E+01  0.50000000000E+01 0.  0.
</event>
<event>
 4    1  0.5017912E-001  0.5000050E+01  0.7818608E-02  0.2136455E+00
        -11   -1    0    0    0    0  0.00000000000E+00  0.00000000000E+00  0.50000499739E+01  0.50000500000E+01  0.51100000000E-03 0. -1.
         11   -1    0    0    0    0 -0.00000000000E+00 -0.00000000000E+00 -0.50000499739E+01  0.50000500000E+01  0.51100000000E-03 0.  1.
     100001    1    1    2    0    0 -0.13915366064E-01  0.17218361150E-01  0.31453340976E-02  0.50000500000E+01  0.50000000000E+01 0. -1.
     100001    1    1    2    0    0  0.13915366064E-01 -0.17218361150E-01 -0.31453340976E-02  0.50000500000E+01  0.50000000000E+01 0.  1.
</event>
<event>
 4    1  0.5017912E-001  0.5000050E+01  0.7818608E-02  0.2136455E+00
        -11   -1    0    0    0    0  0.00000000000E+00  0.00000000000E+00  0.50000499739E+01  0.50000500000E+01  0.51100000000E-03 0.  1.
         11   -1    0    0    0    0 -0.00000000000E+00 -0.00000000000E+00 -0.50000499739E+01  0.50000500000E+01  0.51100000000E-03 0. -1.
     100001    1    1    2    0    0 -0.21331819470E-01 -0.22177833754E-02 -0.63275125456E-02  0.50000500000E+01  0.50000000000E+01 0. -1.
     100001    1    1    2    0    0  0.21331819470E-01  0.22177833754E-02  0.63275125456E-02  0.50000500000E+01  0.50000000000E+01 0.  1.
</event>
<event>
 4    1  0.5017912E-001  0.5000050E+01  0.7818608E-02  0.2136455E+00
        -11   -1    0    0    0    0  0.00000000000E+00  0.00000000000E+00  0.50000499739E+01  0.50000500000E+01  0.51100000000E-03 0.  1.
         11   -1    0    0    0    0 -0.00000000000E+00 -0.00000000000E+00 -0.50000499739E+01  0.50000500000E+01  0.51100000000E-03 0. -1.
     100001    1    1    2    0    0 -0.10749785853E-01 -0.33479604234E-02  0.19319310679E-01  0.50000500000E+01  0.50000000000E+01 0. -1.
     100001    1    1    2    0    0  0.10749785853E-01  0.33479604234E-02 -0.19319310679E-01  0.50000500000E+01  0.50000000000E+01 0. -1.
</event>
<event>
 4    1  0.5017912E-001  0.5000050E+01  0.7818608E-02  0.2136455E+00
        -11   -1    0    0    0    0  0.00000000000E+00  0.00000000000E+00  0.50000499739E+01  0.50000500000E+01  0.51100000000E-03 0. -1.
         11   -1    0    0    0    0 -0.00000000000E+00 -0.00000000000E+00 -0.50000499739E+01  0.50000500000E+01  0.51100000000E-03 0.  1.
     100001    1    1    2    0    0  0.18979073940E-01 -0.10974851424E-01 -0.43988508280E-02  0.50000500000E+01  0.50000000000E+01 0.  1.
     100001    1    1    2    0    0 -0.18979073940E-01  0.10974851424E-01  0.43988508280E-02  0.50000500000E+01  0.50000000000E+01 0.  0.
</event>
<event>
 4    1  0.5017912E-001  0.5000050E+01  0.7818608E-02  0.2136455E+00
        -11   -1    0    0    0    0  0.00000000000E+00  0.00000000000E+00  0.50000499739E+01  0.50000500000E+01  0.51100000000E-03 0.  1.
         11   -1    0    0    0    0 -0.00000000000E+00 -0.00000000000E+00 -0.50000499739E+01  0.50000500000E+01  0.51100000000E-03 0. -1.
     100001    1    1    2    0    0  0.23745017572E-02 -0.98334123984E-02 -0.19941620847E-01  0.50000500000E+01  0.50000000000E+01 0.  0.
     100001    1    1    2    0    0 -0.23745017572E-02  0.98334123984E-02  0.19941620847E-01  0.50000500000E+01  0.50000000000E+01 0.  1.
</event>
<event>
 4    1  0.5017912E-001  0.5000050E+01  0.7818608E-02  0.2136455E+00
        -11   -1    0    0    0    0  0.00000000000E+00  0.00000000000E+00  0.50000499739E+01  0.50000500000E+01  0.51100000000E-03 0. -1.
         11   -1    0    0    0    0 -0.00000000000E+00 -0.00000000000E+00 -0.50000499739E+01  0.50000500000E+01  0.51100000000E-03 0.  1.
     100001    1    1    2    0    0  0.73832844868E-03  0.64445113880E-02 -0.21399197276E-01  0.50000500000E+01  0.50000000000E+01 0.  0.
     100001    1    1    2    0    0 -0.73832844868E-03 -0.64445113880E-02  0.21399197276E-01  0.50000500000E+01  0.50000000000E+01 0.  0.
</event>
<event>
 4    1  0.5017912E-001  0.5000050E+01  0.7818608E-02  0.2136455E+00
        -11   -1    0    0    0    0  0.00000000000E+00  0.00000000000E+00  0.50000499739E+01  0.50000500000E+01  0.51100000000E-03 0.  1.
         11   -1    0    0    0    0 -0.00000000000E+00 -0.00000000000E+00 -0.50000499739E+01  0.50000500000E+01  0.51100000000E-03 0. -1.
     100001    1    1    2    0    0 -0.19330439897E-01  0.29871022705E-02  0.10835765473E-01  0.50000500000E+01  0.50000000000E+01 0. -1.
     100001    1    1    2    0    0  0.19330439897E-01 -0.29871022705E-02 -0.10835765473E-01  0.50000500000E+01  0.50000000000E+01 0.  0.
</event>
<event>
 4    1  0.5017912E-001  0.5000050E+01  0.7818608E-02  0.2136455E+00
        -11   -1    0    0    0    0  0.00000000000E+00  0.00000000000E+00  0.50000499739E+01  0.50000500000E+01  0.51100000000E-03 0. -1.
         11   -1    0    0    0    0 -0.00000000000E+00 -0.00000000000E+00 -0.50000499739E+01  0.50000500000E+01  0.51100000000E-03 0.  1.
     100001    1    1    2    0    0 -0.19669262719E-01 -0.10510897738E-01  0.16259252208E-02  0.50000500000E+01  0.50000000000E+01 0.  1.
     100001    1    1    2    0    0  0.19669262719E-01  0.10510897738E-01 -0.16259252208E-02  0.50000500000E+01  0.50000000000E+01 0.  0.
</event>
<event>
 4    1  0.5017912E-001  0.5000050E+01  0.7818608E-02  0.2136455E+00
        -11   -1    0    0    0    0  0.00000000000E+00  0.00000000000E+00  0.50000499739E+01  0.50000500000E+01  0.51100000000E-03 0. -1.
         11   -1    0    0    0    0 -0.00000000000E+00 -0.00000000000E+00 -0.50000499739E+01  0.50000500000E+01  0.51100000000E-03 0.  1.
     100001    1    1    2    0    0  0.51506498069E-02 -0.29822288742E-03  0.21757398045E-01  0.50000500000E+01  0.50000000000E+01 0.  0.
     100001    1    1    2    0    0 -0.51506498069E-02  0.29822288742E-03 -0.21757398045E-01  0.50000500000E+01  0.50000000000E+01 0.  1.
</event>
<event>
 4    1  0.5017912E-001  0.5000050E+01  0.7818608E-02  0.2136455E+00
        -11   -1    0    0    0    0  0.00000000000E+00  0.00000000000E+00  0.50000499739E+01  0.50000500000E+01  0.51100000000E-03 0. -1.
         11   -1    0    0    0    0 -0.00000000000E+00 -0.00000000000E+00 -0.50000499739E+01  0.50000500000E+01  0.51100000000E-03 0.  1.
     100001    1    1    2    0    0  0.16289190164E-01 -0.12960357794E-01  0.81666339225E-02  0.50000500000E+01  0.50000000000E+01 0. -1.
     100001    1    1    2    0    0 -0.16289190164E-01  0.12960357794E-01 -0.81666339225E-02  0.50000500000E+01  0.50000000000E+01 0.  1.
</event>
<event>
 4    1  0.5017912E-001  0.5000050E+01  0.7818608E-02  0.2136455E+00
        -11   -1    0    0    0    0  0.00000000000E+00  0.00000000000E+00  0.50000499739E+01  0.50000500000E+01  0.51100000000E-03 0. -1.
         11   -1    0    0    0    0 -0.00000000000E+00 -0.00000000000E+00 -0.50000499739E+01  0.50000500000E+01  0.51100000000E-03 0.  1.
     100001    1    1    2    0    0 -0.21909686982E-01 -0.42959427077E-02 -0.12300376337E-02  0.50000500000E+01  0.50000000000E+01 0.  1.
     100001    1    1    2    0    0  0.21909686982E-01  0.42959427077E-02  0.12300376337E-02  0.50000500000E+01  0.50000000000E+01 0. -1.
</event>
<event>
 4    1  0.5017912E-001  0.5000050E+01  0.7818608E-02  0.2136455E+00
        -11   -1    0    0    0    0  0.00000000000E+00  0.00000000000E+00  0.50000499739E+01  0.50000500000E+01  0.51100000000E-03 0. -1.
         11   -1    0    0    0    0 -0.00000000000E+00 -0.00000000000E+00 -0.50000499739E+01  0.50000500000E+01  0.51100000000E-03 0.  1.
     100001    1    1    2    0    0 -0.13030258971E-01  0.15090533770E-01  0.10123766181E-01  0.50000500000E+01  0.50000000000E+01 0.  1.
     100001    1    1    2    0    0  0.13030258971E-01 -0.15090533770E-01 -0.10123766181E-01  0.50000500000E+01  0.50000000000E+01 0.  0.
</event>
<event>
 4    1  0.5017912E-001  0.5000050E+01  0.7818608E-02  0.2136455E+00
        -11   -1    0    0    0    0  0.00000000000E+00  0.00000000000E+00  0.50000499739E+01  0.50000500000E+01  0.51100000000E-03 0. -1.
         11   -1    0    0    0    0 -0.00000000000E+00 -0.00000000000E+00 -0.50000499739E+01  0.50000500000E+01  0.51100000000E-03 0.  1.
     100001    1    1    2    0    0  0.83894047550E-02  0.19940565463E-01 -0.56563448321E-02  0.50000500000E+01  0.50000000000E+01 0. -1.
     100001    1    1    2    0    0 -0.83894047550E-02 -0.19940565463E-01  0.56563448321E-02  0.50000500000E+01  0.50000000000E+01 0.  1.
</event>
<event>
 4    1  0.5017912E-001  0.5000050E+01  0.7818608E-02  0.2136455E+00
        -11   -1    0    0    0    0  0.00000000000E+00  0.00000000000E+00  0.50000499739E+01  0.50000500000E+01  0.51100000000E-03 0. -1.
         11   -1    0    0    0    0 -0.00000000000E+00 -0.00000000000E+00 -0.50000499739E+01  0.50000500000E+01  0.51100000000E-03 0.  1.
     100001    1    1    2    0    0  0.12385282922E-01 -0.15721900807E-01 -0.99714142411E-02  0.50000500000E+01  0.50000000000E+01 0. -1.
     100001    1    1    2    0    0 -0.12385282922E-01  0.15721900807E-01  0.99714142411E-02  0.50000500000E+01  0.50000000000E+01 0.  0.
</event>
<event>
 4    1  0.5017912E-001  0.5000050E+01  0.7818608E-02  0.2136455E+00
        -11   -1    0    0    0    0  0.00000000000E+00  0.00000000000E+00  0.50000499739E+01  0.50000500000E+01  0.51100000000E-03 0.  1.
         11   -1    0    0    0    0 -0.00000000000E+00 -0.00000000000E+00 -0.50000499739E+01  0.50000500000E+01  0.51100000000E-03 0. -1.
     100001    1    1    2    0    0 -0.68372899366E-03 -0.22286008796E-01  0.16937610891E-02  0.50000500000E+01  0.50000000000E+01 0. -1.
     100001    1    1    2    0    0  0.68372899366E-03  0.22286008796E-01 -0.16937610891E-02  0.50000500000E+01  0.50000000000E+01 0.  1.
</event>
<event>
 4    1  0.5017912E-001  0.5000050E+01  0.7818608E-02  0.2136455E+00
        -11   -1    0    0    0    0  0.00000000000E+00  0.00000000000E+00  0.50000499739E+01  0.50000500000E+01  0.51100000000E-03 0.  1.
         11   -1    0    0    0    0 -0.00000000000E+00 -0.00000000000E+00 -0.50000499739E+01  0.50000500000E+01  0.51100000000E-03 0. -1.
     100001    1    1    2    0    0 -0.75812944726E-02 -0.56349365279E-02  0.20267559410E-01  0.50000500000E+01  0.50000000000E+01 0.  0.
     100001    1    1    2    0    0  0.75812944726E-02  0.56349365279E-02 -0.20267559410E-01  0.50000500000E+01  0.50000000000E+01 0. -1.
</event>
<event>
 4    1  0.5017912E-001  0.5000050E+01  0.7818608E-02  0.2136455E+00
        -11   -1    0    0    0    0  0.00000000000E+00  0.00000000000E+00  0.50000499739E+01  0.50000500000E+01  0.51100000000E-03 0. -1.
         11   -1    0    0    0    0 -0.00000000000E+00 -0.00000000000E+00 -0.50000499739E+01  0.50000500000E+01  0.51100000000E-03 0.  1.
     100001    1    1    2    0    0  0.92008503323E-02  0.11944685283E-01 -0.16512763144E-01  0.50000500000E+01  0.50000000000E+01 0. -1.
     100001    1    1    2    0    0 -0.92008503323E-02 -0.11944685283E-01  0.16512763144E-01  0.50000500000E+01  0.50000000000E+01 0. -1.
</event>
<event>
 4    1  0.5017912E-001  0.5000050E+01  0.7818608E-02  0.2136455E+00
        -11   -1    0    0    0    0  0.00000000000E+00  0.00000000000E+00  0.50000499739E+01  0.50000500000E+01  0.51100000000E-03 0. -1.
         11   -1    0    0    0    0 -0.00000000000E+00 -0.00000000000E+00 -0.50000499739E+01  0.50000500000E+01  0.51100000000E-03 0.  1.
     100001    1    1    2    0    0  0.37797940969E-02 -0.12619562083E-01  0.18068268025E-01  0.50000500000E+01  0.50000000000E+01 0.  0.
     100001    1    1    2    0    0 -0.37797940969E-02  0.12619562083E-01 -0.18068268025E-01  0.50000500000E+01  0.50000000000E+01 0.  0.
</event>
<event>
 4    1  0.5017912E-001  0.5000050E+01  0.7818608E-02  0.2136455E+00
        -11   -1    0    0    0    0  0.00000000000E+00  0.00000000000E+00  0.50000499739E+01  0.50000500000E+01  0.51100000000E-03 0. -1.
         11   -1    0    0    0    0 -0.00000000000E+00 -0.00000000000E+00 -0.50000499739E+01  0.50000500000E+01  0.51100000000E-03 0.  1.
     100001    1    1    2    0    0  0.96107279707E-02  0.20163928048E-01  0.10258720828E-02  0.50000500000E+01  0.50000000000E+01 0.  0.
     100001    1    1    2    0    0 -0.96107279707E-02 -0.20163928048E-01 -0.10258720828E-02  0.50000500000E+01  0.50000000000E+01 0.  1.
</event>
<event>
 4    1  0.5017912E-001  0.5000050E+01  0.7818608E-02  0.2136455E+00
        -11   -1    0    0    0    0  0.00000000000E+00  0.00000000000E+00  0.50000499739E+01  0.50000500000E+01  0.51100000000E-03 0. -1.
         11   -1    0    0    0    0 -0.00000000000E+00 -0.00000000000E+00 -0.50000499739E+01  0.50000500000E+01  0.51100000000E-03 0.  1.
     100001    1    1    2    0    0  0.88957178594E-03  0.22144312425E-01 -0.29733128431E-02  0.50000500000E+01  0.50000000000E+01 0.  0.
     100001    1    1    2    0    0 -0.88957178594E-03 -0.22144312425E-01  0.29733128431E-02  0.50000500000E+01  0.50000000000E+01 0.  1.
</event>
<event>
 4    1  0.5017912E-001  0.5000050E+01  0.7818608E-02  0.2136455E+00
        -11   -1    0    0    0    0  0.00000000000E+00  0.00000000000E+00  0.50000499739E+01  0.50000500000E+01  0.51100000000E-03 0. -1.
         11   -1    0    0    0    0 -0.00000000000E+00 -0.00000000000E+00 -0.50000499739E+01  0.50000500000E+01  0.51100000000E-03 0.  1.
     100001    1    1    2    0    0 -0.13041753895E-01 -0.93297424461E-02 -0.15584321006E-01  0.50000500000E+01  0.50000000000E+01 0.  1.
     100001    1    1    2    0    0  0.13041753895E-01  0.93297424461E-02  0.15584321006E-01  0.50000500000E+01  0.50000000000E+01 0. -1.
</event>
<event>
 4    1  0.5017912E-001  0.5000050E+01  0.7818608E-02  0.2136455E+00
        -11   -1    0    0    0    0  0.00000000000E+00  0.00000000000E+00  0.50000499739E+01  0.50000500000E+01  0.51100000000E-03 0. -1.
         11   -1    0    0    0    0 -0.00000000000E+00 -0.00000000000E+00 -0.50000499739E+01  0.50000500000E+01  0.51100000000E-03 0.  1.
     100001    1    1    2    0    0 -0.72906720558E-03 -0.78357368772E-02 -0.20930174118E-01  0.50000500000E+01  0.50000000000E+01 0.  0.
     100001    1    1    2    0    0  0.72906720558E-03  0.78357368772E-02  0.20930174118E-01  0.50000500000E+01  0.50000000000E+01 0. -1.
</event>
<event>
 4    1  0.5017912E-001  0.5000050E+01  0.7818608E-02  0.2136455E+00
        -11   -1    0    0    0    0  0.00000000000E+00  0.00000000000E+00  0.50000499739E+01  0.50000500000E+01  0.51100000000E-03 0.  1.
         11   -1    0    0    0    0 -0.00000000000E+00 -0.00000000000E+00 -0.50000499739E+01  0.50000500000E+01  0.51100000000E-03 0. -1.
     100001    1    1    2    0    0 -0.80708835123E-02  0.35643295790E-02 -0.20546505639E-01  0.50000500000E+01  0.50000000000E+01 0.  0.
     100001    1    1    2    0    0  0.80708835123E-02 -0.35643295790E-02  0.20546505639E-01  0.50000500000E+01  0.50000000000E+01 0.  1.
</event>
<event>
 4    1  0.5017912E-001  0.5000050E+01  0.7818608E-02  0.2136455E+00
        -11   -1    0    0    0    0  0.00000000000E+00  0.00000000000E+00  0.50000499739E+01  0.50000500000E+01  0.51100000000E-03 0. -1.
         11   -1    0    0    0    0 -0.00000000000E+00 -0.00000000000E+00 -0.50000499739E+01  0.50000500000E+01  0.51100000000E-03 0.  1.
     100001    1    1    2    0    0 -0.16496684846E-01 -0.15032620186E-01  0.13719400171E-02  0.50000500000E+01  0.50000000000E+01 0.  1.
     100001    1    1    2    0    0  0.16496684846E-01  0.15032620186E-01 -0.13719400171E-02  0.50000500000E+01  0.50000000000E+01 0. -1.
</event>
<event>
 4    1  0.5017912E-001  0.5000050E+01  0.7818608E-02  0.2136455E+00
        -11   -1    0    0    0    0  0.00000000000E+00  0.00000000000E+00  0.50000499739E+01  0.50000500000E+01  0.51100000000E-03 0.  1.
         11   -1    0    0    0    0 -0.00000000000E+00 -0.00000000000E+00 -0.50000499739E+01  0.50000500000E+01  0.51100000000E-03 0. -1.
     100001    1    1    2    0    0  0.44947612670E-02  0.15721764094E-01 -0.15252073791E-01  0.50000500000E+01  0.50000000000E+01 0. -1.
     100001    1    1    2    0    0 -0.44947612670E-02 -0.15721764094E-01  0.15252073791E-01  0.50000500000E+01  0.50000000000E+01 0.  0.
</event>
<event>
 4    1  0.5017912E-001  0.5000050E+01  0.7818608E-02  0.2136455E+00
        -11   -1    0    0    0    0  0.00000000000E+00  0.00000000000E+00  0.50000499739E+01  0.50000500000E+01  0.51100000000E-03 0. -1.
         11   -1    0    0    0    0 -0.00000000000E+00 -0.00000000000E+00 -0.50000499739E+01  0.50000500000E+01  0.51100000000E-03 0.  1.
     100001    1    1    2    0    0 -0.46526246985E-02  0.13943135125E-01 -0.16850654773E-01  0.50000500000E+01  0.50000000000E+01 0.  0.
     100001    1    1    2    0    0  0.46526246985E-02 -0.13943135125E-01  0.16850654773E-01  0.50000500000E+01  0.50000000000E+01 0. -1.
</event>
<event>
 4    1  0.5017912E-001  0.5000050E+01  0.7818608E-02  0.2136455E+00
        -11   -1    0    0    0    0  0.00000000000E+00  0.00000000000E+00  0.50000499739E+01  0.50000500000E+01  0.51100000000E-03 0. -1.
         11   -1    0    0    0    0 -0.00000000000E+00 -0.00000000000E+00 -0.50000499739E+01  0.50000500000E+01  0.51100000000E-03 0.  1.
     100001    1    1    2    0    0 -0.40780886412E-02 -0.53819083940E-02  0.21316818596E-01  0.50000500000E+01  0.50000000000E+01 0. -1.
     100001    1    1    2    0    0  0.40780886412E-02  0.53819083940E-02 -0.21316818596E-01  0.50000500000E+01  0.50000000000E+01 0.  0.
</event>
<event>
 4    1  0.5017912E-001  0.5000050E+01  0.7818608E-02  0.2136455E+00
        -11   -1    0    0    0    0  0.00000000000E+00  0.00000000000E+00  0.50000499739E+01  0.50000500000E+01  0.51100000000E-03 0.  1.
         11   -1    0    0    0    0 -0.00000000000E+00 -0.00000000000E+00 -0.50000499739E+01  0.50000500000E+01  0.51100000000E-03 0. -1.
     100001    1    1    2    0    0  0.85403067527E-02 -0.20592823461E-01 -0.17324209875E-02  0.50000500000E+01  0.50000000000E+01 0. -1.
     100001    1    1    2    0    0 -0.85403067527E-02  0.20592823461E-01  0.17324209875E-02  0.50000500000E+01  0.50000000000E+01 0.  1.
</event>
<event>
 4    1  0.5017912E-001  0.5000050E+01  0.7818608E-02  0.2136455E+00
        -11   -1    0    0    0    0  0.00000000000E+00  0.00000000000E+00  0.50000499739E+01  0.50000500000E+01  0.51100000000E-03 0.  1.
         11   -1    0    0    0    0 -0.00000000000E+00 -0.00000000000E+00 -0.50000499739E+01  0.50000500000E+01  0.51100000000E-03 0. -1.
     100001    1    1    2    0    0  0.14938330481E-01  0.81854267055E-02  0.14486116529E-01  0.50000500000E+01  0.50000000000E+01 0.  1.
     100001    1    1    2    0    0 -0.14938330481E-01 -0.81854267055E-02 -0.14486116529E-01  0.50000500000E+01  0.50000000000E+01 0. -1.
</event>
<event>
 4    1  0.5017912E-001  0.5000050E+01  0.7818608E-02  0.2136455E+00
        -11   -1    0    0    0    0  0.00000000000E+00  0.00000000000E+00  0.50000499739E+01  0.50000500000E+01  0.51100000000E-03 0.  1.
         11   -1    0    0    0    0 -0.00000000000E+00 -0.00000000000E+00 -0.50000499739E+01  0.50000500000E+01  0.51100000000E-03 0. -1.
     100001    1    1    2    0    0 -0.32002916995E-02  0.18727307221E-01 -0.11791886927E-01  0.50000500000E+01  0.50000000000E+01 0. -1.
     100001    1    1    2    0    0  0.32002916995E-02 -0.18727307221E-01  0.11791886927E-01  0.50000500000E+01  0.50000000000E+01 0.  1.
</event>
<event>
 4    1  0.5017912E-001  0.5000050E+01  0.7818608E-02  0.2136455E+00
        -11   -1    0    0    0    0  0.00000000000E+00  0.00000000000E+00  0.50000499739E+01  0.50000500000E+01  0.51100000000E-03 0. -1.
         11   -1    0    0    0    0 -0.00000000000E+00 -0.00000000000E+00 -0.50000499739E+01  0.50000500000E+01  0.51100000000E-03 0.  1.
     100001    1    1    2    0    0 -0.61564802370E-02  0.17841004175E-01  0.11991614616E-01  0.50000500000E+01  0.50000000000E+01 0.  0.
     100001    1    1    2    0    0  0.61564802370E-02 -0.17841004175E-01 -0.11991614616E-01  0.50000500000E+01  0.50000000000E+01 0. -1.
</event>
<event>
 4    1  0.5017912E-001  0.5000050E+01  0.7818608E-02  0.2136455E+00
        -11   -1    0    0    0    0  0.00000000000E+00  0.00000000000E+00  0.50000499739E+01  0.50000500000E+01  0.51100000000E-03 0. -1.
         11   -1    0    0    0    0 -0.00000000000E+00 -0.00000000000E+00 -0.50000499739E+01  0.50000500000E+01  0.51100000000E-03 0.  1.
     100001    1    1    2    0    0 -0.12116504450E-01 -0.16311506029E-01 -0.93342161409E-02  0.50000500000E+01  0.50000000000E+01 0.  1.
     100001    1    1    2    0    0  0.12116504450E-01  0.16311506029E-01  0.93342161409E-02  0.50000500000E+01  0.50000000000E+01 0. -1.
</event>
<event>
 4    1  0.5017912E-001  0.5000050E+01  0.7818608E-02  0.2136455E+00
        -11   -1    0    0    0    0  0.00000000000E+00  0.00000000000E+00  0.50000499739E+01  0.50000500000E+01  0.51100000000E-03 0. -1.
         11   -1    0    0    0    0 -0.00000000000E+00 -0.00000000000E+00 -0.50000499739E+01  0.50000500000E+01  0.51100000000E-03 0.  1.
     100001    1    1    2    0    0  0.22000155626E-01  0.20085206171E-02  0.34585397724E-02  0.50000500000E+01  0.50000000000E+01 0. -1.
     100001    1    1    2    0    0 -0.22000155626E-01 -0.20085206171E-02 -0.34585397724E-02  0.50000500000E+01  0.50000000000E+01 0.  0.
</event>
<event>
 4    1  0.5017912E-001  0.5000050E+01  0.7818608E-02  0.2136455E+00
        -11   -1    0    0    0    0  0.00000000000E+00  0.00000000000E+00  0.50000499739E+01  0.50000500000E+01  0.51100000000E-03 0.  1.
         11   -1    0    0    0    0 -0.00000000000E+00 -0.00000000000E+00 -0.50000499739E+01  0.50000500000E+01  0.51100000000E-03 0. -1.
     100001    1    1    2    0    0  0.19670469831E-01 -0.20932767985E-02 -0.10425608322E-01  0.50000500000E+01  0.50000000000E+01 0.  0.
     100001    1    1    2    0    0 -0.19670469831E-01  0.20932767985E-02  0.10425608322E-01  0.50000500000E+01  0.50000000000E+01 0.  0.
</event>
<event>
 4    1  0.5017912E-001  0.5000050E+01  0.7818608E-02  0.2136455E+00
        -11   -1    0    0    0    0  0.00000000000E+00  0.00000000000E+00  0.50000499739E+01  0.50000500000E+01  0.51100000000E-03 0.  1.
         11   -1    0    0    0    0 -0.00000000000E+00 -0.00000000000E+00 -0.50000499739E+01  0.50000500000E+01  0.51100000000E-03 0. -1.
     100001    1    1    2    0    0  0.88073458596E-02  0.15509645225E-01  0.13486440001E-01  0.50000500000E+01  0.50000000000E+01 0.  0.
     100001    1    1    2    0    0 -0.88073458596E-02 -0.15509645225E-01 -0.13486440001E-01  0.50000500000E+01  0.50000000000E+01 0.  0.
</event>
<event>
 4    1  0.5017912E-001  0.5000050E+01  0.7818608E-02  0.2136455E+00
        -11   -1    0    0    0    0  0.00000000000E+00  0.00000000000E+00  0.50000499739E+01  0.50000500000E+01  0.51100000000E-03 0.  1.
         11   -1    0    0    0    0 -0.00000000000E+00 -0.00000000000E+00 -0.50000499739E+01  0.50000500000E+01  0.51100000000E-03 0. -1.
     100001    1    1    2    0    0  0.42277873710E-02 -0.12147853196E-01 -0.18290926075E-01  0.50000500000E+01  0.50000000000E+01 0. -1.
     100001    1    1    2    0    0 -0.42277873710E-02  0.12147853196E-01  0.18290926075E-01  0.50000500000E+01  0.50000000000E+01 0.  1.
</event>
<event>
 4    1  0.5017912E-001  0.5000050E+01  0.7818608E-02  0.2136455E+00
        -11   -1    0    0    0    0  0.00000000000E+00  0.00000000000E+00  0.50000499739E+01  0.50000500000E+01  0.51100000000E-03 0.  1.
         11   -1    0    0    0    0 -0.00000000000E+00 -0.00000000000E+00 -0.50000499739E+01  0.50000500000E+01  0.51100000000E-03 0. -1.
     100001    1    1    2    0    0 -0.14064905324E-02 -0.87241016396E-02  0.20540553424E-01  0.50000500000E+01  0.50000000000E+01 0.  1.
     100001    1    1    2    0    0  0.14064905324E-02  0.87241016396E-02 -0.20540553424E-01  0.50000500000E+01  0.50000000000E+01 0.  0.
</event>
<event>
 4    1  0.5017912E-001  0.5000050E+01  0.7818608E-02  0.2136455E+00
        -11   -1    0    0    0    0  0.00000000000E+00  0.00000000000E+00  0.50000499739E+01  0.50000500000E+01  0.51100000000E-03 0.  1.
         11   -1    0    0    0    0 -0.00000000000E+00 -0.00000000000E+00 -0.50000499739E+01  0.50000500000E+01  0.51100000000E-03 0. -1.
     100001    1    1    2    0    0  0.15650978246E-01 -0.74127957964E-02  0.14145665005E-01  0.50000500000E+01  0.50000000000E+01 0.  0.
     100001    1    1    2    0    0 -0.15650978246E-01  0.74127957964E-02 -0.14145665005E-01  0.50000500000E+01  0.50000000000E+01 0.  0.
</event>
<event>
 4    1  0.5017912E-001  0.5000050E+01  0.7818608E-02  0.2136455E+00
        -11   -1    0    0    0    0  0.00000000000E+00  0.00000000000E+00  0.50000499739E+01  0.50000500000E+01  0.51100000000E-03 0.  1.
         11   -1    0    0    0    0 -0.00000000000E+00 -0.00000000000E+00 -0.50000499739E+01  0.50000500000E+01  0.51100000000E-03 0. -1.
     100001    1    1    2    0    0 -0.14484382785E-01 -0.14650689080E-01 -0.86926673012E-02  0.50000500000E+01  0.50000000000E+01 0. -1.
     100001    1    1    2    0    0  0.14484382785E-01  0.14650689080E-01  0.86926673012E-02  0.50000500000E+01  0.50000000000E+01 0.  1.
</event>
<event>
 4    1  0.5017912E-001  0.5000050E+01  0.7818608E-02  0.2136455E+00
        -11   -1    0    0    0    0  0.00000000000E+00  0.00000000000E+00  0.50000499739E+01  0.50000500000E+01  0.51100000000E-03 0. -1.
         11   -1    0    0    0    0 -0.00000000000E+00 -0.00000000000E+00 -0.50000499739E+01  0.50000500000E+01  0.51100000000E-03 0.  1.
     100001    1    1    2    0    0 -0.34989423704E-02  0.59143634747E-02 -0.21278632639E-01  0.50000500000E+01  0.50000000000E+01 0.  0.
     100001    1    1    2    0    0  0.34989423704E-02 -0.59143634747E-02  0.21278632639E-01  0.50000500000E+01  0.50000000000E+01 0.  0.
</event>
<event>
 4    1  0.5017912E-001  0.5000050E+01  0.7818608E-02  0.2136455E+00
        -11   -1    0    0    0    0  0.00000000000E+00  0.00000000000E+00  0.50000499739E+01  0.50000500000E+01  0.51100000000E-03 0. -1.
         11   -1    0    0    0    0 -0.00000000000E+00 -0.00000000000E+00 -0.50000499739E+01  0.50000500000E+01  0.51100000000E-03 0.  1.
     100001    1    1    2    0    0  0.19588632135E-01  0.10747890052E-01 -0.87798091433E-03  0.50000500000E+01  0.50000000000E+01 0.  0.
     100001    1    1    2    0    0 -0.19588632135E-01 -0.10747890052E-01  0.87798091433E-03  0.50000500000E+01  0.50000000000E+01 0. -1.
</event>
<event>
 4    1  0.5017912E-001  0.5000050E+01  0.7818608E-02  0.2136455E+00
        -11   -1    0    0    0    0  0.00000000000E+00  0.00000000000E+00  0.50000499739E+01  0.50000500000E+01  0.51100000000E-03 0.  1.
         11   -1    0    0    0    0 -0.00000000000E+00 -0.00000000000E+00 -0.50000499739E+01  0.50000500000E+01  0.51100000000E-03 0. -1.
     100001    1    1    2    0    0  0.92156291047E-02  0.13685776770E-01 -0.15092189848E-01  0.50000500000E+01  0.50000000000E+01 0.  0.
     100001    1    1    2    0    0 -0.92156291047E-02 -0.13685776770E-01  0.15092189848E-01  0.50000500000E+01  0.50000000000E+01 0.  0.
</event>
<event>
 4    1  0.5017912E-001  0.5000050E+01  0.7818608E-02  0.2136455E+00
        -11   -1    0    0    0    0  0.00000000000E+00  0.00000000000E+00  0.50000499739E+01  0.50000500000E+01  0.51100000000E-03 0. -1.
         11   -1    0    0    0    0 -0.00000000000E+00 -0.00000000000E+00 -0.50000499739E+01  0.50000500000E+01  0.51100000000E-03 0.  1.
     100001    1    1    2    0    0  0.11097263222E-01  0.16956034827E-01 -0.94523082860E-02  0.50000500000E+01  0.50000000000E+01 0.  0.
     100001    1    1    2    0    0 -0.11097263222E-01 -0.16956034827E-01  0.94523082860E-02  0.50000500000E+01  0.50000000000E+01 0.  1.
</event>
<event>
 4    1  0.5017912E-001  0.5000050E+01  0.7818608E-02  0.2136455E+00
        -11   -1    0    0    0    0  0.00000000000E+00  0.00000000000E+00  0.50000499739E+01  0.50000500000E+01  0.51100000000E-03 0.  1.
         11   -1    0    0    0    0 -0.00000000000E+00 -0.00000000000E+00 -0.50000499739E+01  0.50000500000E+01  0.51100000000E-03 0. -1.
     100001    1    1    2    0    0  0.45103380194E-03  0.17635980407E-01 -0.13739405503E-01  0.50000500000E+01  0.50000000000E+01 0. -1.
     100001    1    1    2    0    0 -0.45103380194E-03 -0.17635980407E-01  0.13739405503E-01  0.50000500000E+01  0.50000000000E+01 0.  1.
</event>
<event>
 4    1  0.5017912E-001  0.5000050E+01  0.7818608E-02  0.2136455E+00
        -11   -1    0    0    0    0  0.00000000000E+00  0.00000000000E+00  0.50000499739E+01  0.50000500000E+01  0.51100000000E-03 0. -1.
         11   -1    0    0    0    0 -0.00000000000E+00 -0.00000000000E+00 -0.50000499739E+01  0.50000500000E+01  0.51100000000E-03 0.  1.
     100001    1    1    2    0    0  0.15560312544E-01 -0.18879801015E-02 -0.15947247558E-01  0.50000500000E+01  0.50000000000E+01 0.  0.
     100001    1    1    2    0    0 -0.15560312544E-01  0.18879801015E-02  0.15947247558E-01  0.50000500000E+01  0.50000000000E+01 0.  0.
</event>
<event>
 4    1  0.5017912E-001  0.5000050E+01  0.7818608E-02  0.2136455E+00
        -11   -1    0    0    0    0  0.00000000000E+00  0.00000000000E+00  0.50000499739E+01  0.50000500000E+01  0.51100000000E-03 0.  1.
         11   -1    0    0    0    0 -0.00000000000E+00 -0.00000000000E+00 -0.50000499739E+01  0.50000500000E+01  0.51100000000E-03 0. -1.
     100001    1    1    2    0    0 -0.46017319552E-03  0.37881351483E-02 -0.22032720502E-01  0.50000500000E+01  0.50000000000E+01 0. -1.
     100001    1    1    2    0    0  0.46017319552E-03 -0.37881351483E-02  0.22032720502E-01  0.50000500000E+01  0.50000000000E+01 0.  0.
</event>
<event>
 4    1  0.5017912E-001  0.5000050E+01  0.7818608E-02  0.2136455E+00
        -11   -1    0    0    0    0  0.00000000000E+00  0.00000000000E+00  0.50000499739E+01  0.50000500000E+01  0.51100000000E-03 0.  1.
         11   -1    0    0    0    0 -0.00000000000E+00 -0.00000000000E+00 -0.50000499739E+01  0.50000500000E+01  0.51100000000E-03 0. -1.
     100001    1    1    2    0    0  0.13621143944E-01  0.17482701719E-01  0.29701983564E-02  0.50000500000E+01  0.50000000000E+01 0.  0.
     100001    1    1    2    0    0 -0.13621143944E-01 -0.17482701719E-01 -0.29701983564E-02  0.50000500000E+01  0.50000000000E+01 0.  1.
</event>
<event>
 4    1  0.5017912E-001  0.5000050E+01  0.7818608E-02  0.2136455E+00
        -11   -1    0    0    0    0  0.00000000000E+00  0.00000000000E+00  0.50000499739E+01  0.50000500000E+01  0.51100000000E-03 0. -1.
         11   -1    0    0    0    0 -0.00000000000E+00 -0.00000000000E+00 -0.50000499739E+01  0.50000500000E+01  0.51100000000E-03 0.  1.
     100001    1    1    2    0    0 -0.74852750179E-02 -0.12867752036E-01  0.16685146551E-01  0.50000500000E+01  0.50000000000E+01 0. -1.
     100001    1    1    2    0    0  0.74852750179E-02  0.12867752036E-01 -0.16685146551E-01  0.50000500000E+01  0.50000000000E+01 0.  1.
</event>
<event>
 4    1  0.5017912E-001  0.5000050E+01  0.7818608E-02  0.2136455E+00
        -11   -1    0    0    0    0  0.00000000000E+00  0.00000000000E+00  0.50000499739E+01  0.50000500000E+01  0.51100000000E-03 0.  1.
         11   -1    0    0    0    0 -0.00000000000E+00 -0.00000000000E+00 -0.50000499739E+01  0.50000500000E+01  0.51100000000E-03 0. -1.
     100001    1    1    2    0    0  0.60778527451E-02  0.18704816733E-01  0.10639174639E-01  0.50000500000E+01  0.50000000000E+01 0.  1.
     100001    1    1    2    0    0 -0.60778527451E-02 -0.18704816733E-01 -0.10639174639E-01  0.50000500000E+01  0.50000000000E+01 0. -1.
</event>
<event>
 4    1  0.5017912E-001  0.5000050E+01  0.7818608E-02  0.2136455E+00
        -11   -1    0    0    0    0  0.00000000000E+00  0.00000000000E+00  0.50000499739E+01  0.50000500000E+01  0.51100000000E-03 0.  1.
         11   -1    0    0    0    0 -0.00000000000E+00 -0.00000000000E+00 -0.50000499739E+01  0.50000500000E+01  0.51100000000E-03 0. -1.
     100001    1    1    2    0    0 -0.14609151608E-01 -0.78832420242E-02 -0.14980977421E-01  0.50000500000E+01  0.50000000000E+01 0. -1.
     100001    1    1    2    0    0  0.14609151608E-01  0.78832420242E-02  0.14980977421E-01  0.50000500000E+01  0.50000000000E+01 0. -1.
</event>
<event>
 4    1  0.5017912E-001  0.5000050E+01  0.7818608E-02  0.2136455E+00
        -11   -1    0    0    0    0  0.00000000000E+00  0.00000000000E+00  0.50000499739E+01  0.50000500000E+01  0.51100000000E-03 0.  1.
         11   -1    0    0    0    0 -0.00000000000E+00 -0.00000000000E+00 -0.50000499739E+01  0.50000500000E+01  0.51100000000E-03 0. -1.
     100001    1    1    2    0    0  0.25827090366E-02 -0.16050738197E-01  0.15352716937E-01  0.50000500000E+01  0.50000000000E+01 0.  0.
     100001    1    1    2    0    0 -0.25827090366E-02  0.16050738197E-01 -0.15352716937E-01  0.50000500000E+01  0.50000000000E+01 0.  0.
</event>
<event>
 4    1  0.5017912E-001  0.5000050E+01  0.7818608E-02  0.2136455E+00
        -11   -1    0    0    0    0  0.00000000000E+00  0.00000000000E+00  0.50000499739E+01  0.50000500000E+01  0.51100000000E-03 0. -1.
         11   -1    0    0    0    0 -0.00000000000E+00 -0.00000000000E+00 -0.50000499739E+01  0.50000500000E+01  0.51100000000E-03 0.  1.
     100001    1    1    2    0    0  0.93719890399E-02  0.10142972007E-01 -0.17586598315E-01  0.50000500000E+01  0.50000000000E+01 0.  1.
     100001    1    1    2    0    0 -0.93719890399E-02 -0.10142972007E-01  0.17586598315E-01  0.50000500000E+01  0.50000000000E+01 0. -1.
</event>
<event>
 4    1  0.5017912E-001  0.5000050E+01  0.7818608E-02  0.2136455E+00
        -11   -1    0    0    0    0  0.00000000000E+00  0.00000000000E+00  0.50000499739E+01  0.50000500000E+01  0.51100000000E-03 0. -1.
         11   -1    0    0    0    0 -0.00000000000E+00 -0.00000000000E+00 -0.50000499739E+01  0.50000500000E+01  0.51100000000E-03 0.  1.
     100001    1    1    2    0    0 -0.19806110386E-01  0.80563860434E-03  0.10347532933E-01  0.50000500000E+01  0.50000000000E+01 0.  0.
     100001    1    1    2    0    0  0.19806110386E-01 -0.80563860434E-03 -0.10347532933E-01  0.50000500000E+01  0.50000000000E+01 0.  0.
</event>
<event>
 4    1  0.5017912E-001  0.5000050E+01  0.7818608E-02  0.2136455E+00
        -11   -1    0    0    0    0  0.00000000000E+00  0.00000000000E+00  0.50000499739E+01  0.50000500000E+01  0.51100000000E-03 0. -1.
         11   -1    0    0    0    0 -0.00000000000E+00 -0.00000000000E+00 -0.50000499739E+01  0.50000500000E+01  0.51100000000E-03 0.  1.
     100001    1    1    2    0    0  0.16458173325E-02  0.19570203219E-01  0.10691161361E-01  0.50000500000E+01  0.50000000000E+01 0. -1.
     100001    1    1    2    0    0 -0.16458173325E-02 -0.19570203219E-01 -0.10691161361E-01  0.50000500000E+01  0.50000000000E+01 0. -1.
</event>
<event>
 4    1  0.5017912E-001  0.5000050E+01  0.7818608E-02  0.2136455E+00
        -11   -1    0    0    0    0  0.00000000000E+00  0.00000000000E+00  0.50000499739E+01  0.50000500000E+01  0.51100000000E-03 0.  1.
         11   -1    0    0    0    0 -0.00000000000E+00 -0.00000000000E+00 -0.50000499739E+01  0.50000500000E+01  0.51100000000E-03 0. -1.
     100001    1    1    2    0    0  0.46388746106E-02 -0.21319888016E-01 -0.48934361476E-02  0.50000500000E+01  0.50000000000E+01 0.  0.
     100001    1    1    2    0    0 -0.46388746106E-02  0.21319888016E-01  0.48934361476E-02  0.50000500000E+01  0.50000000000E+01 0.  0.
</event>
<event>
 4    1  0.5017912E-001  0.5000050E+01  0.7818608E-02  0.2136455E+00
        -11   -1    0    0    0    0  0.00000000000E+00  0.00000000000E+00  0.50000499739E+01  0.50000500000E+01  0.51100000000E-03 0. -1.
         11   -1    0    0    0    0 -0.00000000000E+00 -0.00000000000E+00 -0.50000499739E+01  0.50000500000E+01  0.51100000000E-03 0.  1.
     100001    1    1    2    0    0  0.93703565817E-02 -0.17320262289E-01  0.10592800941E-01  0.50000500000E+01  0.50000000000E+01 0.  1.
     100001    1    1    2    0    0 -0.93703565817E-02  0.17320262289E-01 -0.10592800941E-01  0.50000500000E+01  0.50000000000E+01 0.  0.
</event>
<event>
 4    1  0.5017912E-001  0.5000050E+01  0.7818608E-02  0.2136455E+00
        -11   -1    0    0    0    0  0.00000000000E+00  0.00000000000E+00  0.50000499739E+01  0.50000500000E+01  0.51100000000E-03 0. -1.
         11   -1    0    0    0    0 -0.00000000000E+00 -0.00000000000E+00 -0.50000499739E+01  0.50000500000E+01  0.51100000000E-03 0.  1.
     100001    1    1    2    0    0  0.13893769930E-02 -0.10609027497E-01 -0.19634680215E-01  0.50000500000E+01  0.50000000000E+01 0.  0.
     100001    1    1    2    0    0 -0.13893769930E-02  0.10609027497E-01  0.19634680215E-01  0.50000500000E+01  0.50000000000E+01 0.  0.
</event>
<event>
 4    1  0.5017912E-001  0.5000050E+01  0.7818608E-02  0.2136455E+00
        -11   -1    0    0    0    0  0.00000000000E+00  0.00000000000E+00  0.50000499739E+01  0.50000500000E+01  0.51100000000E-03 0. -1.
         11   -1    0    0    0    0 -0.00000000000E+00 -0.00000000000E+00 -0.50000499739E+01  0.50000500000E+01  0.51100000000E-03 0.  1.
     100001    1    1    2    0    0 -0.13233357545E-02  0.47536744517E-02 -0.21809490175E-01  0.50000500000E+01  0.50000000000E+01 0.  1.
     100001    1    1    2    0    0  0.13233357545E-02 -0.47536744517E-02  0.21809490175E-01  0.50000500000E+01  0.50000000000E+01 0.  0.
</event>
<event>
 4    1  0.5017912E-001  0.5000050E+01  0.7818608E-02  0.2136455E+00
        -11   -1    0    0    0    0  0.00000000000E+00  0.00000000000E+00  0.50000499739E+01  0.50000500000E+01  0.51100000000E-03 0. -1.
         11   -1    0    0    0    0 -0.00000000000E+00 -0.00000000000E+00 -0.50000499739E+01  0.50000500000E+01  0.51100000000E-03 0.  1.
     100001    1    1    2    0    0 -0.16081781395E-01  0.99427421974E-02 -0.11938202744E-01  0.50000500000E+01  0.50000000000E+01 0.  1.
     100001    1    1    2    0    0  0.16081781395E-01 -0.99427421974E-02  0.11938202744E-01  0.50000500000E+01  0.50000000000E+01 0. -1.
</event>
<event>
 4    1  0.5017912E-001  0.5000050E+01  0.7818608E-02  0.2136455E+00
        -11   -1    0    0    0    0  0.00000000000E+00  0.00000000000E+00  0.50000499739E+01  0.50000500000E+01  0.51100000000E-03 0.  1.
         11   -1    0    0    0    0 -0.00000000000E+00 -0.00000000000E+00 -0.50000499739E+01  0.50000500000E+01  0.51100000000E-03 0. -1.
     100001    1    1    2    0    0  0.82378537443E-02  0.17671105503E-02 -0.20712739703E-01  0.50000500000E+01  0.50000000000E+01 0.  0.
     100001    1    1    2    0    0 -0.82378537443E-02 -0.17671105503E-02  0.20712739703E-01  0.50000500000E+01  0.50000000000E+01 0.  0.
</event>
<event>
 4    1  0.5017912E-001  0.5000050E+01  0.7818608E-02  0.2136455E+00
        -11   -1    0    0    0    0  0.00000000000E+00  0.00000000000E+00  0.50000499739E+01  0.50000500000E+01  0.51100000000E-03 0.  1.
         11   -1    0    0    0    0 -0.00000000000E+00 -0.00000000000E+00 -0.50000499739E+01  0.50000500000E+01  0.51100000000E-03 0. -1.
     100001    1    1    2    0    0  0.12502402629E-01  0.76261564906E-02 -0.16897756232E-01  0.50000500000E+01  0.50000000000E+01 0. -1.
     100001    1    1    2    0    0 -0.12502402629E-01 -0.76261564906E-02  0.16897756232E-01  0.50000500000E+01  0.50000000000E+01 0. -1.
</event>
<event>
 4    1  0.5017912E-001  0.5000050E+01  0.7818608E-02  0.2136455E+00
        -11   -1    0    0    0    0  0.00000000000E+00  0.00000000000E+00  0.50000499739E+01  0.50000500000E+01  0.51100000000E-03 0.  1.
         11   -1    0    0    0    0 -0.00000000000E+00 -0.00000000000E+00 -0.50000499739E+01  0.50000500000E+01  0.51100000000E-03 0. -1.
     100001    1    1    2    0    0 -0.69907674929E-02 -0.68565053552E-02 -0.20102736236E-01  0.50000500000E+01  0.50000000000E+01 0. -1.
     100001    1    1    2    0    0  0.69907674929E-02  0.68565053552E-02  0.20102736236E-01  0.50000500000E+01  0.50000000000E+01 0.  0.
</event>
<event>
 4    1  0.5017912E-001  0.5000050E+01  0.7818608E-02  0.2136455E+00
        -11   -1    0    0    0    0  0.00000000000E+00  0.00000000000E+00  0.50000499739E+01  0.50000500000E+01  0.51100000000E-03 0.  1.
         11   -1    0    0    0    0 -0.00000000000E+00 -0.00000000000E+00 -0.50000499739E+01  0.50000500000E+01  0.51100000000E-03 0. -1.
     100001    1    1    2    0    0  0.93852234535E-02  0.15121706714E-01 -0.13537136580E-01  0.50000500000E+01  0.50000000000E+01 0.  0.
     100001    1    1    2    0    0 -0.93852234535E-02 -0.15121706714E-01  0.13537136580E-01  0.50000500000E+01  0.50000000000E+01 0.  0.
</event>
<event>
 4    1  0.5017912E-001  0.5000050E+01  0.7818608E-02  0.2136455E+00
        -11   -1    0    0    0    0  0.00000000000E+00  0.00000000000E+00  0.50000499739E+01  0.50000500000E+01  0.51100000000E-03 0.  1.
         11   -1    0    0    0    0 -0.00000000000E+00 -0.00000000000E+00 -0.50000499739E+01  0.50000500000E+01  0.51100000000E-03 0. -1.
     100001    1    1    2    0    0  0.18364381544E-01  0.11618891952E-01  0.52681439161E-02  0.50000500000E+01  0.50000000000E+01 0. -1.
     100001    1    1    2    0    0 -0.18364381544E-01 -0.11618891952E-01 -0.52681439161E-02  0.50000500000E+01  0.50000000000E+01 0.  1.
</event>
<event>
 4    1  0.5017912E-001  0.5000050E+01  0.7818608E-02  0.2136455E+00
        -11   -1    0    0    0    0  0.00000000000E+00  0.00000000000E+00  0.50000499739E+01  0.50000500000E+01  0.51100000000E-03 0.  1.
         11   -1    0    0    0    0 -0.00000000000E+00 -0.00000000000E+00 -0.50000499739E+01  0.50000500000E+01  0.51100000000E-03 0. -1.
     100001    1    1    2    0    0 -0.20589780920E-01 -0.51321478105E-02 -0.70515587308E-02  0.50000500000E+01  0.50000000000E+01 0.  1.
     100001    1    1    2    0    0  0.20589780920E-01  0.51321478105E-02  0.70515587308E-02  0.50000500000E+01  0.50000000000E+01 0.  0.
</event>
<event>
 4    1  0.5017912E-001  0.5000050E+01  0.7818608E-02  0.2136455E+00
        -11   -1    0    0    0    0  0.00000000000E+00  0.00000000000E+00  0.50000499739E+01  0.50000500000E+01  0.51100000000E-03 0. -1.
         11   -1    0    0    0    0 -0.00000000000E+00 -0.00000000000E+00 -0.50000499739E+01  0.50000500000E+01  0.51100000000E-03 0.  1.
     100001    1    1    2    0    0 -0.59963992158E-02 -0.56236883574E-02  0.20794706675E-01  0.50000500000E+01  0.50000000000E+01 0. -1.
     100001    1    1    2    0    0  0.59963992158E-02  0.56236883574E-02 -0.20794706675E-01  0.50000500000E+01  0.50000000000E+01 0.  0.
</event>
<event>
 4    1  0.5017912E-001  0.5000050E+01  0.7818608E-02  0.2136455E+00
        -11   -1    0    0    0    0  0.00000000000E+00  0.00000000000E+00  0.50000499739E+01  0.50000500000E+01  0.51100000000E-03 0.  1.
         11   -1    0    0    0    0 -0.00000000000E+00 -0.00000000000E+00 -0.50000499739E+01  0.50000500000E+01  0.51100000000E-03 0. -1.
     100001    1    1    2    0    0  0.18629547197E-01  0.11986319936E-01 -0.30447669209E-02  0.50000500000E+01  0.50000000000E+01 0. -1.
     100001    1    1    2    0    0 -0.18629547197E-01 -0.11986319936E-01  0.30447669209E-02  0.50000500000E+01  0.50000000000E+01 0.  1.
</event>
<event>
 4    1  0.5017912E-001  0.5000050E+01  0.7818608E-02  0.2136455E+00
        -11   -1    0    0    0    0  0.00000000000E+00  0.00000000000E+00  0.50000499739E+01  0.50000500000E+01  0.51100000000E-03 0. -1.
         11   -1    0    0    0    0 -0.00000000000E+00 -0.00000000000E+00 -0.50000499739E+01  0.50000500000E+01  0.51100000000E-03 0.  1.
     100001    1    1    2    0    0 -0.39386488397E-02 -0.17290312770E-01  0.13621109707E-01  0.50000500000E+01  0.50000000000E+01 0. -1.
     100001    1    1    2    0    0  0.39386488397E-02  0.17290312770E-01 -0.13621109707E-01  0.50000500000E+01  0.50000000000E+01 0.  1.
</event>
<event>
 4    1  0.5017912E-001  0.5000050E+01  0.7818608E-02  0.2136455E+00
        -11   -1    0    0    0    0  0.00000000000E+00  0.00000000000E+00  0.50000499739E+01  0.50000500000E+01  0.51100000000E-03 0.  1.
         11   -1    0    0    0    0 -0.00000000000E+00 -0.00000000000E+00 -0.50000499739E+01  0.50000500000E+01  0.51100000000E-03 0. -1.
     100001    1    1    2    0    0 -0.17416900078E-02 -0.22284408023E-01  0.61169842835E-03  0.50000500000E+01  0.50000000000E+01 0.  1.
     100001    1    1    2    0    0  0.17416900078E-02  0.22284408023E-01 -0.61169842836E-03  0.50000500000E+01  0.50000000000E+01 0.  0.
</event>
<event>
 4    1  0.5017912E-001  0.5000050E+01  0.7818608E-02  0.2136455E+00
        -11   -1    0    0    0    0  0.00000000000E+00  0.00000000000E+00  0.50000499739E+01  0.50000500000E+01  0.51100000000E-03 0. -1.
         11   -1    0    0    0    0 -0.00000000000E+00 -0.00000000000E+00 -0.50000499739E+01  0.50000500000E+01  0.51100000000E-03 0.  1.
     100001    1    1    2    0    0  0.36480120395E-02  0.96264089900E-02 -0.19850107257E-01  0.50000500000E+01  0.50000000000E+01 0.  1.
     100001    1    1    2    0    0 -0.36480120395E-02 -0.96264089900E-02  0.19850107257E-01  0.50000500000E+01  0.50000000000E+01 0.  0.
</event>
<event>
 4    1  0.5017912E-001  0.5000050E+01  0.7818608E-02  0.2136455E+00
        -11   -1    0    0    0    0  0.00000000000E+00  0.00000000000E+00  0.50000499739E+01  0.50000500000E+01  0.51100000000E-03 0.  1.
         11   -1    0    0    0    0 -0.00000000000E+00 -0.00000000000E+00 -0.50000499739E+01  0.50000500000E+01  0.51100000000E-03 0. -1.
     100001    1    1    2    0    0 -0.13676441054E-02 -0.20021147861E-01 -0.98633507450E-02  0.50000500000E+01  0.50000000000E+01 0.  1.
     100001    1    1    2    0    0  0.13676441054E-02  0.20021147861E-01  0.98633507450E-02  0.50000500000E+01  0.50000000000E+01 0. -1.
</event>
<event>
 4    1  0.5017912E-001  0.5000050E+01  0.7818608E-02  0.2136455E+00
        -11   -1    0    0    0    0  0.00000000000E+00  0.00000000000E+00  0.50000499739E+01  0.50000500000E+01  0.51100000000E-03 0.  1.
         11   -1    0    0    0    0 -0.00000000000E+00 -0.00000000000E+00 -0.50000499739E+01  0.50000500000E+01  0.51100000000E-03 0. -1.
     100001    1    1    2    0    0 -0.11385021330E-01 -0.17983046584E-01  0.68552042184E-02  0.50000500000E+01  0.50000000000E+01 0.  1.
     100001    1    1    2    0    0  0.11385021330E-01  0.17983046584E-01 -0.68552042184E-02  0.50000500000E+01  0.50000000000E+01 0. -1.
</event>
<event>
 4    1  0.5017912E-001  0.5000050E+01  0.7818608E-02  0.2136455E+00
        -11   -1    0    0    0    0  0.00000000000E+00  0.00000000000E+00  0.50000499739E+01  0.50000500000E+01  0.51100000000E-03 0.  1.
         11   -1    0    0    0    0 -0.00000000000E+00 -0.00000000000E+00 -0.50000499739E+01  0.50000500000E+01  0.51100000000E-03 0. -1.
     100001    1    1    2    0    0  0.25763585962E-02  0.15720307847E-01  0.15691934157E-01  0.50000500000E+01  0.50000000000E+01 0.  0.
     100001    1    1    2    0    0 -0.25763585962E-02 -0.15720307847E-01 -0.15691934157E-01  0.50000500000E+01  0.50000000000E+01 0.  1.
</event>
<event>
 4    1  0.5017912E-001  0.5000050E+01  0.7818608E-02  0.2136455E+00
        -11   -1    0    0    0    0  0.00000000000E+00  0.00000000000E+00  0.50000499739E+01  0.50000500000E+01  0.51100000000E-03 0. -1.
         11   -1    0    0    0    0 -0.00000000000E+00 -0.00000000000E+00 -0.50000499739E+01  0.50000500000E+01  0.51100000000E-03 0.  1.
     100001    1    1    2    0    0 -0.20008307207E-01 -0.44089204566E-02  0.89572073283E-02  0.50000500000E+01  0.50000000000E+01 0.  0.
     100001    1    1    2    0    0  0.20008307207E-01  0.44089204566E-02 -0.89572073283E-02  0.50000500000E+01  0.50000000000E+01 0.  0.
</event>
<event>
 4    1  0.5017912E-001  0.5000050E+01  0.7818608E-02  0.2136455E+00
        -11   -1    0    0    0    0  0.00000000000E+00  0.00000000000E+00  0.50000499739E+01  0.50000500000E+01  0.51100000000E-03 0. -1.
         11   -1    0    0    0    0 -0.00000000000E+00 -0.00000000000E+00 -0.50000499739E+01  0.50000500000E+01  0.51100000000E-03 0.  1.
     100001    1    1    2    0    0 -0.20074066178E-01 -0.81176837777E-03  0.98170972888E-02  0.50000500000E+01  0.50000000000E+01 0.  0.
     100001    1    1    2    0    0  0.20074066178E-01  0.81176837777E-03 -0.98170972888E-02  0.50000500000E+01  0.50000000000E+01 0.  0.
</event>
<event>
 4    1  0.5017912E-001  0.5000050E+01  0.7818608E-02  0.2136455E+00
        -11   -1    0    0    0    0  0.00000000000E+00  0.00000000000E+00  0.50000499739E+01  0.50000500000E+01  0.51100000000E-03 0. -1.
         11   -1    0    0    0    0 -0.00000000000E+00 -0.00000000000E+00 -0.50000499739E+01  0.50000500000E+01  0.51100000000E-03 0.  1.
     100001    1    1    2    0    0 -0.15892651417E-01 -0.15714827072E-01 -0.68581414008E-03  0.50000500000E+01  0.50000000000E+01 0.  1.
     100001    1    1    2    0    0  0.15892651417E-01  0.15714827072E-01  0.68581414008E-03  0.50000500000E+01  0.50000000000E+01 0.  0.
</event>
<event>
 4    1  0.5017912E-001  0.5000050E+01  0.7818608E-02  0.2136455E+00
        -11   -1    0    0    0    0  0.00000000000E+00  0.00000000000E+00  0.50000499739E+01  0.50000500000E+01  0.51100000000E-03 0. -1.
         11   -1    0    0    0    0 -0.00000000000E+00 -0.00000000000E+00 -0.50000499739E+01  0.50000500000E+01  0.51100000000E-03 0.  1.
     100001    1    1    2    0    0 -0.31465723716E-02  0.21705166808E-01 -0.43574437633E-02  0.50000500000E+01  0.50000000000E+01 0. -1.
     100001    1    1    2    0    0  0.31465723716E-02 -0.21705166808E-01  0.43574437633E-02  0.50000500000E+01  0.50000000000E+01 0.  0.
</event>
<event>
 4    1  0.5017912E-001  0.5000050E+01  0.7818608E-02  0.2136455E+00
        -11   -1    0    0    0    0  0.00000000000E+00  0.00000000000E+00  0.50000499739E+01  0.50000500000E+01  0.51100000000E-03 0.  1.
         11   -1    0    0    0    0 -0.00000000000E+00 -0.00000000000E+00 -0.50000499739E+01  0.50000500000E+01  0.51100000000E-03 0. -1.
     100001    1    1    2    0    0  0.12042372310E-01  0.14748370386E-01 -0.11724731984E-01  0.50000500000E+01  0.50000000000E+01 0.  0.
     100001    1    1    2    0    0 -0.12042372310E-01 -0.14748370386E-01  0.11724731984E-01  0.50000500000E+01  0.50000000000E+01 0.  0.
</event>
<event>
 4    1  0.5017912E-001  0.5000050E+01  0.7818608E-02  0.2136455E+00
        -11   -1    0    0    0    0  0.00000000000E+00  0.00000000000E+00  0.50000499739E+01  0.50000500000E+01  0.51100000000E-03 0.  1.
         11   -1    0    0    0    0 -0.00000000000E+00 -0.00000000000E+00 -0.50000499739E+01  0.50000500000E+01  0.51100000000E-03 0. -1.
     100001    1    1    2    0    0  0.17310815411E-01 -0.10362204128E-01 -0.96417267860E-02  0.50000500000E+01  0.50000000000E+01 0. -1.
     100001    1    1    2    0    0 -0.17310815411E-01  0.10362204128E-01  0.96417267860E-02  0.50000500000E+01  0.50000000000E+01 0.  1.
</event>
<event>
 4    1  0.5017912E-001  0.5000050E+01  0.7818608E-02  0.2136455E+00
        -11   -1    0    0    0    0  0.00000000000E+00  0.00000000000E+00  0.50000499739E+01  0.50000500000E+01  0.51100000000E-03 0.  1.
         11   -1    0    0    0    0 -0.00000000000E+00 -0.00000000000E+00 -0.50000499739E+01  0.50000500000E+01  0.51100000000E-03 0. -1.
     100001    1    1    2    0    0 -0.13983284279E-02 -0.19753098516E-01  0.10385676512E-01  0.50000500000E+01  0.50000000000E+01 0.  0.
     100001    1    1    2    0    0  0.13983284279E-02  0.19753098516E-01 -0.10385676512E-01  0.50000500000E+01  0.50000000000E+01 0.  1.
</event>
<event>
 4    1  0.5017912E-001  0.5000050E+01  0.7818608E-02  0.2136455E+00
        -11   -1    0    0    0    0  0.00000000000E+00  0.00000000000E+00  0.50000499739E+01  0.50000500000E+01  0.51100000000E-03 0. -1.
         11   -1    0    0    0    0 -0.00000000000E+00 -0.00000000000E+00 -0.50000499739E+01  0.50000500000E+01  0.51100000000E-03 0.  1.
     100001    1    1    2    0    0 -0.98647041113E-02  0.18157549853E-01 -0.85436231260E-02  0.50000500000E+01  0.50000000000E+01 0.  1.
     100001    1    1    2    0    0  0.98647041113E-02 -0.18157549853E-01  0.85436231260E-02  0.50000500000E+01  0.50000000000E+01 0. -1.
</event>
<event>
 4    1  0.5017912E-001  0.5000050E+01  0.7818608E-02  0.2136455E+00
        -11   -1    0    0    0    0  0.00000000000E+00  0.00000000000E+00  0.50000499739E+01  0.50000500000E+01  0.51100000000E-03 0. -1.
         11   -1    0    0    0    0 -0.00000000000E+00 -0.00000000000E+00 -0.50000499739E+01  0.50000500000E+01  0.51100000000E-03 0.  1.
     100001    1    1    2    0    0 -0.41753156528E-02 -0.96112908304E-02 -0.19753286506E-01  0.50000500000E+01  0.50000000000E+01 0.  1.
     100001    1    1    2    0    0  0.41753156528E-02  0.96112908304E-02  0.19753286506E-01  0.50000500000E+01  0.50000000000E+01 0.  0.
</event>
<event>
 4    1  0.5017912E-001  0.5000050E+01  0.7818608E-02  0.2136455E+00
        -11   -1    0    0    0    0  0.00000000000E+00  0.00000000000E+00  0.50000499739E+01  0.50000500000E+01  0.51100000000E-03 0. -1.
         11   -1    0    0    0    0 -0.00000000000E+00 -0.00000000000E+00 -0.50000499739E+01  0.50000500000E+01  0.51100000000E-03 0.  1.
     100001    1    1    2    0    0 -0.87914095793E-02 -0.74526627891E-02  0.19161717954E-01  0.50000500000E+01  0.50000000000E+01 0. -1.
     100001    1    1    2    0    0  0.87914095793E-02  0.74526627891E-02 -0.19161717954E-01  0.50000500000E+01  0.50000000000E+01 0. -1.
</event>
<event>
 4    1  0.5017912E-001  0.5000050E+01  0.7818608E-02  0.2136455E+00
        -11   -1    0    0    0    0  0.00000000000E+00  0.00000000000E+00  0.50000499739E+01  0.50000500000E+01  0.51100000000E-03 0. -1.
         11   -1    0    0    0    0 -0.00000000000E+00 -0.00000000000E+00 -0.50000499739E+01  0.50000500000E+01  0.51100000000E-03 0.  1.
     100001    1    1    2    0    0  0.22165145754E-01 -0.14706843109E-02 -0.25584959215E-02  0.50000500000E+01  0.50000000000E+01 0.  0.
     100001    1    1    2    0    0 -0.22165145754E-01  0.14706843109E-02  0.25584959215E-02  0.50000500000E+01  0.50000000000E+01 0. -1.
</event>
<event>
 4    1  0.5017912E-001  0.5000050E+01  0.7818608E-02  0.2136455E+00
        -11   -1    0    0    0    0  0.00000000000E+00  0.00000000000E+00  0.50000499739E+01  0.50000500000E+01  0.51100000000E-03 0.  1.
         11   -1    0    0    0    0 -0.00000000000E+00 -0.00000000000E+00 -0.50000499739E+01  0.50000500000E+01  0.51100000000E-03 0. -1.
     100001    1    1    2    0    0  0.47669688678E-02 -0.19834824294E-01  0.91574151936E-02  0.50000500000E+01  0.50000000000E+01 0. -1.
     100001    1    1    2    0    0 -0.47669688678E-02  0.19834824294E-01 -0.91574151936E-02  0.50000500000E+01  0.50000000000E+01 0.  0.
</event>
<event>
 4    1  0.5017912E-001  0.5000050E+01  0.7818608E-02  0.2136455E+00
        -11   -1    0    0    0    0  0.00000000000E+00  0.00000000000E+00  0.50000499739E+01  0.50000500000E+01  0.51100000000E-03 0.  1.
         11   -1    0    0    0    0 -0.00000000000E+00 -0.00000000000E+00 -0.50000499739E+01  0.50000500000E+01  0.51100000000E-03 0. -1.
     100001    1    1    2    0    0  0.85003707367E-02  0.19755330578E-01 -0.61215284914E-02  0.50000500000E+01  0.50000000000E+01 0. -1.
     100001    1    1    2    0    0 -0.85003707367E-02 -0.19755330578E-01  0.61215284914E-02  0.50000500000E+01  0.50000000000E+01 0.  1.
</event>
<event>
 4    1  0.5017912E-001  0.5000050E+01  0.7818608E-02  0.2136455E+00
        -11   -1    0    0    0    0  0.00000000000E+00  0.00000000000E+00  0.50000499739E+01  0.50000500000E+01  0.51100000000E-03 0.  1.
         11   -1    0    0    0    0 -0.00000000000E+00 -0.00000000000E+00 -0.50000499739E+01  0.50000500000E+01  0.51100000000E-03 0. -1.
     100001    1    1    2    0    0 -0.29808697921E-02  0.61132926828E-02  0.21301280897E-01  0.50000500000E+01  0.50000000000E+01 0.  1.
     100001    1    1    2    0    0  0.29808697921E-02 -0.61132926828E-02 -0.21301280897E-01  0.50000500000E+01  0.50000000000E+01 0.  0.
</event>
<event>
 4    1  0.5017912E-001  0.5000050E+01  0.7818608E-02  0.2136455E+00
        -11   -1    0    0    0    0  0.00000000000E+00  0.00000000000E+00  0.50000499739E+01  0.50000500000E+01  0.51100000000E-03 0.  1.
         11   -1    0    0    0    0 -0.00000000000E+00 -0.00000000000E+00 -0.50000499739E+01  0.50000500000E+01  0.51100000000E-03 0. -1.
     100001    1    1    2    0    0  0.64086266303E-02  0.11902960420E-01  0.17811556303E-01  0.50000500000E+01  0.50000000000E+01 0.  0.
     100001    1    1    2    0    0 -0.64086266303E-02 -0.11902960420E-01 -0.17811556303E-01  0.50000500000E+01  0.50000000000E+01 0.  0.
</event>
<event>
 4    1  0.5017912E-001  0.5000050E+01  0.7818608E-02  0.2136455E+00
        -11   -1    0    0    0    0  0.00000000000E+00  0.00000000000E+00  0.50000499739E+01  0.50000500000E+01  0.51100000000E-03 0. -1.
         11   -1    0    0    0    0 -0.00000000000E+00 -0.00000000000E+00 -0.50000499739E+01  0.50000500000E+01  0.51100000000E-03 0.  1.
     100001    1    1    2    0    0  0.10348485647E-01 -0.11174527616E-01 -0.16371966203E-01  0.50000500000E+01  0.50000000000E+01 0.  1.
     100001    1    1    2    0    0 -0.10348485647E-01  0.11174527616E-01  0.16371966203E-01  0.50000500000E+01  0.50000000000E+01 0.  0.
</event>
<event>
 4    1  0.5017912E-001  0.5000050E+01  0.7818608E-02  0.2136455E+00
        -11   -1    0    0    0    0  0.00000000000E+00  0.00000000000E+00  0.50000499739E+01  0.50000500000E+01  0.51100000000E-03 0.  1.
         11   -1    0    0    0    0 -0.00000000000E+00 -0.00000000000E+00 -0.50000499739E+01  0.50000500000E+01  0.51100000000E-03 0. -1.
     100001    1    1    2    0    0  0.10695394249E-01 -0.61506057736E-02  0.18648889792E-01  0.50000500000E+01  0.50000000000E+01 0.  1.
     100001    1    1    2    0    0 -0.10695394249E-01  0.61506057736E-02 -0.18648889792E-01  0.50000500000E+01  0.50000000000E+01 0.  0.
</event>
<event>
 4    1  0.5017912E-001  0.5000050E+01  0.7818608E-02  0.2136455E+00
        -11   -1    0    0    0    0  0.00000000000E+00  0.00000000000E+00  0.50000499739E+01  0.50000500000E+01  0.51100000000E-03 0.  1.
         11   -1    0    0    0    0 -0.00000000000E+00 -0.00000000000E+00 -0.50000499739E+01  0.50000500000E+01  0.51100000000E-03 0. -1.
     100001    1    1    2    0    0  0.18298155723E-01  0.74818501384E-03  0.12830441003E-01  0.50000500000E+01  0.50000000000E+01 0.  0.
     100001    1    1    2    0    0 -0.18298155723E-01 -0.74818501384E-03 -0.12830441003E-01  0.50000500000E+01  0.50000000000E+01 0.  0.
</event>
<event>
 4    1  0.5017912E-001  0.5000050E+01  0.7818608E-02  0.2136455E+00
        -11   -1    0    0    0    0  0.00000000000E+00  0.00000000000E+00  0.50000499739E+01  0.50000500000E+01  0.51100000000E-03 0. -1.
         11   -1    0    0    0    0 -0.00000000000E+00 -0.00000000000E+00 -0.50000499739E+01  0.50000500000E+01  0.51100000000E-03 0.  1.
     100001    1    1    2    0    0 -0.34330449602E-02  0.21087686461E-01 -0.65974375339E-02  0.50000500000E+01  0.50000000000E+01 0. -1.
     100001    1    1    2    0    0  0.34330449602E-02 -0.21087686461E-01  0.65974375339E-02  0.50000500000E+01  0.50000000000E+01 0.  1.
</event>
<event>
 4    1  0.5017912E-001  0.5000050E+01  0.7818608E-02  0.2136455E+00
        -11   -1    0    0    0    0  0.00000000000E+00  0.00000000000E+00  0.50000499739E+01  0.50000500000E+01  0.51100000000E-03 0. -1.
         11   -1    0    0    0    0 -0.00000000000E+00 -0.00000000000E+00 -0.50000499739E+01  0.50000500000E+01  0.51100000000E-03 0.  1.
     100001    1    1    2    0    0  0.24262792009E-02 -0.21711807767E-01 -0.47658234050E-02  0.50000500000E+01  0.50000000000E+01 0.  1.
     100001    1    1    2    0    0 -0.24262792009E-02  0.21711807767E-01  0.47658234050E-02  0.50000500000E+01  0.50000000000E+01 0. -1.
</event>
<event>
 4    1  0.5017912E-001  0.5000050E+01  0.7818608E-02  0.2136455E+00
        -11   -1    0    0    0    0  0.00000000000E+00  0.00000000000E+00  0.50000499739E+01  0.50000500000E+01  0.51100000000E-03 0.  1.
         11   -1    0    0    0    0 -0.00000000000E+00 -0.00000000000E+00 -0.50000499739E+01  0.50000500000E+01  0.51100000000E-03 0. -1.
     100001    1    1    2    0    0 -0.11535293430E-01 -0.17324062392E-01 -0.81741279472E-02  0.50000500000E+01  0.50000000000E+01 0.  1.
     100001    1    1    2    0    0  0.11535293430E-01  0.17324062392E-01  0.81741279472E-02  0.50000500000E+01  0.50000000000E+01 0.  0.
</event>
<event>
 4    1  0.5017912E-001  0.5000050E+01  0.7818608E-02  0.2136455E+00
        -11   -1    0    0    0    0  0.00000000000E+00  0.00000000000E+00  0.50000499739E+01  0.50000500000E+01  0.51100000000E-03 0. -1.
         11   -1    0    0    0    0 -0.00000000000E+00 -0.00000000000E+00 -0.50000499739E+01  0.50000500000E+01  0.51100000000E-03 0.  1.
     100001    1    1    2    0    0  0.19492703587E-01 -0.92136336413E-02 -0.59284029887E-02  0.50000500000E+01  0.50000000000E+01 0.  1.
     100001    1    1    2    0    0 -0.19492703587E-01  0.92136336413E-02  0.59284029887E-02  0.50000500000E+01  0.50000000000E+01 0.  0.
</event>
<event>
 4    1  0.5017912E-001  0.5000050E+01  0.7818608E-02  0.2136455E+00
        -11   -1    0    0    0    0  0.00000000000E+00  0.00000000000E+00  0.50000499739E+01  0.50000500000E+01  0.51100000000E-03 0.  1.
         11   -1    0    0    0    0 -0.00000000000E+00 -0.00000000000E+00 -0.50000499739E+01  0.50000500000E+01  0.51100000000E-03 0. -1.
     100001    1    1    2    0    0 -0.14795948411E-01 -0.14728507863E-01  0.80095859296E-02  0.50000500000E+01  0.50000000000E+01 0.  1.
     100001    1    1    2    0    0  0.14795948411E-01  0.14728507863E-01 -0.80095859296E-02  0.50000500000E+01  0.50000000000E+01 0.  0.
</event>
<event>
 4    1  0.5017912E-001  0.5000050E+01  0.7818608E-02  0.2136455E+00
        -11   -1    0    0    0    0  0.00000000000E+00  0.00000000000E+00  0.50000499739E+01  0.50000500000E+01  0.51100000000E-03 0. -1.
         11   -1    0    0    0    0 -0.00000000000E+00 -0.00000000000E+00 -0.50000499739E+01  0.50000500000E+01  0.51100000000E-03 0.  1.
     100001    1    1    2    0    0  0.18700357454E-01 -0.38319718521E-02 -0.11645390626E-01  0.50000500000E+01  0.50000000000E+01 0.  1.
     100001    1    1    2    0    0 -0.18700357454E-01  0.38319718521E-02  0.11645390626E-01  0.50000500000E+01  0.50000000000E+01 0. -1.
</event>
<event>
 4    1  0.5017912E-001  0.5000050E+01  0.7818608E-02  0.2136455E+00
        -11   -1    0    0    0    0  0.00000000000E+00  0.00000000000E+00  0.50000499739E+01  0.50000500000E+01  0.51100000000E-03 0.  1.
         11   -1    0    0    0    0 -0.00000000000E+00 -0.00000000000E+00 -0.50000499739E+01  0.50000500000E+01  0.51100000000E-03 0. -1.
     100001    1    1    2    0    0 -0.60503709554E-03  0.17863793438E-01  0.13435822049E-01  0.50000500000E+01  0.50000000000E+01 0.  1.
     100001    1    1    2    0    0  0.60503709554E-03 -0.17863793438E-01 -0.13435822049E-01  0.50000500000E+01  0.50000000000E+01 0. -1.
</event>
<event>
 4    1  0.5017912E-001  0.5000050E+01  0.7818608E-02  0.2136455E+00
        -11   -1    0    0    0    0  0.00000000000E+00  0.00000000000E+00  0.50000499739E+01  0.50000500000E+01  0.51100000000E-03 0. -1.
         11   -1    0    0    0    0 -0.00000000000E+00 -0.00000000000E+00 -0.50000499739E+01  0.50000500000E+01  0.51100000000E-03 0.  1.
     100001    1    1    2    0    0  0.62160990689E-02  0.17311296343E-01  0.12715409207E-01  0.50000500000E+01  0.50000000000E+01 0.  0.
     100001    1    1    2    0    0 -0.62160990689E-02 -0.17311296343E-01 -0.12715409207E-01  0.50000500000E+01  0.50000000000E+01 0. -1.
</event>
<event>
 4    1  0.5017912E-001  0.5000050E+01  0.7818608E-02  0.2136455E+00
        -11   -1    0    0    0    0  0.00000000000E+00  0.00000000000E+00  0.50000499739E+01  0.50000500000E+01  0.51100000000E-03 0.  1.
         11   -1    0    0    0    0 -0.00000000000E+00 -0.00000000000E+00 -0.50000499739E+01  0.50000500000E+01  0.51100000000E-03 0. -1.
     100001    1    1    2    0    0  0.29453327111E-02  0.22145764856E-01  0.94478259362E-03  0.50000500000E+01  0.50000000000E+01 0.  1.
     100001    1    1    2    0    0 -0.29453327111E-02 -0.22145764856E-01 -0.94478259362E-03  0.50000500000E+01  0.50000000000E+01 0. -1.
</event>
<event>
 4    1  0.5017912E-001  0.5000050E+01  0.7818608E-02  0.2136455E+00
        -11   -1    0    0    0    0  0.00000000000E+00  0.00000000000E+00  0.50000499739E+01  0.50000500000E+01  0.51100000000E-03 0. -1.
         11   -1    0    0    0    0 -0.00000000000E+00 -0.00000000000E+00 -0.50000499739E+01  0.50000500000E+01  0.51100000000E-03 0.  1.
     100001    1    1    2    0    0  0.21802055933E-01 -0.49537451918E-02 -0.36505568855E-03  0.50000500000E+01  0.50000000000E+01 0. -1.
     100001    1    1    2    0    0 -0.21802055933E-01  0.49537451918E-02  0.36505568855E-03  0.50000500000E+01  0.50000000000E+01 0.  1.
</event>
<event>
 4    1  0.5017912E-001  0.5000050E+01  0.7818608E-02  0.2136455E+00
        -11   -1    0    0    0    0  0.00000000000E+00  0.00000000000E+00  0.50000499739E+01  0.50000500000E+01  0.51100000000E-03 0.  1.
         11   -1    0    0    0    0 -0.00000000000E+00 -0.00000000000E+00 -0.50000499739E+01  0.50000500000E+01  0.51100000000E-03 0. -1.
     100001    1    1    2    0    0 -0.11551752253E-02 -0.13719019485E-01 -0.17619777937E-01  0.50000500000E+01  0.50000000000E+01 0. -1.
     100001    1    1    2    0    0  0.11551752253E-02  0.13719019485E-01  0.17619777937E-01  0.50000500000E+01  0.50000000000E+01 0.  1.
</event>
<event>
 4    1  0.5017912E-001  0.5000050E+01  0.7818608E-02  0.2136455E+00
        -11   -1    0    0    0    0  0.00000000000E+00  0.00000000000E+00  0.50000499739E+01  0.50000500000E+01  0.51100000000E-03 0.  1.
         11   -1    0    0    0    0 -0.00000000000E+00 -0.00000000000E+00 -0.50000499739E+01  0.50000500000E+01  0.51100000000E-03 0. -1.
     100001    1    1    2    0    0  0.13978570107E-01  0.13268718738E-01 -0.11337688512E-01  0.50000500000E+01  0.50000000000E+01 0.  1.
     100001    1    1    2    0    0 -0.13978570107E-01 -0.13268718738E-01  0.11337688512E-01  0.50000500000E+01  0.50000000000E+01 0.  0.
</event>
<event>
 4    1  0.5017912E-001  0.5000050E+01  0.7818608E-02  0.2136455E+00
        -11   -1    0    0    0    0  0.00000000000E+00  0.00000000000E+00  0.50000499739E+01  0.50000500000E+01  0.51100000000E-03 0. -1.
         11   -1    0    0    0    0 -0.00000000000E+00 -0.00000000000E+00 -0.50000499739E+01  0.50000500000E+01  0.51100000000E-03 0.  1.
     100001    1    1    2    0    0 -0.11003697758E-01 -0.51879126680E-02 -0.18761841535E-01  0.50000500000E+01  0.50000000000E+01 0.  1.
     100001    1    1    2    0    0  0.11003697758E-01  0.51879126680E-02  0.18761841535E-01  0.50000500000E+01  0.50000000000E+01 0. -1.
</event>
<event>
 4    1  0.5017912E-001  0.5000050E+01  0.7818608E-02  0.2136455E+00
        -11   -1    0    0    0    0  0.00000000000E+00  0.00000000000E+00  0.50000499739E+01  0.50000500000E+01  0.51100000000E-03 0.  1.
         11   -1    0    0    0    0 -0.00000000000E+00 -0.00000000000E+00 -0.50000499739E+01  0.50000500000E+01  0.51100000000E-03 0. -1.
     100001    1    1    2    0    0 -0.20683127808E-01 -0.29220727596E-03  0.84926638342E-02  0.50000500000E+01  0.50000000000E+01 0.  0.
     100001    1    1    2    0    0  0.20683127808E-01  0.29220727596E-03 -0.84926638342E-02  0.50000500000E+01  0.50000000000E+01 0.  0.
</event>
<event>
 4    1  0.5017912E-001  0.5000050E+01  0.7818608E-02  0.2136455E+00
        -11   -1    0    0    0    0  0.00000000000E+00  0.00000000000E+00  0.50000499739E+01  0.50000500000E+01  0.51100000000E-03 0.  1.
         11   -1    0    0    0    0 -0.00000000000E+00 -0.00000000000E+00 -0.50000499739E+01  0.50000500000E+01  0.51100000000E-03 0. -1.
     100001    1    1    2    0    0 -0.13577792185E-01  0.30279083752E-02 -0.17506508226E-01  0.50000500000E+01  0.50000000000E+01 0. -1.
     100001    1    1    2    0    0  0.13577792185E-01 -0.30279083752E-02  0.17506508226E-01  0.50000500000E+01  0.50000000000E+01 0.  0.
</event>
<event>
 4    1  0.5017912E-001  0.5000050E+01  0.7818608E-02  0.2136455E+00
        -11   -1    0    0    0    0  0.00000000000E+00  0.00000000000E+00  0.50000499739E+01  0.50000500000E+01  0.51100000000E-03 0. -1.
         11   -1    0    0    0    0 -0.00000000000E+00 -0.00000000000E+00 -0.50000499739E+01  0.50000500000E+01  0.51100000000E-03 0.  1.
     100001    1    1    2    0    0  0.79562715917E-02  0.19114471740E-02  0.20809772033E-01  0.50000500000E+01  0.50000000000E+01 0.  1.
     100001    1    1    2    0    0 -0.79562715917E-02 -0.19114471740E-02 -0.20809772033E-01  0.50000500000E+01  0.50000000000E+01 0.  0.
</event>
<event>
 4    1  0.5017912E-001  0.5000050E+01  0.7818608E-02  0.2136455E+00
        -11   -1    0    0    0    0  0.00000000000E+00  0.00000000000E+00  0.50000499739E+01  0.50000500000E+01  0.51100000000E-03 0.  1.
         11   -1    0    0    0    0 -0.00000000000E+00 -0.00000000000E+00 -0.50000499739E+01  0.50000500000E+01  0.51100000000E-03 0. -1.
     100001    1    1    2    0    0 -0.61405356861E-02 -0.18965608968E-01 -0.10129264434E-01  0.50000500000E+01  0.50000000000E+01 0. -1.
     100001    1    1    2    0    0  0.61405356861E-02  0.18965608968E-01  0.10129264434E-01  0.50000500000E+01  0.50000000000E+01 0.  1.
</event>
<event>
 4    1  0.5017912E-001  0.5000050E+01  0.7818608E-02  0.2136455E+00
        -11   -1    0    0    0    0  0.00000000000E+00  0.00000000000E+00  0.50000499739E+01  0.50000500000E+01  0.51100000000E-03 0.  1.
         11   -1    0    0    0    0 -0.00000000000E+00 -0.00000000000E+00 -0.50000499739E+01  0.50000500000E+01  0.51100000000E-03 0. -1.
     100001    1    1    2    0    0 -0.10409355068E-01  0.19703564261E-01  0.18486163676E-02  0.50000500000E+01  0.50000000000E+01 0. -1.
     100001    1    1    2    0    0  0.10409355068E-01 -0.19703564261E-01 -0.18486163676E-02  0.50000500000E+01  0.50000000000E+01 0.  1.
</event>
<event>
 4    1  0.5017912E-001  0.5000050E+01  0.7818608E-02  0.2136455E+00
        -11   -1    0    0    0    0  0.00000000000E+00  0.00000000000E+00  0.50000499739E+01  0.50000500000E+01  0.51100000000E-03 0.  1.
         11   -1    0    0    0    0 -0.00000000000E+00 -0.00000000000E+00 -0.50000499739E+01  0.50000500000E+01  0.51100000000E-03 0. -1.
     100001    1    1    2    0    0 -0.21403550025E-01 -0.61256722357E-02 -0.20896616953E-02  0.50000500000E+01  0.50000000000E+01 0.  1.
     100001    1    1    2    0    0  0.21403550025E-01  0.61256722357E-02  0.20896616953E-02  0.50000500000E+01  0.50000000000E+01 0. -1.
</event>
<event>
 4    1  0.5017912E-001  0.5000050E+01  0.7818608E-02  0.2136455E+00
        -11   -1    0    0    0    0  0.00000000000E+00  0.00000000000E+00  0.50000499739E+01  0.50000500000E+01  0.51100000000E-03 0.  1.
         11   -1    0    0    0    0 -0.00000000000E+00 -0.00000000000E+00 -0.50000499739E+01  0.50000500000E+01  0.51100000000E-03 0. -1.
     100001    1    1    2    0    0 -0.90723091674E-02  0.18663263386E-01 -0.83293640901E-02  0.50000500000E+01  0.50000000000E+01 0. -1.
     100001    1    1    2    0    0  0.90723091674E-02 -0.18663263386E-01  0.83293640901E-02  0.50000500000E+01  0.50000000000E+01 0.  1.
</event>
<event>
 4    1  0.5017912E-001  0.5000050E+01  0.7818608E-02  0.2136455E+00
        -11   -1    0    0    0    0  0.00000000000E+00  0.00000000000E+00  0.50000499739E+01  0.50000500000E+01  0.51100000000E-03 0. -1.
         11   -1    0    0    0    0 -0.00000000000E+00 -0.00000000000E+00 -0.50000499739E+01  0.50000500000E+01  0.51100000000E-03 0.  1.
     100001    1    1    2    0    0 -0.33230136603E-02 -0.80324172409E-02  0.20601950235E-01  0.50000500000E+01  0.50000000000E+01 0.  0.
     100001    1    1    2    0    0  0.33230136603E-02  0.80324172409E-02 -0.20601950235E-01  0.50000500000E+01  0.50000000000E+01 0.  0.
</event>
<event>
 4    1  0.5017912E-001  0.5000050E+01  0.7818608E-02  0.2136455E+00
        -11   -1    0    0    0    0  0.00000000000E+00  0.00000000000E+00  0.50000499739E+01  0.50000500000E+01  0.51100000000E-03 0.  1.
         11   -1    0    0    0    0 -0.00000000000E+00 -0.00000000000E+00 -0.50000499739E+01  0.50000500000E+01  0.51100000000E-03 0. -1.
     100001    1    1    2    0    0  0.41710660833E-02  0.14536590641E-01  0.16470951407E-01  0.50000500000E+01  0.50000000000E+01 0.  0.
     100001    1    1    2    0    0 -0.41710660833E-02 -0.14536590641E-01 -0.16470951407E-01  0.50000500000E+01  0.50000000000E+01 0.  0.
</event>
<event>
 4    1  0.5017912E-001  0.5000050E+01  0.7818608E-02  0.2136455E+00
        -11   -1    0    0    0    0  0.00000000000E+00  0.00000000000E+00  0.50000499739E+01  0.50000500000E+01  0.51100000000E-03 0.  1.
         11   -1    0    0    0    0 -0.00000000000E+00 -0.00000000000E+00 -0.50000499739E+01  0.50000500000E+01  0.51100000000E-03 0. -1.
     100001    1    1    2    0    0  0.77194287380E-02  0.11258849264E-02  0.20955794022E-01  0.50000500000E+01  0.50000000000E+01 0.  1.
     100001    1    1    2    0    0 -0.77194287380E-02 -0.11258849264E-02 -0.20955794022E-01  0.50000500000E+01  0.50000000000E+01 0.  0.
</event>
<event>
 4    1  0.5017912E-001  0.5000050E+01  0.7818608E-02  0.2136455E+00
        -11   -1    0    0    0    0  0.00000000000E+00  0.00000000000E+00  0.50000499739E+01  0.50000500000E+01  0.51100000000E-03 0. -1.
         11   -1    0    0    0    0 -0.00000000000E+00 -0.00000000000E+00 -0.50000499739E+01  0.50000500000E+01  0.51100000000E-03 0.  1.
     100001    1    1    2    0    0 -0.18104901393E-01  0.12943364281E-01  0.21643397716E-02  0.50000500000E+01  0.50000000000E+01 0.  1.
     100001    1    1    2    0    0  0.18104901393E-01 -0.12943364281E-01 -0.21643397716E-02  0.50000500000E+01  0.50000000000E+01 0. -1.
</event>
<event>
 4    1  0.5017912E-001  0.5000050E+01  0.7818608E-02  0.2136455E+00
        -11   -1    0    0    0    0  0.00000000000E+00  0.00000000000E+00  0.50000499739E+01  0.50000500000E+01  0.51100000000E-03 0.  1.
         11   -1    0    0    0    0 -0.00000000000E+00 -0.00000000000E+00 -0.50000499739E+01  0.50000500000E+01  0.51100000000E-03 0. -1.
     100001    1    1    2    0    0  0.39276964615E-02  0.20401764822E-01  0.82670244125E-02  0.50000500000E+01  0.50000000000E+01 0. -1.
     100001    1    1    2    0    0 -0.39276964615E-02 -0.20401764822E-01 -0.82670244125E-02  0.50000500000E+01  0.50000000000E+01 0.  0.
</event>
<event>
 4    1  0.5017912E-001  0.5000050E+01  0.7818608E-02  0.2136455E+00
        -11   -1    0    0    0    0  0.00000000000E+00  0.00000000000E+00  0.50000499739E+01  0.50000500000E+01  0.51100000000E-03 0. -1.
         11   -1    0    0    0    0 -0.00000000000E+00 -0.00000000000E+00 -0.50000499739E+01  0.50000500000E+01  0.51100000000E-03 0.  1.
     100001    1    1    2    0    0  0.41641898026E-02  0.19478566738E-01 -0.10161075786E-01  0.50000500000E+01  0.50000000000E+01 0.  0.
     100001    1    1    2    0    0 -0.41641898026E-02 -0.19478566738E-01  0.10161075786E-01  0.50000500000E+01  0.50000000000E+01 0.  0.
</event>
<event>
 4    1  0.5017912E-001  0.5000050E+01  0.7818608E-02  0.2136455E+00
        -11   -1    0    0    0    0  0.00000000000E+00  0.00000000000E+00  0.50000499739E+01  0.50000500000E+01  0.51100000000E-03 0. -1.
         11   -1    0    0    0    0 -0.00000000000E+00 -0.00000000000E+00 -0.50000499739E+01  0.50000500000E+01  0.51100000000E-03 0.  1.
     100001    1    1    2    0    0 -0.14721911710E-01  0.16826041795E-01 -0.39004242330E-03  0.50000500000E+01  0.50000000000E+01 0. -1.
     100001    1    1    2    0    0  0.14721911710E-01 -0.16826041795E-01  0.39004242330E-03  0.50000500000E+01  0.50000000000E+01 0.  0.
</event>
<event>
 4    1  0.5017912E-001  0.5000050E+01  0.7818608E-02  0.2136455E+00
        -11   -1    0    0    0    0  0.00000000000E+00  0.00000000000E+00  0.50000499739E+01  0.50000500000E+01  0.51100000000E-03 0. -1.
         11   -1    0    0    0    0 -0.00000000000E+00 -0.00000000000E+00 -0.50000499739E+01  0.50000500000E+01  0.51100000000E-03 0.  1.
     100001    1    1    2    0    0 -0.78097911156E-02  0.19438384072E-01  0.78204147834E-02  0.50000500000E+01  0.50000000000E+01 0. -1.
     100001    1    1    2    0    0  0.78097911156E-02 -0.19438384072E-01 -0.78204147834E-02  0.50000500000E+01  0.50000000000E+01 0.  1.
</event>
<event>
 4    1  0.5017912E-001  0.5000050E+01  0.7818608E-02  0.2136455E+00
        -11   -1    0    0    0    0  0.00000000000E+00  0.00000000000E+00  0.50000499739E+01  0.50000500000E+01  0.51100000000E-03 0.  1.
         11   -1    0    0    0    0 -0.00000000000E+00 -0.00000000000E+00 -0.50000499739E+01  0.50000500000E+01  0.51100000000E-03 0. -1.
     100001    1    1    2    0    0 -0.12329564614E-01  0.18622133089E-01  0.10956713238E-02  0.50000500000E+01  0.50000000000E+01 0.  1.
     100001    1    1    2    0    0  0.12329564614E-01 -0.18622133089E-01 -0.10956713238E-02  0.50000500000E+01  0.50000000000E+01 0. -1.
</event>
<event>
 4    1  0.5017912E-001  0.5000050E+01  0.7818608E-02  0.2136455E+00
        -11   -1    0    0    0    0  0.00000000000E+00  0.00000000000E+00  0.50000499739E+01  0.50000500000E+01  0.51100000000E-03 0.  1.
         11   -1    0    0    0    0 -0.00000000000E+00 -0.00000000000E+00 -0.50000499739E+01  0.50000500000E+01  0.51100000000E-03 0. -1.
     100001    1    1    2    0    0 -0.12213545757E-02  0.21659869567E-01 -0.54185646944E-02  0.50000500000E+01  0.50000000000E+01 0.  1.
     100001    1    1    2    0    0  0.12213545757E-02 -0.21659869567E-01  0.54185646944E-02  0.50000500000E+01  0.50000000000E+01 0.  0.
</event>
<event>
 4    1  0.5017912E-001  0.5000050E+01  0.7818608E-02  0.2136455E+00
        -11   -1    0    0    0    0  0.00000000000E+00  0.00000000000E+00  0.50000499739E+01  0.50000500000E+01  0.51100000000E-03 0.  1.
         11   -1    0    0    0    0 -0.00000000000E+00 -0.00000000000E+00 -0.50000499739E+01  0.50000500000E+01  0.51100000000E-03 0. -1.
     100001    1    1    2    0    0 -0.15340873220E-01  0.72000906427E-02  0.14588310511E-01  0.50000500000E+01  0.50000000000E+01 0.  1.
     100001    1    1    2    0    0  0.15340873220E-01 -0.72000906427E-02 -0.14588310511E-01  0.50000500000E+01  0.50000000000E+01 0. -1.
</event>
<event>
 4    1  0.5017912E-001  0.5000050E+01  0.7818608E-02  0.2136455E+00
        -11   -1    0    0    0    0  0.00000000000E+00  0.00000000000E+00  0.50000499739E+01  0.50000500000E+01  0.51100000000E-03 0.  1.
         11   -1    0    0    0    0 -0.00000000000E+00 -0.00000000000E+00 -0.50000499739E+01  0.50000500000E+01  0.51100000000E-03 0. -1.
     100001    1    1    2    0    0  0.13572752885E-01 -0.94433444039E-02  0.15053442317E-01  0.50000500000E+01  0.50000000000E+01 0.  0.
     100001    1    1    2    0    0 -0.13572752885E-01  0.94433444039E-02 -0.15053442317E-01  0.50000500000E+01  0.50000000000E+01 0.  0.
</event>
<event>
 4    1  0.5017912E-001  0.5000050E+01  0.7818608E-02  0.2136455E+00
        -11   -1    0    0    0    0  0.00000000000E+00  0.00000000000E+00  0.50000499739E+01  0.50000500000E+01  0.51100000000E-03 0.  1.
         11   -1    0    0    0    0 -0.00000000000E+00 -0.00000000000E+00 -0.50000499739E+01  0.50000500000E+01  0.51100000000E-03 0. -1.
     100001    1    1    2    0    0  0.10308111976E-01 -0.18446653684E-01 -0.73120650543E-02  0.50000500000E+01  0.50000000000E+01 0. -1.
     100001    1    1    2    0    0 -0.10308111976E-01  0.18446653684E-01  0.73120650543E-02  0.50000500000E+01  0.50000000000E+01 0.  1.
</event>
<event>
 4    1  0.5017912E-001  0.5000050E+01  0.7818608E-02  0.2136455E+00
        -11   -1    0    0    0    0  0.00000000000E+00  0.00000000000E+00  0.50000499739E+01  0.50000500000E+01  0.51100000000E-03 0.  1.
         11   -1    0    0    0    0 -0.00000000000E+00 -0.00000000000E+00 -0.50000499739E+01  0.50000500000E+01  0.51100000000E-03 0. -1.
     100001    1    1    2    0    0  0.13312201444E-01  0.16783844835E-01  0.64101751349E-02  0.50000500000E+01  0.50000000000E+01 0. -1.
     100001    1    1    2    0    0 -0.13312201444E-01 -0.16783844835E-01 -0.64101751350E-02  0.50000500000E+01  0.50000000000E+01 0.  0.
</event>
<event>
 4    1  0.5017912E-001  0.5000050E+01  0.7818608E-02  0.2136455E+00
        -11   -1    0    0    0    0  0.00000000000E+00  0.00000000000E+00  0.50000499739E+01  0.50000500000E+01  0.51100000000E-03 0. -1.
         11   -1    0    0    0    0 -0.00000000000E+00 -0.00000000000E+00 -0.50000499739E+01  0.50000500000E+01  0.51100000000E-03 0.  1.
     100001    1    1    2    0    0  0.41460196769E-02  0.20837918121E-01 -0.69709532491E-02  0.50000500000E+01  0.50000000000E+01 0.  1.
     100001    1    1    2    0    0 -0.41460196769E-02 -0.20837918121E-01  0.69709532491E-02  0.50000500000E+01  0.50000000000E+01 0. -1.
</event>
<event>
 4    1  0.5017912E-001  0.5000050E+01  0.7818608E-02  0.2136455E+00
        -11   -1    0    0    0    0  0.00000000000E+00  0.00000000000E+00  0.50000499739E+01  0.50000500000E+01  0.51100000000E-03 0.  1.
         11   -1    0    0    0    0 -0.00000000000E+00 -0.00000000000E+00 -0.50000499739E+01  0.50000500000E+01  0.51100000000E-03 0. -1.
     100001    1    1    2    0    0  0.19214550107E-01  0.15009547199E-02  0.11338020070E-01  0.50000500000E+01  0.50000000000E+01 0. -1.
     100001    1    1    2    0    0 -0.19214550107E-01 -0.15009547199E-02 -0.11338020070E-01  0.50000500000E+01  0.50000000000E+01 0.  1.
</event>
<event>
 4    1  0.5017912E-001  0.5000050E+01  0.7818608E-02  0.2136455E+00
        -11   -1    0    0    0    0  0.00000000000E+00  0.00000000000E+00  0.50000499739E+01  0.50000500000E+01  0.51100000000E-03 0.  1.
         11   -1    0    0    0    0 -0.00000000000E+00 -0.00000000000E+00 -0.50000499739E+01  0.50000500000E+01  0.51100000000E-03 0. -1.
     100001    1    1    2    0    0 -0.54846293584E-02 -0.21088468254E-01  0.50197457616E-02  0.50000500000E+01  0.50000000000E+01 0.  0.
     100001    1    1    2    0    0  0.54846293584E-02  0.21088468254E-01 -0.50197457616E-02  0.50000500000E+01  0.50000000000E+01 0.  1.
</event>
<event>
 4    1  0.5017912E-001  0.5000050E+01  0.7818608E-02  0.2136455E+00
        -11   -1    0    0    0    0  0.00000000000E+00  0.00000000000E+00  0.50000499739E+01  0.50000500000E+01  0.51100000000E-03 0.  1.
         11   -1    0    0    0    0 -0.00000000000E+00 -0.00000000000E+00 -0.50000499739E+01  0.50000500000E+01  0.51100000000E-03 0. -1.
     100001    1    1    2    0    0  0.12805216298E-01 -0.17116937782E-01  0.65604402697E-02  0.50000500000E+01  0.50000000000E+01 0.  1.
     100001    1    1    2    0    0 -0.12805216298E-01  0.17116937782E-01 -0.65604402697E-02  0.50000500000E+01  0.50000000000E+01 0. -1.
</event>
<event>
 4    1  0.5017912E-001  0.5000050E+01  0.7818608E-02  0.2136455E+00
        -11   -1    0    0    0    0  0.00000000000E+00  0.00000000000E+00  0.50000499739E+01  0.50000500000E+01  0.51100000000E-03 0.  1.
         11   -1    0    0    0    0 -0.00000000000E+00 -0.00000000000E+00 -0.50000499739E+01  0.50000500000E+01  0.51100000000E-03 0. -1.
     100001    1    1    2    0    0  0.11292915340E-01  0.14583628706E-01  0.12640820261E-01  0.50000500000E+01  0.50000000000E+01 0. -1.
     100001    1    1    2    0    0 -0.11292915340E-01 -0.14583628706E-01 -0.12640820261E-01  0.50000500000E+01  0.50000000000E+01 0.  0.
</event>
<event>
 4    1  0.5017912E-001  0.5000050E+01  0.7818608E-02  0.2136455E+00
        -11   -1    0    0    0    0  0.00000000000E+00  0.00000000000E+00  0.50000499739E+01  0.50000500000E+01  0.51100000000E-03 0. -1.
         11   -1    0    0    0    0 -0.00000000000E+00 -0.00000000000E+00 -0.50000499739E+01  0.50000500000E+01  0.51100000000E-03 0.  1.
     100001    1    1    2    0    0  0.74320149535E-02  0.19687990929E-01 -0.75598060091E-02  0.50000500000E+01  0.50000000000E+01 0.  0.
     100001    1    1    2    0    0 -0.74320149535E-02 -0.19687990929E-01  0.75598060091E-02  0.50000500000E+01  0.50000000000E+01 0.  0.
</event>
<event>
 4    1  0.5017912E-001  0.5000050E+01  0.7818608E-02  0.2136455E+00
        -11   -1    0    0    0    0  0.00000000000E+00  0.00000000000E+00  0.50000499739E+01  0.50000500000E+01  0.51100000000E-03 0.  1.
         11   -1    0    0    0    0 -0.00000000000E+00 -0.00000000000E+00 -0.50000499739E+01  0.50000500000E+01  0.51100000000E-03 0. -1.
     100001    1    1    2    0    0 -0.19126978241E-01 -0.10002625804E-01 -0.58402637263E-02  0.50000500000E+01  0.50000000000E+01 0.  0.
     100001    1    1    2    0    0  0.19126978241E-01  0.10002625804E-01  0.58402637263E-02  0.50000500000E+01  0.50000000000E+01 0.  0.
</event>
<event>
 4    1  0.5017912E-001  0.5000050E+01  0.7818608E-02  0.2136455E+00
        -11   -1    0    0    0    0  0.00000000000E+00  0.00000000000E+00  0.50000499739E+01  0.50000500000E+01  0.51100000000E-03 0. -1.
         11   -1    0    0    0    0 -0.00000000000E+00 -0.00000000000E+00 -0.50000499739E+01  0.50000500000E+01  0.51100000000E-03 0.  1.
     100001    1    1    2    0    0  0.13959153677E-01 -0.94586628504E-02  0.14685987393E-01  0.50000500000E+01  0.50000000000E+01 0. -1.
     100001    1    1    2    0    0 -0.13959153677E-01  0.94586628504E-02 -0.14685987393E-01  0.50000500000E+01  0.50000000000E+01 0.  0.
</event>
<event>
 4    1  0.5017912E-001  0.5000050E+01  0.7818608E-02  0.2136455E+00
        -11   -1    0    0    0    0  0.00000000000E+00  0.00000000000E+00  0.50000499739E+01  0.50000500000E+01  0.51100000000E-03 0.  1.
         11   -1    0    0    0    0 -0.00000000000E+00 -0.00000000000E+00 -0.50000499739E+01  0.50000500000E+01  0.51100000000E-03 0. -1.
     100001    1    1    2    0    0  0.18812650706E-01  0.66338764165E-02  0.10103383448E-01  0.50000500000E+01  0.50000000000E+01 0. -1.
     100001    1    1    2    0    0 -0.18812650706E-01 -0.66338764165E-02 -0.10103383448E-01  0.50000500000E+01  0.50000000000E+01 0.  0.
</event>
<event>
 4    1  0.5017912E-001  0.5000050E+01  0.7818608E-02  0.2136455E+00
        -11   -1    0    0    0    0  0.00000000000E+00  0.00000000000E+00  0.50000499739E+01  0.50000500000E+01  0.51100000000E-03 0.  1.
         11   -1    0    0    0    0 -0.00000000000E+00 -0.00000000000E+00 -0.50000499739E+01  0.50000500000E+01  0.51100000000E-03 0. -1.
     100001    1    1    2    0    0  0.17410198183E-02 -0.14008979823E-01 -0.17341275453E-01  0.50000500000E+01  0.50000000000E+01 0.  0.
     100001    1    1    2    0    0 -0.17410198183E-02  0.14008979823E-01  0.17341275453E-01  0.50000500000E+01  0.50000000000E+01 0.  1.
</event>
<event>
 4    1  0.5017912E-001  0.5000050E+01  0.7818608E-02  0.2136455E+00
        -11   -1    0    0    0    0  0.00000000000E+00  0.00000000000E+00  0.50000499739E+01  0.50000500000E+01  0.51100000000E-03 0.  1.
         11   -1    0    0    0    0 -0.00000000000E+00 -0.00000000000E+00 -0.50000499739E+01  0.50000500000E+01  0.51100000000E-03 0. -1.
     100001    1    1    2    0    0 -0.16623434975E-01  0.23027335769E-02  0.14777054094E-01  0.50000500000E+01  0.50000000000E+01 0. -1.
     100001    1    1    2    0    0  0.16623434975E-01 -0.23027335769E-02 -0.14777054094E-01  0.50000500000E+01  0.50000000000E+01 0.  1.
</event>
<event>
 4    1  0.5017912E-001  0.5000050E+01  0.7818608E-02  0.2136455E+00
        -11   -1    0    0    0    0  0.00000000000E+00  0.00000000000E+00  0.50000499739E+01  0.50000500000E+01  0.51100000000E-03 0. -1.
         11   -1    0    0    0    0 -0.00000000000E+00 -0.00000000000E+00 -0.50000499739E+01  0.50000500000E+01  0.51100000000E-03 0.  1.
     100001    1    1    2    0    0 -0.98385541929E-02 -0.45541451151E-02  0.19556715309E-01  0.50000500000E+01  0.50000000000E+01 0.  0.
     100001    1    1    2    0    0  0.98385541929E-02  0.45541451151E-02 -0.19556715309E-01  0.50000500000E+01  0.50000000000E+01 0.  0.
</event>
<event>
 4    1  0.5017912E-001  0.5000050E+01  0.7818608E-02  0.2136455E+00
        -11   -1    0    0    0    0  0.00000000000E+00  0.00000000000E+00  0.50000499739E+01  0.50000500000E+01  0.51100000000E-03 0. -1.
         11   -1    0    0    0    0 -0.00000000000E+00 -0.00000000000E+00 -0.50000499739E+01  0.50000500000E+01  0.51100000000E-03 0.  1.
     100001    1    1    2    0    0  0.69594653131E-02 -0.20997038771E-01  0.32699702464E-02  0.50000500000E+01  0.50000000000E+01 0.  0.
     100001    1    1    2    0    0 -0.69594653131E-02  0.20997038771E-01 -0.32699702464E-02  0.50000500000E+01  0.50000000000E+01 0.  1.
</event>
<event>
 4    1  0.5017912E-001  0.5000050E+01  0.7818608E-02  0.2136455E+00
        -11   -1    0    0    0    0  0.00000000000E+00  0.00000000000E+00  0.50000499739E+01  0.50000500000E+01  0.51100000000E-03 0.  1.
         11   -1    0    0    0    0 -0.00000000000E+00 -0.00000000000E+00 -0.50000499739E+01  0.50000500000E+01  0.51100000000E-03 0. -1.
     100001    1    1    2    0    0  0.19786199592E-01  0.99642065859E-02 -0.30370039213E-02  0.50000500000E+01  0.50000000000E+01 0.  0.
     100001    1    1    2    0    0 -0.19786199592E-01 -0.99642065859E-02  0.30370039213E-02  0.50000500000E+01  0.50000000000E+01 0. -1.
</event>
<event>
 4    1  0.5017912E-001  0.5000050E+01  0.7818608E-02  0.2136455E+00
        -11   -1    0    0    0    0  0.00000000000E+00  0.00000000000E+00  0.50000499739E+01  0.50000500000E+01  0.51100000000E-03 0. -1.
         11   -1    0    0    0    0 -0.00000000000E+00 -0.00000000000E+00 -0.50000499739E+01  0.50000500000E+01  0.51100000000E-03 0.  1.
     100001    1    1    2    0    0 -0.82889421697E-02  0.63108008745E-02 -0.19785594002E-01  0.50000500000E+01  0.50000000000E+01 0.  1.
     100001    1    1    2    0    0  0.82889421697E-02 -0.63108008745E-02  0.19785594002E-01  0.50000500000E+01  0.50000000000E+01 0.  0.
</event>
<event>
 4    1  0.5017912E-001  0.5000050E+01  0.7818608E-02  0.2136455E+00
        -11   -1    0    0    0    0  0.00000000000E+00  0.00000000000E+00  0.50000499739E+01  0.50000500000E+01  0.51100000000E-03 0.  1.
         11   -1    0    0    0    0 -0.00000000000E+00 -0.00000000000E+00 -0.50000499739E+01  0.50000500000E+01  0.51100000000E-03 0. -1.
     100001    1    1    2    0    0 -0.12952630694E-01 -0.16124255098E-01 -0.84994267840E-02  0.50000500000E+01  0.50000000000E+01 0. -1.
     100001    1    1    2    0    0  0.12952630694E-01  0.16124255098E-01  0.84994267840E-02  0.50000500000E+01  0.50000000000E+01 0.  1.
</event>
<event>
 4    1  0.5017912E-001  0.5000050E+01  0.7818608E-02  0.2136455E+00
        -11   -1    0    0    0    0  0.00000000000E+00  0.00000000000E+00  0.50000499739E+01  0.50000500000E+01  0.51100000000E-03 0.  1.
         11   -1    0    0    0    0 -0.00000000000E+00 -0.00000000000E+00 -0.50000499739E+01  0.50000500000E+01  0.51100000000E-03 0. -1.
     100001    1    1    2    0    0  0.19276760275E-01 -0.14111013941E-03 -0.11330891458E-01  0.50000500000E+01  0.50000000000E+01 0.  1.
     100001    1    1    2    0    0 -0.19276760275E-01  0.14111013941E-03  0.11330891458E-01  0.50000500000E+01  0.50000000000E+01 0.  1.
</event>
<event>
 4    1  0.5017912E-001  0.5000050E+01  0.7818608E-02  0.2136455E+00
        -11   -1    0    0    0    0  0.00000000000E+00  0.00000000000E+00  0.50000499739E+01  0.50000500000E+01  0.51100000000E-03 0. -1.
         11   -1    0    0    0    0 -0.00000000000E+00 -0.00000000000E+00 -0.50000499739E+01  0.50000500000E+01  0.51100000000E-03 0.  1.
     100001    1    1    2    0    0  0.11849836341E-03 -0.13561254028E-01  0.17778662698E-01  0.50000500000E+01  0.50000000000E+01 0.  0.
     100001    1    1    2    0    0 -0.11849836341E-03  0.13561254028E-01 -0.17778662698E-01  0.50000500000E+01  0.50000000000E+01 0. -1.
</event>
<event>
 4    1  0.5017912E-001  0.5000050E+01  0.7818608E-02  0.2136455E+00
        -11   -1    0    0    0    0  0.00000000000E+00  0.00000000000E+00  0.50000499739E+01  0.50000500000E+01  0.51100000000E-03 0.  1.
         11   -1    0    0    0    0 -0.00000000000E+00 -0.00000000000E+00 -0.50000499739E+01  0.50000500000E+01  0.51100000000E-03 0. -1.
     100001    1    1    2    0    0 -0.57409194643E-02  0.50457890938E-02  0.21013908635E-01  0.50000500000E+01  0.50000000000E+01 0.  0.
     100001    1    1    2    0    0  0.57409194643E-02 -0.50457890938E-02 -0.21013908635E-01  0.50000500000E+01  0.50000000000E+01 0. -1.
</event>
<event>
 4    1  0.5017912E-001  0.5000050E+01  0.7818608E-02  0.2136455E+00
        -11   -1    0    0    0    0  0.00000000000E+00  0.00000000000E+00  0.50000499739E+01  0.50000500000E+01  0.51100000000E-03 0.  1.
         11   -1    0    0    0    0 -0.00000000000E+00 -0.00000000000E+00 -0.50000499739E+01  0.50000500000E+01  0.51100000000E-03 0. -1.
     100001    1    1    2    0    0 -0.35789121393E-02  0.13481288617E-01 -0.17477092010E-01  0.50000500000E+01  0.50000000000E+01 0.  0.
     100001    1    1    2    0    0  0.35789121393E-02 -0.13481288617E-01  0.17477092010E-01  0.50000500000E+01  0.50000000000E+01 0.  0.
</event>
<event>
 4    1  0.5017912E-001  0.5000050E+01  0.7818608E-02  0.2136455E+00
        -11   -1    0    0    0    0  0.00000000000E+00  0.00000000000E+00  0.50000499739E+01  0.50000500000E+01  0.51100000000E-03 0. -1.
         11   -1    0    0    0    0 -0.00000000000E+00 -0.00000000000E+00 -0.50000499739E+01  0.50000500000E+01  0.51100000000E-03 0.  1.
     100001    1    1    2    0    0  0.19145261143E-01 -0.10924025740E-01  0.37586084362E-02  0.50000500000E+01  0.50000000000E+01 0. -1.
     100001    1    1    2    0    0 -0.19145261143E-01  0.10924025740E-01 -0.37586084362E-02  0.50000500000E+01  0.50000000000E+01 0.  0.
</event>
<event>
 4    1  0.5017912E-001  0.5000050E+01  0.7818608E-02  0.2136455E+00
        -11   -1    0    0    0    0  0.00000000000E+00  0.00000000000E+00  0.50000499739E+01  0.50000500000E+01  0.51100000000E-03 0.  1.
         11   -1    0    0    0    0 -0.00000000000E+00 -0.00000000000E+00 -0.50000499739E+01  0.50000500000E+01  0.51100000000E-03 0. -1.
     100001    1    1    2    0    0 -0.15997912987E-01 -0.49382763988E-02 -0.14821697145E-01  0.50000500000E+01  0.50000000000E+01 0.  0.
     100001    1    1    2    0    0  0.15997912987E-01  0.49382763988E-02  0.14821697145E-01  0.50000500000E+01  0.50000000000E+01 0.  1.
</event>
<event>
 4    1  0.5017912E-001  0.5000050E+01  0.7818608E-02  0.2136455E+00
        -11   -1    0    0    0    0  0.00000000000E+00  0.00000000000E+00  0.50000499739E+01  0.50000500000E+01  0.51100000000E-03 0. -1.
         11   -1    0    0    0    0 -0.00000000000E+00 -0.00000000000E+00 -0.50000499739E+01  0.50000500000E+01  0.51100000000E-03 0.  1.
     100001    1    1    2    0    0 -0.21935228322E-01 -0.21927988676E-02 -0.37469843295E-02  0.50000500000E+01  0.50000000000E+01 0. -1.
     100001    1    1    2    0    0  0.21935228322E-01  0.21927988676E-02  0.37469843295E-02  0.50000500000E+01  0.50000000000E+01 0.  1.
</event>
<event>
 4    1  0.5017912E-001  0.5000050E+01  0.7818608E-02  0.2136455E+00
        -11   -1    0    0    0    0  0.00000000000E+00  0.00000000000E+00  0.50000499739E+01  0.50000500000E+01  0.51100000000E-03 0. -1.
         11   -1    0    0    0    0 -0.00000000000E+00 -0.00000000000E+00 -0.50000499739E+01  0.50000500000E+01  0.51100000000E-03 0.  1.
     100001    1    1    2    0    0 -0.68338934473E-02 -0.11367229920E-01  0.18002402181E-01  0.50000500000E+01  0.50000000000E+01 0.  0.
     100001    1    1    2    0    0  0.68338934473E-02  0.11367229920E-01 -0.18002402181E-01  0.50000500000E+01  0.50000000000E+01 0.  1.
</event>
<event>
 4    1  0.5017912E-001  0.5000050E+01  0.7818608E-02  0.2136455E+00
        -11   -1    0    0    0    0  0.00000000000E+00  0.00000000000E+00  0.50000499739E+01  0.50000500000E+01  0.51100000000E-03 0.  1.
         11   -1    0    0    0    0 -0.00000000000E+00 -0.00000000000E+00 -0.50000499739E+01  0.50000500000E+01  0.51100000000E-03 0. -1.
     100001    1    1    2    0    0 -0.11349962807E-01  0.15738249640E-01 -0.11112530879E-01  0.50000500000E+01  0.50000000000E+01 0.  0.
     100001    1    1    2    0    0  0.11349962807E-01 -0.15738249640E-01  0.11112530879E-01  0.50000500000E+01  0.50000000000E+01 0. -1.
</event>
<event>
 4    1  0.5017912E-001  0.5000050E+01  0.7818608E-02  0.2136455E+00
        -11   -1    0    0    0    0  0.00000000000E+00  0.00000000000E+00  0.50000499739E+01  0.50000500000E+01  0.51100000000E-03 0.  1.
         11   -1    0    0    0    0 -0.00000000000E+00 -0.00000000000E+00 -0.50000499739E+01  0.50000500000E+01  0.51100000000E-03 0. -1.
     100001    1    1    2    0    0 -0.21033143665E-01  0.47711227507E-02 -0.59030293289E-02  0.50000500000E+01  0.50000000000E+01 0.  0.
     100001    1    1    2    0    0  0.21033143665E-01 -0.47711227507E-02  0.59030293289E-02  0.50000500000E+01  0.50000000000E+01 0. -1.
</event>
<event>
 4    1  0.5017912E-001  0.5000050E+01  0.7818608E-02  0.2136455E+00
        -11   -1    0    0    0    0  0.00000000000E+00  0.00000000000E+00  0.50000499739E+01  0.50000500000E+01  0.51100000000E-03 0.  1.
         11   -1    0    0    0    0 -0.00000000000E+00 -0.00000000000E+00 -0.50000499739E+01  0.50000500000E+01  0.51100000000E-03 0. -1.
     100001    1    1    2    0    0 -0.37956444721E-02 -0.21257631593E-01  0.58059178502E-02  0.50000500000E+01  0.50000000000E+01 0. -1.
     100001    1    1    2    0    0  0.37956444721E-02  0.21257631593E-01 -0.58059178502E-02  0.50000500000E+01  0.50000000000E+01 0.  0.
</event>
<event>
 4    1  0.5017912E-001  0.5000050E+01  0.7818608E-02  0.2136455E+00
        -11   -1    0    0    0    0  0.00000000000E+00  0.00000000000E+00  0.50000499739E+01  0.50000500000E+01  0.51100000000E-03 0. -1.
         11   -1    0    0    0    0 -0.00000000000E+00 -0.00000000000E+00 -0.50000499739E+01  0.50000500000E+01  0.51100000000E-03 0.  1.
     100001    1    1    2    0    0  0.19746840271E-01 -0.54131696682E-02 -0.89867899423E-02  0.50000500000E+01  0.50000000000E+01 0.  0.
     100001    1    1    2    0    0 -0.19746840271E-01  0.54131696682E-02  0.89867899423E-02  0.50000500000E+01  0.50000000000E+01 0.  1.
</event>
<event>
 4    1  0.5017912E-001  0.5000050E+01  0.7818608E-02  0.2136455E+00
        -11   -1    0    0    0    0  0.00000000000E+00  0.00000000000E+00  0.50000499739E+01  0.50000500000E+01  0.51100000000E-03 0.  1.
         11   -1    0    0    0    0 -0.00000000000E+00 -0.00000000000E+00 -0.50000499739E+01  0.50000500000E+01  0.51100000000E-03 0. -1.
     100001    1    1    2    0    0  0.64933942071E-02 -0.55566705032E-02  0.20663052644E-01  0.50000500000E+01  0.50000000000E+01 0.  1.
     100001    1    1    2    0    0 -0.64933942071E-02  0.55566705032E-02 -0.20663052644E-01  0.50000500000E+01  0.50000000000E+01 0.  1.
</event>
<event>
 4    1  0.5017912E-001  0.5000050E+01  0.7818608E-02  0.2136455E+00
        -11   -1    0    0    0    0  0.00000000000E+00  0.00000000000E+00  0.50000499739E+01  0.50000500000E+01  0.51100000000E-03 0.  1.
         11   -1    0    0    0    0 -0.00000000000E+00 -0.00000000000E+00 -0.50000499739E+01  0.50000500000E+01  0.51100000000E-03 0. -1.
     100001    1    1    2    0    0  0.12915099671E-01 -0.13640450039E-02  0.18202804227E-01  0.50000500000E+01  0.50000000000E+01 0.  1.
     100001    1    1    2    0    0 -0.12915099671E-01  0.13640450039E-02 -0.18202804227E-01  0.50000500000E+01  0.50000000000E+01 0. -1.
</event>
<event>
 4    1  0.5017912E-001  0.5000050E+01  0.7818608E-02  0.2136455E+00
        -11   -1    0    0    0    0  0.00000000000E+00  0.00000000000E+00  0.50000499739E+01  0.50000500000E+01  0.51100000000E-03 0.  1.
         11   -1    0    0    0    0 -0.00000000000E+00 -0.00000000000E+00 -0.50000499739E+01  0.50000500000E+01  0.51100000000E-03 0. -1.
     100001    1    1    2    0    0 -0.16289685180E-01  0.15236942087E-01  0.15761511893E-02  0.50000500000E+01  0.50000000000E+01 0.  1.
     100001    1    1    2    0    0  0.16289685180E-01 -0.15236942087E-01 -0.15761511893E-02  0.50000500000E+01  0.50000000000E+01 0. -1.
</event>
<event>
 4    1  0.5017912E-001  0.5000050E+01  0.7818608E-02  0.2136455E+00
        -11   -1    0    0    0    0  0.00000000000E+00  0.00000000000E+00  0.50000499739E+01  0.50000500000E+01  0.51100000000E-03 0.  1.
         11   -1    0    0    0    0 -0.00000000000E+00 -0.00000000000E+00 -0.50000499739E+01  0.50000500000E+01  0.51100000000E-03 0. -1.
     100001    1    1    2    0    0  0.12338870540E-01  0.47727825514E-02 -0.18027071879E-01  0.50000500000E+01  0.50000000000E+01 0.  0.
     100001    1    1    2    0    0 -0.12338870540E-01 -0.47727825514E-02  0.18027071879E-01  0.50000500000E+01  0.50000000000E+01 0. -1.
</event>
<event>
 4    1  0.5017912E-001  0.5000050E+01  0.7818608E-02  0.2136455E+00
        -11   -1    0    0    0    0  0.00000000000E+00  0.00000000000E+00  0.50000499739E+01  0.50000500000E+01  0.51100000000E-03 0.  1.
         11   -1    0    0    0    0 -0.00000000000E+00 -0.00000000000E+00 -0.50000499739E+01  0.50000500000E+01  0.51100000000E-03 0. -1.
     100001    1    1    2    0    0 -0.39185123834E-02  0.17872229462E-01 -0.12854227894E-01  0.50000500000E+01  0.50000000000E+01 0. -1.
     100001    1    1    2    0    0  0.39185123834E-02 -0.17872229462E-01  0.12854227894E-01  0.50000500000E+01  0.50000000000E+01 0.  1.
</event>
<event>
 4    1  0.5017912E-001  0.5000050E+01  0.7818608E-02  0.2136455E+00
        -11   -1    0    0    0    0  0.00000000000E+00  0.00000000000E+00  0.50000499739E+01  0.50000500000E+01  0.51100000000E-03 0. -1.
         11   -1    0    0    0    0 -0.00000000000E+00 -0.00000000000E+00 -0.50000499739E+01  0.50000500000E+01  0.51100000000E-03 0.  1.
     100001    1    1    2    0    0 -0.71905119868E-02 -0.14547970735E-01  0.15383614168E-01  0.50000500000E+01  0.50000000000E+01 0.  0.
     100001    1    1    2    0    0  0.71905119868E-02  0.14547970735E-01 -0.15383614168E-01  0.50000500000E+01  0.50000000000E+01 0.  0.
</event>
<event>
 4    1  0.5017912E-001  0.5000050E+01  0.7818608E-02  0.2136455E+00
        -11   -1    0    0    0    0  0.00000000000E+00  0.00000000000E+00  0.50000499739E+01  0.50000500000E+01  0.51100000000E-03 0. -1.
         11   -1    0    0    0    0 -0.00000000000E+00 -0.00000000000E+00 -0.50000499739E+01  0.50000500000E+01  0.51100000000E-03 0.  1.
     100001    1    1    2    0    0 -0.12457276719E-01 -0.50271159571E-02 -0.17875873738E-01  0.50000500000E+01  0.50000000000E+01 0.  0.
     100001    1    1    2    0    0  0.12457276719E-01  0.50271159571E-02  0.17875873738E-01  0.50000500000E+01  0.50000000000E+01 0.  0.
</event>
<event>
 4    1  0.5017912E-001  0.5000050E+01  0.7818608E-02  0.2136455E+00
        -11   -1    0    0    0    0  0.00000000000E+00  0.00000000000E+00  0.50000499739E+01  0.50000500000E+01  0.51100000000E-03 0.  1.
         11   -1    0    0    0    0 -0.00000000000E+00 -0.00000000000E+00 -0.50000499739E+01  0.50000500000E+01  0.51100000000E-03 0. -1.
     100001    1    1    2    0    0  0.48717516072E-02  0.26132508125E-02  0.21666551559E-01  0.50000500000E+01  0.50000000000E+01 0.  0.
     100001    1    1    2    0    0 -0.48717516072E-02 -0.26132508125E-02 -0.21666551559E-01  0.50000500000E+01  0.50000000000E+01 0. -1.
</event>
<event>
 4    1  0.5017912E-001  0.5000050E+01  0.7818608E-02  0.2136455E+00
        -11   -1    0    0    0    0  0.00000000000E+00  0.00000000000E+00  0.50000499739E+01  0.50000500000E+01  0.51100000000E-03 0.  1.
         11   -1    0    0    0    0 -0.00000000000E+00 -0.00000000000E+00 -0.50000499739E+01  0.50000500000E+01  0.51100000000E-03 0. -1.
     100001    1    1    2    0    0  0.21532885824E-01  0.55282903827E-02 -0.24031923586E-02  0.50000500000E+01  0.50000000000E+01 0. -1.
     100001    1    1    2    0    0 -0.21532885824E-01 -0.55282903827E-02  0.24031923586E-02  0.50000500000E+01  0.50000000000E+01 0.  1.
</event>
<event>
 4    1  0.5017912E-001  0.5000050E+01  0.7818608E-02  0.2136455E+00
        -11   -1    0    0    0    0  0.00000000000E+00  0.00000000000E+00  0.50000499739E+01  0.50000500000E+01  0.51100000000E-03 0.  1.
         11   -1    0    0    0    0 -0.00000000000E+00 -0.00000000000E+00 -0.50000499739E+01  0.50000500000E+01  0.51100000000E-03 0. -1.
     100001    1    1    2    0    0  0.22145559776E-01  0.19180593772E-02  0.24285243297E-02  0.50000500000E+01  0.50000000000E+01 0.  1.
     100001    1    1    2    0    0 -0.22145559776E-01 -0.19180593772E-02 -0.24285243297E-02  0.50000500000E+01  0.50000000000E+01 0. -1.
</event>
<event>
 4    1  0.5017912E-001  0.5000050E+01  0.7818608E-02  0.2136455E+00
        -11   -1    0    0    0    0  0.00000000000E+00  0.00000000000E+00  0.50000499739E+01  0.50000500000E+01  0.51100000000E-03 0.  1.
         11   -1    0    0    0    0 -0.00000000000E+00 -0.00000000000E+00 -0.50000499739E+01  0.50000500000E+01  0.51100000000E-03 0. -1.
     100001    1    1    2    0    0 -0.67048127747E-02  0.64158104319E-03  0.21322203437E-01  0.50000500000E+01  0.50000000000E+01 0.  1.
     100001    1    1    2    0    0  0.67048127747E-02 -0.64158104319E-03 -0.21322203437E-01  0.50000500000E+01  0.50000000000E+01 0.  0.
</event>
<event>
 4    1  0.5017912E-001  0.5000050E+01  0.7818608E-02  0.2136455E+00
        -11   -1    0    0    0    0  0.00000000000E+00  0.00000000000E+00  0.50000499739E+01  0.50000500000E+01  0.51100000000E-03 0. -1.
         11   -1    0    0    0    0 -0.00000000000E+00 -0.00000000000E+00 -0.50000499739E+01  0.50000500000E+01  0.51100000000E-03 0.  1.
     100001    1    1    2    0    0 -0.17985880891E-02  0.12641579316E-01 -0.18356417224E-01  0.50000500000E+01  0.50000000000E+01 0.  0.
     100001    1    1    2    0    0  0.17985880891E-02 -0.12641579316E-01  0.18356417224E-01  0.50000500000E+01  0.50000000000E+01 0.  0.
</event>
<event>
 4    1  0.5017912E-001  0.5000050E+01  0.7818608E-02  0.2136455E+00
        -11   -1    0    0    0    0  0.00000000000E+00  0.00000000000E+00  0.50000499739E+01  0.50000500000E+01  0.51100000000E-03 0. -1.
         11   -1    0    0    0    0 -0.00000000000E+00 -0.00000000000E+00 -0.50000499739E+01  0.50000500000E+01  0.51100000000E-03 0.  1.
     100001    1    1    2    0    0 -0.17213564151E-01  0.81254667496E-02 -0.11733392490E-01  0.50000500000E+01  0.50000000000E+01 0.  1.
     100001    1    1    2    0    0  0.17213564151E-01 -0.81254667496E-02  0.11733392490E-01  0.50000500000E+01  0.50000000000E+01 0.  1.
</event>
<event>
 4    1  0.5017912E-001  0.5000050E+01  0.7818608E-02  0.2136455E+00
        -11   -1    0    0    0    0  0.00000000000E+00  0.00000000000E+00  0.50000499739E+01  0.50000500000E+01  0.51100000000E-03 0.  1.
         11   -1    0    0    0    0 -0.00000000000E+00 -0.00000000000E+00 -0.50000499739E+01  0.50000500000E+01  0.51100000000E-03 0. -1.
     100001    1    1    2    0    0  0.19677375642E-01 -0.47947827432E-02 -0.94769956352E-02  0.50000500000E+01  0.50000000000E+01 0.  1.
     100001    1    1    2    0    0 -0.19677375642E-01  0.47947827432E-02  0.94769956352E-02  0.50000500000E+01  0.50000000000E+01 0. -1.
</event>
<event>
 4    1  0.5017912E-001  0.5000050E+01  0.7818608E-02  0.2136455E+00
        -11   -1    0    0    0    0  0.00000000000E+00  0.00000000000E+00  0.50000499739E+01  0.50000500000E+01  0.51100000000E-03 0. -1.
         11   -1    0    0    0    0 -0.00000000000E+00 -0.00000000000E+00 -0.50000499739E+01  0.50000500000E+01  0.51100000000E-03 0.  1.
     100001    1    1    2    0    0  0.20937383396E-01 -0.77522749395E-02  0.12372185740E-02  0.50000500000E+01  0.50000000000E+01 0.  1.
     100001    1    1    2    0    0 -0.20937383396E-01  0.77522749395E-02 -0.12372185740E-02  0.50000500000E+01  0.50000000000E+01 0. -1.
</event>
<event>
 4    1  0.5017912E-001  0.5000050E+01  0.7818608E-02  0.2136455E+00
        -11   -1    0    0    0    0  0.00000000000E+00  0.00000000000E+00  0.50000499739E+01  0.50000500000E+01  0.51100000000E-03 0. -1.
         11   -1    0    0    0    0 -0.00000000000E+00 -0.00000000000E+00 -0.50000499739E+01  0.50000500000E+01  0.51100000000E-03 0.  1.
     100001    1    1    2    0    0  0.42317606457E-02 -0.17233779344E-01 -0.13604835587E-01  0.50000500000E+01  0.50000000000E+01 0.  1.
     100001    1    1    2    0    0 -0.42317606457E-02  0.17233779344E-01  0.13604835587E-01  0.50000500000E+01  0.50000000000E+01 0. -1.
</event>
<event>
 4    1  0.5017912E-001  0.5000050E+01  0.7818608E-02  0.2136455E+00
        -11   -1    0    0    0    0  0.00000000000E+00  0.00000000000E+00  0.50000499739E+01  0.50000500000E+01  0.51100000000E-03 0.  1.
         11   -1    0    0    0    0 -0.00000000000E+00 -0.00000000000E+00 -0.50000499739E+01  0.50000500000E+01  0.51100000000E-03 0. -1.
     100001    1    1    2    0    0 -0.10954349483E-01  0.11331194074E-01 -0.15862180439E-01  0.50000500000E+01  0.50000000000E+01 0. -1.
     100001    1    1    2    0    0  0.10954349483E-01 -0.11331194074E-01  0.15862180439E-01  0.50000500000E+01  0.50000000000E+01 0.  1.
</event>
<event>
 4    1  0.5017912E-001  0.5000050E+01  0.7818608E-02  0.2136455E+00
        -11   -1    0    0    0    0  0.00000000000E+00  0.00000000000E+00  0.50000499739E+01  0.50000500000E+01  0.51100000000E-03 0. -1.
         11   -1    0    0    0    0 -0.00000000000E+00 -0.00000000000E+00 -0.50000499739E+01  0.50000500000E+01  0.51100000000E-03 0.  1.
     100001    1    1    2    0    0 -0.46142667930E-02 -0.20496520406E-01  0.76553049062E-02  0.50000500000E+01  0.50000000000E+01 0.  1.
     100001    1    1    2    0    0  0.46142667930E-02  0.20496520406E-01 -0.76553049062E-02  0.50000500000E+01  0.50000000000E+01 0.  0.
</event>
<event>
 4    1  0.5017912E-001  0.5000050E+01  0.7818608E-02  0.2136455E+00
        -11   -1    0    0    0    0  0.00000000000E+00  0.00000000000E+00  0.50000499739E+01  0.50000500000E+01  0.51100000000E-03 0. -1.
         11   -1    0    0    0    0 -0.00000000000E+00 -0.00000000000E+00 -0.50000499739E+01  0.50000500000E+01  0.51100000000E-03 0.  1.
     100001    1    1    2    0    0 -0.86178237007E-02  0.14512609337E-01  0.14666962361E-01  0.50000500000E+01  0.50000000000E+01 0. -1.
     100001    1    1    2    0    0  0.86178237007E-02 -0.14512609337E-01 -0.14666962361E-01  0.50000500000E+01  0.50000000000E+01 0.  1.
</event>
<event>
 4    1  0.5017912E-001  0.5000050E+01  0.7818608E-02  0.2136455E+00
        -11   -1    0    0    0    0  0.00000000000E+00  0.00000000000E+00  0.50000499739E+01  0.50000500000E+01  0.51100000000E-03 0. -1.
         11   -1    0    0    0    0 -0.00000000000E+00 -0.00000000000E+00 -0.50000499739E+01  0.50000500000E+01  0.51100000000E-03 0.  1.
     100001    1    1    2    0    0 -0.15030647428E-01  0.50349628331E-02  0.15771217048E-01  0.50000500000E+01  0.50000000000E+01 0.  0.
     100001    1    1    2    0    0  0.15030647428E-01 -0.50349628331E-02 -0.15771217048E-01  0.50000500000E+01  0.50000000000E+01 0.  0.
</event>
<event>
 4    1  0.5017912E-001  0.5000050E+01  0.7818608E-02  0.2136455E+00
        -11   -1    0    0    0    0  0.00000000000E+00  0.00000000000E+00  0.50000499739E+01  0.50000500000E+01  0.51100000000E-03 0. -1.
         11   -1    0    0    0    0 -0.00000000000E+00 -0.00000000000E+00 -0.50000499739E+01  0.50000500000E+01  0.51100000000E-03 0.  1.
     100001    1    1    2    0    0  0.16161625687E-01  0.11737267539E-01 -0.10051910559E-01  0.50000500000E+01  0.50000000000E+01 0.  1.
     100001    1    1    2    0    0 -0.16161625687E-01 -0.11737267539E-01  0.10051910559E-01  0.50000500000E+01  0.50000000000E+01 0. -1.
</event>
<event>
 4    1  0.5017912E-001  0.5000050E+01  0.7818608E-02  0.2136455E+00
        -11   -1    0    0    0    0  0.00000000000E+00  0.00000000000E+00  0.50000499739E+01  0.50000500000E+01  0.51100000000E-03 0.  1.
         11   -1    0    0    0    0 -0.00000000000E+00 -0.00000000000E+00 -0.50000499739E+01  0.50000500000E+01  0.51100000000E-03 0. -1.
     100001    1    1    2    0    0  0.18300326844E-01  0.69215039741E-02 -0.10825586364E-01  0.50000500000E+01  0.50000000000E+01 0.  0.
     100001    1    1    2    0    0 -0.18300326844E-01 -0.69215039741E-02  0.10825586364E-01  0.50000500000E+01  0.50000000000E+01 0.  0.
</event>
<event>
 4    1  0.5017912E-001  0.5000050E+01  0.7818608E-02  0.2136455E+00
        -11   -1    0    0    0    0  0.00000000000E+00  0.00000000000E+00  0.50000499739E+01  0.50000500000E+01  0.51100000000E-03 0. -1.
         11   -1    0    0    0    0 -0.00000000000E+00 -0.00000000000E+00 -0.50000499739E+01  0.50000500000E+01  0.51100000000E-03 0.  1.
     100001    1    1    2    0    0 -0.10230373879E-01 -0.21913170472E-02  0.19762086932E-01  0.50000500000E+01  0.50000000000E+01 0.  0.
     100001    1    1    2    0    0  0.10230373879E-01  0.21913170472E-02 -0.19762086932E-01  0.50000500000E+01  0.50000000000E+01 0.  0.
</event>
<event>
 4    1  0.5017912E-001  0.5000050E+01  0.7818608E-02  0.2136455E+00
        -11   -1    0    0    0    0  0.00000000000E+00  0.00000000000E+00  0.50000499739E+01  0.50000500000E+01  0.51100000000E-03 0.  1.
         11   -1    0    0    0    0 -0.00000000000E+00 -0.00000000000E+00 -0.50000499739E+01  0.50000500000E+01  0.51100000000E-03 0. -1.
     100001    1    1    2    0    0 -0.13432943090E-01 -0.32957891683E-02  0.17569755653E-01  0.50000500000E+01  0.50000000000E+01 0.  1.
     100001    1    1    2    0    0  0.13432943090E-01  0.32957891683E-02 -0.17569755653E-01  0.50000500000E+01  0.50000000000E+01 0. -1.
</event>
<event>
 4    1  0.5017912E-001  0.5000050E+01  0.7818608E-02  0.2136455E+00
        -11   -1    0    0    0    0  0.00000000000E+00  0.00000000000E+00  0.50000499739E+01  0.50000500000E+01  0.51100000000E-03 0.  1.
         11   -1    0    0    0    0 -0.00000000000E+00 -0.00000000000E+00 -0.50000499739E+01  0.50000500000E+01  0.51100000000E-03 0. -1.
     100001    1    1    2    0    0  0.13302153863E-02  0.17378433644E-01 -0.14007964560E-01  0.50000500000E+01  0.50000000000E+01 0. -1.
     100001    1    1    2    0    0 -0.13302153863E-02 -0.17378433644E-01  0.14007964560E-01  0.50000500000E+01  0.50000000000E+01 0. -1.
</event>
<event>
 4    1  0.5017912E-001  0.5000050E+01  0.7818608E-02  0.2136455E+00
        -11   -1    0    0    0    0  0.00000000000E+00  0.00000000000E+00  0.50000499739E+01  0.50000500000E+01  0.51100000000E-03 0.  1.
         11   -1    0    0    0    0 -0.00000000000E+00 -0.00000000000E+00 -0.50000499739E+01  0.50000500000E+01  0.51100000000E-03 0. -1.
     100001    1    1    2    0    0  0.20799589939E-01 -0.76199672735E-02 -0.30521561408E-02  0.50000500000E+01  0.50000000000E+01 0.  0.
     100001    1    1    2    0    0 -0.20799589939E-01  0.76199672735E-02  0.30521561408E-02  0.50000500000E+01  0.50000000000E+01 0. -1.
</event>
<event>
 4    1  0.5017912E-001  0.5000050E+01  0.7818608E-02  0.2136455E+00
        -11   -1    0    0    0    0  0.00000000000E+00  0.00000000000E+00  0.50000499739E+01  0.50000500000E+01  0.51100000000E-03 0.  1.
         11   -1    0    0    0    0 -0.00000000000E+00 -0.00000000000E+00 -0.50000499739E+01  0.50000500000E+01  0.51100000000E-03 0. -1.
     100001    1    1    2    0    0 -0.50889678020E-02 -0.74970079817E-02 -0.20442597145E-01  0.50000500000E+01  0.50000000000E+01 0. -1.
     100001    1    1    2    0    0  0.50889678020E-02  0.74970079817E-02  0.20442597145E-01  0.50000500000E+01  0.50000000000E+01 0.  0.
</event>
<event>
 4    1  0.5017912E-001  0.5000050E+01  0.7818608E-02  0.2136455E+00
        -11   -1    0    0    0    0  0.00000000000E+00  0.00000000000E+00  0.50000499739E+01  0.50000500000E+01  0.51100000000E-03 0. -1.
         11   -1    0    0    0    0 -0.00000000000E+00 -0.00000000000E+00 -0.50000499739E+01  0.50000500000E+01  0.51100000000E-03 0.  1.
     100001    1    1    2    0    0 -0.14355438437E-01 -0.11596661661E-01 -0.12627007785E-01  0.50000500000E+01  0.50000000000E+01 0.  1.
     100001    1    1    2    0    0  0.14355438437E-01  0.11596661661E-01  0.12627007785E-01  0.50000500000E+01  0.50000000000E+01 0. -1.
</event>
<event>
 4    1  0.5017912E-001  0.5000050E+01  0.7818608E-02  0.2136455E+00
        -11   -1    0    0    0    0  0.00000000000E+00  0.00000000000E+00  0.50000499739E+01  0.50000500000E+01  0.51100000000E-03 0. -1.
         11   -1    0    0    0    0 -0.00000000000E+00 -0.00000000000E+00 -0.50000499739E+01  0.50000500000E+01  0.51100000000E-03 0.  1.
     100001    1    1    2    0    0  0.10126225695E-01  0.57206690944E-02  0.19098062684E-01  0.50000500000E+01  0.50000000000E+01 0.  0.
     100001    1    1    2    0    0 -0.10126225695E-01 -0.57206690944E-02 -0.19098062684E-01  0.50000500000E+01  0.50000000000E+01 0.  0.
</event>
<event>
 4    1  0.5017912E-001  0.5000050E+01  0.7818608E-02  0.2136455E+00
        -11   -1    0    0    0    0  0.00000000000E+00  0.00000000000E+00  0.50000499739E+01  0.50000500000E+01  0.51100000000E-03 0.  1.
         11   -1    0    0    0    0 -0.00000000000E+00 -0.00000000000E+00 -0.50000499739E+01  0.50000500000E+01  0.51100000000E-03 0. -1.
     100001    1    1    2    0    0 -0.14098726513E-01 -0.11060014092E-01 -0.13375518643E-01  0.50000500000E+01  0.50000000000E+01 0. -1.
     100001    1    1    2    0    0  0.14098726513E-01  0.11060014092E-01  0.13375518643E-01  0.50000500000E+01  0.50000000000E+01 0.  1.
</event>
<event>
 4    1  0.1763181E+000  0.5000050E+01  0.7818608E-02  0.2136455E+00
        -11   -1    0    0    0    0  0.00000000000E+00  0.00000000000E+00  0.50000499739E+01  0.50000500000E+01  0.51100000000E-03 0.  1.
         11   -1    0    0    0    0 -0.00000000000E+00 -0.00000000000E+00 -0.50000499739E+01  0.50000500000E+01  0.51100000000E-03 0. -1.
     100001    1    1    2    0    0  0.12674109087E-02 -0.34850804244E-02  0.22051085779E-01  0.50000500000E+01  0.50000000000E+01 0.  1.
     100001    1    1    2    0    0 -0.12674109087E-02  0.34850804244E-02 -0.22051085779E-01  0.50000500000E+01  0.50000000000E+01 0.  0.
</event>
<event>
 4    1  0.5017912E-001  0.5000050E+01  0.7818608E-02  0.2136455E+00
        -11   -1    0    0    0    0  0.00000000000E+00  0.00000000000E+00  0.50000499739E+01  0.50000500000E+01  0.51100000000E-03 0. -1.
         11   -1    0    0    0    0 -0.00000000000E+00 -0.00000000000E+00 -0.50000499739E+01  0.50000500000E+01  0.51100000000E-03 0.  1.
     100001    1    1    2    0    0 -0.15155582134E-01 -0.84965494486E-02  0.14075492092E-01  0.50000500000E+01  0.50000000000E+01 0. -1.
     100001    1    1    2    0    0  0.15155582134E-01  0.84965494486E-02 -0.14075492092E-01  0.50000500000E+01  0.50000000000E+01 0. -1.
</event>
<event>
 4    1  0.5017912E-001  0.5000050E+01  0.7818608E-02  0.2136455E+00
        -11   -1    0    0    0    0  0.00000000000E+00  0.00000000000E+00  0.50000499739E+01  0.50000500000E+01  0.51100000000E-03 0. -1.
         11   -1    0    0    0    0 -0.00000000000E+00 -0.00000000000E+00 -0.50000499739E+01  0.50000500000E+01  0.51100000000E-03 0.  1.
     100001    1    1    2    0    0  0.16371961454E-01 -0.13624667612E-01 -0.68066005184E-02  0.50000500000E+01  0.50000000000E+01 0. -1.
     100001    1    1    2    0    0 -0.16371961454E-01  0.13624667612E-01  0.68066005184E-02  0.50000500000E+01  0.50000000000E+01 0.  0.
</event>
<event>
 4    1  0.5017912E-001  0.5000050E+01  0.7818608E-02  0.2136455E+00
        -11   -1    0    0    0    0  0.00000000000E+00  0.00000000000E+00  0.50000499739E+01  0.50000500000E+01  0.51100000000E-03 0. -1.
         11   -1    0    0    0    0 -0.00000000000E+00 -0.00000000000E+00 -0.50000499739E+01  0.50000500000E+01  0.51100000000E-03 0.  1.
     100001    1    1    2    0    0  0.20909378778E-02  0.21126015141E-01 -0.70229597074E-02  0.50000500000E+01  0.50000000000E+01 0.  1.
     100001    1    1    2    0    0 -0.20909378778E-02 -0.21126015141E-01  0.70229597074E-02  0.50000500000E+01  0.50000000000E+01 0. -1.
</event>
<event>
 4    1  0.5017912E-001  0.5000050E+01  0.7818608E-02  0.2136455E+00
        -11   -1    0    0    0    0  0.00000000000E+00  0.00000000000E+00  0.50000499739E+01  0.50000500000E+01  0.51100000000E-03 0. -1.
         11   -1    0    0    0    0 -0.00000000000E+00 -0.00000000000E+00 -0.50000499739E+01  0.50000500000E+01  0.51100000000E-03 0.  1.
     100001    1    1    2    0    0  0.12799305712E-01  0.17351224030E-01 -0.59258162263E-02  0.50000500000E+01  0.50000000000E+01 0.  0.
     100001    1    1    2    0    0 -0.12799305712E-01 -0.17351224030E-01  0.59258162263E-02  0.50000500000E+01  0.50000000000E+01 0.  0.
</event>
<event>
 4    1  0.5017912E-001  0.5000050E+01  0.7818608E-02  0.2136455E+00
        -11   -1    0    0    0    0  0.00000000000E+00  0.00000000000E+00  0.50000499739E+01  0.50000500000E+01  0.51100000000E-03 0. -1.
         11   -1    0    0    0    0 -0.00000000000E+00 -0.00000000000E+00 -0.50000499739E+01  0.50000500000E+01  0.51100000000E-03 0.  1.
     100001    1    1    2    0    0  0.16474748820E-01 -0.43131188217E-02 -0.14490761103E-01  0.50000500000E+01  0.50000000000E+01 0.  1.
     100001    1    1    2    0    0 -0.16474748820E-01  0.43131188217E-02  0.14490761103E-01  0.50000500000E+01  0.50000000000E+01 0. -1.
</event>
<event>
 4    1  0.5017912E-001  0.5000050E+01  0.7818608E-02  0.2136455E+00
        -11   -1    0    0    0    0  0.00000000000E+00  0.00000000000E+00  0.50000499739E+01  0.50000500000E+01  0.51100000000E-03 0.  1.
         11   -1    0    0    0    0 -0.00000000000E+00 -0.00000000000E+00 -0.50000499739E+01  0.50000500000E+01  0.51100000000E-03 0. -1.
     100001    1    1    2    0    0  0.14449427741E-01 -0.17013080761E-01 -0.13310225321E-02  0.50000500000E+01  0.50000000000E+01 0.  1.
     100001    1    1    2    0    0 -0.14449427741E-01  0.17013080761E-01  0.13310225321E-02  0.50000500000E+01  0.50000000000E+01 0. -1.
</event>
<event>
 4    1  0.5017912E-001  0.5000050E+01  0.7818608E-02  0.2136455E+00
        -11   -1    0    0    0    0  0.00000000000E+00  0.00000000000E+00  0.50000499739E+01  0.50000500000E+01  0.51100000000E-03 0.  1.
         11   -1    0    0    0    0 -0.00000000000E+00 -0.00000000000E+00 -0.50000499739E+01  0.50000500000E+01  0.51100000000E-03 0. -1.
     100001    1    1    2    0    0  0.12515504549E-01 -0.17984534827E-01 -0.44633118823E-02  0.50000500000E+01  0.50000000000E+01 0.  1.
     100001    1    1    2    0    0 -0.12515504549E-01  0.17984534827E-01  0.44633118823E-02  0.50000500000E+01  0.50000000000E+01 0.  0.
</event>
<event>
 4    1  0.5017912E-001  0.5000050E+01  0.7818608E-02  0.2136455E+00
        -11   -1    0    0    0    0  0.00000000000E+00  0.00000000000E+00  0.50000499739E+01  0.50000500000E+01  0.51100000000E-03 0. -1.
         11   -1    0    0    0    0 -0.00000000000E+00 -0.00000000000E+00 -0.50000499739E+01  0.50000500000E+01  0.51100000000E-03 0.  1.
     100001    1    1    2    0    0 -0.10933841774E-02  0.21072886692E-01 -0.73986794429E-02  0.50000500000E+01  0.50000000000E+01 0. -1.
     100001    1    1    2    0    0  0.10933841774E-02 -0.21072886692E-01  0.73986794429E-02  0.50000500000E+01  0.50000000000E+01 0.  0.
</event>
<event>
 4    1  0.5017912E-001  0.5000050E+01  0.7818608E-02  0.2136455E+00
        -11   -1    0    0    0    0  0.00000000000E+00  0.00000000000E+00  0.50000499739E+01  0.50000500000E+01  0.51100000000E-03 0. -1.
         11   -1    0    0    0    0 -0.00000000000E+00 -0.00000000000E+00 -0.50000499739E+01  0.50000500000E+01  0.51100000000E-03 0.  1.
     100001    1    1    2    0    0  0.11233875700E-01 -0.14141891522E-01  0.13183680857E-01  0.50000500000E+01  0.50000000000E+01 0. -1.
     100001    1    1    2    0    0 -0.11233875700E-01  0.14141891522E-01 -0.13183680857E-01  0.50000500000E+01  0.50000000000E+01 0.  1.
</event>
<event>
 4    1  0.5017912E-001  0.5000050E+01  0.7818608E-02  0.2136455E+00
        -11   -1    0    0    0    0  0.00000000000E+00  0.00000000000E+00  0.50000499739E+01  0.50000500000E+01  0.51100000000E-03 0. -1.
         11   -1    0    0    0    0 -0.00000000000E+00 -0.00000000000E+00 -0.50000499739E+01  0.50000500000E+01  0.51100000000E-03 0.  1.
     100001    1    1    2    0    0  0.81789217999E-02 -0.74246480624E-02  0.19441767907E-01  0.50000500000E+01  0.50000000000E+01 0.  0.
     100001    1    1    2    0    0 -0.81789217999E-02  0.74246480624E-02 -0.19441767907E-01  0.50000500000E+01  0.50000000000E+01 0.  1.
</event>
<event>
 4    1  0.5017912E-001  0.5000050E+01  0.7818608E-02  0.2136455E+00
        -11   -1    0    0    0    0  0.00000000000E+00  0.00000000000E+00  0.50000499739E+01  0.50000500000E+01  0.51100000000E-03 0.  1.
         11   -1    0    0    0    0 -0.00000000000E+00 -0.00000000000E+00 -0.50000499739E+01  0.50000500000E+01  0.51100000000E-03 0. -1.
     100001    1    1    2    0    0  0.14832733133E-01 -0.74472914695E-02  0.14984337742E-01  0.50000500000E+01  0.50000000000E+01 0.  1.
     100001    1    1    2    0    0 -0.14832733133E-01  0.74472914695E-02 -0.14984337742E-01  0.50000500000E+01  0.50000000000E+01 0. -1.
</event>
<event>
 4    1  0.5017912E-001  0.5000050E+01  0.7818608E-02  0.2136455E+00
        -11   -1    0    0    0    0  0.00000000000E+00  0.00000000000E+00  0.50000499739E+01  0.50000500000E+01  0.51100000000E-03 0.  1.
         11   -1    0    0    0    0 -0.00000000000E+00 -0.00000000000E+00 -0.50000499739E+01  0.50000500000E+01  0.51100000000E-03 0. -1.
     100001    1    1    2    0    0 -0.13808043739E-01 -0.26253104181E-02 -0.17391037155E-01  0.50000500000E+01  0.50000000000E+01 0.  1.
     100001    1    1    2    0    0  0.13808043739E-01  0.26253104181E-02  0.17391037155E-01  0.50000500000E+01  0.50000000000E+01 0.  1.
</event>
<event>
 4    1  0.5017912E-001  0.5000050E+01  0.7818608E-02  0.2136455E+00
        -11   -1    0    0    0    0  0.00000000000E+00  0.00000000000E+00  0.50000499739E+01  0.50000500000E+01  0.51100000000E-03 0. -1.
         11   -1    0    0    0    0 -0.00000000000E+00 -0.00000000000E+00 -0.50000499739E+01  0.50000500000E+01  0.51100000000E-03 0.  1.
     100001    1    1    2    0    0  0.18568153764E-01  0.57775709231E-02  0.11038380316E-01  0.50000500000E+01  0.50000000000E+01 0. -1.
     100001    1    1    2    0    0 -0.18568153764E-01 -0.57775709231E-02 -0.11038380316E-01  0.50000500000E+01  0.50000000000E+01 0.  1.
</event>
<event>
 4    1  0.5017912E-001  0.5000050E+01  0.7818608E-02  0.2136455E+00
        -11   -1    0    0    0    0  0.00000000000E+00  0.00000000000E+00  0.50000499739E+01  0.50000500000E+01  0.51100000000E-03 0. -1.
         11   -1    0    0    0    0 -0.00000000000E+00 -0.00000000000E+00 -0.50000499739E+01  0.50000500000E+01  0.51100000000E-03 0.  1.
     100001    1    1    2    0    0 -0.37302671574E-02 -0.21819673912E-01  0.31606071126E-02  0.50000500000E+01  0.50000000000E+01 0.  0.
     100001    1    1    2    0    0  0.37302671574E-02  0.21819673912E-01 -0.31606071126E-02  0.50000500000E+01  0.50000000000E+01 0. -1.
</event>
<event>
 4    1  0.5017912E-001  0.5000050E+01  0.7818608E-02  0.2136455E+00
        -11   -1    0    0    0    0  0.00000000000E+00  0.00000000000E+00  0.50000499739E+01  0.50000500000E+01  0.51100000000E-03 0.  1.
         11   -1    0    0    0    0 -0.00000000000E+00 -0.00000000000E+00 -0.50000499739E+01  0.50000500000E+01  0.51100000000E-03 0. -1.
     100001    1    1    2    0    0  0.18405469326E-01  0.12103119820E-01 -0.38413135139E-02  0.50000500000E+01  0.50000000000E+01 0.  1.
     100001    1    1    2    0    0 -0.18405469326E-01 -0.12103119820E-01  0.38413135139E-02  0.50000500000E+01  0.50000000000E+01 0.  0.
</event>
<event>
 4    1  0.5017912E-001  0.5000050E+01  0.7818608E-02  0.2136455E+00
        -11   -1    0    0    0    0  0.00000000000E+00  0.00000000000E+00  0.50000499739E+01  0.50000500000E+01  0.51100000000E-03 0. -1.
         11   -1    0    0    0    0 -0.00000000000E+00 -0.00000000000E+00 -0.50000499739E+01  0.50000500000E+01  0.51100000000E-03 0.  1.
     100001    1    1    2    0    0 -0.37086072395E-03 -0.21911457979E-01  0.44444315207E-02  0.50000500000E+01  0.50000000000E+01 0.  1.
     100001    1    1    2    0    0  0.37086072395E-03  0.21911457979E-01 -0.44444315207E-02  0.50000500000E+01  0.50000000000E+01 0.  0.
</event>
<event>
 4    1  0.5017912E-001  0.5000050E+01  0.7818608E-02  0.2136455E+00
        -11   -1    0    0    0    0  0.00000000000E+00  0.00000000000E+00  0.50000499739E+01  0.50000500000E+01  0.51100000000E-03 0.  1.
         11   -1    0    0    0    0 -0.00000000000E+00 -0.00000000000E+00 -0.50000499739E+01  0.50000500000E+01  0.51100000000E-03 0. -1.
     100001    1    1    2    0    0 -0.23993938253E-02 -0.12775801844E-01 -0.18194073115E-01  0.50000500000E+01  0.50000000000E+01 0. -1.
     100001    1    1    2    0    0  0.23993938253E-02  0.12775801844E-01  0.18194073115E-01  0.50000500000E+01  0.50000000000E+01 0.  1.
</event>
<event>
 4    1  0.5017912E-001  0.5000050E+01  0.7818608E-02  0.2136455E+00
        -11   -1    0    0    0    0  0.00000000000E+00  0.00000000000E+00  0.50000499739E+01  0.50000500000E+01  0.51100000000E-03 0.  1.
         11   -1    0    0    0    0 -0.00000000000E+00 -0.00000000000E+00 -0.50000499739E+01  0.50000500000E+01  0.51100000000E-03 0. -1.
     100001    1    1    2    0    0 -0.17820288413E-01 -0.40716636460E-02 -0.12878717950E-01  0.50000500000E+01  0.50000000000E+01 0. -1.
     100001    1    1    2    0    0  0.17820288413E-01  0.40716636460E-02  0.12878717950E-01  0.50000500000E+01  0.50000000000E+01 0.  1.
</event>
<event>
 4    1  0.5017912E-001  0.5000050E+01  0.7818608E-02  0.2136455E+00
        -11   -1    0    0    0    0  0.00000000000E+00  0.00000000000E+00  0.50000499739E+01  0.50000500000E+01  0.51100000000E-03 0. -1.
         11   -1    0    0    0    0 -0.00000000000E+00 -0.00000000000E+00 -0.50000499739E+01  0.50000500000E+01  0.51100000000E-03 0.  1.
     100001    1    1    2    0    0  0.15708277226E-01 -0.88862414553E-02 -0.13201789249E-01  0.50000500000E+01  0.50000000000E+01 0. -1.
     100001    1    1    2    0    0 -0.15708277226E-01  0.88862414553E-02  0.13201789249E-01  0.50000500000E+01  0.50000000000E+01 0.  1.
</event>
<event>
 4    1  0.5017912E-001  0.5000050E+01  0.7818608E-02  0.2136455E+00
        -11   -1    0    0    0    0  0.00000000000E+00  0.00000000000E+00  0.50000499739E+01  0.50000500000E+01  0.51100000000E-03 0. -1.
         11   -1    0    0    0    0 -0.00000000000E+00 -0.00000000000E+00 -0.50000499739E+01  0.50000500000E+01  0.51100000000E-03 0.  1.
     100001    1    1    2    0    0 -0.14032297971E-01  0.16228447237E-01 -0.63035397934E-02  0.50000500000E+01  0.50000000000E+01 0.  0.
     100001    1    1    2    0    0  0.14032297971E-01 -0.16228447237E-01  0.63035397934E-02  0.50000500000E+01  0.50000000000E+01 0.  1.
</event>
<event>
 4    1  0.5017912E-001  0.5000050E+01  0.7818608E-02  0.2136455E+00
        -11   -1    0    0    0    0  0.00000000000E+00  0.00000000000E+00  0.50000499739E+01  0.50000500000E+01  0.51100000000E-03 0. -1.
         11   -1    0    0    0    0 -0.00000000000E+00 -0.00000000000E+00 -0.50000499739E+01  0.50000500000E+01  0.51100000000E-03 0.  1.
     100001    1    1    2    0    0 -0.43848962154E-02 -0.15799861677E-01  0.15203274521E-01  0.50000500000E+01  0.50000000000E+01 0. -1.
     100001    1    1    2    0    0  0.43848962154E-02  0.15799861677E-01 -0.15203274521E-01  0.50000500000E+01  0.50000000000E+01 0.  1.
</event>
<event>
 4    1  0.5017912E-001  0.5000050E+01  0.7818608E-02  0.2136455E+00
        -11   -1    0    0    0    0  0.00000000000E+00  0.00000000000E+00  0.50000499739E+01  0.50000500000E+01  0.51100000000E-03 0. -1.
         11   -1    0    0    0    0 -0.00000000000E+00 -0.00000000000E+00 -0.50000499739E+01  0.50000500000E+01  0.51100000000E-03 0.  1.
     100001    1    1    2    0    0 -0.22263036696E-01  0.19763374235E-02  0.67363748547E-03  0.50000500000E+01  0.50000000000E+01 0.  0.
     100001    1    1    2    0    0  0.22263036696E-01 -0.19763374235E-02 -0.67363748547E-03  0.50000500000E+01  0.50000000000E+01 0. -1.
</event>
<event>
 4    1  0.5017912E-001  0.5000050E+01  0.7818608E-02  0.2136455E+00
        -11   -1    0    0    0    0  0.00000000000E+00  0.00000000000E+00  0.50000499739E+01  0.50000500000E+01  0.51100000000E-03 0. -1.
         11   -1    0    0    0    0 -0.00000000000E+00 -0.00000000000E+00 -0.50000499739E+01  0.50000500000E+01  0.51100000000E-03 0.  1.
     100001    1    1    2    0    0 -0.10013100781E-01  0.12820365438E-01 -0.15342051453E-01  0.50000500000E+01  0.50000000000E+01 0. -1.
     100001    1    1    2    0    0  0.10013100781E-01 -0.12820365438E-01  0.15342051453E-01  0.50000500000E+01  0.50000000000E+01 0.  0.
</event>
<event>
 4    1  0.5017912E-001  0.5000050E+01  0.7818608E-02  0.2136455E+00
        -11   -1    0    0    0    0  0.00000000000E+00  0.00000000000E+00  0.50000499739E+01  0.50000500000E+01  0.51100000000E-03 0.  1.
         11   -1    0    0    0    0 -0.00000000000E+00 -0.00000000000E+00 -0.50000499739E+01  0.50000500000E+01  0.51100000000E-03 0. -1.
     100001    1    1    2    0    0  0.13485934600E-01  0.87400630662E-02  0.15548098455E-01  0.50000500000E+01  0.50000000000E+01 0. -1.
     100001    1    1    2    0    0 -0.13485934600E-01 -0.87400630662E-02 -0.15548098455E-01  0.50000500000E+01  0.50000000000E+01 0. -1.
</event>
<event>
 4    1  0.5017912E-001  0.5000050E+01  0.7818608E-02  0.2136455E+00
        -11   -1    0    0    0    0  0.00000000000E+00  0.00000000000E+00  0.50000499739E+01  0.50000500000E+01  0.51100000000E-03 0.  1.
         11   -1    0    0    0    0 -0.00000000000E+00 -0.00000000000E+00 -0.50000499739E+01  0.50000500000E+01  0.51100000000E-03 0. -1.
     100001    1    1    2    0    0 -0.20766975974E-01  0.79382592928E-02  0.23914949953E-02  0.50000500000E+01  0.50000000000E+01 0.  1.
     100001    1    1    2    0    0  0.20766975974E-01 -0.79382592928E-02 -0.23914949953E-02  0.50000500000E+01  0.50000000000E+01 0.  0.
</event>
<event>
 4    1  0.5017912E-001  0.5000050E+01  0.7818608E-02  0.2136455E+00
        -11   -1    0    0    0    0  0.00000000000E+00  0.00000000000E+00  0.50000499739E+01  0.50000500000E+01  0.51100000000E-03 0. -1.
         11   -1    0    0    0    0 -0.00000000000E+00 -0.00000000000E+00 -0.50000499739E+01  0.50000500000E+01  0.51100000000E-03 0.  1.
     100001    1    1    2    0    0  0.19999735149E-01 -0.41956195176E-02 -0.90779882590E-02  0.50000500000E+01  0.50000000000E+01 0.  1.
     100001    1    1    2    0    0 -0.19999735149E-01  0.41956195176E-02  0.90779882590E-02  0.50000500000E+01  0.50000000000E+01 0. -1.
</event>
<event>
 4    1  0.5017912E-001  0.5000050E+01  0.7818608E-02  0.2136455E+00
        -11   -1    0    0    0    0  0.00000000000E+00  0.00000000000E+00  0.50000499739E+01  0.50000500000E+01  0.51100000000E-03 0. -1.
         11   -1    0    0    0    0 -0.00000000000E+00 -0.00000000000E+00 -0.50000499739E+01  0.50000500000E+01  0.51100000000E-03 0.  1.
     100001    1    1    2    0    0  0.10420780893E-02 -0.21073292275E-01  0.74049257884E-02  0.50000500000E+01  0.50000000000E+01 0. -1.
     100001    1    1    2    0    0 -0.10420780893E-02  0.21073292275E-01 -0.74049257884E-02  0.50000500000E+01  0.50000000000E+01 0.  1.
</event>
<event>
 4    1  0.5017912E-001  0.5000050E+01  0.7818608E-02  0.2136455E+00
        -11   -1    0    0    0    0  0.00000000000E+00  0.00000000000E+00  0.50000499739E+01  0.50000500000E+01  0.51100000000E-03 0.  1.
         11   -1    0    0    0    0 -0.00000000000E+00 -0.00000000000E+00 -0.50000499739E+01  0.50000500000E+01  0.51100000000E-03 0. -1.
     100001    1    1    2    0    0  0.61623714522E-03  0.22275381457E-01  0.18520617444E-02  0.50000500000E+01  0.50000000000E+01 0.  1.
     100001    1    1    2    0    0 -0.61623714522E-03 -0.22275381457E-01 -0.18520617444E-02  0.50000500000E+01  0.50000000000E+01 0.  0.
</event>
<event>
 4    1  0.5017912E-001  0.5000050E+01  0.7818608E-02  0.2136455E+00
        -11   -1    0    0    0    0  0.00000000000E+00  0.00000000000E+00  0.50000499739E+01  0.50000500000E+01  0.51100000000E-03 0. -1.
         11   -1    0    0    0    0 -0.00000000000E+00 -0.00000000000E+00 -0.50000499739E+01  0.50000500000E+01  0.51100000000E-03 0.  1.
     100001    1    1    2    0    0 -0.20443283974E-01 -0.85010578483E-02  0.31315580475E-02  0.50000500000E+01  0.50000000000E+01 0.  0.
     100001    1    1    2    0    0  0.20443283974E-01  0.85010578483E-02 -0.31315580475E-02  0.50000500000E+01  0.50000000000E+01 0.  1.
</event>
<event>
 4    1  0.5017912E-001  0.5000050E+01  0.7818608E-02  0.2136455E+00
        -11   -1    0    0    0    0  0.00000000000E+00  0.00000000000E+00  0.50000499739E+01  0.50000500000E+01  0.51100000000E-03 0.  1.
         11   -1    0    0    0    0 -0.00000000000E+00 -0.00000000000E+00 -0.50000499739E+01  0.50000500000E+01  0.51100000000E-03 0. -1.
     100001    1    1    2    0    0  0.19199975620E-01 -0.11431591296E-01  0.82592773986E-03  0.50000500000E+01  0.50000000000E+01 0.  0.
     100001    1    1    2    0    0 -0.19199975620E-01  0.11431591296E-01 -0.82592773986E-03  0.50000500000E+01  0.50000000000E+01 0. -1.
</event>
<event>
 4    1  0.5017912E-001  0.5000050E+01  0.7818608E-02  0.2136455E+00
        -11   -1    0    0    0    0  0.00000000000E+00  0.00000000000E+00  0.50000499739E+01  0.50000500000E+01  0.51100000000E-03 0. -1.
         11   -1    0    0    0    0 -0.00000000000E+00 -0.00000000000E+00 -0.50000499739E+01  0.50000500000E+01  0.51100000000E-03 0.  1.
     100001    1    1    2    0    0  0.82560699977E-02 -0.16269389071E-02  0.20716970772E-01  0.50000500000E+01  0.50000000000E+01 0. -1.
     100001    1    1    2    0    0 -0.82560699977E-02  0.16269389071E-02 -0.20716970772E-01  0.50000500000E+01  0.50000000000E+01 0.  0.
</event>
<event>
 4    1  0.5017912E-001  0.5000050E+01  0.7818608E-02  0.2136455E+00
        -11   -1    0    0    0    0  0.00000000000E+00  0.00000000000E+00  0.50000499739E+01  0.50000500000E+01  0.51100000000E-03 0.  1.
         11   -1    0    0    0    0 -0.00000000000E+00 -0.00000000000E+00 -0.50000499739E+01  0.50000500000E+01  0.51100000000E-03 0. -1.
     100001    1    1    2    0    0  0.20399613264E-01 -0.78315318792E-03  0.91238670394E-02  0.50000500000E+01  0.50000000000E+01 0.  1.
     100001    1    1    2    0    0 -0.20399613264E-01  0.78315318792E-03 -0.91238670394E-02  0.50000500000E+01  0.50000000000E+01 0. -1.
</event>
<event>
 4    1  0.5017912E-001  0.5000050E+01  0.7818608E-02  0.2136455E+00
        -11   -1    0    0    0    0  0.00000000000E+00  0.00000000000E+00  0.50000499739E+01  0.50000500000E+01  0.51100000000E-03 0. -1.
         11   -1    0    0    0    0 -0.00000000000E+00 -0.00000000000E+00 -0.50000499739E+01  0.50000500000E+01  0.51100000000E-03 0.  1.
     100001    1    1    2    0    0  0.86809693782E-02 -0.15062992459E-01 -0.14062344358E-01  0.50000500000E+01  0.50000000000E+01 0.  1.
     100001    1    1    2    0    0 -0.86809693782E-02  0.15062992459E-01  0.14062344358E-01  0.50000500000E+01  0.50000000000E+01 0.  1.
</event>
<event>
 4    1  0.5017912E-001  0.5000050E+01  0.7818608E-02  0.2136455E+00
        -11   -1    0    0    0    0  0.00000000000E+00  0.00000000000E+00  0.50000499739E+01  0.50000500000E+01  0.51100000000E-03 0.  1.
         11   -1    0    0    0    0 -0.00000000000E+00 -0.00000000000E+00 -0.50000499739E+01  0.50000500000E+01  0.51100000000E-03 0. -1.
     100001    1    1    2    0    0  0.21284214816E-01  0.61736457268E-02 -0.29783885110E-02  0.50000500000E+01  0.50000000000E+01 0.  1.
     100001    1    1    2    0    0 -0.21284214816E-01 -0.61736457268E-02  0.29783885110E-02  0.50000500000E+01  0.50000000000E+01 0. -1.
</event>
<event>
 4    1  0.5017912E-001  0.5000050E+01  0.7818608E-02  0.2136455E+00
        -11   -1    0    0    0    0  0.00000000000E+00  0.00000000000E+00  0.50000499739E+01  0.50000500000E+01  0.51100000000E-03 0.  1.
         11   -1    0    0    0    0 -0.00000000000E+00 -0.00000000000E+00 -0.50000499739E+01  0.50000500000E+01  0.51100000000E-03 0. -1.
     100001    1    1    2    0    0  0.19079115876E-01  0.74615620109E-03 -0.11637572268E-01  0.50000500000E+01  0.50000000000E+01 0.  1.
     100001    1    1    2    0    0 -0.19079115876E-01 -0.74615620109E-03  0.11637572268E-01  0.50000500000E+01  0.50000000000E+01 0.  0.
</event>
<event>
 4    1  0.5017912E-001  0.5000050E+01  0.7818608E-02  0.2136455E+00
        -11   -1    0    0    0    0  0.00000000000E+00  0.00000000000E+00  0.50000499739E+01  0.50000500000E+01  0.51100000000E-03 0. -1.
         11   -1    0    0    0    0 -0.00000000000E+00 -0.00000000000E+00 -0.50000499739E+01  0.50000500000E+01  0.51100000000E-03 0.  1.
     100001    1    1    2    0    0 -0.11169967143E-01  0.29730114197E-02 -0.19141461207E-01  0.50000500000E+01  0.50000000000E+01 0.  0.
     100001    1    1    2    0    0  0.11169967143E-01 -0.29730114197E-02  0.19141461207E-01  0.50000500000E+01  0.50000000000E+01 0. -1.
</event>
<event>
 4    1  0.5017912E-001  0.5000050E+01  0.7818608E-02  0.2136455E+00
        -11   -1    0    0    0    0  0.00000000000E+00  0.00000000000E+00  0.50000499739E+01  0.50000500000E+01  0.51100000000E-03 0.  1.
         11   -1    0    0    0    0 -0.00000000000E+00 -0.00000000000E+00 -0.50000499739E+01  0.50000500000E+01  0.51100000000E-03 0. -1.
     100001    1    1    2    0    0  0.15913282361E-01  0.15651815760E-01 -0.13381359901E-02  0.50000500000E+01  0.50000000000E+01 0.  1.
     100001    1    1    2    0    0 -0.15913282361E-01 -0.15651815760E-01  0.13381359901E-02  0.50000500000E+01  0.50000000000E+01 0. -1.
</event>
<event>
 4    1  0.5017912E-001  0.5000050E+01  0.7818608E-02  0.2136455E+00
        -11   -1    0    0    0    0  0.00000000000E+00  0.00000000000E+00  0.50000499739E+01  0.50000500000E+01  0.51100000000E-03 0.  1.
         11   -1    0    0    0    0 -0.00000000000E+00 -0.00000000000E+00 -0.50000499739E+01  0.50000500000E+01  0.51100000000E-03 0. -1.
     100001    1    1    2    0    0  0.81958347587E-02  0.20503249074E-01  0.35281113963E-02  0.50000500000E+01  0.50000000000E+01 0.  0.
     100001    1    1    2    0    0 -0.81958347587E-02 -0.20503249074E-01 -0.35281113963E-02  0.50000500000E+01  0.50000000000E+01 0. -1.
</event>
<event>
 4    1  0.5017912E-001  0.5000050E+01  0.7818608E-02  0.2136455E+00
        -11   -1    0    0    0    0  0.00000000000E+00  0.00000000000E+00  0.50000499739E+01  0.50000500000E+01  0.51100000000E-03 0.  1.
         11   -1    0    0    0    0 -0.00000000000E+00 -0.00000000000E+00 -0.50000499739E+01  0.50000500000E+01  0.51100000000E-03 0. -1.
     100001    1    1    2    0    0  0.15964315475E-01  0.15648152841E-01  0.52767799911E-03  0.50000500000E+01  0.50000000000E+01 0.  1.
     100001    1    1    2    0    0 -0.15964315475E-01 -0.15648152841E-01 -0.52767799911E-03  0.50000500000E+01  0.50000000000E+01 0. -1.
</event>
<event>
 4    1  0.5017912E-001  0.5000050E+01  0.7818608E-02  0.2136455E+00
        -11   -1    0    0    0    0  0.00000000000E+00  0.00000000000E+00  0.50000499739E+01  0.50000500000E+01  0.51100000000E-03 0. -1.
         11   -1    0    0    0    0 -0.00000000000E+00 -0.00000000000E+00 -0.50000499739E+01  0.50000500000E+01  0.51100000000E-03 0.  1.
     100001    1    1    2    0    0  0.20833433275E-01  0.75396824023E-02  0.30205541260E-02  0.50000500000E+01  0.50000000000E+01 0. -1.
     100001    1    1    2    0    0 -0.20833433275E-01 -0.75396824023E-02 -0.30205541260E-02  0.50000500000E+01  0.50000000000E+01 0.  1.
</event>
<event>
 4    1  0.5017912E-001  0.5000050E+01  0.7818608E-02  0.2136455E+00
        -11   -1    0    0    0    0  0.00000000000E+00  0.00000000000E+00  0.50000499739E+01  0.50000500000E+01  0.51100000000E-03 0.  1.
         11   -1    0    0    0    0 -0.00000000000E+00 -0.00000000000E+00 -0.50000499739E+01  0.50000500000E+01  0.51100000000E-03 0. -1.
     100001    1    1    2    0    0 -0.16420816717E-01 -0.81785012000E-02 -0.12785593317E-01  0.50000500000E+01  0.50000000000E+01 0. -1.
     100001    1    1    2    0    0  0.16420816717E-01  0.81785012000E-02  0.12785593317E-01  0.50000500000E+01  0.50000000000E+01 0.  1.
</event>
<event>
 4    1  0.5017912E-001  0.5000050E+01  0.7818608E-02  0.2136455E+00
        -11   -1    0    0    0    0  0.00000000000E+00  0.00000000000E+00  0.50000499739E+01  0.50000500000E+01  0.51100000000E-03 0.  1.
         11   -1    0    0    0    0 -0.00000000000E+00 -0.00000000000E+00 -0.50000499739E+01  0.50000500000E+01  0.51100000000E-03 0. -1.
     100001    1    1    2    0    0  0.17178236737E-01  0.16867610723E-02 -0.14214975191E-01  0.50000500000E+01  0.50000000000E+01 0. -1.
     100001    1    1    2    0    0 -0.17178236737E-01 -0.16867610723E-02  0.14214975191E-01  0.50000500000E+01  0.50000000000E+01 0.  1.
</event>
<event>
 4    1  0.5017912E-001  0.5000050E+01  0.7818608E-02  0.2136455E+00
        -11   -1    0    0    0    0  0.00000000000E+00  0.00000000000E+00  0.50000499739E+01  0.50000500000E+01  0.51100000000E-03 0.  1.
         11   -1    0    0    0    0 -0.00000000000E+00 -0.00000000000E+00 -0.50000499739E+01  0.50000500000E+01  0.51100000000E-03 0. -1.
     100001    1    1    2    0    0 -0.13682089399E-01 -0.16404283751E-01 -0.66107794016E-02  0.50000500000E+01  0.50000000000E+01 0.  1.
     100001    1    1    2    0    0  0.13682089399E-01  0.16404283751E-01  0.66107794016E-02  0.50000500000E+01  0.50000000000E+01 0. -1.
</event>
<event>
 4    1  0.5017912E-001  0.5000050E+01  0.7818608E-02  0.2136455E+00
        -11   -1    0    0    0    0  0.00000000000E+00  0.00000000000E+00  0.50000499739E+01  0.50000500000E+01  0.51100000000E-03 0.  1.
         11   -1    0    0    0    0 -0.00000000000E+00 -0.00000000000E+00 -0.50000499739E+01  0.50000500000E+01  0.51100000000E-03 0. -1.
     100001    1    1    2    0    0  0.17594744903E-01 -0.11392142336E-01 -0.77875891523E-02  0.50000500000E+01  0.50000000000E+01 0.  0.
     100001    1    1    2    0    0 -0.17594744903E-01  0.11392142336E-01  0.77875891523E-02  0.50000500000E+01  0.50000000000E+01 0. -1.
</event>
<event>
 4    1  0.5017912E-001  0.5000050E+01  0.7818608E-02  0.2136455E+00
        -11   -1    0    0    0    0  0.00000000000E+00  0.00000000000E+00  0.50000499739E+01  0.50000500000E+01  0.51100000000E-03 0. -1.
         11   -1    0    0    0    0 -0.00000000000E+00 -0.00000000000E+00 -0.50000499739E+01  0.50000500000E+01  0.51100000000E-03 0.  1.
     100001    1    1    2    0    0 -0.66396839647E-02 -0.17177836374E-01  0.12682233019E-01  0.50000500000E+01  0.50000000000E+01 0. -1.
     100001    1    1    2    0    0  0.66396839647E-02  0.17177836374E-01 -0.12682233019E-01  0.50000500000E+01  0.50000000000E+01 0.  1.
</event>
<event>
 4    1  0.5017912E-001  0.5000050E+01  0.7818608E-02  0.2136455E+00
        -11   -1    0    0    0    0  0.00000000000E+00  0.00000000000E+00  0.50000499739E+01  0.50000500000E+01  0.51100000000E-03 0. -1.
         11   -1    0    0    0    0 -0.00000000000E+00 -0.00000000000E+00 -0.50000499739E+01  0.50000500000E+01  0.51100000000E-03 0.  1.
     100001    1    1    2    0    0  0.20526303276E-01 -0.79364434026E-02 -0.39605858074E-02  0.50000500000E+01  0.50000000000E+01 0. -1.
     100001    1    1    2    0    0 -0.20526303276E-01  0.79364434026E-02  0.39605858074E-02  0.50000500000E+01  0.50000000000E+01 0. -1.
</event>
<event>
 4    1  0.5017912E-001  0.5000050E+01  0.7818608E-02  0.2136455E+00
        -11   -1    0    0    0    0  0.00000000000E+00  0.00000000000E+00  0.50000499739E+01  0.50000500000E+01  0.51100000000E-03 0. -1.
         11   -1    0    0    0    0 -0.00000000000E+00 -0.00000000000E+00 -0.50000499739E+01  0.50000500000E+01  0.51100000000E-03 0.  1.
     100001    1    1    2    0    0 -0.22027576801E-01  0.36355693478E-02 -0.12533937008E-02  0.50000500000E+01  0.50000000000E+01 0.  1.
     100001    1    1    2    0    0  0.22027576801E-01 -0.36355693478E-02  0.12533937008E-02  0.50000500000E+01  0.50000000000E+01 0.  0.
</event>
<event>
 4    1  0.5017912E-001  0.5000050E+01  0.7818608E-02  0.2136455E+00
        -11   -1    0    0    0    0  0.00000000000E+00  0.00000000000E+00  0.50000499739E+01  0.50000500000E+01  0.51100000000E-03 0. -1.
         11   -1    0    0    0    0 -0.00000000000E+00 -0.00000000000E+00 -0.50000499739E+01  0.50000500000E+01  0.51100000000E-03 0.  1.
     100001    1    1    2    0    0  0.14966692295E-01  0.98835997342E-02  0.13353466892E-01  0.50000500000E+01  0.50000000000E+01 0.  0.
     100001    1    1    2    0    0 -0.14966692295E-01 -0.98835997342E-02 -0.13353466892E-01  0.50000500000E+01  0.50000000000E+01 0.  0.
</event>
<event>
 4    1  0.5017912E-001  0.5000050E+01  0.7818608E-02  0.2136455E+00
        -11   -1    0    0    0    0  0.00000000000E+00  0.00000000000E+00  0.50000499739E+01  0.50000500000E+01  0.51100000000E-03 0.  1.
         11   -1    0    0    0    0 -0.00000000000E+00 -0.00000000000E+00 -0.50000499739E+01  0.50000500000E+01  0.51100000000E-03 0. -1.
     100001    1    1    2    0    0 -0.72450549438E-02 -0.16776313350E-01 -0.12886698152E-01  0.50000500000E+01  0.50000000000E+01 0.  0.
     100001    1    1    2    0    0  0.72450549438E-02  0.16776313350E-01  0.12886698152E-01  0.50000500000E+01  0.50000000000E+01 0.  0.
</event>
<event>
 4    1  0.5017912E-001  0.5000050E+01  0.7818608E-02  0.2136455E+00
        -11   -1    0    0    0    0  0.00000000000E+00  0.00000000000E+00  0.50000499739E+01  0.50000500000E+01  0.51100000000E-03 0. -1.
         11   -1    0    0    0    0 -0.00000000000E+00 -0.00000000000E+00 -0.50000499739E+01  0.50000500000E+01  0.51100000000E-03 0.  1.
     100001    1    1    2    0    0 -0.11635571011E-02 -0.81090160510E-02  0.20806068671E-01  0.50000500000E+01  0.50000000000E+01 0.  0.
     100001    1    1    2    0    0  0.11635571011E-02  0.81090160510E-02 -0.20806068671E-01  0.50000500000E+01  0.50000000000E+01 0.  1.
</event>
<event>
 4    1  0.5017912E-001  0.5000050E+01  0.7818608E-02  0.2136455E+00
        -11   -1    0    0    0    0  0.00000000000E+00  0.00000000000E+00  0.50000499739E+01  0.50000500000E+01  0.51100000000E-03 0. -1.
         11   -1    0    0    0    0 -0.00000000000E+00 -0.00000000000E+00 -0.50000499739E+01  0.50000500000E+01  0.51100000000E-03 0.  1.
     100001    1    1    2    0    0 -0.87723807133E-02 -0.13167487640E-01  0.15800794470E-01  0.50000500000E+01  0.50000000000E+01 0.  0.
     100001    1    1    2    0    0  0.87723807133E-02  0.13167487640E-01 -0.15800794470E-01  0.50000500000E+01  0.50000000000E+01 0.  0.
</event>
<event>
 4    1  0.5017912E-001  0.5000050E+01  0.7818608E-02  0.2136455E+00
        -11   -1    0    0    0    0  0.00000000000E+00  0.00000000000E+00  0.50000499739E+01  0.50000500000E+01  0.51100000000E-03 0.  1.
         11   -1    0    0    0    0 -0.00000000000E+00 -0.00000000000E+00 -0.50000499739E+01  0.50000500000E+01  0.51100000000E-03 0. -1.
     100001    1    1    2    0    0 -0.36588317951E-03 -0.22174899829E-01  0.28534973366E-02  0.50000500000E+01  0.50000000000E+01 0. -1.
     100001    1    1    2    0    0  0.36588317951E-03  0.22174899829E-01 -0.28534973366E-02  0.50000500000E+01  0.50000000000E+01 0.  1.
</event>
<event>
 4    1  0.5017912E-001  0.5000050E+01  0.7818608E-02  0.2136455E+00
        -11   -1    0    0    0    0  0.00000000000E+00  0.00000000000E+00  0.50000499739E+01  0.50000500000E+01  0.51100000000E-03 0.  1.
         11   -1    0    0    0    0 -0.00000000000E+00 -0.00000000000E+00 -0.50000499739E+01  0.50000500000E+01  0.51100000000E-03 0. -1.
     100001    1    1    2    0    0  0.22512446268E-03  0.21414952068E-01  0.64305246198E-02  0.50000500000E+01  0.50000000000E+01 0. -1.
     100001    1    1    2    0    0 -0.22512446268E-03 -0.21414952068E-01 -0.64305246198E-02  0.50000500000E+01  0.50000000000E+01 0.  1.
</event>
<event>
 4    1  0.5017912E-001  0.5000050E+01  0.7818608E-02  0.2136455E+00
        -11   -1    0    0    0    0  0.00000000000E+00  0.00000000000E+00  0.50000499739E+01  0.50000500000E+01  0.51100000000E-03 0.  1.
         11   -1    0    0    0    0 -0.00000000000E+00 -0.00000000000E+00 -0.50000499739E+01  0.50000500000E+01  0.51100000000E-03 0. -1.
     100001    1    1    2    0    0  0.11781832085E-01 -0.11590934338E-01  0.15061247421E-01  0.50000500000E+01  0.50000000000E+01 0. -1.
     100001    1    1    2    0    0 -0.11781832085E-01  0.11590934338E-01 -0.15061247421E-01  0.50000500000E+01  0.50000000000E+01 0.  0.
</event>
<event>
 4    1  0.5017912E-001  0.5000050E+01  0.7818608E-02  0.2136455E+00
        -11   -1    0    0    0    0  0.00000000000E+00  0.00000000000E+00  0.50000499739E+01  0.50000500000E+01  0.51100000000E-03 0. -1.
         11   -1    0    0    0    0 -0.00000000000E+00 -0.00000000000E+00 -0.50000499739E+01  0.50000500000E+01  0.51100000000E-03 0.  1.
     100001    1    1    2    0    0 -0.21209184951E-01 -0.16484464892E-02  0.68888023556E-02  0.50000500000E+01  0.50000000000E+01 0. -1.
     100001    1    1    2    0    0  0.21209184951E-01  0.16484464892E-02 -0.68888023556E-02  0.50000500000E+01  0.50000000000E+01 0.  1.
</event>
<event>
 4    1  0.5017912E-001  0.5000050E+01  0.7818608E-02  0.2136455E+00
        -11   -1    0    0    0    0  0.00000000000E+00  0.00000000000E+00  0.50000499739E+01  0.50000500000E+01  0.51100000000E-03 0. -1.
         11   -1    0    0    0    0 -0.00000000000E+00 -0.00000000000E+00 -0.50000499739E+01  0.50000500000E+01  0.51100000000E-03 0.  1.
     100001    1    1    2    0    0 -0.91185005176E-02  0.20290682732E-01  0.22679600056E-02  0.50000500000E+01  0.50000000000E+01 0.  1.
     100001    1    1    2    0    0  0.91185005176E-02 -0.20290682732E-01 -0.22679600056E-02  0.50000500000E+01  0.50000000000E+01 0. -1.
</event>
<event>
 4    1  0.5017912E-001  0.5000050E+01  0.7818608E-02  0.2136455E+00
        -11   -1    0    0    0    0  0.00000000000E+00  0.00000000000E+00  0.50000499739E+01  0.50000500000E+01  0.51100000000E-03 0. -1.
         11   -1    0    0    0    0 -0.00000000000E+00 -0.00000000000E+00 -0.50000499739E+01  0.50000500000E+01  0.51100000000E-03 0.  1.
     100001    1    1    2    0    0 -0.92099095297E-02 -0.15664460841E-01  0.13030914511E-01  0.50000500000E+01  0.50000000000E+01 0.  1.
     100001    1    1    2    0    0  0.92099095297E-02  0.15664460841E-01 -0.13030914511E-01  0.50000500000E+01  0.50000000000E+01 0.  0.
</event>
<event>
 4    1  0.5017912E-001  0.5000050E+01  0.7818608E-02  0.2136455E+00
        -11   -1    0    0    0    0  0.00000000000E+00  0.00000000000E+00  0.50000499739E+01  0.50000500000E+01  0.51100000000E-03 0.  1.
         11   -1    0    0    0    0 -0.00000000000E+00 -0.00000000000E+00 -0.50000499739E+01  0.50000500000E+01  0.51100000000E-03 0. -1.
     100001    1    1    2    0    0  0.26618812397E-02 -0.12337102388E-01  0.18458407107E-01  0.50000500000E+01  0.50000000000E+01 0.  1.
     100001    1    1    2    0    0 -0.26618812397E-02  0.12337102388E-01 -0.18458407107E-01  0.50000500000E+01  0.50000000000E+01 0.  0.
</event>
<event>
 4    1  0.5017912E-001  0.5000050E+01  0.7818608E-02  0.2136455E+00
        -11   -1    0    0    0    0  0.00000000000E+00  0.00000000000E+00  0.50000499739E+01  0.50000500000E+01  0.51100000000E-03 0. -1.
         11   -1    0    0    0    0 -0.00000000000E+00 -0.00000000000E+00 -0.50000499739E+01  0.50000500000E+01  0.51100000000E-03 0.  1.
     100001    1    1    2    0    0  0.98079547824E-02  0.17710906747E-01 -0.94936981825E-02  0.50000500000E+01  0.50000000000E+01 0. -1.
     100001    1    1    2    0    0 -0.98079547824E-02 -0.17710906747E-01  0.94936981825E-02  0.50000500000E+01  0.50000000000E+01 0. -1.
</event>
<event>
 4    1  0.5017912E-001  0.5000050E+01  0.7818608E-02  0.2136455E+00
        -11   -1    0    0    0    0  0.00000000000E+00  0.00000000000E+00  0.50000499739E+01  0.50000500000E+01  0.51100000000E-03 0.  1.
         11   -1    0    0    0    0 -0.00000000000E+00 -0.00000000000E+00 -0.50000499739E+01  0.50000500000E+01  0.51100000000E-03 0. -1.
     100001    1    1    2    0    0 -0.15677515772E-01 -0.14505697178E-01 -0.66183644959E-02  0.50000500000E+01  0.50000000000E+01 0. -1.
     100001    1    1    2    0    0  0.15677515772E-01  0.14505697178E-01  0.66183644959E-02  0.50000500000E+01  0.50000000000E+01 0.  1.
</event>
<event>
 4    1  0.5017912E-001  0.5000050E+01  0.7818608E-02  0.2136455E+00
        -11   -1    0    0    0    0  0.00000000000E+00  0.00000000000E+00  0.50000499739E+01  0.50000500000E+01  0.51100000000E-03 0.  1.
         11   -1    0    0    0    0 -0.00000000000E+00 -0.00000000000E+00 -0.50000499739E+01  0.50000500000E+01  0.51100000000E-03 0. -1.
     100001    1    1    2    0    0 -0.19086310516E-01  0.65643064674E-03 -0.11631180064E-01  0.50000500000E+01  0.50000000000E+01 0.  1.
     100001    1    1    2    0    0  0.19086310516E-01 -0.65643064674E-03  0.11631180064E-01  0.50000500000E+01  0.50000000000E+01 0.  0.
</event>
<event>
 4    1  0.5017912E-001  0.5000050E+01  0.7818608E-02  0.2136455E+00
        -11   -1    0    0    0    0  0.00000000000E+00  0.00000000000E+00  0.50000499739E+01  0.50000500000E+01  0.51100000000E-03 0.  1.
         11   -1    0    0    0    0 -0.00000000000E+00 -0.00000000000E+00 -0.50000499739E+01  0.50000500000E+01  0.51100000000E-03 0. -1.
     100001    1    1    2    0    0  0.29734374409E-02 -0.40725783152E-02 -0.21784748694E-01  0.50000500000E+01  0.50000000000E+01 0.  0.
     100001    1    1    2    0    0 -0.29734374409E-02  0.40725783152E-02  0.21784748694E-01  0.50000500000E+01  0.50000000000E+01 0.  1.
</event>
<event>
 4    1  0.5017912E-001  0.5000050E+01  0.7818608E-02  0.2136455E+00
        -11   -1    0    0    0    0  0.00000000000E+00  0.00000000000E+00  0.50000499739E+01  0.50000500000E+01  0.51100000000E-03 0. -1.
         11   -1    0    0    0    0 -0.00000000000E+00 -0.00000000000E+00 -0.50000499739E+01  0.50000500000E+01  0.51100000000E-03 0.  1.
     100001    1    1    2    0    0 -0.48574054468E-02  0.79164279224E-03  0.21812414218E-01  0.50000500000E+01  0.50000000000E+01 0.  0.
     100001    1    1    2    0    0  0.48574054468E-02 -0.79164279224E-03 -0.21812414218E-01  0.50000500000E+01  0.50000000000E+01 0.  0.
</event>
<event>
 4    1  0.5017912E-001  0.5000050E+01  0.7818608E-02  0.2136455E+00
        -11   -1    0    0    0    0  0.00000000000E+00  0.00000000000E+00  0.50000499739E+01  0.50000500000E+01  0.51100000000E-03 0.  1.
         11   -1    0    0    0    0 -0.00000000000E+00 -0.00000000000E+00 -0.50000499739E+01  0.50000500000E+01  0.51100000000E-03 0. -1.
     100001    1    1    2    0    0 -0.10588816458E-01  0.19677579605E-01  0.81995544150E-03  0.50000500000E+01  0.50000000000E+01 0.  0.
     100001    1    1    2    0    0  0.10588816458E-01 -0.19677579605E-01 -0.81995544150E-03  0.50000500000E+01  0.50000000000E+01 0. -1.
</event>
<event>
 4    1  0.5017912E-001  0.5000050E+01  0.7818608E-02  0.2136455E+00
        -11   -1    0    0    0    0  0.00000000000E+00  0.00000000000E+00  0.50000499739E+01  0.50000500000E+01  0.51100000000E-03 0.  1.
         11   -1    0    0    0    0 -0.00000000000E+00 -0.00000000000E+00 -0.50000499739E+01  0.50000500000E+01  0.51100000000E-03 0. -1.
     100001    1    1    2    0    0 -0.20999534324E-01  0.43532281109E-02 -0.63302024604E-02  0.50000500000E+01  0.50000000000E+01 0. -1.
     100001    1    1    2    0    0  0.20999534324E-01 -0.43532281109E-02  0.63302024604E-02  0.50000500000E+01  0.50000000000E+01 0.  1.
</event>
<event>
 4    1  0.5017912E-001  0.5000050E+01  0.7818608E-02  0.2136455E+00
        -11   -1    0    0    0    0  0.00000000000E+00  0.00000000000E+00  0.50000499739E+01  0.50000500000E+01  0.51100000000E-03 0. -1.
         11   -1    0    0    0    0 -0.00000000000E+00 -0.00000000000E+00 -0.50000499739E+01  0.50000500000E+01  0.51100000000E-03 0.  1.
     100001    1    1    2    0    0 -0.11560761846E-01  0.19132773581E-01  0.53689910208E-03  0.50000500000E+01  0.50000000000E+01 0. -1.
     100001    1    1    2    0    0  0.11560761846E-01 -0.19132773581E-01 -0.53689910208E-03  0.50000500000E+01  0.50000000000E+01 0.  1.
</event>
<event>
 4    1  0.5017912E-001  0.5000050E+01  0.7818608E-02  0.2136455E+00
        -11   -1    0    0    0    0  0.00000000000E+00  0.00000000000E+00  0.50000499739E+01  0.50000500000E+01  0.51100000000E-03 0. -1.
         11   -1    0    0    0    0 -0.00000000000E+00 -0.00000000000E+00 -0.50000499739E+01  0.50000500000E+01  0.51100000000E-03 0.  1.
     100001    1    1    2    0    0 -0.12919935558E-02  0.22250492771E-01 -0.18024494744E-02  0.50000500000E+01  0.50000000000E+01 0.  1.
     100001    1    1    2    0    0  0.12919935558E-02 -0.22250492771E-01  0.18024494744E-02  0.50000500000E+01  0.50000000000E+01 0.  0.
</event>
<event>
 4    1  0.5017912E-001  0.5000050E+01  0.7818608E-02  0.2136455E+00
        -11   -1    0    0    0    0  0.00000000000E+00  0.00000000000E+00  0.50000499739E+01  0.50000500000E+01  0.51100000000E-03 0. -1.
         11   -1    0    0    0    0 -0.00000000000E+00 -0.00000000000E+00 -0.50000499739E+01  0.50000500000E+01  0.51100000000E-03 0.  1.
     100001    1    1    2    0    0  0.38190751137E-02 -0.20404677870E-01  0.83106128717E-02  0.50000500000E+01  0.50000000000E+01 0. -1.
     100001    1    1    2    0    0 -0.38190751137E-02  0.20404677870E-01 -0.83106128717E-02  0.50000500000E+01  0.50000000000E+01 0.  0.
</event>
<event>
 4    1  0.5017912E-001  0.5000050E+01  0.7818608E-02  0.2136455E+00
        -11   -1    0    0    0    0  0.00000000000E+00  0.00000000000E+00  0.50000499739E+01  0.50000500000E+01  0.51100000000E-03 0. -1.
         11   -1    0    0    0    0 -0.00000000000E+00 -0.00000000000E+00 -0.50000499739E+01  0.50000500000E+01  0.51100000000E-03 0.  1.
     100001    1    1    2    0    0 -0.10636179058E-01 -0.95052908540E-02  0.17219861812E-01  0.50000500000E+01  0.50000000000E+01 0. -1.
     100001    1    1    2    0    0  0.10636179058E-01  0.95052908540E-02 -0.17219861812E-01  0.50000500000E+01  0.50000000000E+01 0.  0.
</event>
<event>
 4    1  0.5017912E-001  0.5000050E+01  0.7818608E-02  0.2136455E+00
        -11   -1    0    0    0    0  0.00000000000E+00  0.00000000000E+00  0.50000499739E+01  0.50000500000E+01  0.51100000000E-03 0. -1.
         11   -1    0    0    0    0 -0.00000000000E+00 -0.00000000000E+00 -0.50000499739E+01  0.50000500000E+01  0.51100000000E-03 0.  1.
     100001    1    1    2    0    0 -0.72951080878E-02 -0.67551411171E-02 -0.20028778457E-01  0.50000500000E+01  0.50000000000E+01 0.  1.
     100001    1    1    2    0    0  0.72951080878E-02  0.67551411171E-02  0.20028778457E-01  0.50000500000E+01  0.50000000000E+01 0.  1.
</event>
<event>
 4    1  0.5017912E-001  0.5000050E+01  0.7818608E-02  0.2136455E+00
        -11   -1    0    0    0    0  0.00000000000E+00  0.00000000000E+00  0.50000499739E+01  0.50000500000E+01  0.51100000000E-03 0. -1.
         11   -1    0    0    0    0 -0.00000000000E+00 -0.00000000000E+00 -0.50000499739E+01  0.50000500000E+01  0.51100000000E-03 0.  1.
     100001    1    1    2    0    0  0.18493524700E-01 -0.22162367276E-02 -0.12372563960E-01  0.50000500000E+01  0.50000000000E+01 0.  1.
     100001    1    1    2    0    0 -0.18493524700E-01  0.22162367276E-02  0.12372563960E-01  0.50000500000E+01  0.50000000000E+01 0. -1.
</event>
<event>
 4    1  0.5017912E-001  0.5000050E+01  0.7818608E-02  0.2136455E+00
        -11   -1    0    0    0    0  0.00000000000E+00  0.00000000000E+00  0.50000499739E+01  0.50000500000E+01  0.51100000000E-03 0. -1.
         11   -1    0    0    0    0 -0.00000000000E+00 -0.00000000000E+00 -0.50000499739E+01  0.50000500000E+01  0.51100000000E-03 0.  1.
     100001    1    1    2    0    0  0.17732652927E-01 -0.49852125541E-02 -0.12676875639E-01  0.50000500000E+01  0.50000000000E+01 0.  1.
     100001    1    1    2    0    0 -0.17732652927E-01  0.49852125541E-02  0.12676875639E-01  0.50000500000E+01  0.50000000000E+01 0. -1.
</event>
<event>
 4    1  0.5017912E-001  0.5000050E+01  0.7818608E-02  0.2136455E+00
        -11   -1    0    0    0    0  0.00000000000E+00  0.00000000000E+00  0.50000499739E+01  0.50000500000E+01  0.51100000000E-03 0. -1.
         11   -1    0    0    0    0 -0.00000000000E+00 -0.00000000000E+00 -0.50000499739E+01  0.50000500000E+01  0.51100000000E-03 0.  1.
     100001    1    1    2    0    0 -0.72445858792E-03 -0.22178322995E-03 -0.22347896365E-01  0.50000500000E+01  0.50000000000E+01 0.  0.
     100001    1    1    2    0    0  0.72445858792E-03  0.22178322995E-03  0.22347896365E-01  0.50000500000E+01  0.50000000000E+01 0. -1.
</event>
<event>
 4    1  0.5017912E-001  0.5000050E+01  0.7818608E-02  0.2136455E+00
        -11   -1    0    0    0    0  0.00000000000E+00  0.00000000000E+00  0.50000499739E+01  0.50000500000E+01  0.51100000000E-03 0.  1.
         11   -1    0    0    0    0 -0.00000000000E+00 -0.00000000000E+00 -0.50000499739E+01  0.50000500000E+01  0.51100000000E-03 0. -1.
     100001    1    1    2    0    0 -0.10892632785E-01  0.13241097662E-02  0.19483320670E-01  0.50000500000E+01  0.50000000000E+01 0.  1.
     100001    1    1    2    0    0  0.10892632785E-01 -0.13241097662E-02 -0.19483320670E-01  0.50000500000E+01  0.50000000000E+01 0. -1.
</event>
<event>
 4    1  0.5017912E-001  0.5000050E+01  0.7818608E-02  0.2136455E+00
        -11   -1    0    0    0    0  0.00000000000E+00  0.00000000000E+00  0.50000499739E+01  0.50000500000E+01  0.51100000000E-03 0.  1.
         11   -1    0    0    0    0 -0.00000000000E+00 -0.00000000000E+00 -0.50000499739E+01  0.50000500000E+01  0.51100000000E-03 0. -1.
     100001    1    1    2    0    0 -0.48777621347E-02 -0.18599693047E-01  0.11413209676E-01  0.50000500000E+01  0.50000000000E+01 0.  0.
     100001    1    1    2    0    0  0.48777621347E-02  0.18599693047E-01 -0.11413209676E-01  0.50000500000E+01  0.50000000000E+01 0.  0.
</event>
<event>
 4    1  0.5017912E-001  0.5000050E+01  0.7818608E-02  0.2136455E+00
        -11   -1    0    0    0    0  0.00000000000E+00  0.00000000000E+00  0.50000499739E+01  0.50000500000E+01  0.51100000000E-03 0.  1.
         11   -1    0    0    0    0 -0.00000000000E+00 -0.00000000000E+00 -0.50000499739E+01  0.50000500000E+01  0.51100000000E-03 0. -1.
     100001    1    1    2    0    0 -0.19221009855E-01  0.89257825415E-02  0.71334203702E-02  0.50000500000E+01  0.50000000000E+01 0.  1.
     100001    1    1    2    0    0  0.19221009855E-01 -0.89257825415E-02 -0.71334203702E-02  0.50000500000E+01  0.50000000000E+01 0. -1.
</event>
<event>
 4    1  0.5017912E-001  0.5000050E+01  0.7818608E-02  0.2136455E+00
        -11   -1    0    0    0    0  0.00000000000E+00  0.00000000000E+00  0.50000499739E+01  0.50000500000E+01  0.51100000000E-03 0.  1.
         11   -1    0    0    0    0 -0.00000000000E+00 -0.00000000000E+00 -0.50000499739E+01  0.50000500000E+01  0.51100000000E-03 0. -1.
     100001    1    1    2    0    0 -0.87866271685E-02 -0.18340737090E-01 -0.92959693407E-02  0.50000500000E+01  0.50000000000E+01 0.  0.
     100001    1    1    2    0    0  0.87866271685E-02  0.18340737090E-01  0.92959693407E-02  0.50000500000E+01  0.50000000000E+01 0. -1.
</event>
<event>
 4    1  0.5017912E-001  0.5000050E+01  0.7818608E-02  0.2136455E+00
        -11   -1    0    0    0    0  0.00000000000E+00  0.00000000000E+00  0.50000499739E+01  0.50000500000E+01  0.51100000000E-03 0. -1.
         11   -1    0    0    0    0 -0.00000000000E+00 -0.00000000000E+00 -0.50000499739E+01  0.50000500000E+01  0.51100000000E-03 0.  1.
     100001    1    1    2    0    0  0.99314765079E-02  0.20022400008E-01  0.68685681358E-03  0.50000500000E+01  0.50000000000E+01 0.  1.
     100001    1    1    2    0    0 -0.99314765079E-02 -0.20022400008E-01 -0.68685681358E-03  0.50000500000E+01  0.50000000000E+01 0.  0.
</event>
<event>
 4    1  0.5017912E-001  0.5000050E+01  0.7818608E-02  0.2136455E+00
        -11   -1    0    0    0    0  0.00000000000E+00  0.00000000000E+00  0.50000499739E+01  0.50000500000E+01  0.51100000000E-03 0.  1.
         11   -1    0    0    0    0 -0.00000000000E+00 -0.00000000000E+00 -0.50000499739E+01  0.50000500000E+01  0.51100000000E-03 0. -1.
     100001    1    1    2    0    0 -0.16512179963E-01 -0.32272428242E-02 -0.14728724203E-01  0.50000500000E+01  0.50000000000E+01 0. -1.
     100001    1    1    2    0    0  0.16512179963E-01  0.32272428242E-02  0.14728724203E-01  0.50000500000E+01  0.50000000000E+01 0.  1.
</event>
<event>
 4    1  0.5017912E-001  0.5000050E+01  0.7818608E-02  0.2136455E+00
        -11   -1    0    0    0    0  0.00000000000E+00  0.00000000000E+00  0.50000499739E+01  0.50000500000E+01  0.51100000000E-03 0.  1.
         11   -1    0    0    0    0 -0.00000000000E+00 -0.00000000000E+00 -0.50000499739E+01  0.50000500000E+01  0.51100000000E-03 0. -1.
     100001    1    1    2    0    0 -0.11651978113E-01 -0.13183373166E-01 -0.13799731085E-01  0.50000500000E+01  0.50000000000E+01 0. -1.
     100001    1    1    2    0    0  0.11651978113E-01  0.13183373166E-01  0.13799731085E-01  0.50000500000E+01  0.50000000000E+01 0.  1.
</event>
<event>
 4    1  0.5017912E-001  0.5000050E+01  0.7818608E-02  0.2136455E+00
        -11   -1    0    0    0    0  0.00000000000E+00  0.00000000000E+00  0.50000499739E+01  0.50000500000E+01  0.51100000000E-03 0.  1.
         11   -1    0    0    0    0 -0.00000000000E+00 -0.00000000000E+00 -0.50000499739E+01  0.50000500000E+01  0.51100000000E-03 0. -1.
     100001    1    1    2    0    0  0.85128073200E-02 -0.14629102737E-01 -0.14612459226E-01  0.50000500000E+01  0.50000000000E+01 0.  0.
     100001    1    1    2    0    0 -0.85128073200E-02  0.14629102737E-01  0.14612459226E-01  0.50000500000E+01  0.50000000000E+01 0.  0.
</event>
<event>
 4    1  0.5017912E-001  0.5000050E+01  0.7818608E-02  0.2136455E+00
        -11   -1    0    0    0    0  0.00000000000E+00  0.00000000000E+00  0.50000499739E+01  0.50000500000E+01  0.51100000000E-03 0.  1.
         11   -1    0    0    0    0 -0.00000000000E+00 -0.00000000000E+00 -0.50000499739E+01  0.50000500000E+01  0.51100000000E-03 0. -1.
     100001    1    1    2    0    0  0.18953721670E-02  0.21563506889E-01  0.56058215267E-02  0.50000500000E+01  0.50000000000E+01 0. -1.
     100001    1    1    2    0    0 -0.18953721670E-02 -0.21563506889E-01 -0.56058215267E-02  0.50000500000E+01  0.50000000000E+01 0.  1.
</event>
<event>
 4    1  0.5017912E-001  0.5000050E+01  0.7818608E-02  0.2136455E+00
        -11   -1    0    0    0    0  0.00000000000E+00  0.00000000000E+00  0.50000499739E+01  0.50000500000E+01  0.51100000000E-03 0.  1.
         11   -1    0    0    0    0 -0.00000000000E+00 -0.00000000000E+00 -0.50000499739E+01  0.50000500000E+01  0.51100000000E-03 0. -1.
     100001    1    1    2    0    0  0.80072508946E-02  0.20867793534E-01  0.64932745154E-03  0.50000500000E+01  0.50000000000E+01 0. -1.
     100001    1    1    2    0    0 -0.80072508946E-02 -0.20867793534E-01 -0.64932745154E-03  0.50000500000E+01  0.50000000000E+01 0.  1.
</event>
<event>
 4    1  0.5017912E-001  0.5000050E+01  0.7818608E-02  0.2136455E+00
        -11   -1    0    0    0    0  0.00000000000E+00  0.00000000000E+00  0.50000499739E+01  0.50000500000E+01  0.51100000000E-03 0. -1.
         11   -1    0    0    0    0 -0.00000000000E+00 -0.00000000000E+00 -0.50000499739E+01  0.50000500000E+01  0.51100000000E-03 0.  1.
     100001    1    1    2    0    0  0.66356048809E-02  0.20070677528E-01 -0.72896605851E-02  0.50000500000E+01  0.50000000000E+01 0. -1.
     100001    1    1    2    0    0 -0.66356048809E-02 -0.20070677528E-01  0.72896605851E-02  0.50000500000E+01  0.50000000000E+01 0.  1.
</event>
<event>
 4    1  0.5017912E-001  0.5000050E+01  0.7818608E-02  0.2136455E+00
        -11   -1    0    0    0    0  0.00000000000E+00  0.00000000000E+00  0.50000499739E+01  0.50000500000E+01  0.51100000000E-03 0. -1.
         11   -1    0    0    0    0 -0.00000000000E+00 -0.00000000000E+00 -0.50000499739E+01  0.50000500000E+01  0.51100000000E-03 0.  1.
     100001    1    1    2    0    0 -0.18589670807E-02 -0.15965912200E-01  0.15544657893E-01  0.50000500000E+01  0.50000000000E+01 0.  0.
     100001    1    1    2    0    0  0.18589670807E-02  0.15965912200E-01 -0.15544657893E-01  0.50000500000E+01  0.50000000000E+01 0. -1.
</event>
<event>
 4    1  0.5017912E-001  0.5000050E+01  0.7818608E-02  0.2136455E+00
        -11   -1    0    0    0    0  0.00000000000E+00  0.00000000000E+00  0.50000499739E+01  0.50000500000E+01  0.51100000000E-03 0.  1.
         11   -1    0    0    0    0 -0.00000000000E+00 -0.00000000000E+00 -0.50000499739E+01  0.50000500000E+01  0.51100000000E-03 0. -1.
     100001    1    1    2    0    0  0.91677313021E-02 -0.18053839552E-02  0.20314915494E-01  0.50000500000E+01  0.50000000000E+01 0.  1.
     100001    1    1    2    0    0 -0.91677313021E-02  0.18053839552E-02 -0.20314915494E-01  0.50000500000E+01  0.50000000000E+01 0. -1.
</event>
<event>
 4    1  0.5017912E-001  0.5000050E+01  0.7818608E-02  0.2136455E+00
        -11   -1    0    0    0    0  0.00000000000E+00  0.00000000000E+00  0.50000499739E+01  0.50000500000E+01  0.51100000000E-03 0.  1.
         11   -1    0    0    0    0 -0.00000000000E+00 -0.00000000000E+00 -0.50000499739E+01  0.50000500000E+01  0.51100000000E-03 0. -1.
     100001    1    1    2    0    0  0.52291701491E-03  0.20635421713E-01  0.85970011350E-02  0.50000500000E+01  0.50000000000E+01 0.  0.
     100001    1    1    2    0    0 -0.52291701491E-03 -0.20635421713E-01 -0.85970011350E-02  0.50000500000E+01  0.50000000000E+01 0.  1.
</event>
<event>
 4    1  0.5017912E-001  0.5000050E+01  0.7818608E-02  0.2136455E+00
        -11   -1    0    0    0    0  0.00000000000E+00  0.00000000000E+00  0.50000499739E+01  0.50000500000E+01  0.51100000000E-03 0. -1.
         11   -1    0    0    0    0 -0.00000000000E+00 -0.00000000000E+00 -0.50000499739E+01  0.50000500000E+01  0.51100000000E-03 0.  1.
     100001    1    1    2    0    0  0.46600584381E-02 -0.21742234797E-01  0.23583005290E-02  0.50000500000E+01  0.50000000000E+01 0. -1.
     100001    1    1    2    0    0 -0.46600584381E-02  0.21742234797E-01 -0.23583005290E-02  0.50000500000E+01  0.50000000000E+01 0.  1.
</event>
<event>
 4    1  0.5017912E-001  0.5000050E+01  0.7818608E-02  0.2136455E+00
        -11   -1    0    0    0    0  0.00000000000E+00  0.00000000000E+00  0.50000499739E+01  0.50000500000E+01  0.51100000000E-03 0.  1.
         11   -1    0    0    0    0 -0.00000000000E+00 -0.00000000000E+00 -0.50000499739E+01  0.50000500000E+01  0.51100000000E-03 0. -1.
     100001    1    1    2    0    0  0.94385095206E-02  0.11565399271E-01  0.16648080301E-01  0.50000500000E+01  0.50000000000E+01 0.  0.
     100001    1    1    2    0    0 -0.94385095206E-02 -0.11565399271E-01 -0.16648080301E-01  0.50000500000E+01  0.50000000000E+01 0.  1.
</event>
<event>
 4    1  0.5017912E-001  0.5000050E+01  0.7818608E-02  0.2136455E+00
        -11   -1    0    0    0    0  0.00000000000E+00  0.00000000000E+00  0.50000499739E+01  0.50000500000E+01  0.51100000000E-03 0.  1.
         11   -1    0    0    0    0 -0.00000000000E+00 -0.00000000000E+00 -0.50000499739E+01  0.50000500000E+01  0.51100000000E-03 0. -1.
     100001    1    1    2    0    0  0.75762521956E-03 -0.19129280731E-01  0.11554182045E-01  0.50000500000E+01  0.50000000000E+01 0.  1.
     100001    1    1    2    0    0 -0.75762521956E-03  0.19129280731E-01 -0.11554182045E-01  0.50000500000E+01  0.50000000000E+01 0.  1.
</event>
<event>
 4    1  0.5017912E-001  0.5000050E+01  0.7818608E-02  0.2136455E+00
        -11   -1    0    0    0    0  0.00000000000E+00  0.00000000000E+00  0.50000499739E+01  0.50000500000E+01  0.51100000000E-03 0.  1.
         11   -1    0    0    0    0 -0.00000000000E+00 -0.00000000000E+00 -0.50000499739E+01  0.50000500000E+01  0.51100000000E-03 0. -1.
     100001    1    1    2    0    0  0.21455694400E-02 -0.15990734439E-01 -0.15482100758E-01  0.50000500000E+01  0.50000000000E+01 0. -1.
     100001    1    1    2    0    0 -0.21455694400E-02  0.15990734439E-01  0.15482100758E-01  0.50000500000E+01  0.50000000000E+01 0.  1.
</event>
<event>
 4    1  0.5017912E-001  0.5000050E+01  0.7818608E-02  0.2136455E+00
        -11   -1    0    0    0    0  0.00000000000E+00  0.00000000000E+00  0.50000499739E+01  0.50000500000E+01  0.51100000000E-03 0.  1.
         11   -1    0    0    0    0 -0.00000000000E+00 -0.00000000000E+00 -0.50000499739E+01  0.50000500000E+01  0.51100000000E-03 0. -1.
     100001    1    1    2    0    0  0.71352829097E-02  0.19621344462E-01 -0.80058153429E-02  0.50000500000E+01  0.50000000000E+01 0.  0.
     100001    1    1    2    0    0 -0.71352829097E-02 -0.19621344462E-01  0.80058153429E-02  0.50000500000E+01  0.50000000000E+01 0. -1.
</event>
<event>
 4    1  0.5017912E-001  0.5000050E+01  0.7818608E-02  0.2136455E+00
        -11   -1    0    0    0    0  0.00000000000E+00  0.00000000000E+00  0.50000499739E+01  0.50000500000E+01  0.51100000000E-03 0. -1.
         11   -1    0    0    0    0 -0.00000000000E+00 -0.00000000000E+00 -0.50000499739E+01  0.50000500000E+01  0.51100000000E-03 0.  1.
     100001    1    1    2    0    0  0.21871693453E-01 -0.34980010878E-02  0.30652102512E-02  0.50000500000E+01  0.50000000000E+01 0. -1.
     100001    1    1    2    0    0 -0.21871693453E-01  0.34980010878E-02 -0.30652102512E-02  0.50000500000E+01  0.50000000000E+01 0.  1.
</event>
<event>
 4    1  0.5017912E-001  0.5000050E+01  0.7818608E-02  0.2136455E+00
        -11   -1    0    0    0    0  0.00000000000E+00  0.00000000000E+00  0.50000499739E+01  0.50000500000E+01  0.51100000000E-03 0.  1.
         11   -1    0    0    0    0 -0.00000000000E+00 -0.00000000000E+00 -0.50000499739E+01  0.50000500000E+01  0.51100000000E-03 0. -1.
     100001    1    1    2    0    0 -0.16270068109E-01 -0.76849422460E-02 -0.13275128866E-01  0.50000500000E+01  0.50000000000E+01 0.  0.
     100001    1    1    2    0    0  0.16270068109E-01  0.76849422460E-02  0.13275128866E-01  0.50000500000E+01  0.50000000000E+01 0. -1.
</event>
<event>
 4    1  0.5017912E-001  0.5000050E+01  0.7818608E-02  0.2136455E+00
        -11   -1    0    0    0    0  0.00000000000E+00  0.00000000000E+00  0.50000499739E+01  0.50000500000E+01  0.51100000000E-03 0. -1.
         11   -1    0    0    0    0 -0.00000000000E+00 -0.00000000000E+00 -0.50000499739E+01  0.50000500000E+01  0.51100000000E-03 0.  1.
     100001    1    1    2    0    0  0.21228162337E-01 -0.37072780725E-02  0.59685603861E-02  0.50000500000E+01  0.50000000000E+01 0. -1.
     100001    1    1    2    0    0 -0.21228162337E-01  0.37072780725E-02 -0.59685603861E-02  0.50000500000E+01  0.50000000000E+01 0.  1.
</event>
<event>
 4    1  0.5017912E-001  0.5000050E+01  0.7818608E-02  0.2136455E+00
        -11   -1    0    0    0    0  0.00000000000E+00  0.00000000000E+00  0.50000499739E+01  0.50000500000E+01  0.51100000000E-03 0. -1.
         11   -1    0    0    0    0 -0.00000000000E+00 -0.00000000000E+00 -0.50000499739E+01  0.50000500000E+01  0.51100000000E-03 0.  1.
     100001    1    1    2    0    0 -0.16130077786E-01 -0.51265986942E-02  0.14613044735E-01  0.50000500000E+01  0.50000000000E+01 0.  0.
     100001    1    1    2    0    0  0.16130077786E-01  0.51265986942E-02 -0.14613044735E-01  0.50000500000E+01  0.50000000000E+01 0. -1.
</event>
<event>
 4    1  0.5017912E-001  0.5000050E+01  0.7818608E-02  0.2136455E+00
        -11   -1    0    0    0    0  0.00000000000E+00  0.00000000000E+00  0.50000499739E+01  0.50000500000E+01  0.51100000000E-03 0.  1.
         11   -1    0    0    0    0 -0.00000000000E+00 -0.00000000000E+00 -0.50000499739E+01  0.50000500000E+01  0.51100000000E-03 0. -1.
     100001    1    1    2    0    0  0.66160706876E-02  0.17214519354E-01  0.12644778846E-01  0.50000500000E+01  0.50000000000E+01 0.  1.
     100001    1    1    2    0    0 -0.66160706876E-02 -0.17214519354E-01 -0.12644778846E-01  0.50000500000E+01  0.50000000000E+01 0. -1.
</event>
<event>
 4    1  0.5017912E-001  0.5000050E+01  0.7818608E-02  0.2136455E+00
        -11   -1    0    0    0    0  0.00000000000E+00  0.00000000000E+00  0.50000499739E+01  0.50000500000E+01  0.51100000000E-03 0.  1.
         11   -1    0    0    0    0 -0.00000000000E+00 -0.00000000000E+00 -0.50000499739E+01  0.50000500000E+01  0.51100000000E-03 0. -1.
     100001    1    1    2    0    0 -0.12234306060E-01  0.26909953366E-02 -0.18522494414E-01  0.50000500000E+01  0.50000000000E+01 0. -1.
     100001    1    1    2    0    0  0.12234306060E-01 -0.26909953366E-02  0.18522494414E-01  0.50000500000E+01  0.50000000000E+01 0.  0.
</event>
<event>
 4    1  0.5017912E-001  0.5000050E+01  0.7818608E-02  0.2136455E+00
        -11   -1    0    0    0    0  0.00000000000E+00  0.00000000000E+00  0.50000499739E+01  0.50000500000E+01  0.51100000000E-03 0.  1.
         11   -1    0    0    0    0 -0.00000000000E+00 -0.00000000000E+00 -0.50000499739E+01  0.50000500000E+01  0.51100000000E-03 0. -1.
     100001    1    1    2    0    0 -0.97389677020E-02  0.17059446713E-01 -0.10683177708E-01  0.50000500000E+01  0.50000000000E+01 0. -1.
     100001    1    1    2    0    0  0.97389677020E-02 -0.17059446713E-01  0.10683177708E-01  0.50000500000E+01  0.50000000000E+01 0.  1.
</event>
<event>
 4    1  0.5017912E-001  0.5000050E+01  0.7818608E-02  0.2136455E+00
        -11   -1    0    0    0    0  0.00000000000E+00  0.00000000000E+00  0.50000499739E+01  0.50000500000E+01  0.51100000000E-03 0. -1.
         11   -1    0    0    0    0 -0.00000000000E+00 -0.00000000000E+00 -0.50000499739E+01  0.50000500000E+01  0.51100000000E-03 0.  1.
     100001    1    1    2    0    0 -0.13616407554E-02 -0.14791959512E-01  0.16713658135E-01  0.50000500000E+01  0.50000000000E+01 0.  1.
     100001    1    1    2    0    0  0.13616407554E-02  0.14791959512E-01 -0.16713658135E-01  0.50000500000E+01  0.50000000000E+01 0.  1.
</event>
<event>
 4    1  0.5017912E-001  0.5000050E+01  0.7818608E-02  0.2136455E+00
        -11   -1    0    0    0    0  0.00000000000E+00  0.00000000000E+00  0.50000499739E+01  0.50000500000E+01  0.51100000000E-03 0. -1.
         11   -1    0    0    0    0 -0.00000000000E+00 -0.00000000000E+00 -0.50000499739E+01  0.50000500000E+01  0.51100000000E-03 0.  1.
     100001    1    1    2    0    0  0.21898488378E-01  0.25921391281E-02 -0.37066860537E-02  0.50000500000E+01  0.50000000000E+01 0.  0.
     100001    1    1    2    0    0 -0.21898488378E-01 -0.25921391281E-02  0.37066860537E-02  0.50000500000E+01  0.50000000000E+01 0.  1.
</event>
<event>
 4    1  0.5017912E-001  0.5000050E+01  0.7818608E-02  0.2136455E+00
        -11   -1    0    0    0    0  0.00000000000E+00  0.00000000000E+00  0.50000499739E+01  0.50000500000E+01  0.51100000000E-03 0.  1.
         11   -1    0    0    0    0 -0.00000000000E+00 -0.00000000000E+00 -0.50000499739E+01  0.50000500000E+01  0.51100000000E-03 0. -1.
     100001    1    1    2    0    0  0.11894576987E-01 -0.11105074908E-01  0.15336194104E-01  0.50000500000E+01  0.50000000000E+01 0.  0.
     100001    1    1    2    0    0 -0.11894576987E-01  0.11105074908E-01 -0.15336194104E-01  0.50000500000E+01  0.50000000000E+01 0. -1.
</event>
<event>
 4    1  0.5017912E-001  0.5000050E+01  0.7818608E-02  0.2136455E+00
        -11   -1    0    0    0    0  0.00000000000E+00  0.00000000000E+00  0.50000499739E+01  0.50000500000E+01  0.51100000000E-03 0.  1.
         11   -1    0    0    0    0 -0.00000000000E+00 -0.00000000000E+00 -0.50000499739E+01  0.50000500000E+01  0.51100000000E-03 0. -1.
     100001    1    1    2    0    0  0.12127086938E-01 -0.41520195894E-02  0.18322035796E-01  0.50000500000E+01  0.50000000000E+01 0.  0.
     100001    1    1    2    0    0 -0.12127086938E-01  0.41520195894E-02 -0.18322035796E-01  0.50000500000E+01  0.50000000000E+01 0.  0.
</event>
<event>
 4    1  0.5017912E-001  0.5000050E+01  0.7818608E-02  0.2136455E+00
        -11   -1    0    0    0    0  0.00000000000E+00  0.00000000000E+00  0.50000499739E+01  0.50000500000E+01  0.51100000000E-03 0. -1.
         11   -1    0    0    0    0 -0.00000000000E+00 -0.00000000000E+00 -0.50000499739E+01  0.50000500000E+01  0.51100000000E-03 0.  1.
     100001    1    1    2    0    0 -0.10295301630E-01 -0.84811526718E-02  0.17946568299E-01  0.50000500000E+01  0.50000000000E+01 0.  0.
     100001    1    1    2    0    0  0.10295301630E-01  0.84811526718E-02 -0.17946568299E-01  0.50000500000E+01  0.50000000000E+01 0.  1.
</event>
<event>
 4    1  0.5017912E-001  0.5000050E+01  0.7818608E-02  0.2136455E+00
        -11   -1    0    0    0    0  0.00000000000E+00  0.00000000000E+00  0.50000499739E+01  0.50000500000E+01  0.51100000000E-03 0. -1.
         11   -1    0    0    0    0 -0.00000000000E+00 -0.00000000000E+00 -0.50000499739E+01  0.50000500000E+01  0.51100000000E-03 0.  1.
     100001    1    1    2    0    0  0.25586611669E-02  0.21490459732E-01 -0.56228012175E-02  0.50000500000E+01  0.50000000000E+01 0.  1.
     100001    1    1    2    0    0 -0.25586611669E-02 -0.21490459732E-01  0.56228012175E-02  0.50000500000E+01  0.50000000000E+01 0. -1.
</event>
<event>
 4    1  0.5017912E-001  0.5000050E+01  0.7818608E-02  0.2136455E+00
        -11   -1    0    0    0    0  0.00000000000E+00  0.00000000000E+00  0.50000499739E+01  0.50000500000E+01  0.51100000000E-03 0.  1.
         11   -1    0    0    0    0 -0.00000000000E+00 -0.00000000000E+00 -0.50000499739E+01  0.50000500000E+01  0.51100000000E-03 0. -1.
     100001    1    1    2    0    0 -0.13697463229E-01  0.14137995059E-01 -0.10606559140E-01  0.50000500000E+01  0.50000000000E+01 0. -1.
     100001    1    1    2    0    0  0.13697463229E-01 -0.14137995059E-01  0.10606559140E-01  0.50000500000E+01  0.50000000000E+01 0.  1.
</event>
<event>
 4    1  0.5017912E-001  0.5000050E+01  0.7818608E-02  0.2136455E+00
        -11   -1    0    0    0    0  0.00000000000E+00  0.00000000000E+00  0.50000499739E+01  0.50000500000E+01  0.51100000000E-03 0. -1.
         11   -1    0    0    0    0 -0.00000000000E+00 -0.00000000000E+00 -0.50000499739E+01  0.50000500000E+01  0.51100000000E-03 0.  1.
     100001    1    1    2    0    0  0.56512481343E-02 -0.11960420993E-01 -0.18028150881E-01  0.50000500000E+01  0.50000000000E+01 0.  0.
     100001    1    1    2    0    0 -0.56512481343E-02  0.11960420993E-01  0.18028150881E-01  0.50000500000E+01  0.50000000000E+01 0.  0.
</event>
<event>
 4    1  0.5017912E-001  0.5000050E+01  0.7818608E-02  0.2136455E+00
        -11   -1    0    0    0    0  0.00000000000E+00  0.00000000000E+00  0.50000499739E+01  0.50000500000E+01  0.51100000000E-03 0.  1.
         11   -1    0    0    0    0 -0.00000000000E+00 -0.00000000000E+00 -0.50000499739E+01  0.50000500000E+01  0.51100000000E-03 0. -1.
     100001    1    1    2    0    0  0.55130770581E-02 -0.16886057987E-01  0.13581955934E-01  0.50000500000E+01  0.50000000000E+01 0.  0.
     100001    1    1    2    0    0 -0.55130770581E-02  0.16886057987E-01 -0.13581955934E-01  0.50000500000E+01  0.50000000000E+01 0.  0.
</event>
<event>
 4    1  0.5017912E-001  0.5000050E+01  0.7818608E-02  0.2136455E+00
        -11   -1    0    0    0    0  0.00000000000E+00  0.00000000000E+00  0.50000499739E+01  0.50000500000E+01  0.51100000000E-03 0.  1.
         11   -1    0    0    0    0 -0.00000000000E+00 -0.00000000000E+00 -0.50000499739E+01  0.50000500000E+01  0.51100000000E-03 0. -1.
     100001    1    1    2    0    0 -0.15180950859E-02  0.20900948076E-01 -0.78005292653E-02  0.50000500000E+01  0.50000000000E+01 0.  1.
     100001    1    1    2    0    0  0.15180950859E-02 -0.20900948076E-01  0.78005292653E-02  0.50000500000E+01  0.50000000000E+01 0.  0.
</event>
<event>
 4    1  0.5017912E-001  0.5000050E+01  0.7818608E-02  0.2136455E+00
        -11   -1    0    0    0    0  0.00000000000E+00  0.00000000000E+00  0.50000499739E+01  0.50000500000E+01  0.51100000000E-03 0.  1.
         11   -1    0    0    0    0 -0.00000000000E+00 -0.00000000000E+00 -0.50000499739E+01  0.50000500000E+01  0.51100000000E-03 0. -1.
     100001    1    1    2    0    0 -0.18050290213E-01  0.56345681032E-02 -0.11934871826E-01  0.50000500000E+01  0.50000000000E+01 0. -1.
     100001    1    1    2    0    0  0.18050290213E-01 -0.56345681032E-02  0.11934871826E-01  0.50000500000E+01  0.50000000000E+01 0.  1.
</event>
<event>
 4    1  0.5017912E-001  0.5000050E+01  0.7818608E-02  0.2136455E+00
        -11   -1    0    0    0    0  0.00000000000E+00  0.00000000000E+00  0.50000499739E+01  0.50000500000E+01  0.51100000000E-03 0. -1.
         11   -1    0    0    0    0 -0.00000000000E+00 -0.00000000000E+00 -0.50000499739E+01  0.50000500000E+01  0.51100000000E-03 0.  1.
     100001    1    1    2    0    0 -0.19879551303E-01  0.20087415829E-02  0.10038470862E-01  0.50000500000E+01  0.50000000000E+01 0.  0.
     100001    1    1    2    0    0  0.19879551303E-01 -0.20087415829E-02 -0.10038470862E-01  0.50000500000E+01  0.50000000000E+01 0. -1.
</event>
<event>
 4    1  0.5017912E-001  0.5000050E+01  0.7818608E-02  0.2136455E+00
        -11   -1    0    0    0    0  0.00000000000E+00  0.00000000000E+00  0.50000499739E+01  0.50000500000E+01  0.51100000000E-03 0. -1.
         11   -1    0    0    0    0 -0.00000000000E+00 -0.00000000000E+00 -0.50000499739E+01  0.50000500000E+01  0.51100000000E-03 0.  1.
     100001    1    1    2    0    0  0.16169051972E-01  0.31525795002E-02  0.15120367086E-01  0.50000500000E+01  0.50000000000E+01 0.  1.
     100001    1    1    2    0    0 -0.16169051972E-01 -0.31525795002E-02 -0.15120367086E-01  0.50000500000E+01  0.50000000000E+01 0.  1.
</event>
<event>
 4    1  0.5017912E-001  0.5000050E+01  0.7818608E-02  0.2136455E+00
        -11   -1    0    0    0    0  0.00000000000E+00  0.00000000000E+00  0.50000499739E+01  0.50000500000E+01  0.51100000000E-03 0.  1.
         11   -1    0    0    0    0 -0.00000000000E+00 -0.00000000000E+00 -0.50000499739E+01  0.50000500000E+01  0.51100000000E-03 0. -1.
     100001    1    1    2    0    0  0.79796458598E-03 -0.22281931752E-01 -0.16974303854E-02  0.50000500000E+01  0.50000000000E+01 0.  0.
     100001    1    1    2    0    0 -0.79796458598E-03  0.22281931752E-01  0.16974303854E-02  0.50000500000E+01  0.50000000000E+01 0.  1.
</event>
<event>
 4    1  0.5017912E-001  0.5000050E+01  0.7818608E-02  0.2136455E+00
        -11   -1    0    0    0    0  0.00000000000E+00  0.00000000000E+00  0.50000499739E+01  0.50000500000E+01  0.51100000000E-03 0. -1.
         11   -1    0    0    0    0 -0.00000000000E+00 -0.00000000000E+00 -0.50000499739E+01  0.50000500000E+01  0.51100000000E-03 0.  1.
     100001    1    1    2    0    0  0.18423269823E-01 -0.81796652633E-02 -0.96787760172E-02  0.50000500000E+01  0.50000000000E+01 0.  0.
     100001    1    1    2    0    0 -0.18423269823E-01  0.81796652633E-02  0.96787760172E-02  0.50000500000E+01  0.50000000000E+01 0.  0.
</event>
<event>
 4    1  0.5017912E-001  0.5000050E+01  0.7818608E-02  0.2136455E+00
        -11   -1    0    0    0    0  0.00000000000E+00  0.00000000000E+00  0.50000499739E+01  0.50000500000E+01  0.51100000000E-03 0. -1.
         11   -1    0    0    0    0 -0.00000000000E+00 -0.00000000000E+00 -0.50000499739E+01  0.50000500000E+01  0.51100000000E-03 0.  1.
     100001    1    1    2    0    0  0.96218813738E-03 -0.17949403184E-01 -0.13300211250E-01  0.50000500000E+01  0.50000000000E+01 0. -1.
     100001    1    1    2    0    0 -0.96218813738E-03  0.17949403184E-01  0.13300211250E-01  0.50000500000E+01  0.50000000000E+01 0.  0.
</event>
<event>
 4    1  0.5017912E-001  0.5000050E+01  0.7818608E-02  0.2136455E+00
        -11   -1    0    0    0    0  0.00000000000E+00  0.00000000000E+00  0.50000499739E+01  0.50000500000E+01  0.51100000000E-03 0. -1.
         11   -1    0    0    0    0 -0.00000000000E+00 -0.00000000000E+00 -0.50000499739E+01  0.50000500000E+01  0.51100000000E-03 0.  1.
     100001    1    1    2    0    0  0.17895333751E-01 -0.77200997799E-03 -0.13385198188E-01  0.50000500000E+01  0.50000000000E+01 0.  1.
     100001    1    1    2    0    0 -0.17895333751E-01  0.77200997799E-03  0.13385198188E-01  0.50000500000E+01  0.50000000000E+01 0. -1.
</event>
<event>
 4    1  0.5017912E-001  0.5000050E+01  0.7818608E-02  0.2136455E+00
        -11   -1    0    0    0    0  0.00000000000E+00  0.00000000000E+00  0.50000499739E+01  0.50000500000E+01  0.51100000000E-03 0. -1.
         11   -1    0    0    0    0 -0.00000000000E+00 -0.00000000000E+00 -0.50000499739E+01  0.50000500000E+01  0.51100000000E-03 0.  1.
     100001    1    1    2    0    0 -0.92728081611E-02  0.19260742073E-01  0.65605901861E-02  0.50000500000E+01  0.50000000000E+01 0. -1.
     100001    1    1    2    0    0  0.92728081611E-02 -0.19260742073E-01 -0.65605901861E-02  0.50000500000E+01  0.50000000000E+01 0.  0.
</event>
<event>
 4    1  0.5017912E-001  0.5000050E+01  0.7818608E-02  0.2136455E+00
        -11   -1    0    0    0    0  0.00000000000E+00  0.00000000000E+00  0.50000499739E+01  0.50000500000E+01  0.51100000000E-03 0.  1.
         11   -1    0    0    0    0 -0.00000000000E+00 -0.00000000000E+00 -0.50000499739E+01  0.50000500000E+01  0.51100000000E-03 0. -1.
     100001    1    1    2    0    0  0.68522359362E-03 -0.65802555221E-02 -0.21359616239E-01  0.50000500000E+01  0.50000000000E+01 0. -1.
     100001    1    1    2    0    0 -0.68522359362E-03  0.65802555221E-02  0.21359616239E-01  0.50000500000E+01  0.50000000000E+01 0.  1.
</event>
<event>
 4    1  0.5017912E-001  0.5000050E+01  0.7818608E-02  0.2136455E+00
        -11   -1    0    0    0    0  0.00000000000E+00  0.00000000000E+00  0.50000499739E+01  0.50000500000E+01  0.51100000000E-03 0. -1.
         11   -1    0    0    0    0 -0.00000000000E+00 -0.00000000000E+00 -0.50000499739E+01  0.50000500000E+01  0.51100000000E-03 0.  1.
     100001    1    1    2    0    0  0.13425543351E-01  0.16973566299E-01 -0.56263072112E-02  0.50000500000E+01  0.50000000000E+01 0. -1.
     100001    1    1    2    0    0 -0.13425543351E-01 -0.16973566299E-01  0.56263072112E-02  0.50000500000E+01  0.50000000000E+01 0.  0.
</event>
<event>
 4    1  0.5017912E-001  0.5000050E+01  0.7818608E-02  0.2136455E+00
        -11   -1    0    0    0    0  0.00000000000E+00  0.00000000000E+00  0.50000499739E+01  0.50000500000E+01  0.51100000000E-03 0. -1.
         11   -1    0    0    0    0 -0.00000000000E+00 -0.00000000000E+00 -0.50000499739E+01  0.50000500000E+01  0.51100000000E-03 0.  1.
     100001    1    1    2    0    0 -0.21265072723E-01 -0.16642982980E-02  0.67103869669E-02  0.50000500000E+01  0.50000000000E+01 0. -1.
     100001    1    1    2    0    0  0.21265072723E-01  0.16642982980E-02 -0.67103869669E-02  0.50000500000E+01  0.50000000000E+01 0.  1.
</event>
<event>
 4    1  0.5017912E-001  0.5000050E+01  0.7818608E-02  0.2136455E+00
        -11   -1    0    0    0    0  0.00000000000E+00  0.00000000000E+00  0.50000499739E+01  0.50000500000E+01  0.51100000000E-03 0.  1.
         11   -1    0    0    0    0 -0.00000000000E+00 -0.00000000000E+00 -0.50000499739E+01  0.50000500000E+01  0.51100000000E-03 0. -1.
     100001    1    1    2    0    0  0.17521247972E-01 -0.11842425609E-01 -0.72639744777E-02  0.50000500000E+01  0.50000000000E+01 0. -1.
     100001    1    1    2    0    0 -0.17521247972E-01  0.11842425609E-01  0.72639744777E-02  0.50000500000E+01  0.50000000000E+01 0.  1.
</event>
<event>
 4    1  0.5017912E-001  0.5000050E+01  0.7818608E-02  0.2136455E+00
        -11   -1    0    0    0    0  0.00000000000E+00  0.00000000000E+00  0.50000499739E+01  0.50000500000E+01  0.51100000000E-03 0. -1.
         11   -1    0    0    0    0 -0.00000000000E+00 -0.00000000000E+00 -0.50000499739E+01  0.50000500000E+01  0.51100000000E-03 0.  1.
     100001    1    1    2    0    0 -0.59335410872E-02 -0.20840247168E-01  0.55208412517E-02  0.50000500000E+01  0.50000000000E+01 0.  0.
     100001    1    1    2    0    0  0.59335410872E-02  0.20840247168E-01 -0.55208412517E-02  0.50000500000E+01  0.50000000000E+01 0.  0.
</event>
<event>
 4    1  0.5017912E-001  0.5000050E+01  0.7818608E-02  0.2136455E+00
        -11   -1    0    0    0    0  0.00000000000E+00  0.00000000000E+00  0.50000499739E+01  0.50000500000E+01  0.51100000000E-03 0. -1.
         11   -1    0    0    0    0 -0.00000000000E+00 -0.00000000000E+00 -0.50000499739E+01  0.50000500000E+01  0.51100000000E-03 0.  1.
     100001    1    1    2    0    0 -0.17575080945E-01 -0.43798832362E-02 -0.13112423598E-01  0.50000500000E+01  0.50000000000E+01 0.  0.
     100001    1    1    2    0    0  0.17575080945E-01  0.43798832362E-02  0.13112423598E-01  0.50000500000E+01  0.50000000000E+01 0.  0.
</event>
<event>
 4    1  0.5017912E-001  0.5000050E+01  0.7818608E-02  0.2136455E+00
        -11   -1    0    0    0    0  0.00000000000E+00  0.00000000000E+00  0.50000499739E+01  0.50000500000E+01  0.51100000000E-03 0.  1.
         11   -1    0    0    0    0 -0.00000000000E+00 -0.00000000000E+00 -0.50000499739E+01  0.50000500000E+01  0.51100000000E-03 0. -1.
     100001    1    1    2    0    0  0.12212220215E-01 -0.48208438846E-02 -0.18100376837E-01  0.50000500000E+01  0.50000000000E+01 0.  0.
     100001    1    1    2    0    0 -0.12212220215E-01  0.48208438846E-02  0.18100376837E-01  0.50000500000E+01  0.50000000000E+01 0.  0.
</event>
<event>
 4    1  0.5017912E-001  0.5000050E+01  0.7818608E-02  0.2136455E+00
        -11   -1    0    0    0    0  0.00000000000E+00  0.00000000000E+00  0.50000499739E+01  0.50000500000E+01  0.51100000000E-03 0.  1.
         11   -1    0    0    0    0 -0.00000000000E+00 -0.00000000000E+00 -0.50000499739E+01  0.50000500000E+01  0.51100000000E-03 0. -1.
     100001    1    1    2    0    0  0.12795862617E-01 -0.17728942217E-01  0.46854036929E-02  0.50000500000E+01  0.50000000000E+01 0. -1.
     100001    1    1    2    0    0 -0.12795862617E-01  0.17728942217E-01 -0.46854036929E-02  0.50000500000E+01  0.50000000000E+01 0.  1.
</event>
<event>
 4    1  0.5017912E-001  0.5000050E+01  0.7818608E-02  0.2136455E+00
        -11   -1    0    0    0    0  0.00000000000E+00  0.00000000000E+00  0.50000499739E+01  0.50000500000E+01  0.51100000000E-03 0.  1.
         11   -1    0    0    0    0 -0.00000000000E+00 -0.00000000000E+00 -0.50000499739E+01  0.50000500000E+01  0.51100000000E-03 0. -1.
     100001    1    1    2    0    0 -0.13912830849E-01  0.17421236326E-01  0.17135234609E-02  0.50000500000E+01  0.50000000000E+01 0.  0.
     100001    1    1    2    0    0  0.13912830849E-01 -0.17421236326E-01 -0.17135234609E-02  0.50000500000E+01  0.50000000000E+01 0.  1.
</event>
<event>
 4    1  0.5017912E-001  0.5000050E+01  0.7818608E-02  0.2136455E+00
        -11   -1    0    0    0    0  0.00000000000E+00  0.00000000000E+00  0.50000499739E+01  0.50000500000E+01  0.51100000000E-03 0. -1.
         11   -1    0    0    0    0 -0.00000000000E+00 -0.00000000000E+00 -0.50000499739E+01  0.50000500000E+01  0.51100000000E-03 0.  1.
     100001    1    1    2    0    0  0.86672856418E-02  0.15962580801E-01  0.13041344783E-01  0.50000500000E+01  0.50000000000E+01 0.  1.
     100001    1    1    2    0    0 -0.86672856418E-02 -0.15962580801E-01 -0.13041344783E-01  0.50000500000E+01  0.50000000000E+01 0.  0.
</event>
<event>
 4    1  0.5017912E-001  0.5000050E+01  0.7818608E-02  0.2136455E+00
        -11   -1    0    0    0    0  0.00000000000E+00  0.00000000000E+00  0.50000499739E+01  0.50000500000E+01  0.51100000000E-03 0.  1.
         11   -1    0    0    0    0 -0.00000000000E+00 -0.00000000000E+00 -0.50000499739E+01  0.50000500000E+01  0.51100000000E-03 0. -1.
     100001    1    1    2    0    0 -0.12003593707E-01 -0.18484960978E-01  0.37712671252E-02  0.50000500000E+01  0.50000000000E+01 0. -1.
     100001    1    1    2    0    0  0.12003593707E-01  0.18484960978E-01 -0.37712671252E-02  0.50000500000E+01  0.50000000000E+01 0.  0.
</event>
<event>
 4    1  0.5017912E-001  0.5000050E+01  0.7818608E-02  0.2136455E+00
        -11   -1    0    0    0    0  0.00000000000E+00  0.00000000000E+00  0.50000499739E+01  0.50000500000E+01  0.51100000000E-03 0.  1.
         11   -1    0    0    0    0 -0.00000000000E+00 -0.00000000000E+00 -0.50000499739E+01  0.50000500000E+01  0.51100000000E-03 0. -1.
     100001    1    1    2    0    0 -0.13706833049E-01  0.36640756126E-02 -0.17282933132E-01  0.50000500000E+01  0.50000000000E+01 0. -1.
     100001    1    1    2    0    0  0.13706833049E-01 -0.36640756126E-02  0.17282933132E-01  0.50000500000E+01  0.50000000000E+01 0.  1.
</event>
<event>
 4    1  0.5017912E-001  0.5000050E+01  0.7818608E-02  0.2136455E+00
        -11   -1    0    0    0    0  0.00000000000E+00  0.00000000000E+00  0.50000499739E+01  0.50000500000E+01  0.51100000000E-03 0.  1.
         11   -1    0    0    0    0 -0.00000000000E+00 -0.00000000000E+00 -0.50000499739E+01  0.50000500000E+01  0.51100000000E-03 0. -1.
     100001    1    1    2    0    0 -0.12931746093E-01  0.76074837628E-02 -0.16580067363E-01  0.50000500000E+01  0.50000000000E+01 0. -1.
     100001    1    1    2    0    0  0.12931746093E-01 -0.76074837628E-02  0.16580067363E-01  0.50000500000E+01  0.50000000000E+01 0.  1.
</event>
<event>
 4    1  0.5017912E-001  0.5000050E+01  0.7818608E-02  0.2136455E+00
        -11   -1    0    0    0    0  0.00000000000E+00  0.00000000000E+00  0.50000499739E+01  0.50000500000E+01  0.51100000000E-03 0. -1.
         11   -1    0    0    0    0 -0.00000000000E+00 -0.00000000000E+00 -0.50000499739E+01  0.50000500000E+01  0.51100000000E-03 0.  1.
     100001    1    1    2    0    0  0.65587751122E-02 -0.21348760489E-01  0.11024493586E-02  0.50000500000E+01  0.50000000000E+01 0.  1.
     100001    1    1    2    0    0 -0.65587751122E-02  0.21348760489E-01 -0.11024493586E-02  0.50000500000E+01  0.50000000000E+01 0. -1.
</event>
<event>
 4    1  0.5017912E-001  0.5000050E+01  0.7818608E-02  0.2136455E+00
        -11   -1    0    0    0    0  0.00000000000E+00  0.00000000000E+00  0.50000499739E+01  0.50000500000E+01  0.51100000000E-03 0. -1.
         11   -1    0    0    0    0 -0.00000000000E+00 -0.00000000000E+00 -0.50000499739E+01  0.50000500000E+01  0.51100000000E-03 0.  1.
     100001    1    1    2    0    0 -0.17321943266E-01 -0.89261464962E-02 -0.10967073001E-01  0.50000500000E+01  0.50000000000E+01 0.  1.
     100001    1    1    2    0    0  0.17321943266E-01  0.89261464962E-02  0.10967073001E-01  0.50000500000E+01  0.50000000000E+01 0.  1.
</event>
<event>
 4    1  0.5017912E-001  0.5000050E+01  0.7818608E-02  0.2136455E+00
        -11   -1    0    0    0    0  0.00000000000E+00  0.00000000000E+00  0.50000499739E+01  0.50000500000E+01  0.51100000000E-03 0.  1.
         11   -1    0    0    0    0 -0.00000000000E+00 -0.00000000000E+00 -0.50000499739E+01  0.50000500000E+01  0.51100000000E-03 0. -1.
     100001    1    1    2    0    0 -0.17994974313E-01  0.16974163874E-03  0.13272324109E-01  0.50000500000E+01  0.50000000000E+01 0.  1.
     100001    1    1    2    0    0  0.17994974313E-01 -0.16974163874E-03 -0.13272324109E-01  0.50000500000E+01  0.50000000000E+01 0. -1.
</event>
<event>
 4    1  0.5017912E-001  0.5000050E+01  0.7818608E-02  0.2136455E+00
        -11   -1    0    0    0    0  0.00000000000E+00  0.00000000000E+00  0.50000499739E+01  0.50000500000E+01  0.51100000000E-03 0. -1.
         11   -1    0    0    0    0 -0.00000000000E+00 -0.00000000000E+00 -0.50000499739E+01  0.50000500000E+01  0.51100000000E-03 0.  1.
     100001    1    1    2    0    0  0.63725589640E-02  0.59614210970E-02 -0.20587725730E-01  0.50000500000E+01  0.50000000000E+01 0.  1.
     100001    1    1    2    0    0 -0.63725589640E-02 -0.59614210970E-02  0.20587725730E-01  0.50000500000E+01  0.50000000000E+01 0.  0.
</event>
<event>
 4    1  0.5017912E-001  0.5000050E+01  0.7818608E-02  0.2136455E+00
        -11   -1    0    0    0    0  0.00000000000E+00  0.00000000000E+00  0.50000499739E+01  0.50000500000E+01  0.51100000000E-03 0.  1.
         11   -1    0    0    0    0 -0.00000000000E+00 -0.00000000000E+00 -0.50000499739E+01  0.50000500000E+01  0.51100000000E-03 0. -1.
     100001    1    1    2    0    0  0.85126157547E-02  0.20615412575E-01  0.15945649464E-02  0.50000500000E+01  0.50000000000E+01 0.  0.
     100001    1    1    2    0    0 -0.85126157547E-02 -0.20615412575E-01 -0.15945649464E-02  0.50000500000E+01  0.50000000000E+01 0.  1.
</event>
<event>
 4    1  0.5017912E-001  0.5000050E+01  0.7818608E-02  0.2136455E+00
        -11   -1    0    0    0    0  0.00000000000E+00  0.00000000000E+00  0.50000499739E+01  0.50000500000E+01  0.51100000000E-03 0. -1.
         11   -1    0    0    0    0 -0.00000000000E+00 -0.00000000000E+00 -0.50000499739E+01  0.50000500000E+01  0.51100000000E-03 0.  1.
     100001    1    1    2    0    0  0.19206713470E-01  0.97155725939E-02 -0.60590681494E-02  0.50000500000E+01  0.50000000000E+01 0. -1.
     100001    1    1    2    0    0 -0.19206713470E-01 -0.97155725939E-02  0.60590681494E-02  0.50000500000E+01  0.50000000000E+01 0.  0.
</event>
<event>
 4    1  0.5017912E-001  0.5000050E+01  0.7818608E-02  0.2136455E+00
        -11   -1    0    0    0    0  0.00000000000E+00  0.00000000000E+00  0.50000499739E+01  0.50000500000E+01  0.51100000000E-03 0. -1.
         11   -1    0    0    0    0 -0.00000000000E+00 -0.00000000000E+00 -0.50000499739E+01  0.50000500000E+01  0.51100000000E-03 0.  1.
     100001    1    1    2    0    0  0.19669877185E-01  0.92654819111E-02 -0.52200839544E-02  0.50000500000E+01  0.50000000000E+01 0. -1.
     100001    1    1    2    0    0 -0.19669877185E-01 -0.92654819111E-02  0.52200839544E-02  0.50000500000E+01  0.50000000000E+01 0.  1.
</event>
<event>
 4    1  0.5017912E-001  0.5000050E+01  0.7818608E-02  0.2136455E+00
        -11   -1    0    0    0    0  0.00000000000E+00  0.00000000000E+00  0.50000499739E+01  0.50000500000E+01  0.51100000000E-03 0. -1.
         11   -1    0    0    0    0 -0.00000000000E+00 -0.00000000000E+00 -0.50000499739E+01  0.50000500000E+01  0.51100000000E-03 0.  1.
     100001    1    1    2    0    0 -0.84926456029E-02  0.32560158723E-02  0.20427330499E-01  0.50000500000E+01  0.50000000000E+01 0.  0.
     100001    1    1    2    0    0  0.84926456029E-02 -0.32560158723E-02 -0.20427330499E-01  0.50000500000E+01  0.50000000000E+01 0.  1.
</event>
<event>
 4    1  0.5017912E-001  0.5000050E+01  0.7818608E-02  0.2136455E+00
        -11   -1    0    0    0    0  0.00000000000E+00  0.00000000000E+00  0.50000499739E+01  0.50000500000E+01  0.51100000000E-03 0.  1.
         11   -1    0    0    0    0 -0.00000000000E+00 -0.00000000000E+00 -0.50000499739E+01  0.50000500000E+01  0.51100000000E-03 0. -1.
     100001    1    1    2    0    0 -0.11028367047E-01 -0.13499612921E-01  0.14004930248E-01  0.50000500000E+01  0.50000000000E+01 0. -1.
     100001    1    1    2    0    0  0.11028367047E-01  0.13499612921E-01 -0.14004930248E-01  0.50000500000E+01  0.50000000000E+01 0. -1.
</event>
<event>
 4    1  0.5017912E-001  0.5000050E+01  0.7818608E-02  0.2136455E+00
        -11   -1    0    0    0    0  0.00000000000E+00  0.00000000000E+00  0.50000499739E+01  0.50000500000E+01  0.51100000000E-03 0. -1.
         11   -1    0    0    0    0 -0.00000000000E+00 -0.00000000000E+00 -0.50000499739E+01  0.50000500000E+01  0.51100000000E-03 0.  1.
     100001    1    1    2    0    0 -0.84438290574E-02  0.13453838271E-01 -0.15738439777E-01  0.50000500000E+01  0.50000000000E+01 0.  0.
     100001    1    1    2    0    0  0.84438290574E-02 -0.13453838271E-01  0.15738439777E-01  0.50000500000E+01  0.50000000000E+01 0.  0.
</event>
<event>
 4    1  0.5017912E-001  0.5000050E+01  0.7818608E-02  0.2136455E+00
        -11   -1    0    0    0    0  0.00000000000E+00  0.00000000000E+00  0.50000499739E+01  0.50000500000E+01  0.51100000000E-03 0. -1.
         11   -1    0    0    0    0 -0.00000000000E+00 -0.00000000000E+00 -0.50000499739E+01  0.50000500000E+01  0.51100000000E-03 0.  1.
     100001    1    1    2    0    0  0.15650240693E-01  0.21626328086E-02  0.15823889711E-01  0.50000500000E+01  0.50000000000E+01 0. -1.
     100001    1    1    2    0    0 -0.15650240693E-01 -0.21626328086E-02 -0.15823889711E-01  0.50000500000E+01  0.50000000000E+01 0.  0.
</event>
<event>
 4    1  0.5017912E-001  0.5000050E+01  0.7818608E-02  0.2136455E+00
        -11   -1    0    0    0    0  0.00000000000E+00  0.00000000000E+00  0.50000499739E+01  0.50000500000E+01  0.51100000000E-03 0. -1.
         11   -1    0    0    0    0 -0.00000000000E+00 -0.00000000000E+00 -0.50000499739E+01  0.50000500000E+01  0.51100000000E-03 0.  1.
     100001    1    1    2    0    0  0.87413798588E-02 -0.12524109984E-01 -0.16332098679E-01  0.50000500000E+01  0.50000000000E+01 0.  1.
     100001    1    1    2    0    0 -0.87413798588E-02  0.12524109984E-01  0.16332098679E-01  0.50000500000E+01  0.50000000000E+01 0. -1.
</event>
<event>
 4    1  0.5017912E-001  0.5000050E+01  0.7818608E-02  0.2136455E+00
        -11   -1    0    0    0    0  0.00000000000E+00  0.00000000000E+00  0.50000499739E+01  0.50000500000E+01  0.51100000000E-03 0. -1.
         11   -1    0    0    0    0 -0.00000000000E+00 -0.00000000000E+00 -0.50000499739E+01  0.50000500000E+01  0.51100000000E-03 0.  1.
     100001    1    1    2    0    0 -0.21212431826E-01  0.26551018214E-02 -0.65563458060E-02  0.50000500000E+01  0.50000000000E+01 0.  1.
     100001    1    1    2    0    0  0.21212431826E-01 -0.26551018214E-02  0.65563458060E-02  0.50000500000E+01  0.50000000000E+01 0. -1.
</event>
<event>
 4    1  0.5017912E-001  0.5000050E+01  0.7818608E-02  0.2136455E+00
        -11   -1    0    0    0    0  0.00000000000E+00  0.00000000000E+00  0.50000499739E+01  0.50000500000E+01  0.51100000000E-03 0.  1.
         11   -1    0    0    0    0 -0.00000000000E+00 -0.00000000000E+00 -0.50000499739E+01  0.50000500000E+01  0.51100000000E-03 0. -1.
     100001    1    1    2    0    0 -0.10935534362E-01 -0.15273959940E-01  0.12129416142E-01  0.50000500000E+01  0.50000000000E+01 0.  1.
     100001    1    1    2    0    0  0.10935534362E-01  0.15273959940E-01 -0.12129416142E-01  0.50000500000E+01  0.50000000000E+01 0. -1.
</event>
<event>
 4    1  0.5017912E-001  0.5000050E+01  0.7818608E-02  0.2136455E+00
        -11   -1    0    0    0    0  0.00000000000E+00  0.00000000000E+00  0.50000499739E+01  0.50000500000E+01  0.51100000000E-03 0. -1.
         11   -1    0    0    0    0 -0.00000000000E+00 -0.00000000000E+00 -0.50000499739E+01  0.50000500000E+01  0.51100000000E-03 0.  1.
     100001    1    1    2    0    0  0.13366994786E-01  0.16498836646E-01  0.70081623630E-02  0.50000500000E+01  0.50000000000E+01 0. -1.
     100001    1    1    2    0    0 -0.13366994786E-01 -0.16498836646E-01 -0.70081623630E-02  0.50000500000E+01  0.50000000000E+01 0.  1.
</event>
<event>
 4    1  0.5017912E-001  0.5000050E+01  0.7818608E-02  0.2136455E+00
        -11   -1    0    0    0    0  0.00000000000E+00  0.00000000000E+00  0.50000499739E+01  0.50000500000E+01  0.51100000000E-03 0. -1.
         11   -1    0    0    0    0 -0.00000000000E+00 -0.00000000000E+00 -0.50000499739E+01  0.50000500000E+01  0.51100000000E-03 0.  1.
     100001    1    1    2    0    0  0.57713109429E-02  0.10121577111E-01  0.19085286133E-01  0.50000500000E+01  0.50000000000E+01 0.  0.
     100001    1    1    2    0    0 -0.57713109429E-02 -0.10121577111E-01 -0.19085286133E-01  0.50000500000E+01  0.50000000000E+01 0.  1.
</event>
<event>
 4    1  0.5017912E-001  0.5000050E+01  0.7818608E-02  0.2136455E+00
        -11   -1    0    0    0    0  0.00000000000E+00  0.00000000000E+00  0.50000499739E+01  0.50000500000E+01  0.51100000000E-03 0. -1.
         11   -1    0    0    0    0 -0.00000000000E+00 -0.00000000000E+00 -0.50000499739E+01  0.50000500000E+01  0.51100000000E-03 0.  1.
     100001    1    1    2    0    0 -0.99402136758E-02  0.97432484239E-02  0.17500393202E-01  0.50000500000E+01  0.50000000000E+01 0.  0.
     100001    1    1    2    0    0  0.99402136758E-02 -0.97432484239E-02 -0.17500393202E-01  0.50000500000E+01  0.50000000000E+01 0.  1.
</event>
<event>
 4    1  0.5017912E-001  0.5000050E+01  0.7818608E-02  0.2136455E+00
        -11   -1    0    0    0    0  0.00000000000E+00  0.00000000000E+00  0.50000499739E+01  0.50000500000E+01  0.51100000000E-03 0. -1.
         11   -1    0    0    0    0 -0.00000000000E+00 -0.00000000000E+00 -0.50000499739E+01  0.50000500000E+01  0.51100000000E-03 0.  1.
     100001    1    1    2    0    0 -0.20523958112E-01  0.79771901462E-02 -0.38902545930E-02  0.50000500000E+01  0.50000000000E+01 0.  1.
     100001    1    1    2    0    0  0.20523958112E-01 -0.79771901462E-02  0.38902545930E-02  0.50000500000E+01  0.50000000000E+01 0. -1.
</event>
<event>
 4    1  0.5017912E-001  0.5000050E+01  0.7818608E-02  0.2136455E+00
        -11   -1    0    0    0    0  0.00000000000E+00  0.00000000000E+00  0.50000499739E+01  0.50000500000E+01  0.51100000000E-03 0. -1.
         11   -1    0    0    0    0 -0.00000000000E+00 -0.00000000000E+00 -0.50000499739E+01  0.50000500000E+01  0.51100000000E-03 0.  1.
     100001    1    1    2    0    0 -0.92568569598E-02  0.96030901075E-02 -0.17946970764E-01  0.50000500000E+01  0.50000000000E+01 0.  1.
     100001    1    1    2    0    0  0.92568569598E-02 -0.96030901075E-02  0.17946970764E-01  0.50000500000E+01  0.50000000000E+01 0. -1.
</event>
<event>
 4    1  0.5017912E-001  0.5000050E+01  0.7818608E-02  0.2136455E+00
        -11   -1    0    0    0    0  0.00000000000E+00  0.00000000000E+00  0.50000499739E+01  0.50000500000E+01  0.51100000000E-03 0.  1.
         11   -1    0    0    0    0 -0.00000000000E+00 -0.00000000000E+00 -0.50000499739E+01  0.50000500000E+01  0.51100000000E-03 0. -1.
     100001    1    1    2    0    0 -0.11226880644E-01 -0.42176630017E-02  0.18872492411E-01  0.50000500000E+01  0.50000000000E+01 0.  1.
     100001    1    1    2    0    0  0.11226880644E-01  0.42176630017E-02 -0.18872492411E-01  0.50000500000E+01  0.50000000000E+01 0.  0.
</event>
<event>
 4    1  0.5017912E-001  0.5000050E+01  0.7818608E-02  0.2136455E+00
        -11   -1    0    0    0    0  0.00000000000E+00  0.00000000000E+00  0.50000499739E+01  0.50000500000E+01  0.51100000000E-03 0.  1.
         11   -1    0    0    0    0 -0.00000000000E+00 -0.00000000000E+00 -0.50000499739E+01  0.50000500000E+01  0.51100000000E-03 0. -1.
     100001    1    1    2    0    0 -0.12415129093E-01  0.41179697276E-02  0.18135859366E-01  0.50000500000E+01  0.50000000000E+01 0.  1.
     100001    1    1    2    0    0  0.12415129093E-01 -0.41179697276E-02 -0.18135859366E-01  0.50000500000E+01  0.50000000000E+01 0. -1.
</event>
<event>
 4    1  0.5017912E-001  0.5000050E+01  0.7818608E-02  0.2136455E+00
        -11   -1    0    0    0    0  0.00000000000E+00  0.00000000000E+00  0.50000499739E+01  0.50000500000E+01  0.51100000000E-03 0. -1.
         11   -1    0    0    0    0 -0.00000000000E+00 -0.00000000000E+00 -0.50000499739E+01  0.50000500000E+01  0.51100000000E-03 0.  1.
     100001    1    1    2    0    0  0.10165338217E-01 -0.45328321210E-02 -0.19393860675E-01  0.50000500000E+01  0.50000000000E+01 0.  1.
     100001    1    1    2    0    0 -0.10165338217E-01  0.45328321210E-02  0.19393860675E-01  0.50000500000E+01  0.50000000000E+01 0.  1.
</event>
<event>
 4    1  0.5017912E-001  0.5000050E+01  0.7818608E-02  0.2136455E+00
        -11   -1    0    0    0    0  0.00000000000E+00  0.00000000000E+00  0.50000499739E+01  0.50000500000E+01  0.51100000000E-03 0. -1.
         11   -1    0    0    0    0 -0.00000000000E+00 -0.00000000000E+00 -0.50000499739E+01  0.50000500000E+01  0.51100000000E-03 0.  1.
     100001    1    1    2    0    0 -0.89065015770E-02 -0.20351994023E-01  0.25442226638E-02  0.50000500000E+01  0.50000000000E+01 0.  0.
     100001    1    1    2    0    0  0.89065015770E-02  0.20351994023E-01 -0.25442226638E-02  0.50000500000E+01  0.50000000000E+01 0. -1.
</event>
<event>
 4    1  0.5017912E-001  0.5000050E+01  0.7818608E-02  0.2136455E+00
        -11   -1    0    0    0    0  0.00000000000E+00  0.00000000000E+00  0.50000499739E+01  0.50000500000E+01  0.51100000000E-03 0.  1.
         11   -1    0    0    0    0 -0.00000000000E+00 -0.00000000000E+00 -0.50000499739E+01  0.50000500000E+01  0.51100000000E-03 0. -1.
     100001    1    1    2    0    0  0.10567958440E-01  0.18865736848E-01  0.56925150508E-02  0.50000500000E+01  0.50000000000E+01 0.  1.
     100001    1    1    2    0    0 -0.10567958440E-01 -0.18865736848E-01 -0.56925150508E-02  0.50000500000E+01  0.50000000000E+01 0. -1.
</event>
<event>
 4    1  0.5017912E-001  0.5000050E+01  0.7818608E-02  0.2136455E+00
        -11   -1    0    0    0    0  0.00000000000E+00  0.00000000000E+00  0.50000499739E+01  0.50000500000E+01  0.51100000000E-03 0. -1.
         11   -1    0    0    0    0 -0.00000000000E+00 -0.00000000000E+00 -0.50000499739E+01  0.50000500000E+01  0.51100000000E-03 0.  1.
     100001    1    1    2    0    0 -0.13188528422E-02  0.31122424265E-02 -0.22103779637E-01  0.50000500000E+01  0.50000000000E+01 0.  0.
     100001    1    1    2    0    0  0.13188528422E-02 -0.31122424265E-02  0.22103779637E-01  0.50000500000E+01  0.50000000000E+01 0. -1.
</event>
<event>
 4    1  0.5017912E-001  0.5000050E+01  0.7818608E-02  0.2136455E+00
        -11   -1    0    0    0    0  0.00000000000E+00  0.00000000000E+00  0.50000499739E+01  0.50000500000E+01  0.51100000000E-03 0. -1.
         11   -1    0    0    0    0 -0.00000000000E+00 -0.00000000000E+00 -0.50000499739E+01  0.50000500000E+01  0.51100000000E-03 0.  1.
     100001    1    1    2    0    0  0.15717127144E-02 -0.20300794995E-01 -0.92417499272E-02  0.50000500000E+01  0.50000000000E+01 0. -1.
     100001    1    1    2    0    0 -0.15717127144E-02  0.20300794995E-01  0.92417499272E-02  0.50000500000E+01  0.50000000000E+01 0.  1.
</event>
<event>
 4    1  0.5017912E-001  0.5000050E+01  0.7818608E-02  0.2136455E+00
        -11   -1    0    0    0    0  0.00000000000E+00  0.00000000000E+00  0.50000499739E+01  0.50000500000E+01  0.51100000000E-03 0.  1.
         11   -1    0    0    0    0 -0.00000000000E+00 -0.00000000000E+00 -0.50000499739E+01  0.50000500000E+01  0.51100000000E-03 0. -1.
     100001    1    1    2    0    0 -0.16755515989E-01  0.11471997067E-01  0.93620760111E-02  0.50000500000E+01  0.50000000000E+01 0. -1.
     100001    1    1    2    0    0  0.16755515989E-01 -0.11471997067E-01 -0.93620760111E-02  0.50000500000E+01  0.50000000000E+01 0.  1.
</event>
<event>
 4    1  0.5017912E-001  0.5000050E+01  0.7818608E-02  0.2136455E+00
        -11   -1    0    0    0    0  0.00000000000E+00  0.00000000000E+00  0.50000499739E+01  0.50000500000E+01  0.51100000000E-03 0.  1.
         11   -1    0    0    0    0 -0.00000000000E+00 -0.00000000000E+00 -0.50000499739E+01  0.50000500000E+01  0.51100000000E-03 0. -1.
     100001    1    1    2    0    0  0.14425539860E-01  0.60792951499E-02  0.15967105881E-01  0.50000500000E+01  0.50000000000E+01 0.  1.
     100001    1    1    2    0    0 -0.14425539860E-01 -0.60792951499E-02 -0.15967105881E-01  0.50000500000E+01  0.50000000000E+01 0.  0.
</event>
<event>
 4    1  0.5017912E-001  0.5000050E+01  0.7818608E-02  0.2136455E+00
        -11   -1    0    0    0    0  0.00000000000E+00  0.00000000000E+00  0.50000499739E+01  0.50000500000E+01  0.51100000000E-03 0.  1.
         11   -1    0    0    0    0 -0.00000000000E+00 -0.00000000000E+00 -0.50000499739E+01  0.50000500000E+01  0.51100000000E-03 0. -1.
     100001    1    1    2    0    0  0.76451252583E-02  0.17447595531E-01 -0.11710506820E-01  0.50000500000E+01  0.50000000000E+01 0. -1.
     100001    1    1    2    0    0 -0.76451252583E-02 -0.17447595531E-01  0.11710506820E-01  0.50000500000E+01  0.50000000000E+01 0.  1.
</event>
<event>
 4    1  0.5017912E-001  0.5000050E+01  0.7818608E-02  0.2136455E+00
        -11   -1    0    0    0    0  0.00000000000E+00  0.00000000000E+00  0.50000499739E+01  0.50000500000E+01  0.51100000000E-03 0. -1.
         11   -1    0    0    0    0 -0.00000000000E+00 -0.00000000000E+00 -0.50000499739E+01  0.50000500000E+01  0.51100000000E-03 0.  1.
     100001    1    1    2    0    0 -0.20966256172E-01  0.77437663410E-02 -0.67281867750E-03  0.50000500000E+01  0.50000000000E+01 0. -1.
     100001    1    1    2    0    0  0.20966256172E-01 -0.77437663410E-02  0.67281867750E-03  0.50000500000E+01  0.50000000000E+01 0.  1.
</event>
<event>
 4    1  0.5017912E-001  0.5000050E+01  0.7818608E-02  0.2136455E+00
        -11   -1    0    0    0    0  0.00000000000E+00  0.00000000000E+00  0.50000499739E+01  0.50000500000E+01  0.51100000000E-03 0.  1.
         11   -1    0    0    0    0 -0.00000000000E+00 -0.00000000000E+00 -0.50000499739E+01  0.50000500000E+01  0.51100000000E-03 0. -1.
     100001    1    1    2    0    0  0.16357806479E-01 -0.15220304510E-01 -0.87578411125E-03  0.50000500000E+01  0.50000000000E+01 0.  1.
     100001    1    1    2    0    0 -0.16357806479E-01  0.15220304510E-01  0.87578411125E-03  0.50000500000E+01  0.50000000000E+01 0. -1.
</event>
<event>
 4    1  0.5017912E-001  0.5000050E+01  0.7818608E-02  0.2136455E+00
        -11   -1    0    0    0    0  0.00000000000E+00  0.00000000000E+00  0.50000499739E+01  0.50000500000E+01  0.51100000000E-03 0.  1.
         11   -1    0    0    0    0 -0.00000000000E+00 -0.00000000000E+00 -0.50000499739E+01  0.50000500000E+01  0.51100000000E-03 0. -1.
     100001    1    1    2    0    0 -0.87836273391E-02  0.88394522981E-02  0.18566487924E-01  0.50000500000E+01  0.50000000000E+01 0.  0.
     100001    1    1    2    0    0  0.87836273391E-02 -0.88394522981E-02 -0.18566487924E-01  0.50000500000E+01  0.50000000000E+01 0.  0.
</event>
<event>
 4    1  0.5017912E-001  0.5000050E+01  0.7818608E-02  0.2136455E+00
        -11   -1    0    0    0    0  0.00000000000E+00  0.00000000000E+00  0.50000499739E+01  0.50000500000E+01  0.51100000000E-03 0. -1.
         11   -1    0    0    0    0 -0.00000000000E+00 -0.00000000000E+00 -0.50000499739E+01  0.50000500000E+01  0.51100000000E-03 0.  1.
     100001    1    1    2    0    0 -0.18271659293E-01 -0.66968258496E-02 -0.11013695575E-01  0.50000500000E+01  0.50000000000E+01 0.  0.
     100001    1    1    2    0    0  0.18271659293E-01  0.66968258496E-02  0.11013695575E-01  0.50000500000E+01  0.50000000000E+01 0.  0.
</event>
<event>
 4    1  0.5017912E-001  0.5000050E+01  0.7818608E-02  0.2136455E+00
        -11   -1    0    0    0    0  0.00000000000E+00  0.00000000000E+00  0.50000499739E+01  0.50000500000E+01  0.51100000000E-03 0. -1.
         11   -1    0    0    0    0 -0.00000000000E+00 -0.00000000000E+00 -0.50000499739E+01  0.50000500000E+01  0.51100000000E-03 0.  1.
     100001    1    1    2    0    0  0.12767857506E-01  0.18132974980E-01 -0.28599883011E-02  0.50000500000E+01  0.50000000000E+01 0.  0.
     100001    1    1    2    0    0 -0.12767857506E-01 -0.18132974980E-01  0.28599883011E-02  0.50000500000E+01  0.50000000000E+01 0.  1.
</event>
<event>
 4    1  0.5017912E-001  0.5000050E+01  0.7818608E-02  0.2136455E+00
        -11   -1    0    0    0    0  0.00000000000E+00  0.00000000000E+00  0.50000499739E+01  0.50000500000E+01  0.51100000000E-03 0.  1.
         11   -1    0    0    0    0 -0.00000000000E+00 -0.00000000000E+00 -0.50000499739E+01  0.50000500000E+01  0.51100000000E-03 0. -1.
     100001    1    1    2    0    0 -0.11742407094E-01 -0.81435620123E-02 -0.17198859654E-01  0.50000500000E+01  0.50000000000E+01 0. -1.
     100001    1    1    2    0    0  0.11742407094E-01  0.81435620123E-02  0.17198859654E-01  0.50000500000E+01  0.50000000000E+01 0. -1.
</event>
<event>
 4    1  0.5017912E-001  0.5000050E+01  0.7818608E-02  0.2136455E+00
        -11   -1    0    0    0    0  0.00000000000E+00  0.00000000000E+00  0.50000499739E+01  0.50000500000E+01  0.51100000000E-03 0.  1.
         11   -1    0    0    0    0 -0.00000000000E+00 -0.00000000000E+00 -0.50000499739E+01  0.50000500000E+01  0.51100000000E-03 0. -1.
     100001    1    1    2    0    0  0.21883663777E-01  0.42996670047E-02  0.16188339474E-02  0.50000500000E+01  0.50000000000E+01 0.  0.
     100001    1    1    2    0    0 -0.21883663777E-01 -0.42996670047E-02 -0.16188339474E-02  0.50000500000E+01  0.50000000000E+01 0.  1.
</event>
<event>
 4    1  0.5017912E-001  0.5000050E+01  0.7818608E-02  0.2136455E+00
        -11   -1    0    0    0    0  0.00000000000E+00  0.00000000000E+00  0.50000499739E+01  0.50000500000E+01  0.51100000000E-03 0.  1.
         11   -1    0    0    0    0 -0.00000000000E+00 -0.00000000000E+00 -0.50000499739E+01  0.50000500000E+01  0.51100000000E-03 0. -1.
     100001    1    1    2    0    0  0.20814836057E-02 -0.46329804180E-02  0.21776258137E-01  0.50000500000E+01  0.50000000000E+01 0.  1.
     100001    1    1    2    0    0 -0.20814836057E-02  0.46329804180E-02 -0.21776258137E-01  0.50000500000E+01  0.50000000000E+01 0.  0.
</event>
<event>
 4    1  0.5017912E-001  0.5000050E+01  0.7818608E-02  0.2136455E+00
        -11   -1    0    0    0    0  0.00000000000E+00  0.00000000000E+00  0.50000499739E+01  0.50000500000E+01  0.51100000000E-03 0.  1.
         11   -1    0    0    0    0 -0.00000000000E+00 -0.00000000000E+00 -0.50000499739E+01  0.50000500000E+01  0.51100000000E-03 0. -1.
     100001    1    1    2    0    0  0.88461625420E-02 -0.15254474035E-01  0.13749506544E-01  0.50000500000E+01  0.50000000000E+01 0.  0.
     100001    1    1    2    0    0 -0.88461625420E-02  0.15254474035E-01 -0.13749506544E-01  0.50000500000E+01  0.50000000000E+01 0.  1.
</event>
<event>
 4    1  0.5017912E-001  0.5000050E+01  0.7818608E-02  0.2136455E+00
        -11   -1    0    0    0    0  0.00000000000E+00  0.00000000000E+00  0.50000499739E+01  0.50000500000E+01  0.51100000000E-03 0.  1.
         11   -1    0    0    0    0 -0.00000000000E+00 -0.00000000000E+00 -0.50000499739E+01  0.50000500000E+01  0.51100000000E-03 0. -1.
     100001    1    1    2    0    0  0.20940303634E-01 -0.69712129791E-02 -0.35928224709E-02  0.50000500000E+01  0.50000000000E+01 0.  1.
     100001    1    1    2    0    0 -0.20940303634E-01  0.69712129791E-02  0.35928224709E-02  0.50000500000E+01  0.50000000000E+01 0. -1.
</event>
<event>
 4    1  0.5017912E-001  0.5000050E+01  0.7818608E-02  0.2136455E+00
        -11   -1    0    0    0    0  0.00000000000E+00  0.00000000000E+00  0.50000499739E+01  0.50000500000E+01  0.51100000000E-03 0.  1.
         11   -1    0    0    0    0 -0.00000000000E+00 -0.00000000000E+00 -0.50000499739E+01  0.50000500000E+01  0.51100000000E-03 0. -1.
     100001    1    1    2    0    0  0.16411385564E-01 -0.14176372001E-01  0.54497156603E-02  0.50000500000E+01  0.50000000000E+01 0.  0.
     100001    1    1    2    0    0 -0.16411385564E-01  0.14176372001E-01 -0.54497156603E-02  0.50000500000E+01  0.50000000000E+01 0.  0.
</event>
<event>
 4    1  0.5017912E-001  0.5000050E+01  0.7818608E-02  0.2136455E+00
        -11   -1    0    0    0    0  0.00000000000E+00  0.00000000000E+00  0.50000499739E+01  0.50000500000E+01  0.51100000000E-03 0.  1.
         11   -1    0    0    0    0 -0.00000000000E+00 -0.00000000000E+00 -0.50000499739E+01  0.50000500000E+01  0.51100000000E-03 0. -1.
     100001    1    1    2    0    0 -0.19170261993E-01  0.11410011982E-01  0.15215721104E-02  0.50000500000E+01  0.50000000000E+01 0.  0.
     100001    1    1    2    0    0  0.19170261993E-01 -0.11410011982E-01 -0.15215721104E-02  0.50000500000E+01  0.50000000000E+01 0. -1.
</event>
<event>
 4    1  0.5017912E-001  0.5000050E+01  0.7818608E-02  0.2136455E+00
        -11   -1    0    0    0    0  0.00000000000E+00  0.00000000000E+00  0.50000499739E+01  0.50000500000E+01  0.51100000000E-03 0. -1.
         11   -1    0    0    0    0 -0.00000000000E+00 -0.00000000000E+00 -0.50000499739E+01  0.50000500000E+01  0.51100000000E-03 0.  1.
     100001    1    1    2    0    0  0.85535445516E-02 -0.18330009188E-01  0.95315339152E-02  0.50000500000E+01  0.50000000000E+01 0. -1.
     100001    1    1    2    0    0 -0.85535445516E-02  0.18330009188E-01 -0.95315339152E-02  0.50000500000E+01  0.50000000000E+01 0. -1.
</event>
<event>
 4    1  0.5017912E-001  0.5000050E+01  0.7818608E-02  0.2136455E+00
        -11   -1    0    0    0    0  0.00000000000E+00  0.00000000000E+00  0.50000499739E+01  0.50000500000E+01  0.51100000000E-03 0.  1.
         11   -1    0    0    0    0 -0.00000000000E+00 -0.00000000000E+00 -0.50000499739E+01  0.50000500000E+01  0.51100000000E-03 0. -1.
     100001    1    1    2    0    0 -0.79246609864E-02  0.78182637353E-02  0.19392704825E-01  0.50000500000E+01  0.50000000000E+01 0.  1.
     100001    1    1    2    0    0  0.79246609864E-02 -0.78182637353E-02 -0.19392704825E-01  0.50000500000E+01  0.50000000000E+01 0. -1.
</event>
<event>
 4    1  0.5017912E-001  0.5000050E+01  0.7818608E-02  0.2136455E+00
        -11   -1    0    0    0    0  0.00000000000E+00  0.00000000000E+00  0.50000499739E+01  0.50000500000E+01  0.51100000000E-03 0.  1.
         11   -1    0    0    0    0 -0.00000000000E+00 -0.00000000000E+00 -0.50000499739E+01  0.50000500000E+01  0.51100000000E-03 0. -1.
     100001    1    1    2    0    0  0.20639485835E-01 -0.17386256523E-02  0.84256338226E-02  0.50000500000E+01  0.50000000000E+01 0. -1.
     100001    1    1    2    0    0 -0.20639485835E-01  0.17386256523E-02 -0.84256338226E-02  0.50000500000E+01  0.50000000000E+01 0.  0.
</event>
<event>
 4    1  0.5017912E-001  0.5000050E+01  0.7818608E-02  0.2136455E+00
        -11   -1    0    0    0    0  0.00000000000E+00  0.00000000000E+00  0.50000499739E+01  0.50000500000E+01  0.51100000000E-03 0. -1.
         11   -1    0    0    0    0 -0.00000000000E+00 -0.00000000000E+00 -0.50000499739E+01  0.50000500000E+01  0.51100000000E-03 0.  1.
     100001    1    1    2    0    0  0.16730404631E-01 -0.11179094940E-01 -0.97531480661E-02  0.50000500000E+01  0.50000000000E+01 0.  0.
     100001    1    1    2    0    0 -0.16730404631E-01  0.11179094940E-01  0.97531480661E-02  0.50000500000E+01  0.50000000000E+01 0.  1.
</event>
<event>
 4    1  0.5017912E-001  0.5000050E+01  0.7818608E-02  0.2136455E+00
        -11   -1    0    0    0    0  0.00000000000E+00  0.00000000000E+00  0.50000499739E+01  0.50000500000E+01  0.51100000000E-03 0. -1.
         11   -1    0    0    0    0 -0.00000000000E+00 -0.00000000000E+00 -0.50000499739E+01  0.50000500000E+01  0.51100000000E-03 0.  1.
     100001    1    1    2    0    0 -0.22087447759E-01  0.15023461519E-02  0.31448541325E-02  0.50000500000E+01  0.50000000000E+01 0. -1.
     100001    1    1    2    0    0  0.22087447759E-01 -0.15023461519E-02 -0.31448541325E-02  0.50000500000E+01  0.50000000000E+01 0.  1.
</event>
<event>
 4    1  0.5017912E-001  0.5000050E+01  0.7818608E-02  0.2136455E+00
        -11   -1    0    0    0    0  0.00000000000E+00  0.00000000000E+00  0.50000499739E+01  0.50000500000E+01  0.51100000000E-03 0.  1.
         11   -1    0    0    0    0 -0.00000000000E+00 -0.00000000000E+00 -0.50000499739E+01  0.50000500000E+01  0.51100000000E-03 0. -1.
     100001    1    1    2    0    0 -0.15787995051E-01  0.11174830610E-01 -0.11218951516E-01  0.50000500000E+01  0.50000000000E+01 0. -1.
     100001    1    1    2    0    0  0.15787995051E-01 -0.11174830610E-01  0.11218951516E-01  0.50000500000E+01  0.50000000000E+01 0.  1.
</event>
<event>
 4    1  0.5017912E-001  0.5000050E+01  0.7818608E-02  0.2136455E+00
        -11   -1    0    0    0    0  0.00000000000E+00  0.00000000000E+00  0.50000499739E+01  0.50000500000E+01  0.51100000000E-03 0. -1.
         11   -1    0    0    0    0 -0.00000000000E+00 -0.00000000000E+00 -0.50000499739E+01  0.50000500000E+01  0.51100000000E-03 0.  1.
     100001    1    1    2    0    0 -0.41361558984E-02  0.17769690204E-01  0.12927986094E-01  0.50000500000E+01  0.50000000000E+01 0. -1.
     100001    1    1    2    0    0  0.41361558984E-02 -0.17769690204E-01 -0.12927986094E-01  0.50000500000E+01  0.50000000000E+01 0.  1.
</event>
<event>
 4    1  0.5017912E-001  0.5000050E+01  0.7818608E-02  0.2136455E+00
        -11   -1    0    0    0    0  0.00000000000E+00  0.00000000000E+00  0.50000499739E+01  0.50000500000E+01  0.51100000000E-03 0. -1.
         11   -1    0    0    0    0 -0.00000000000E+00 -0.00000000000E+00 -0.50000499739E+01  0.50000500000E+01  0.51100000000E-03 0.  1.
     100001    1    1    2    0    0 -0.21784285872E-01 -0.49117690912E-02  0.11497449444E-02  0.50000500000E+01  0.50000000000E+01 0.  0.
     100001    1    1    2    0    0  0.21784285872E-01  0.49117690912E-02 -0.11497449444E-02  0.50000500000E+01  0.50000000000E+01 0. -1.
</event>
<event>
 4    1  0.5017912E-001  0.5000050E+01  0.7818608E-02  0.2136455E+00
        -11   -1    0    0    0    0  0.00000000000E+00  0.00000000000E+00  0.50000499739E+01  0.50000500000E+01  0.51100000000E-03 0. -1.
         11   -1    0    0    0    0 -0.00000000000E+00 -0.00000000000E+00 -0.50000499739E+01  0.50000500000E+01  0.51100000000E-03 0.  1.
     100001    1    1    2    0    0 -0.12017960525E-01  0.65453514408E-02  0.17684159559E-01  0.50000500000E+01  0.50000000000E+01 0. -1.
     100001    1    1    2    0    0  0.12017960525E-01 -0.65453514408E-02 -0.17684159559E-01  0.50000500000E+01  0.50000000000E+01 0.  1.
</event>
<event>
 4    1  0.5017912E-001  0.5000050E+01  0.7818608E-02  0.2136455E+00
        -11   -1    0    0    0    0  0.00000000000E+00  0.00000000000E+00  0.50000499739E+01  0.50000500000E+01  0.51100000000E-03 0. -1.
         11   -1    0    0    0    0 -0.00000000000E+00 -0.00000000000E+00 -0.50000499739E+01  0.50000500000E+01  0.51100000000E-03 0.  1.
     100001    1    1    2    0    0  0.35353080792E-03  0.10684530675E-01 -0.19639712834E-01  0.50000500000E+01  0.50000000000E+01 0.  1.
     100001    1    1    2    0    0 -0.35353080792E-03 -0.10684530675E-01  0.19639712834E-01  0.50000500000E+01  0.50000000000E+01 0.  0.
</event>
<event>
 4    1  0.5017912E-001  0.5000050E+01  0.7818608E-02  0.2136455E+00
        -11   -1    0    0    0    0  0.00000000000E+00  0.00000000000E+00  0.50000499739E+01  0.50000500000E+01  0.51100000000E-03 0.  1.
         11   -1    0    0    0    0 -0.00000000000E+00 -0.00000000000E+00 -0.50000499739E+01  0.50000500000E+01  0.51100000000E-03 0. -1.
     100001    1    1    2    0    0 -0.11637464390E-02  0.15548252116E-01  0.16028101895E-01  0.50000500000E+01  0.50000000000E+01 0.  1.
     100001    1    1    2    0    0  0.11637464390E-02 -0.15548252116E-01 -0.16028101895E-01  0.50000500000E+01  0.50000000000E+01 0. -1.
</event>
<event>
 4    1  0.5017912E-001  0.5000050E+01  0.7818608E-02  0.2136455E+00
        -11   -1    0    0    0    0  0.00000000000E+00  0.00000000000E+00  0.50000499739E+01  0.50000500000E+01  0.51100000000E-03 0. -1.
         11   -1    0    0    0    0 -0.00000000000E+00 -0.00000000000E+00 -0.50000499739E+01  0.50000500000E+01  0.51100000000E-03 0.  1.
     100001    1    1    2    0    0 -0.92473868843E-02 -0.15606372796E-02  0.20299082420E-01  0.50000500000E+01  0.50000000000E+01 0. -1.
     100001    1    1    2    0    0  0.92473868843E-02  0.15606372796E-02 -0.20299082420E-01  0.50000500000E+01  0.50000000000E+01 0.  0.
</event>
<event>
 4    1  0.5017912E-001  0.5000050E+01  0.7818608E-02  0.2136455E+00
        -11   -1    0    0    0    0  0.00000000000E+00  0.00000000000E+00  0.50000499739E+01  0.50000500000E+01  0.51100000000E-03 0. -1.
         11   -1    0    0    0    0 -0.00000000000E+00 -0.00000000000E+00 -0.50000499739E+01  0.50000500000E+01  0.51100000000E-03 0.  1.
     100001    1    1    2    0    0  0.15446768538E-02 -0.19463011374E-01  0.10899892737E-01  0.50000500000E+01  0.50000000000E+01 0. -1.
     100001    1    1    2    0    0 -0.15446768538E-02  0.19463011374E-01 -0.10899892737E-01  0.50000500000E+01  0.50000000000E+01 0.  1.
</event>
<event>
 4    1  0.5017912E-001  0.5000050E+01  0.7818608E-02  0.2136455E+00
        -11   -1    0    0    0    0  0.00000000000E+00  0.00000000000E+00  0.50000499739E+01  0.50000500000E+01  0.51100000000E-03 0.  1.
         11   -1    0    0    0    0 -0.00000000000E+00 -0.00000000000E+00 -0.50000499739E+01  0.50000500000E+01  0.51100000000E-03 0. -1.
     100001    1    1    2    0    0 -0.10373360492E-01 -0.18804518554E-01 -0.62278386339E-02  0.50000500000E+01  0.50000000000E+01 0.  1.
     100001    1    1    2    0    0  0.10373360492E-01  0.18804518554E-01  0.62278386339E-02  0.50000500000E+01  0.50000000000E+01 0. -1.
</event>
<event>
 4    1  0.5017912E-001  0.5000050E+01  0.7818608E-02  0.2136455E+00
        -11   -1    0    0    0    0  0.00000000000E+00  0.00000000000E+00  0.50000499739E+01  0.50000500000E+01  0.51100000000E-03 0.  1.
         11   -1    0    0    0    0 -0.00000000000E+00 -0.00000000000E+00 -0.50000499739E+01  0.50000500000E+01  0.51100000000E-03 0. -1.
     100001    1    1    2    0    0  0.11194848607E-01 -0.15900982236E-01  0.11037963064E-01  0.50000500000E+01  0.50000000000E+01 0. -1.
     100001    1    1    2    0    0 -0.11194848607E-01  0.15900982236E-01 -0.11037963064E-01  0.50000500000E+01  0.50000000000E+01 0.  1.
</event>
<event>
 4    1  0.5017912E-001  0.5000050E+01  0.7818608E-02  0.2136455E+00
        -11   -1    0    0    0    0  0.00000000000E+00  0.00000000000E+00  0.50000499739E+01  0.50000500000E+01  0.51100000000E-03 0. -1.
         11   -1    0    0    0    0 -0.00000000000E+00 -0.00000000000E+00 -0.50000499739E+01  0.50000500000E+01  0.51100000000E-03 0.  1.
     100001    1    1    2    0    0  0.22337606119E-01  0.10123955575E-02 -0.94382756932E-04  0.50000500000E+01  0.50000000000E+01 0.  0.
     100001    1    1    2    0    0 -0.22337606119E-01 -0.10123955575E-02  0.94382756932E-04  0.50000500000E+01  0.50000000000E+01 0. -1.
</event>
<event>
 4    1  0.5017912E-001  0.5000050E+01  0.7818608E-02  0.2136455E+00
        -11   -1    0    0    0    0  0.00000000000E+00  0.00000000000E+00  0.50000499739E+01  0.50000500000E+01  0.51100000000E-03 0. -1.
         11   -1    0    0    0    0 -0.00000000000E+00 -0.00000000000E+00 -0.50000499739E+01  0.50000500000E+01  0.51100000000E-03 0.  1.
     100001    1    1    2    0    0 -0.86833157843E-02 -0.15725598251E-01 -0.13315708266E-01  0.50000500000E+01  0.50000000000E+01 0.  1.
     100001    1    1    2    0    0  0.86833157843E-02  0.15725598251E-01  0.13315708266E-01  0.50000500000E+01  0.50000000000E+01 0. -1.
</event>
<event>
 4    1  0.5017912E-001  0.5000050E+01  0.7818608E-02  0.2136455E+00
        -11   -1    0    0    0    0  0.00000000000E+00  0.00000000000E+00  0.50000499739E+01  0.50000500000E+01  0.51100000000E-03 0. -1.
         11   -1    0    0    0    0 -0.00000000000E+00 -0.00000000000E+00 -0.50000499739E+01  0.50000500000E+01  0.51100000000E-03 0.  1.
     100001    1    1    2    0    0  0.13334023284E-01 -0.16095461525E-01  0.79462218283E-02  0.50000500000E+01  0.50000000000E+01 0. -1.
     100001    1    1    2    0    0 -0.13334023284E-01  0.16095461525E-01 -0.79462218283E-02  0.50000500000E+01  0.50000000000E+01 0.  1.
</event>
<event>
 4    1  0.5017912E-001  0.5000050E+01  0.7818608E-02  0.2136455E+00
        -11   -1    0    0    0    0  0.00000000000E+00  0.00000000000E+00  0.50000499739E+01  0.50000500000E+01  0.51100000000E-03 0. -1.
         11   -1    0    0    0    0 -0.00000000000E+00 -0.00000000000E+00 -0.50000499739E+01  0.50000500000E+01  0.51100000000E-03 0.  1.
     100001    1    1    2    0    0 -0.10590435935E-01  0.11471535496E-01  0.16007780610E-01  0.50000500000E+01  0.50000000000E+01 0. -1.
     100001    1    1    2    0    0  0.10590435935E-01 -0.11471535496E-01 -0.16007780610E-01  0.50000500000E+01  0.50000000000E+01 0.  1.
</event>
<event>
 4    1  0.5017912E-001  0.5000050E+01  0.7818608E-02  0.2136455E+00
        -11   -1    0    0    0    0  0.00000000000E+00  0.00000000000E+00  0.50000499739E+01  0.50000500000E+01  0.51100000000E-03 0. -1.
         11   -1    0    0    0    0 -0.00000000000E+00 -0.00000000000E+00 -0.50000499739E+01  0.50000500000E+01  0.51100000000E-03 0.  1.
     100001    1    1    2    0    0  0.37956903185E-02  0.17397690338E-01 -0.13524629603E-01  0.50000500000E+01  0.50000000000E+01 0.  0.
     100001    1    1    2    0    0 -0.37956903185E-02 -0.17397690338E-01  0.13524629603E-01  0.50000500000E+01  0.50000000000E+01 0.  0.
</event>
<event>
 4    1  0.5017912E-001  0.5000050E+01  0.7818608E-02  0.2136455E+00
        -11   -1    0    0    0    0  0.00000000000E+00  0.00000000000E+00  0.50000499739E+01  0.50000500000E+01  0.51100000000E-03 0.  1.
         11   -1    0    0    0    0 -0.00000000000E+00 -0.00000000000E+00 -0.50000499739E+01  0.50000500000E+01  0.51100000000E-03 0. -1.
     100001    1    1    2    0    0 -0.16734295953E-01  0.14802396427E-01 -0.92460747913E-03  0.50000500000E+01  0.50000000000E+01 0.  0.
     100001    1    1    2    0    0  0.16734295953E-01 -0.14802396427E-01  0.92460747913E-03  0.50000500000E+01  0.50000000000E+01 0.  1.
</event>
<event>
 4    1  0.5017912E-001  0.5000050E+01  0.7818608E-02  0.2136455E+00
        -11   -1    0    0    0    0  0.00000000000E+00  0.00000000000E+00  0.50000499739E+01  0.50000500000E+01  0.51100000000E-03 0.  1.
         11   -1    0    0    0    0 -0.00000000000E+00 -0.00000000000E+00 -0.50000499739E+01  0.50000500000E+01  0.51100000000E-03 0. -1.
     100001    1    1    2    0    0 -0.89641041328E-02 -0.67402583362E-04  0.20485184744E-01  0.50000500000E+01  0.50000000000E+01 0.  1.
     100001    1    1    2    0    0  0.89641041328E-02  0.67402583362E-04 -0.20485184744E-01  0.50000500000E+01  0.50000000000E+01 0.  0.
</event>
<event>
 4    1  0.5017912E-001  0.5000050E+01  0.7818608E-02  0.2136455E+00
        -11   -1    0    0    0    0  0.00000000000E+00  0.00000000000E+00  0.50000499739E+01  0.50000500000E+01  0.51100000000E-03 0.  1.
         11   -1    0    0    0    0 -0.00000000000E+00 -0.00000000000E+00 -0.50000499739E+01  0.50000500000E+01  0.51100000000E-03 0. -1.
     100001    1    1    2    0    0 -0.97287356139E-02  0.20069723052E-01  0.16001312300E-02  0.50000500000E+01  0.50000000000E+01 0. -1.
     100001    1    1    2    0    0  0.97287356139E-02 -0.20069723052E-01 -0.16001312300E-02  0.50000500000E+01  0.50000000000E+01 0.  1.
</event>
<event>
 4    1  0.5017912E-001  0.5000050E+01  0.7818608E-02  0.2136455E+00
        -11   -1    0    0    0    0  0.00000000000E+00  0.00000000000E+00  0.50000499739E+01  0.50000500000E+01  0.51100000000E-03 0.  1.
         11   -1    0    0    0    0 -0.00000000000E+00 -0.00000000000E+00 -0.50000499739E+01  0.50000500000E+01  0.51100000000E-03 0. -1.
     100001    1    1    2    0    0 -0.15195460946E-02 -0.14457789804E-01 -0.16990167558E-01  0.50000500000E+01  0.50000000000E+01 0.  0.
     100001    1    1    2    0    0  0.15195460946E-02  0.14457789804E-01  0.16990167558E-01  0.50000500000E+01  0.50000000000E+01 0.  1.
</event>
<event>
 4    1  0.5017912E-001  0.5000050E+01  0.7818608E-02  0.2136455E+00
        -11   -1    0    0    0    0  0.00000000000E+00  0.00000000000E+00  0.50000499739E+01  0.50000500000E+01  0.51100000000E-03 0. -1.
         11   -1    0    0    0    0 -0.00000000000E+00 -0.00000000000E+00 -0.50000499739E+01  0.50000500000E+01  0.51100000000E-03 0.  1.
     100001    1    1    2    0    0 -0.15394988704E-01  0.85784777365E-02 -0.13762504951E-01  0.50000500000E+01  0.50000000000E+01 0.  1.
     100001    1    1    2    0    0  0.15394988704E-01 -0.85784777365E-02  0.13762504951E-01  0.50000500000E+01  0.50000000000E+01 0. -1.
</event>
<event>
 4    1  0.5017912E-001  0.5000050E+01  0.7818608E-02  0.2136455E+00
        -11   -1    0    0    0    0  0.00000000000E+00  0.00000000000E+00  0.50000499739E+01  0.50000500000E+01  0.51100000000E-03 0. -1.
         11   -1    0    0    0    0 -0.00000000000E+00 -0.00000000000E+00 -0.50000499739E+01  0.50000500000E+01  0.51100000000E-03 0.  1.
     100001    1    1    2    0    0 -0.20799458123E-01  0.37712897339E-02  0.72912561010E-02  0.50000500000E+01  0.50000000000E+01 0.  0.
     100001    1    1    2    0    0  0.20799458123E-01 -0.37712897339E-02 -0.72912561010E-02  0.50000500000E+01  0.50000000000E+01 0. -1.
</event>
<event>
 4    1  0.5017912E-001  0.5000050E+01  0.7818608E-02  0.2136455E+00
        -11   -1    0    0    0    0  0.00000000000E+00  0.00000000000E+00  0.50000499739E+01  0.50000500000E+01  0.51100000000E-03 0. -1.
         11   -1    0    0    0    0 -0.00000000000E+00 -0.00000000000E+00 -0.50000499739E+01  0.50000500000E+01  0.51100000000E-03 0.  1.
     100001    1    1    2    0    0 -0.17052596385E-01  0.14146226248E-01  0.30159143682E-02  0.50000500000E+01  0.50000000000E+01 0. -1.
     100001    1    1    2    0    0  0.17052596385E-01 -0.14146226248E-01 -0.30159143682E-02  0.50000500000E+01  0.50000000000E+01 0.  1.
</event>
<event>
 4    1  0.5017912E-001  0.5000050E+01  0.7818608E-02  0.2136455E+00
        -11   -1    0    0    0    0  0.00000000000E+00  0.00000000000E+00  0.50000499739E+01  0.50000500000E+01  0.51100000000E-03 0. -1.
         11   -1    0    0    0    0 -0.00000000000E+00 -0.00000000000E+00 -0.50000499739E+01  0.50000500000E+01  0.51100000000E-03 0.  1.
     100001    1    1    2    0    0  0.18189241064E-01  0.58135100230E-02 -0.11634307489E-01  0.50000500000E+01  0.50000000000E+01 0.  0.
     100001    1    1    2    0    0 -0.18189241064E-01 -0.58135100230E-02  0.11634307489E-01  0.50000500000E+01  0.50000000000E+01 0.  0.
</event>
<event>
 4    1  0.5017912E-001  0.5000050E+01  0.7818608E-02  0.2136455E+00
        -11   -1    0    0    0    0  0.00000000000E+00  0.00000000000E+00  0.50000499739E+01  0.50000500000E+01  0.51100000000E-03 0. -1.
         11   -1    0    0    0    0 -0.00000000000E+00 -0.00000000000E+00 -0.50000499739E+01  0.50000500000E+01  0.51100000000E-03 0.  1.
     100001    1    1    2    0    0  0.55052491313E-02  0.14240125338E-01  0.16337489475E-01  0.50000500000E+01  0.50000000000E+01 0.  0.
     100001    1    1    2    0    0 -0.55052491313E-02 -0.14240125338E-01 -0.16337489475E-01  0.50000500000E+01  0.50000000000E+01 0.  1.
</event>
<event>
 4    1  0.5017912E-001  0.5000050E+01  0.7818608E-02  0.2136455E+00
        -11   -1    0    0    0    0  0.00000000000E+00  0.00000000000E+00  0.50000499739E+01  0.50000500000E+01  0.51100000000E-03 0. -1.
         11   -1    0    0    0    0 -0.00000000000E+00 -0.00000000000E+00 -0.50000499739E+01  0.50000500000E+01  0.51100000000E-03 0.  1.
     100001    1    1    2    0    0  0.71935606031E-02 -0.20768455891E-01 -0.41141737628E-02  0.50000500000E+01  0.50000000000E+01 0.  1.
     100001    1    1    2    0    0 -0.71935606031E-02  0.20768455891E-01  0.41141737628E-02  0.50000500000E+01  0.50000000000E+01 0. -1.
</event>
<event>
 4    1  0.5017912E-001  0.5000050E+01  0.7818608E-02  0.2136455E+00
        -11   -1    0    0    0    0  0.00000000000E+00  0.00000000000E+00  0.50000499739E+01  0.50000500000E+01  0.51100000000E-03 0. -1.
         11   -1    0    0    0    0 -0.00000000000E+00 -0.00000000000E+00 -0.50000499739E+01  0.50000500000E+01  0.51100000000E-03 0.  1.
     100001    1    1    2    0    0  0.17823858731E-01 -0.32107052223E-02 -0.13115026950E-01  0.50000500000E+01  0.50000000000E+01 0.  1.
     100001    1    1    2    0    0 -0.17823858731E-01  0.32107052223E-02  0.13115026950E-01  0.50000500000E+01  0.50000000000E+01 0. -1.
</event>
<event>
 4    1  0.5017912E-001  0.5000050E+01  0.7818608E-02  0.2136455E+00
        -11   -1    0    0    0    0  0.00000000000E+00  0.00000000000E+00  0.50000499739E+01  0.50000500000E+01  0.51100000000E-03 0.  1.
         11   -1    0    0    0    0 -0.00000000000E+00 -0.00000000000E+00 -0.50000499739E+01  0.50000500000E+01  0.51100000000E-03 0. -1.
     100001    1    1    2    0    0  0.16607482012E-01  0.97843939329E-02 -0.11334005320E-01  0.50000500000E+01  0.50000000000E+01 0.  0.
     100001    1    1    2    0    0 -0.16607482012E-01 -0.97843939329E-02  0.11334005320E-01  0.50000500000E+01  0.50000000000E+01 0.  0.
</event>
<event>
 4    1  0.5017912E-001  0.5000050E+01  0.7818608E-02  0.2136455E+00
        -11   -1    0    0    0    0  0.00000000000E+00  0.00000000000E+00  0.50000499739E+01  0.50000500000E+01  0.51100000000E-03 0.  1.
         11   -1    0    0    0    0 -0.00000000000E+00 -0.00000000000E+00 -0.50000499739E+01  0.50000500000E+01  0.51100000000E-03 0. -1.
     100001    1    1    2    0    0 -0.56876953584E-02  0.15045725295E-01  0.15533150738E-01  0.50000500000E+01  0.50000000000E+01 0.  0.
     100001    1    1    2    0    0  0.56876953584E-02 -0.15045725295E-01 -0.15533150738E-01  0.50000500000E+01  0.50000000000E+01 0.  1.
</event>
<event>
 4    1  0.5017912E-001  0.5000050E+01  0.7818608E-02  0.2136455E+00
        -11   -1    0    0    0    0  0.00000000000E+00  0.00000000000E+00  0.50000499739E+01  0.50000500000E+01  0.51100000000E-03 0. -1.
         11   -1    0    0    0    0 -0.00000000000E+00 -0.00000000000E+00 -0.50000499739E+01  0.50000500000E+01  0.51100000000E-03 0.  1.
     100001    1    1    2    0    0 -0.61904080735E-02 -0.16341624009E-01  0.13951081414E-01  0.50000500000E+01  0.50000000000E+01 0.  0.
     100001    1    1    2    0    0  0.61904080735E-02  0.16341624009E-01 -0.13951081414E-01  0.50000500000E+01  0.50000000000E+01 0. -1.
</event>
<event>
 4    1  0.5017912E-001  0.5000050E+01  0.7818608E-02  0.2136455E+00
        -11   -1    0    0    0    0  0.00000000000E+00  0.00000000000E+00  0.50000499739E+01  0.50000500000E+01  0.51100000000E-03 0. -1.
         11   -1    0    0    0    0 -0.00000000000E+00 -0.00000000000E+00 -0.50000499739E+01  0.50000500000E+01  0.51100000000E-03 0.  1.
     100001    1    1    2    0    0  0.16519194497E-01  0.14253470404E-01 -0.48946189433E-02  0.50000500000E+01  0.50000000000E+01 0.  0.
     100001    1    1    2    0    0 -0.16519194497E-01 -0.14253470404E-01  0.48946189433E-02  0.50000500000E+01  0.50000000000E+01 0.  1.
</event>
<event>
 4    1  0.5017912E-001  0.5000050E+01  0.7818608E-02  0.2136455E+00
        -11   -1    0    0    0    0  0.00000000000E+00  0.00000000000E+00  0.50000499739E+01  0.50000500000E+01  0.51100000000E-03 0.  1.
         11   -1    0    0    0    0 -0.00000000000E+00 -0.00000000000E+00 -0.50000499739E+01  0.50000500000E+01  0.51100000000E-03 0. -1.
     100001    1    1    2    0    0  0.13255506620E-01  0.12377242231E-01  0.13080440321E-01  0.50000500000E+01  0.50000000000E+01 0.  1.
     100001    1    1    2    0    0 -0.13255506620E-01 -0.12377242231E-01 -0.13080440321E-01  0.50000500000E+01  0.50000000000E+01 0.  0.
</event>
<event>
 4    1  0.5017912E-001  0.5000050E+01  0.7818608E-02  0.2136455E+00
        -11   -1    0    0    0    0  0.00000000000E+00  0.00000000000E+00  0.50000499739E+01  0.50000500000E+01  0.51100000000E-03 0.  1.
         11   -1    0    0    0    0 -0.00000000000E+00 -0.00000000000E+00 -0.50000499739E+01  0.50000500000E+01  0.51100000000E-03 0. -1.
     100001    1    1    2    0    0  0.12737761295E-01  0.16205227766E-01  0.86684791176E-02  0.50000500000E+01  0.50000000000E+01 0. -1.
     100001    1    1    2    0    0 -0.12737761295E-01 -0.16205227766E-01 -0.86684791176E-02  0.50000500000E+01  0.50000000000E+01 0.  1.
</event>
<event>
 4    1  0.5017912E-001  0.5000050E+01  0.7818608E-02  0.2136455E+00
        -11   -1    0    0    0    0  0.00000000000E+00  0.00000000000E+00  0.50000499739E+01  0.50000500000E+01  0.51100000000E-03 0. -1.
         11   -1    0    0    0    0 -0.00000000000E+00 -0.00000000000E+00 -0.50000499739E+01  0.50000500000E+01  0.51100000000E-03 0.  1.
     100001    1    1    2    0    0  0.17350806782E-01  0.11394621018E-01  0.83135200635E-02  0.50000500000E+01  0.50000000000E+01 0. -1.
     100001    1    1    2    0    0 -0.17350806782E-01 -0.11394621018E-01 -0.83135200635E-02  0.50000500000E+01  0.50000000000E+01 0.  1.
</event>
<event>
 4    1  0.5017912E-001  0.5000050E+01  0.7818608E-02  0.2136455E+00
        -11   -1    0    0    0    0  0.00000000000E+00  0.00000000000E+00  0.50000499739E+01  0.50000500000E+01  0.51100000000E-03 0.  1.
         11   -1    0    0    0    0 -0.00000000000E+00 -0.00000000000E+00 -0.50000499739E+01  0.50000500000E+01  0.51100000000E-03 0. -1.
     100001    1    1    2    0    0  0.17423030444E-01  0.58578574515E-02 -0.12732871484E-01  0.50000500000E+01  0.50000000000E+01 0. -1.
     100001    1    1    2    0    0 -0.17423030444E-01 -0.58578574515E-02  0.12732871484E-01  0.50000500000E+01  0.50000000000E+01 0.  0.
</event>
<event>
 4    1  0.5017912E-001  0.5000050E+01  0.7818608E-02  0.2136455E+00
        -11   -1    0    0    0    0  0.00000000000E+00  0.00000000000E+00  0.50000499739E+01  0.50000500000E+01  0.51100000000E-03 0.  1.
         11   -1    0    0    0    0 -0.00000000000E+00 -0.00000000000E+00 -0.50000499739E+01  0.50000500000E+01  0.51100000000E-03 0. -1.
     100001    1    1    2    0    0  0.21879232557E-01  0.25659871249E-02  0.38363254275E-02  0.50000500000E+01  0.50000000000E+01 0.  0.
     100001    1    1    2    0    0 -0.21879232557E-01 -0.25659871249E-02 -0.38363254275E-02  0.50000500000E+01  0.50000000000E+01 0.  0.
</event>
<event>
 4    1  0.5017912E-001  0.5000050E+01  0.7818608E-02  0.2136455E+00
        -11   -1    0    0    0    0  0.00000000000E+00  0.00000000000E+00  0.50000499739E+01  0.50000500000E+01  0.51100000000E-03 0. -1.
         11   -1    0    0    0    0 -0.00000000000E+00 -0.00000000000E+00 -0.50000499739E+01  0.50000500000E+01  0.51100000000E-03 0.  1.
     100001    1    1    2    0    0 -0.14215851779E-01 -0.55641208486E-02 -0.16338684690E-01  0.50000500000E+01  0.50000000000E+01 0.  1.
     100001    1    1    2    0    0  0.14215851779E-01  0.55641208486E-02  0.16338684690E-01  0.50000500000E+01  0.50000000000E+01 0. -1.
</event>
<event>
 4    1  0.5017912E-001  0.5000050E+01  0.7818608E-02  0.2136455E+00
        -11   -1    0    0    0    0  0.00000000000E+00  0.00000000000E+00  0.50000499739E+01  0.50000500000E+01  0.51100000000E-03 0. -1.
         11   -1    0    0    0    0 -0.00000000000E+00 -0.00000000000E+00 -0.50000499739E+01  0.50000500000E+01  0.51100000000E-03 0.  1.
     100001    1    1    2    0    0  0.62698109326E-02 -0.20997003904E-01 -0.44517185377E-02  0.50000500000E+01  0.50000000000E+01 0.  1.
     100001    1    1    2    0    0 -0.62698109326E-02  0.20997003904E-01  0.44517185377E-02  0.50000500000E+01  0.50000000000E+01 0. -1.
</event>
<event>
 4    1  0.5017912E-001  0.5000050E+01  0.7818608E-02  0.2136455E+00
        -11   -1    0    0    0    0  0.00000000000E+00  0.00000000000E+00  0.50000499739E+01  0.50000500000E+01  0.51100000000E-03 0. -1.
         11   -1    0    0    0    0 -0.00000000000E+00 -0.00000000000E+00 -0.50000499739E+01  0.50000500000E+01  0.51100000000E-03 0.  1.
     100001    1    1    2    0    0 -0.13337595761E-01  0.13200583587E-01 -0.12159590137E-01  0.50000500000E+01  0.50000000000E+01 0.  1.
     100001    1    1    2    0    0  0.13337595761E-01 -0.13200583587E-01  0.12159590137E-01  0.50000500000E+01  0.50000000000E+01 0. -1.
</event>
<event>
 4    1  0.5017912E-001  0.5000050E+01  0.7818608E-02  0.2136455E+00
        -11   -1    0    0    0    0  0.00000000000E+00  0.00000000000E+00  0.50000499739E+01  0.50000500000E+01  0.51100000000E-03 0.  1.
         11   -1    0    0    0    0 -0.00000000000E+00 -0.00000000000E+00 -0.50000499739E+01  0.50000500000E+01  0.51100000000E-03 0. -1.
     100001    1    1    2    0    0  0.18907008850E-01 -0.96179709827E-02 -0.70726339175E-02  0.50000500000E+01  0.50000000000E+01 0.  0.
     100001    1    1    2    0    0 -0.18907008850E-01  0.96179709827E-02  0.70726339175E-02  0.50000500000E+01  0.50000000000E+01 0. -1.
</event>
<event>
 4    1  0.5017912E-001  0.5000050E+01  0.7818608E-02  0.2136455E+00
        -11   -1    0    0    0    0  0.00000000000E+00  0.00000000000E+00  0.50000499739E+01  0.50000500000E+01  0.51100000000E-03 0. -1.
         11   -1    0    0    0    0 -0.00000000000E+00 -0.00000000000E+00 -0.50000499739E+01  0.50000500000E+01  0.51100000000E-03 0.  1.
     100001    1    1    2    0    0 -0.79576892892E-03 -0.14680604132E-01 -0.16847822237E-01  0.50000500000E+01  0.50000000000E+01 0.  1.
     100001    1    1    2    0    0  0.79576892892E-03  0.14680604132E-01  0.16847822237E-01  0.50000500000E+01  0.50000000000E+01 0. -1.
</event>
<event>
 4    1  0.5017912E-001  0.5000050E+01  0.7818608E-02  0.2136455E+00
        -11   -1    0    0    0    0  0.00000000000E+00  0.00000000000E+00  0.50000499739E+01  0.50000500000E+01  0.51100000000E-03 0. -1.
         11   -1    0    0    0    0 -0.00000000000E+00 -0.00000000000E+00 -0.50000499739E+01  0.50000500000E+01  0.51100000000E-03 0.  1.
     100001    1    1    2    0    0 -0.11525073929E-02 -0.63787841308E-02 -0.21400592041E-01  0.50000500000E+01  0.50000000000E+01 0.  1.
     100001    1    1    2    0    0  0.11525073929E-02  0.63787841308E-02  0.21400592041E-01  0.50000500000E+01  0.50000000000E+01 0.  0.
</event>
<event>
 4    1  0.5017912E-001  0.5000050E+01  0.7818608E-02  0.2136455E+00
        -11   -1    0    0    0    0  0.00000000000E+00  0.00000000000E+00  0.50000499739E+01  0.50000500000E+01  0.51100000000E-03 0.  1.
         11   -1    0    0    0    0 -0.00000000000E+00 -0.00000000000E+00 -0.50000499739E+01  0.50000500000E+01  0.51100000000E-03 0. -1.
     100001    1    1    2    0    0  0.11824113018E-01  0.17582719223E-01  0.71442869523E-02  0.50000500000E+01  0.50000000000E+01 0.  1.
     100001    1    1    2    0    0 -0.11824113018E-01 -0.17582719223E-01 -0.71442869523E-02  0.50000500000E+01  0.50000000000E+01 0.  1.
</event>
<event>
 4    1  0.5017912E-001  0.5000050E+01  0.7818608E-02  0.2136455E+00
        -11   -1    0    0    0    0  0.00000000000E+00  0.00000000000E+00  0.50000499739E+01  0.50000500000E+01  0.51100000000E-03 0.  1.
         11   -1    0    0    0    0 -0.00000000000E+00 -0.00000000000E+00 -0.50000499739E+01  0.50000500000E+01  0.51100000000E-03 0. -1.
     100001    1    1    2    0    0  0.15601920487E-01 -0.15861912888E-01  0.22321058787E-02  0.50000500000E+01  0.50000000000E+01 0.  0.
     100001    1    1    2    0    0 -0.15601920487E-01  0.15861912888E-01 -0.22321058787E-02  0.50000500000E+01  0.50000000000E+01 0.  1.
</event>
<event>
 4    1  0.5017912E-001  0.5000050E+01  0.7818608E-02  0.2136455E+00
        -11   -1    0    0    0    0  0.00000000000E+00  0.00000000000E+00  0.50000499739E+01  0.50000500000E+01  0.51100000000E-03 0. -1.
         11   -1    0    0    0    0 -0.00000000000E+00 -0.00000000000E+00 -0.50000499739E+01  0.50000500000E+01  0.51100000000E-03 0.  1.
     100001    1    1    2    0    0 -0.10172197328E-02  0.17762610330E-01  0.13544646111E-01  0.50000500000E+01  0.50000000000E+01 0. -1.
     100001    1    1    2    0    0  0.10172197328E-02 -0.17762610330E-01 -0.13544646111E-01  0.50000500000E+01  0.50000000000E+01 0.  1.
</event>
<event>
 4    1  0.5017912E-001  0.5000050E+01  0.7818608E-02  0.2136455E+00
        -11   -1    0    0    0    0  0.00000000000E+00  0.00000000000E+00  0.50000499739E+01  0.50000500000E+01  0.51100000000E-03 0. -1.
         11   -1    0    0    0    0 -0.00000000000E+00 -0.00000000000E+00 -0.50000499739E+01  0.50000500000E+01  0.51100000000E-03 0.  1.
     100001    1    1    2    0    0  0.82230458326E-02 -0.20717267207E-01 -0.17829348614E-02  0.50000500000E+01  0.50000000000E+01 0. -1.
     100001    1    1    2    0    0 -0.82230458326E-02  0.20717267207E-01  0.17829348614E-02  0.50000500000E+01  0.50000000000E+01 0.  0.
</event>
<event>
 4    1  0.5017912E-001  0.5000050E+01  0.7818608E-02  0.2136455E+00
        -11   -1    0    0    0    0  0.00000000000E+00  0.00000000000E+00  0.50000499739E+01  0.50000500000E+01  0.51100000000E-03 0. -1.
         11   -1    0    0    0    0 -0.00000000000E+00 -0.00000000000E+00 -0.50000499739E+01  0.50000500000E+01  0.51100000000E-03 0.  1.
     100001    1    1    2    0    0 -0.19281475346E-03 -0.13147355975E-01 -0.18086247630E-01  0.50000500000E+01  0.50000000000E+01 0.  1.
     100001    1    1    2    0    0  0.19281475346E-03  0.13147355975E-01  0.18086247630E-01  0.50000500000E+01  0.50000000000E+01 0.  0.
</event>
<event>
 4    1  0.5017912E-001  0.5000050E+01  0.7818608E-02  0.2136455E+00
        -11   -1    0    0    0    0  0.00000000000E+00  0.00000000000E+00  0.50000499739E+01  0.50000500000E+01  0.51100000000E-03 0. -1.
         11   -1    0    0    0    0 -0.00000000000E+00 -0.00000000000E+00 -0.50000499739E+01  0.50000500000E+01  0.51100000000E-03 0.  1.
     100001    1    1    2    0    0  0.32724341902E-02 -0.19439442042E-01 -0.10554703576E-01  0.50000500000E+01  0.50000000000E+01 0. -1.
     100001    1    1    2    0    0 -0.32724341902E-02  0.19439442042E-01  0.10554703576E-01  0.50000500000E+01  0.50000000000E+01 0.  0.
</event>
<event>
 4    1  0.5017912E-001  0.5000050E+01  0.7818608E-02  0.2136455E+00
        -11   -1    0    0    0    0  0.00000000000E+00  0.00000000000E+00  0.50000499739E+01  0.50000500000E+01  0.51100000000E-03 0. -1.
         11   -1    0    0    0    0 -0.00000000000E+00 -0.00000000000E+00 -0.50000499739E+01  0.50000500000E+01  0.51100000000E-03 0.  1.
     100001    1    1    2    0    0 -0.83344844727E-02  0.20660258957E-01  0.19216056825E-02  0.50000500000E+01  0.50000000000E+01 0. -1.
     100001    1    1    2    0    0  0.83344844727E-02 -0.20660258957E-01 -0.19216056825E-02  0.50000500000E+01  0.50000000000E+01 0.  1.
</event>
<event>
 4    1  0.5017912E-001  0.5000050E+01  0.7818608E-02  0.2136455E+00
        -11   -1    0    0    0    0  0.00000000000E+00  0.00000000000E+00  0.50000499739E+01  0.50000500000E+01  0.51100000000E-03 0.  1.
         11   -1    0    0    0    0 -0.00000000000E+00 -0.00000000000E+00 -0.50000499739E+01  0.50000500000E+01  0.51100000000E-03 0. -1.
     100001    1    1    2    0    0  0.77353829950E-03  0.15704756037E-01 -0.15898577808E-01  0.50000500000E+01  0.50000000000E+01 0.  1.
     100001    1    1    2    0    0 -0.77353829950E-03 -0.15704756037E-01  0.15898577808E-01  0.50000500000E+01  0.50000000000E+01 0.  1.
</event>
<event>
 4    1  0.5017912E-001  0.5000050E+01  0.7818608E-02  0.2136455E+00
        -11   -1    0    0    0    0  0.00000000000E+00  0.00000000000E+00  0.50000499739E+01  0.50000500000E+01  0.51100000000E-03 0. -1.
         11   -1    0    0    0    0 -0.00000000000E+00 -0.00000000000E+00 -0.50000499739E+01  0.50000500000E+01  0.51100000000E-03 0.  1.
     100001    1    1    2    0    0  0.41051499956E-03 -0.20385207739E-01 -0.91802659487E-02  0.50000500000E+01  0.50000000000E+01 0. -1.
     100001    1    1    2    0    0 -0.41051499956E-03  0.20385207739E-01  0.91802659487E-02  0.50000500000E+01  0.50000000000E+01 0.  0.
</event>
<event>
 4    1  0.5017912E-001  0.5000050E+01  0.7818608E-02  0.2136455E+00
        -11   -1    0    0    0    0  0.00000000000E+00  0.00000000000E+00  0.50000499739E+01  0.50000500000E+01  0.51100000000E-03 0.  1.
         11   -1    0    0    0    0 -0.00000000000E+00 -0.00000000000E+00 -0.50000499739E+01  0.50000500000E+01  0.51100000000E-03 0. -1.
     100001    1    1    2    0    0 -0.39553088613E-02 -0.21955209034E-01 -0.15253943976E-02  0.50000500000E+01  0.50000000000E+01 0.  1.
     100001    1    1    2    0    0  0.39553088613E-02  0.21955209034E-01  0.15253943976E-02  0.50000500000E+01  0.50000000000E+01 0. -1.
</event>
<event>
 4    1  0.5017912E-001  0.5000050E+01  0.7818608E-02  0.2136455E+00
        -11   -1    0    0    0    0  0.00000000000E+00  0.00000000000E+00  0.50000499739E+01  0.50000500000E+01  0.51100000000E-03 0.  1.
         11   -1    0    0    0    0 -0.00000000000E+00 -0.00000000000E+00 -0.50000499739E+01  0.50000500000E+01  0.51100000000E-03 0. -1.
     100001    1    1    2    0    0 -0.20789744893E-01 -0.19615454090E-02  0.79963333407E-02  0.50000500000E+01  0.50000000000E+01 0.  0.
     100001    1    1    2    0    0  0.20789744893E-01  0.19615454090E-02 -0.79963333407E-02  0.50000500000E+01  0.50000000000E+01 0.  1.
</event>
<event>
 4    1  0.5017912E-001  0.5000050E+01  0.7818608E-02  0.2136455E+00
        -11   -1    0    0    0    0  0.00000000000E+00  0.00000000000E+00  0.50000499739E+01  0.50000500000E+01  0.51100000000E-03 0.  1.
         11   -1    0    0    0    0 -0.00000000000E+00 -0.00000000000E+00 -0.50000499739E+01  0.50000500000E+01  0.51100000000E-03 0. -1.
     100001    1    1    2    0    0 -0.71783812125E-02 -0.18000007896E-02  0.21100553081E-01  0.50000500000E+01  0.50000000000E+01 0.  0.
     100001    1    1    2    0    0  0.71783812125E-02  0.18000007896E-02 -0.21100553081E-01  0.50000500000E+01  0.50000000000E+01 0. -1.
</event>
<event>
 4    1  0.5017912E-001  0.5000050E+01  0.7818608E-02  0.2136455E+00
        -11   -1    0    0    0    0  0.00000000000E+00  0.00000000000E+00  0.50000499739E+01  0.50000500000E+01  0.51100000000E-03 0.  1.
         11   -1    0    0    0    0 -0.00000000000E+00 -0.00000000000E+00 -0.50000499739E+01  0.50000500000E+01  0.51100000000E-03 0. -1.
     100001    1    1    2    0    0 -0.94285736565E-02  0.19766515493E-01 -0.45154583441E-02  0.50000500000E+01  0.50000000000E+01 0.  1.
     100001    1    1    2    0    0  0.94285736565E-02 -0.19766515493E-01  0.45154583441E-02  0.50000500000E+01  0.50000000000E+01 0. -1.
</event>
<event>
 4    1  0.5017912E-001  0.5000050E+01  0.7818608E-02  0.2136455E+00
        -11   -1    0    0    0    0  0.00000000000E+00  0.00000000000E+00  0.50000499739E+01  0.50000500000E+01  0.51100000000E-03 0.  1.
         11   -1    0    0    0    0 -0.00000000000E+00 -0.00000000000E+00 -0.50000499739E+01  0.50000500000E+01  0.51100000000E-03 0. -1.
     100001    1    1    2    0    0 -0.22189087473E-01 -0.93365560223E-03 -0.26029184281E-02  0.50000500000E+01  0.50000000000E+01 0.  0.
     100001    1    1    2    0    0  0.22189087473E-01  0.93365560223E-03  0.26029184281E-02  0.50000500000E+01  0.50000000000E+01 0. -1.
</event>
<event>
 4    1  0.5017912E-001  0.5000050E+01  0.7818608E-02  0.2136455E+00
        -11   -1    0    0    0    0  0.00000000000E+00  0.00000000000E+00  0.50000499739E+01  0.50000500000E+01  0.51100000000E-03 0.  1.
         11   -1    0    0    0    0 -0.00000000000E+00 -0.00000000000E+00 -0.50000499739E+01  0.50000500000E+01  0.51100000000E-03 0. -1.
     100001    1    1    2    0    0  0.17821414746E-01 -0.54212036821E-02 -0.12369730275E-01  0.50000500000E+01  0.50000000000E+01 0. -1.
     100001    1    1    2    0    0 -0.17821414746E-01  0.54212036821E-02  0.12369730275E-01  0.50000500000E+01  0.50000000000E+01 0.  1.
</event>
<event>
 4    1  0.5017912E-001  0.5000050E+01  0.7818608E-02  0.2136455E+00
        -11   -1    0    0    0    0  0.00000000000E+00  0.00000000000E+00  0.50000499739E+01  0.50000500000E+01  0.51100000000E-03 0.  1.
         11   -1    0    0    0    0 -0.00000000000E+00 -0.00000000000E+00 -0.50000499739E+01  0.50000500000E+01  0.51100000000E-03 0. -1.
     100001    1    1    2    0    0  0.57210668719E-03 -0.18176236206E-01  0.13011519178E-01  0.50000500000E+01  0.50000000000E+01 0. -1.
     100001    1    1    2    0    0 -0.57210668719E-03  0.18176236206E-01 -0.13011519178E-01  0.50000500000E+01  0.50000000000E+01 0. -1.
</event>
<event>
 4    1  0.5017912E-001  0.5000050E+01  0.7818608E-02  0.2136455E+00
        -11   -1    0    0    0    0  0.00000000000E+00  0.00000000000E+00  0.50000499739E+01  0.50000500000E+01  0.51100000000E-03 0.  1.
         11   -1    0    0    0    0 -0.00000000000E+00 -0.00000000000E+00 -0.50000499739E+01  0.50000500000E+01  0.51100000000E-03 0. -1.
     100001    1    1    2    0    0 -0.15924660832E-01  0.11163187105E-01  0.11035892852E-01  0.50000500000E+01  0.50000000000E+01 0.  0.
     100001    1    1    2    0    0  0.15924660832E-01 -0.11163187105E-01 -0.11035892852E-01  0.50000500000E+01  0.50000000000E+01 0.  0.
</event>
<event>
 4    1  0.5017912E-001  0.5000050E+01  0.7818608E-02  0.2136455E+00
        -11   -1    0    0    0    0  0.00000000000E+00  0.00000000000E+00  0.50000499739E+01  0.50000500000E+01  0.51100000000E-03 0.  1.
         11   -1    0    0    0    0 -0.00000000000E+00 -0.00000000000E+00 -0.50000499739E+01  0.50000500000E+01  0.51100000000E-03 0. -1.
     100001    1    1    2    0    0 -0.20297822496E-01 -0.24708392513E-02 -0.90496328829E-02  0.50000500000E+01  0.50000000000E+01 0.  0.
     100001    1    1    2    0    0  0.20297822496E-01  0.24708392513E-02  0.90496328829E-02  0.50000500000E+01  0.50000000000E+01 0.  0.
</event>
<event>
 4    1  0.5017912E-001  0.5000050E+01  0.7818608E-02  0.2136455E+00
        -11   -1    0    0    0    0  0.00000000000E+00  0.00000000000E+00  0.50000499739E+01  0.50000500000E+01  0.51100000000E-03 0. -1.
         11   -1    0    0    0    0 -0.00000000000E+00 -0.00000000000E+00 -0.50000499739E+01  0.50000500000E+01  0.51100000000E-03 0.  1.
     100001    1    1    2    0    0  0.16193313577E-01  0.53851371068E-02  0.14449200453E-01  0.50000500000E+01  0.50000000000E+01 0.  1.
     100001    1    1    2    0    0 -0.16193313577E-01 -0.53851371068E-02 -0.14449200453E-01  0.50000500000E+01  0.50000000000E+01 0.  1.
</event>
<event>
 4    1  0.5017912E-001  0.5000050E+01  0.7818608E-02  0.2136455E+00
        -11   -1    0    0    0    0  0.00000000000E+00  0.00000000000E+00  0.50000499739E+01  0.50000500000E+01  0.51100000000E-03 0.  1.
         11   -1    0    0    0    0 -0.00000000000E+00 -0.00000000000E+00 -0.50000499739E+01  0.50000500000E+01  0.51100000000E-03 0. -1.
     100001    1    1    2    0    0  0.36253075988E-02  0.85678962644E-02  0.20333489578E-01  0.50000500000E+01  0.50000000000E+01 0.  1.
     100001    1    1    2    0    0 -0.36253075988E-02 -0.85678962644E-02 -0.20333489578E-01  0.50000500000E+01  0.50000000000E+01 0.  0.
</event>
<event>
 4    1  0.5017912E-001  0.5000050E+01  0.7818608E-02  0.2136455E+00
        -11   -1    0    0    0    0  0.00000000000E+00  0.00000000000E+00  0.50000499739E+01  0.50000500000E+01  0.51100000000E-03 0.  1.
         11   -1    0    0    0    0 -0.00000000000E+00 -0.00000000000E+00 -0.50000499739E+01  0.50000500000E+01  0.51100000000E-03 0. -1.
     100001    1    1    2    0    0  0.56760910297E-02  0.10008434589E-01 -0.19173307688E-01  0.50000500000E+01  0.50000000000E+01 0.  0.
     100001    1    1    2    0    0 -0.56760910297E-02 -0.10008434589E-01  0.19173307688E-01  0.50000500000E+01  0.50000000000E+01 0.  0.
</event>
<event>
 4    1  0.5017912E-001  0.5000050E+01  0.7818608E-02  0.2136455E+00
        -11   -1    0    0    0    0  0.00000000000E+00  0.00000000000E+00  0.50000499739E+01  0.50000500000E+01  0.51100000000E-03 0.  1.
         11   -1    0    0    0    0 -0.00000000000E+00 -0.00000000000E+00 -0.50000499739E+01  0.50000500000E+01  0.51100000000E-03 0. -1.
     100001    1    1    2    0    0  0.11688580354E-01 -0.17889082677E-01  0.65848546130E-02  0.50000500000E+01  0.50000000000E+01 0. -1.
     100001    1    1    2    0    0 -0.11688580354E-01  0.17889082677E-01 -0.65848546130E-02  0.50000500000E+01  0.50000000000E+01 0.  0.
</event>
<event>
 4    1  0.5017912E-001  0.5000050E+01  0.7818608E-02  0.2136455E+00
        -11   -1    0    0    0    0  0.00000000000E+00  0.00000000000E+00  0.50000499739E+01  0.50000500000E+01  0.51100000000E-03 0.  1.
         11   -1    0    0    0    0 -0.00000000000E+00 -0.00000000000E+00 -0.50000499739E+01  0.50000500000E+01  0.51100000000E-03 0. -1.
     100001    1    1    2    0    0 -0.14133947120E-01  0.13706550742E-02 -0.17272965683E-01  0.50000500000E+01  0.50000000000E+01 0. -1.
     100001    1    1    2    0    0  0.14133947120E-01 -0.13706550742E-02  0.17272965683E-01  0.50000500000E+01  0.50000000000E+01 0.  1.
</event>
<event>
 4    1  0.5017912E-001  0.5000050E+01  0.7818608E-02  0.2136455E+00
        -11   -1    0    0    0    0  0.00000000000E+00  0.00000000000E+00  0.50000499739E+01  0.50000500000E+01  0.51100000000E-03 0. -1.
         11   -1    0    0    0    0 -0.00000000000E+00 -0.00000000000E+00 -0.50000499739E+01  0.50000500000E+01  0.51100000000E-03 0.  1.
     100001    1    1    2    0    0 -0.18938659868E-01 -0.39560820987E-02 -0.11210667991E-01  0.50000500000E+01  0.50000000000E+01 0. -1.
     100001    1    1    2    0    0  0.18938659868E-01  0.39560820987E-02  0.11210667991E-01  0.50000500000E+01  0.50000000000E+01 0.  0.
</event>
<event>
 4    1  0.5017912E-001  0.5000050E+01  0.7818608E-02  0.2136455E+00
        -11   -1    0    0    0    0  0.00000000000E+00  0.00000000000E+00  0.50000499739E+01  0.50000500000E+01  0.51100000000E-03 0. -1.
         11   -1    0    0    0    0 -0.00000000000E+00 -0.00000000000E+00 -0.50000499739E+01  0.50000500000E+01  0.51100000000E-03 0.  1.
     100001    1    1    2    0    0  0.15190137579E-01 -0.73657701490E-02  0.14663139174E-01  0.50000500000E+01  0.50000000000E+01 0.  0.
     100001    1    1    2    0    0 -0.15190137579E-01  0.73657701490E-02 -0.14663139174E-01  0.50000500000E+01  0.50000000000E+01 0. -1.
</event>
<event>
 4    1  0.5017912E-001  0.5000050E+01  0.7818608E-02  0.2136455E+00
        -11   -1    0    0    0    0  0.00000000000E+00  0.00000000000E+00  0.50000499739E+01  0.50000500000E+01  0.51100000000E-03 0. -1.
         11   -1    0    0    0    0 -0.00000000000E+00 -0.00000000000E+00 -0.50000499739E+01  0.50000500000E+01  0.51100000000E-03 0.  1.
     100001    1    1    2    0    0 -0.13573408300E-01  0.17612655306E-01 -0.23578507540E-02  0.50000500000E+01  0.50000000000E+01 0. -1.
     100001    1    1    2    0    0  0.13573408300E-01 -0.17612655306E-01  0.23578507540E-02  0.50000500000E+01  0.50000000000E+01 0.  0.
</event>
<event>
 4    1  0.5017912E-001  0.5000050E+01  0.7818608E-02  0.2136455E+00
        -11   -1    0    0    0    0  0.00000000000E+00  0.00000000000E+00  0.50000499739E+01  0.50000500000E+01  0.51100000000E-03 0.  1.
         11   -1    0    0    0    0 -0.00000000000E+00 -0.00000000000E+00 -0.50000499739E+01  0.50000500000E+01  0.51100000000E-03 0. -1.
     100001    1    1    2    0    0 -0.20449396920E-01 -0.79737834457E-02 -0.42712343858E-02  0.50000500000E+01  0.50000000000E+01 0.  1.
     100001    1    1    2    0    0  0.20449396920E-01  0.79737834457E-02  0.42712343858E-02  0.50000500000E+01  0.50000000000E+01 0.  0.
</event>
<event>
 4    1  0.5017912E-001  0.5000050E+01  0.7818608E-02  0.2136455E+00
        -11   -1    0    0    0    0  0.00000000000E+00  0.00000000000E+00  0.50000499739E+01  0.50000500000E+01  0.51100000000E-03 0.  1.
         11   -1    0    0    0    0 -0.00000000000E+00 -0.00000000000E+00 -0.50000499739E+01  0.50000500000E+01  0.51100000000E-03 0. -1.
     100001    1    1    2    0    0 -0.78389005441E-02 -0.14957112876E-01 -0.14657384237E-01  0.50000500000E+01  0.50000000000E+01 0.  0.
     100001    1    1    2    0    0  0.78389005441E-02  0.14957112876E-01  0.14657384237E-01  0.50000500000E+01  0.50000000000E+01 0.  0.
</event>
<event>
 4    1  0.5017912E-001  0.5000050E+01  0.7818608E-02  0.2136455E+00
        -11   -1    0    0    0    0  0.00000000000E+00  0.00000000000E+00  0.50000499739E+01  0.50000500000E+01  0.51100000000E-03 0. -1.
         11   -1    0    0    0    0 -0.00000000000E+00 -0.00000000000E+00 -0.50000499739E+01  0.50000500000E+01  0.51100000000E-03 0.  1.
     100001    1    1    2    0    0 -0.84032408735E-02 -0.48264110215E-03 -0.20716058997E-01  0.50000500000E+01  0.50000000000E+01 0.  0.
     100001    1    1    2    0    0  0.84032408735E-02  0.48264110215E-03  0.20716058997E-01  0.50000500000E+01  0.50000000000E+01 0. -1.
</event>
<event>
 4    1  0.5017912E-001  0.5000050E+01  0.7818608E-02  0.2136455E+00
        -11   -1    0    0    0    0  0.00000000000E+00  0.00000000000E+00  0.50000499739E+01  0.50000500000E+01  0.51100000000E-03 0.  1.
         11   -1    0    0    0    0 -0.00000000000E+00 -0.00000000000E+00 -0.50000499739E+01  0.50000500000E+01  0.51100000000E-03 0. -1.
     100001    1    1    2    0    0  0.19185598403E-01  0.10904499748E-01 -0.36065494838E-02  0.50000500000E+01  0.50000000000E+01 0. -1.
     100001    1    1    2    0    0 -0.19185598403E-01 -0.10904499748E-01  0.36065494838E-02  0.50000500000E+01  0.50000000000E+01 0.  1.
</event>
<event>
 4    1  0.5017912E-001  0.5000050E+01  0.7818608E-02  0.2136455E+00
        -11   -1    0    0    0    0  0.00000000000E+00  0.00000000000E+00  0.50000499739E+01  0.50000500000E+01  0.51100000000E-03 0. -1.
         11   -1    0    0    0    0 -0.00000000000E+00 -0.00000000000E+00 -0.50000499739E+01  0.50000500000E+01  0.51100000000E-03 0.  1.
     100001    1    1    2    0    0 -0.79547163683E-02  0.16882534756E-01  0.12316858679E-01  0.50000500000E+01  0.50000000000E+01 0. -1.
     100001    1    1    2    0    0  0.79547163683E-02 -0.16882534756E-01 -0.12316858679E-01  0.50000500000E+01  0.50000000000E+01 0. -1.
</event>
<event>
 4    1  0.5017912E-001  0.5000050E+01  0.7818608E-02  0.2136455E+00
        -11   -1    0    0    0    0  0.00000000000E+00  0.00000000000E+00  0.50000499739E+01  0.50000500000E+01  0.51100000000E-03 0.  1.
         11   -1    0    0    0    0 -0.00000000000E+00 -0.00000000000E+00 -0.50000499739E+01  0.50000500000E+01  0.51100000000E-03 0. -1.
     100001    1    1    2    0    0  0.12725902788E-01  0.15743319486E-01 -0.94974622817E-02  0.50000500000E+01  0.50000000000E+01 0.  0.
     100001    1    1    2    0    0 -0.12725902788E-01 -0.15743319486E-01  0.94974622817E-02  0.50000500000E+01  0.50000000000E+01 0. -1.
</event>
<event>
 4    1  0.5017912E-001  0.5000050E+01  0.7818608E-02  0.2136455E+00
        -11   -1    0    0    0    0  0.00000000000E+00  0.00000000000E+00  0.50000499739E+01  0.50000500000E+01  0.51100000000E-03 0. -1.
         11   -1    0    0    0    0 -0.00000000000E+00 -0.00000000000E+00 -0.50000499739E+01  0.50000500000E+01  0.51100000000E-03 0.  1.
     100001    1    1    2    0    0 -0.12539420039E-01  0.94740052779E-02 -0.15906246228E-01  0.50000500000E+01  0.50000000000E+01 0.  1.
     100001    1    1    2    0    0  0.12539420039E-01 -0.94740052779E-02  0.15906246228E-01  0.50000500000E+01  0.50000000000E+01 0. -1.
</event>
<event>
 4    1  0.5017912E-001  0.5000050E+01  0.7818608E-02  0.2136455E+00
        -11   -1    0    0    0    0  0.00000000000E+00  0.00000000000E+00  0.50000499739E+01  0.50000500000E+01  0.51100000000E-03 0.  1.
         11   -1    0    0    0    0 -0.00000000000E+00 -0.00000000000E+00 -0.50000499739E+01  0.50000500000E+01  0.51100000000E-03 0. -1.
     100001    1    1    2    0    0  0.19156403810E-01  0.59633925084E-02 -0.98728234497E-02  0.50000500000E+01  0.50000000000E+01 0.  1.
     100001    1    1    2    0    0 -0.19156403810E-01 -0.59633925084E-02  0.98728234497E-02  0.50000500000E+01  0.50000000000E+01 0. -1.
</event>
<event>
 4    1  0.5017912E-001  0.5000050E+01  0.7818608E-02  0.2136455E+00
        -11   -1    0    0    0    0  0.00000000000E+00  0.00000000000E+00  0.50000499739E+01  0.50000500000E+01  0.51100000000E-03 0.  1.
         11   -1    0    0    0    0 -0.00000000000E+00 -0.00000000000E+00 -0.50000499739E+01  0.50000500000E+01  0.51100000000E-03 0. -1.
     100001    1    1    2    0    0 -0.15200405762E-03 -0.22050693056E-01  0.37076044185E-02  0.50000500000E+01  0.50000000000E+01 0.  1.
     100001    1    1    2    0    0  0.15200405762E-03  0.22050693056E-01 -0.37076044185E-02  0.50000500000E+01  0.50000000000E+01 0. -1.
</event>
<event>
 4    1  0.5017912E-001  0.5000050E+01  0.7818608E-02  0.2136455E+00
        -11   -1    0    0    0    0  0.00000000000E+00  0.00000000000E+00  0.50000499739E+01  0.50000500000E+01  0.51100000000E-03 0. -1.
         11   -1    0    0    0    0 -0.00000000000E+00 -0.00000000000E+00 -0.50000499739E+01  0.50000500000E+01  0.51100000000E-03 0.  1.
     100001    1    1    2    0    0 -0.61512120736E-02  0.21178620988E-01  0.36920323787E-02  0.50000500000E+01  0.50000000000E+01 0.  1.
     100001    1    1    2    0    0  0.61512120736E-02 -0.21178620988E-01 -0.36920323787E-02  0.50000500000E+01  0.50000000000E+01 0.  0.
</event>
<event>
 4    1  0.5017912E-001  0.5000050E+01  0.7818608E-02  0.2136455E+00
        -11   -1    0    0    0    0  0.00000000000E+00  0.00000000000E+00  0.50000499739E+01  0.50000500000E+01  0.51100000000E-03 0.  1.
         11   -1    0    0    0    0 -0.00000000000E+00 -0.00000000000E+00 -0.50000499739E+01  0.50000500000E+01  0.51100000000E-03 0. -1.
     100001    1    1    2    0    0  0.31247930156E-02  0.12537382705E-01 -0.18249717902E-01  0.50000500000E+01  0.50000000000E+01 0. -1.
     100001    1    1    2    0    0 -0.31247930156E-02 -0.12537382705E-01  0.18249717902E-01  0.50000500000E+01  0.50000000000E+01 0.  1.
</event>
<event>
 4    1  0.5017912E-001  0.5000050E+01  0.7818608E-02  0.2136455E+00
        -11   -1    0    0    0    0  0.00000000000E+00  0.00000000000E+00  0.50000499739E+01  0.50000500000E+01  0.51100000000E-03 0.  1.
         11   -1    0    0    0    0 -0.00000000000E+00 -0.00000000000E+00 -0.50000499739E+01  0.50000500000E+01  0.51100000000E-03 0. -1.
     100001    1    1    2    0    0 -0.48739535347E-02 -0.33506898194E-03 -0.21820513415E-01  0.50000500000E+01  0.50000000000E+01 0. -1.
     100001    1    1    2    0    0  0.48739535347E-02  0.33506898194E-03  0.21820513415E-01  0.50000500000E+01  0.50000000000E+01 0.  0.
</event>
<event>
 4    1  0.5017912E-001  0.5000050E+01  0.7818608E-02  0.2136455E+00
        -11   -1    0    0    0    0  0.00000000000E+00  0.00000000000E+00  0.50000499739E+01  0.50000500000E+01  0.51100000000E-03 0. -1.
         11   -1    0    0    0    0 -0.00000000000E+00 -0.00000000000E+00 -0.50000499739E+01  0.50000500000E+01  0.51100000000E-03 0.  1.
     100001    1    1    2    0    0 -0.15442658463E-02 -0.14540023553E-01 -0.16917607930E-01  0.50000500000E+01  0.50000000000E+01 0.  1.
     100001    1    1    2    0    0  0.15442658463E-02  0.14540023553E-01  0.16917607930E-01  0.50000500000E+01  0.50000000000E+01 0.  1.
</event>
<event>
 4    1  0.5017912E-001  0.5000050E+01  0.7818608E-02  0.2136455E+00
        -11   -1    0    0    0    0  0.00000000000E+00  0.00000000000E+00  0.50000499739E+01  0.50000500000E+01  0.51100000000E-03 0.  1.
         11   -1    0    0    0    0 -0.00000000000E+00 -0.00000000000E+00 -0.50000499739E+01  0.50000500000E+01  0.51100000000E-03 0. -1.
     100001    1    1    2    0    0  0.30845894019E-02  0.22146488915E-01 -0.14435007480E-03  0.50000500000E+01  0.50000000000E+01 0.  0.
     100001    1    1    2    0    0 -0.30845894019E-02 -0.22146488915E-01  0.14435007480E-03  0.50000500000E+01  0.50000000000E+01 0.  1.
</event>
<event>
 4    1  0.5017912E-001  0.5000050E+01  0.7818608E-02  0.2136455E+00
        -11   -1    0    0    0    0  0.00000000000E+00  0.00000000000E+00  0.50000499739E+01  0.50000500000E+01  0.51100000000E-03 0.  1.
         11   -1    0    0    0    0 -0.00000000000E+00 -0.00000000000E+00 -0.50000499739E+01  0.50000500000E+01  0.51100000000E-03 0. -1.
     100001    1    1    2    0    0  0.12291315708E-01  0.16123351942E-01  0.94320506962E-02  0.50000500000E+01  0.50000000000E+01 0.  1.
     100001    1    1    2    0    0 -0.12291315708E-01 -0.16123351942E-01 -0.94320506962E-02  0.50000500000E+01  0.50000000000E+01 0. -1.
</event>
<event>
 4    1  0.5017912E-001  0.5000050E+01  0.7818608E-02  0.2136455E+00
        -11   -1    0    0    0    0  0.00000000000E+00  0.00000000000E+00  0.50000499739E+01  0.50000500000E+01  0.51100000000E-03 0. -1.
         11   -1    0    0    0    0 -0.00000000000E+00 -0.00000000000E+00 -0.50000499739E+01  0.50000500000E+01  0.51100000000E-03 0.  1.
     100001    1    1    2    0    0  0.14258095572E-01 -0.32225541090E-03  0.17222234527E-01  0.50000500000E+01  0.50000000000E+01 0.  0.
     100001    1    1    2    0    0 -0.14258095572E-01  0.32225541090E-03 -0.17222234527E-01  0.50000500000E+01  0.50000000000E+01 0.  0.
</event>
<event>
 4    1  0.5017912E-001  0.5000050E+01  0.7818608E-02  0.2136455E+00
        -11   -1    0    0    0    0  0.00000000000E+00  0.00000000000E+00  0.50000499739E+01  0.50000500000E+01  0.51100000000E-03 0. -1.
         11   -1    0    0    0    0 -0.00000000000E+00 -0.00000000000E+00 -0.50000499739E+01  0.50000500000E+01  0.51100000000E-03 0.  1.
     100001    1    1    2    0    0 -0.31037792872E-02  0.65380169842E-02  0.21157111997E-01  0.50000500000E+01  0.50000000000E+01 0. -1.
     100001    1    1    2    0    0  0.31037792872E-02 -0.65380169842E-02 -0.21157111997E-01  0.50000500000E+01  0.50000000000E+01 0.  0.
</event>
<event>
 4    1  0.5017912E-001  0.5000050E+01  0.7818608E-02  0.2136455E+00
        -11   -1    0    0    0    0  0.00000000000E+00  0.00000000000E+00  0.50000499739E+01  0.50000500000E+01  0.51100000000E-03 0. -1.
         11   -1    0    0    0    0 -0.00000000000E+00 -0.00000000000E+00 -0.50000499739E+01  0.50000500000E+01  0.51100000000E-03 0.  1.
     100001    1    1    2    0    0  0.31145592683E-02 -0.54338750253E-02 -0.21465670797E-01  0.50000500000E+01  0.50000000000E+01 0. -1.
     100001    1    1    2    0    0 -0.31145592683E-02  0.54338750253E-02  0.21465670797E-01  0.50000500000E+01  0.50000000000E+01 0. -1.
</event>
<event>
 4    1  0.5017912E-001  0.5000050E+01  0.7818608E-02  0.2136455E+00
        -11   -1    0    0    0    0  0.00000000000E+00  0.00000000000E+00  0.50000499739E+01  0.50000500000E+01  0.51100000000E-03 0. -1.
         11   -1    0    0    0    0 -0.00000000000E+00 -0.00000000000E+00 -0.50000499739E+01  0.50000500000E+01  0.51100000000E-03 0.  1.
     100001    1    1    2    0    0  0.16171333857E-01 -0.95458759267E-02 -0.12139469267E-01  0.50000500000E+01  0.50000000000E+01 0. -1.
     100001    1    1    2    0    0 -0.16171333857E-01  0.95458759267E-02  0.12139469267E-01  0.50000500000E+01  0.50000000000E+01 0. -1.
</event>
<event>
 4    1  0.5017912E-001  0.5000050E+01  0.7818608E-02  0.2136455E+00
        -11   -1    0    0    0    0  0.00000000000E+00  0.00000000000E+00  0.50000499739E+01  0.50000500000E+01  0.51100000000E-03 0. -1.
         11   -1    0    0    0    0 -0.00000000000E+00 -0.00000000000E+00 -0.50000499739E+01  0.50000500000E+01  0.51100000000E-03 0.  1.
     100001    1    1    2    0    0 -0.72259281599E-02 -0.21008261009E-01 -0.25379975546E-02  0.50000500000E+01  0.50000000000E+01 0. -1.
     100001    1    1    2    0    0  0.72259281599E-02  0.21008261009E-01  0.25379975546E-02  0.50000500000E+01  0.50000000000E+01 0.  1.
</event>
<event>
 4    1  0.5017912E-001  0.5000050E+01  0.7818608E-02  0.2136455E+00
        -11   -1    0    0    0    0  0.00000000000E+00  0.00000000000E+00  0.50000499739E+01  0.50000500000E+01  0.51100000000E-03 0. -1.
         11   -1    0    0    0    0 -0.00000000000E+00 -0.00000000000E+00 -0.50000499739E+01  0.50000500000E+01  0.51100000000E-03 0.  1.
     100001    1    1    2    0    0  0.15832780329E-01 -0.15789552988E-01 -0.12483387714E-03  0.50000500000E+01  0.50000000000E+01 0.  1.
     100001    1    1    2    0    0 -0.15832780329E-01  0.15789552988E-01  0.12483387714E-03  0.50000500000E+01  0.50000000000E+01 0. -1.
</event>
<event>
 4    1  0.5017912E-001  0.5000050E+01  0.7818608E-02  0.2136455E+00
        -11   -1    0    0    0    0  0.00000000000E+00  0.00000000000E+00  0.50000499739E+01  0.50000500000E+01  0.51100000000E-03 0.  1.
         11   -1    0    0    0    0 -0.00000000000E+00 -0.00000000000E+00 -0.50000499739E+01  0.50000500000E+01  0.51100000000E-03 0. -1.
     100001    1    1    2    0    0  0.21293339061E-01  0.21814227499E-02 -0.64681996258E-02  0.50000500000E+01  0.50000000000E+01 0. -1.
     100001    1    1    2    0    0 -0.21293339061E-01 -0.21814227499E-02  0.64681996258E-02  0.50000500000E+01  0.50000000000E+01 0.  1.
</event>
<event>
 4    1  0.5017912E-001  0.5000050E+01  0.7818608E-02  0.2136455E+00
        -11   -1    0    0    0    0  0.00000000000E+00  0.00000000000E+00  0.50000499739E+01  0.50000500000E+01  0.51100000000E-03 0.  1.
         11   -1    0    0    0    0 -0.00000000000E+00 -0.00000000000E+00 -0.50000499739E+01  0.50000500000E+01  0.51100000000E-03 0. -1.
     100001    1    1    2    0    0 -0.15314285449E-01 -0.61853309228E-02 -0.15073713628E-01  0.50000500000E+01  0.50000000000E+01 0.  1.
     100001    1    1    2    0    0  0.15314285449E-01  0.61853309228E-02  0.15073713628E-01  0.50000500000E+01  0.50000000000E+01 0.  0.
</event>
<event>
 4    1  0.5017912E-001  0.5000050E+01  0.7818608E-02  0.2136455E+00
        -11   -1    0    0    0    0  0.00000000000E+00  0.00000000000E+00  0.50000499739E+01  0.50000500000E+01  0.51100000000E-03 0.  1.
         11   -1    0    0    0    0 -0.00000000000E+00 -0.00000000000E+00 -0.50000499739E+01  0.50000500000E+01  0.51100000000E-03 0. -1.
     100001    1    1    2    0    0 -0.10058162060E-01  0.18729238910E-01 -0.69319179047E-02  0.50000500000E+01  0.50000000000E+01 0.  1.
     100001    1    1    2    0    0  0.10058162060E-01 -0.18729238910E-01  0.69319179047E-02  0.50000500000E+01  0.50000000000E+01 0.  0.
</event>
<event>
 4    1  0.5017912E-001  0.5000050E+01  0.7818608E-02  0.2136455E+00
        -11   -1    0    0    0    0  0.00000000000E+00  0.00000000000E+00  0.50000499739E+01  0.50000500000E+01  0.51100000000E-03 0.  1.
         11   -1    0    0    0    0 -0.00000000000E+00 -0.00000000000E+00 -0.50000499739E+01  0.50000500000E+01  0.51100000000E-03 0. -1.
     100001    1    1    2    0    0 -0.12114286532E-01  0.17379803429E-02 -0.18714325693E-01  0.50000500000E+01  0.50000000000E+01 0. -1.
     100001    1    1    2    0    0  0.12114286532E-01 -0.17379803429E-02  0.18714325693E-01  0.50000500000E+01  0.50000000000E+01 0.  1.
</event>
<event>
 4    1  0.5017912E-001  0.5000050E+01  0.7818608E-02  0.2136455E+00
        -11   -1    0    0    0    0  0.00000000000E+00  0.00000000000E+00  0.50000499739E+01  0.50000500000E+01  0.51100000000E-03 0.  1.
         11   -1    0    0    0    0 -0.00000000000E+00 -0.00000000000E+00 -0.50000499739E+01  0.50000500000E+01  0.51100000000E-03 0. -1.
     100001    1    1    2    0    0 -0.85618542205E-02  0.18559762324E-01 -0.90682068111E-02  0.50000500000E+01  0.50000000000E+01 0. -1.
     100001    1    1    2    0    0  0.85618542205E-02 -0.18559762324E-01  0.90682068111E-02  0.50000500000E+01  0.50000000000E+01 0.  1.
</event>
<event>
 4    1  0.5017912E-001  0.5000050E+01  0.7818608E-02  0.2136455E+00
        -11   -1    0    0    0    0  0.00000000000E+00  0.00000000000E+00  0.50000499739E+01  0.50000500000E+01  0.51100000000E-03 0.  1.
         11   -1    0    0    0    0 -0.00000000000E+00 -0.00000000000E+00 -0.50000499739E+01  0.50000500000E+01  0.51100000000E-03 0. -1.
     100001    1    1    2    0    0 -0.11331191959E-01  0.17831579824E-01 -0.73240255158E-02  0.50000500000E+01  0.50000000000E+01 0. -1.
     100001    1    1    2    0    0  0.11331191959E-01 -0.17831579824E-01  0.73240255158E-02  0.50000500000E+01  0.50000000000E+01 0.  1.
</event>
<event>
 4    1  0.5017912E-001  0.5000050E+01  0.7818608E-02  0.2136455E+00
        -11   -1    0    0    0    0  0.00000000000E+00  0.00000000000E+00  0.50000499739E+01  0.50000500000E+01  0.51100000000E-03 0. -1.
         11   -1    0    0    0    0 -0.00000000000E+00 -0.00000000000E+00 -0.50000499739E+01  0.50000500000E+01  0.51100000000E-03 0.  1.
     100001    1    1    2    0    0  0.94030945503E-02 -0.10465091797E-01 -0.17380050821E-01  0.50000500000E+01  0.50000000000E+01 0.  1.
     100001    1    1    2    0    0 -0.94030945503E-02  0.10465091797E-01  0.17380050821E-01  0.50000500000E+01  0.50000000000E+01 0. -1.
</event>
<event>
 4    1  0.5017912E-001  0.5000050E+01  0.7818608E-02  0.2136455E+00
        -11   -1    0    0    0    0  0.00000000000E+00  0.00000000000E+00  0.50000499739E+01  0.50000500000E+01  0.51100000000E-03 0.  1.
         11   -1    0    0    0    0 -0.00000000000E+00 -0.00000000000E+00 -0.50000499739E+01  0.50000500000E+01  0.51100000000E-03 0. -1.
     100001    1    1    2    0    0  0.11665003180E-01  0.70710597275E-02  0.17718078766E-01  0.50000500000E+01  0.50000000000E+01 0.  1.
     100001    1    1    2    0    0 -0.11665003180E-01 -0.70710597275E-02 -0.17718078766E-01  0.50000500000E+01  0.50000000000E+01 0. -1.
</event>
<event>
 4    1  0.5017912E-001  0.5000050E+01  0.7818608E-02  0.2136455E+00
        -11   -1    0    0    0    0  0.00000000000E+00  0.00000000000E+00  0.50000499739E+01  0.50000500000E+01  0.51100000000E-03 0.  1.
         11   -1    0    0    0    0 -0.00000000000E+00 -0.00000000000E+00 -0.50000499739E+01  0.50000500000E+01  0.51100000000E-03 0. -1.
     100001    1    1    2    0    0  0.15719514495E-01 -0.14055218381E-02 -0.15840576770E-01  0.50000500000E+01  0.50000000000E+01 0. -1.
     100001    1    1    2    0    0 -0.15719514495E-01  0.14055218381E-02  0.15840576770E-01  0.50000500000E+01  0.50000000000E+01 0. -1.
</event>
<event>
 4    1  0.5017912E-001  0.5000050E+01  0.7818608E-02  0.2136455E+00
        -11   -1    0    0    0    0  0.00000000000E+00  0.00000000000E+00  0.50000499739E+01  0.50000500000E+01  0.51100000000E-03 0.  1.
         11   -1    0    0    0    0 -0.00000000000E+00 -0.00000000000E+00 -0.50000499739E+01  0.50000500000E+01  0.51100000000E-03 0. -1.
     100001    1    1    2    0    0 -0.70654338704E-02 -0.20856114840E-01  0.38864660036E-02  0.50000500000E+01  0.50000000000E+01 0. -1.
     100001    1    1    2    0    0  0.70654338704E-02  0.20856114840E-01 -0.38864660036E-02  0.50000500000E+01  0.50000000000E+01 0.  1.
</event>
<event>
 4    1  0.5017912E-001  0.5000050E+01  0.7818608E-02  0.2136455E+00
        -11   -1    0    0    0    0  0.00000000000E+00  0.00000000000E+00  0.50000499739E+01  0.50000500000E+01  0.51100000000E-03 0. -1.
         11   -1    0    0    0    0 -0.00000000000E+00 -0.00000000000E+00 -0.50000499739E+01  0.50000500000E+01  0.51100000000E-03 0.  1.
     100001    1    1    2    0    0 -0.13208774278E-01 -0.21332239046E-02  0.17915918560E-01  0.50000500000E+01  0.50000000000E+01 0. -1.
     100001    1    1    2    0    0  0.13208774278E-01  0.21332239046E-02 -0.17915918560E-01  0.50000500000E+01  0.50000000000E+01 0.  1.
</event>
<event>
 4    1  0.5017912E-001  0.5000050E+01  0.7818608E-02  0.2136455E+00
        -11   -1    0    0    0    0  0.00000000000E+00  0.00000000000E+00  0.50000499739E+01  0.50000500000E+01  0.51100000000E-03 0. -1.
         11   -1    0    0    0    0 -0.00000000000E+00 -0.00000000000E+00 -0.50000499739E+01  0.50000500000E+01  0.51100000000E-03 0.  1.
     100001    1    1    2    0    0 -0.14809055286E-01 -0.12317728500E-01  0.11356405511E-01  0.50000500000E+01  0.50000000000E+01 0. -1.
     100001    1    1    2    0    0  0.14809055286E-01  0.12317728500E-01 -0.11356405511E-01  0.50000500000E+01  0.50000000000E+01 0.  1.
</event>
<event>
 4    1  0.5017912E-001  0.5000050E+01  0.7818608E-02  0.2136455E+00
        -11   -1    0    0    0    0  0.00000000000E+00  0.00000000000E+00  0.50000499739E+01  0.50000500000E+01  0.51100000000E-03 0. -1.
         11   -1    0    0    0    0 -0.00000000000E+00 -0.00000000000E+00 -0.50000499739E+01  0.50000500000E+01  0.51100000000E-03 0.  1.
     100001    1    1    2    0    0  0.50580757423E-02  0.73155002334E-02  0.20515892038E-01  0.50000500000E+01  0.50000000000E+01 0. -1.
     100001    1    1    2    0    0 -0.50580757423E-02 -0.73155002334E-02 -0.20515892038E-01  0.50000500000E+01  0.50000000000E+01 0.  1.
</event>
<event>
 4    1  0.5017912E-001  0.5000050E+01  0.7818608E-02  0.2136455E+00
        -11   -1    0    0    0    0  0.00000000000E+00  0.00000000000E+00  0.50000499739E+01  0.50000500000E+01  0.51100000000E-03 0.  1.
         11   -1    0    0    0    0 -0.00000000000E+00 -0.00000000000E+00 -0.50000499739E+01  0.50000500000E+01  0.51100000000E-03 0. -1.
     100001    1    1    2    0    0 -0.93383444508E-03  0.48447133904E-02 -0.21809612683E-01  0.50000500000E+01  0.50000000000E+01 0.  0.
     100001    1    1    2    0    0  0.93383444508E-03 -0.48447133904E-02  0.21809612683E-01  0.50000500000E+01  0.50000000000E+01 0.  1.
</event>
<event>
 4    1  0.5017912E-001  0.5000050E+01  0.7818608E-02  0.2136455E+00
        -11   -1    0    0    0    0  0.00000000000E+00  0.00000000000E+00  0.50000499739E+01  0.50000500000E+01  0.51100000000E-03 0. -1.
         11   -1    0    0    0    0 -0.00000000000E+00 -0.00000000000E+00 -0.50000499739E+01  0.50000500000E+01  0.51100000000E-03 0.  1.
     100001    1    1    2    0    0 -0.85935696081E-02  0.15558110735E-01  0.13568281091E-01  0.50000500000E+01  0.50000000000E+01 0.  1.
     100001    1    1    2    0    0  0.85935696081E-02 -0.15558110735E-01 -0.13568281091E-01  0.50000500000E+01  0.50000000000E+01 0.  1.
</event>
<event>
 4    1  0.5017912E-001  0.5000050E+01  0.7818608E-02  0.2136455E+00
        -11   -1    0    0    0    0  0.00000000000E+00  0.00000000000E+00  0.50000499739E+01  0.50000500000E+01  0.51100000000E-03 0.  1.
         11   -1    0    0    0    0 -0.00000000000E+00 -0.00000000000E+00 -0.50000499739E+01  0.50000500000E+01  0.51100000000E-03 0. -1.
     100001    1    1    2    0    0 -0.61713532247E-02 -0.19796643334E-01  0.83671866284E-02  0.50000500000E+01  0.50000000000E+01 0. -1.
     100001    1    1    2    0    0  0.61713532247E-02  0.19796643334E-01 -0.83671866284E-02  0.50000500000E+01  0.50000000000E+01 0. -1.
</event>
<event>
 4    1  0.5017912E-001  0.5000050E+01  0.7818608E-02  0.2136455E+00
        -11   -1    0    0    0    0  0.00000000000E+00  0.00000000000E+00  0.50000499739E+01  0.50000500000E+01  0.51100000000E-03 0.  1.
         11   -1    0    0    0    0 -0.00000000000E+00 -0.00000000000E+00 -0.50000499739E+01  0.50000500000E+01  0.51100000000E-03 0. -1.
     100001    1    1    2    0    0  0.53080600448E-02  0.17384923548E-01  0.13022727510E-01  0.50000500000E+01  0.50000000000E+01 0.  1.
     100001    1    1    2    0    0 -0.53080600448E-02 -0.17384923548E-01 -0.13022727510E-01  0.50000500000E+01  0.50000000000E+01 0. -1.
</event>
<event>
 4    1  0.5017912E-001  0.5000050E+01  0.7818608E-02  0.2136455E+00
        -11   -1    0    0    0    0  0.00000000000E+00  0.00000000000E+00  0.50000499739E+01  0.50000500000E+01  0.51100000000E-03 0. -1.
         11   -1    0    0    0    0 -0.00000000000E+00 -0.00000000000E+00 -0.50000499739E+01  0.50000500000E+01  0.51100000000E-03 0.  1.
     100001    1    1    2    0    0  0.41826146254E-03 -0.82897361111E-02  0.20763136385E-01  0.50000500000E+01  0.50000000000E+01 0.  0.
     100001    1    1    2    0    0 -0.41826146254E-03  0.82897361111E-02 -0.20763136385E-01  0.50000500000E+01  0.50000000000E+01 0.  1.
</event>
<event>
 4    1  0.5017912E-001  0.5000050E+01  0.7818608E-02  0.2136455E+00
        -11   -1    0    0    0    0  0.00000000000E+00  0.00000000000E+00  0.50000499739E+01  0.50000500000E+01  0.51100000000E-03 0.  1.
         11   -1    0    0    0    0 -0.00000000000E+00 -0.00000000000E+00 -0.50000499739E+01  0.50000500000E+01  0.51100000000E-03 0. -1.
     100001    1    1    2    0    0  0.76080641677E-02 -0.20091366576E-01 -0.62013586196E-02  0.50000500000E+01  0.50000000000E+01 0.  1.
     100001    1    1    2    0    0 -0.76080641677E-02  0.20091366576E-01  0.62013586196E-02  0.50000500000E+01  0.50000000000E+01 0.  0.
</event>
<event>
 4    1  0.5017912E-001  0.5000050E+01  0.7818608E-02  0.2136455E+00
        -11   -1    0    0    0    0  0.00000000000E+00  0.00000000000E+00  0.50000499739E+01  0.50000500000E+01  0.51100000000E-03 0. -1.
         11   -1    0    0    0    0 -0.00000000000E+00 -0.00000000000E+00 -0.50000499739E+01  0.50000500000E+01  0.51100000000E-03 0.  1.
     100001    1    1    2    0    0 -0.16014209587E-01  0.10298312442E-01  0.11725713290E-01  0.50000500000E+01  0.50000000000E+01 0.  1.
     100001    1    1    2    0    0  0.16014209587E-01 -0.10298312442E-01 -0.11725713290E-01  0.50000500000E+01  0.50000000000E+01 0.  1.
</event>
<event>
 4    1  0.5017912E-001  0.5000050E+01  0.7818608E-02  0.2136455E+00
        -11   -1    0    0    0    0  0.00000000000E+00  0.00000000000E+00  0.50000499739E+01  0.50000500000E+01  0.51100000000E-03 0. -1.
         11   -1    0    0    0    0 -0.00000000000E+00 -0.00000000000E+00 -0.50000499739E+01  0.50000500000E+01  0.51100000000E-03 0.  1.
     100001    1    1    2    0    0  0.95636632861E-02  0.17355565621E-01  0.10359690464E-01  0.50000500000E+01  0.50000000000E+01 0. -1.
     100001    1    1    2    0    0 -0.95636632861E-02 -0.17355565621E-01 -0.10359690464E-01  0.50000500000E+01  0.50000000000E+01 0.  1.
</event>
<event>
 4    1  0.5017912E-001  0.5000050E+01  0.7818608E-02  0.2136455E+00
        -11   -1    0    0    0    0  0.00000000000E+00  0.00000000000E+00  0.50000499739E+01  0.50000500000E+01  0.51100000000E-03 0. -1.
         11   -1    0    0    0    0 -0.00000000000E+00 -0.00000000000E+00 -0.50000499739E+01  0.50000500000E+01  0.51100000000E-03 0.  1.
     100001    1    1    2    0    0  0.15498042175E-01  0.78350953619E-02  0.14086322068E-01  0.50000500000E+01  0.50000000000E+01 0. -1.
     100001    1    1    2    0    0 -0.15498042175E-01 -0.78350953619E-02 -0.14086322068E-01  0.50000500000E+01  0.50000000000E+01 0.  1.
</event>
<event>
 4    1  0.5017912E-001  0.5000050E+01  0.7818608E-02  0.2136455E+00
        -11   -1    0    0    0    0  0.00000000000E+00  0.00000000000E+00  0.50000499739E+01  0.50000500000E+01  0.51100000000E-03 0.  1.
         11   -1    0    0    0    0 -0.00000000000E+00 -0.00000000000E+00 -0.50000499739E+01  0.50000500000E+01  0.51100000000E-03 0. -1.
     100001    1    1    2    0    0  0.62176718082E-02  0.17193622452E-01  0.12873321415E-01  0.50000500000E+01  0.50000000000E+01 0.  1.
     100001    1    1    2    0    0 -0.62176718082E-02 -0.17193622452E-01 -0.12873321415E-01  0.50000500000E+01  0.50000000000E+01 0.  1.
</event>
<event>
 4    1  0.5017912E-001  0.5000050E+01  0.7818608E-02  0.2136455E+00
        -11   -1    0    0    0    0  0.00000000000E+00  0.00000000000E+00  0.50000499739E+01  0.50000500000E+01  0.51100000000E-03 0.  1.
         11   -1    0    0    0    0 -0.00000000000E+00 -0.00000000000E+00 -0.50000499739E+01  0.50000500000E+01  0.51100000000E-03 0. -1.
     100001    1    1    2    0    0 -0.14019223760E-01  0.14375305119E-01  0.98394343277E-02  0.50000500000E+01  0.50000000000E+01 0. -1.
     100001    1    1    2    0    0  0.14019223760E-01 -0.14375305119E-01 -0.98394343277E-02  0.50000500000E+01  0.50000000000E+01 0.  0.
</event>
<event>
 4    1  0.5017912E-001  0.5000050E+01  0.7818608E-02  0.2136455E+00
        -11   -1    0    0    0    0  0.00000000000E+00  0.00000000000E+00  0.50000499739E+01  0.50000500000E+01  0.51100000000E-03 0. -1.
         11   -1    0    0    0    0 -0.00000000000E+00 -0.00000000000E+00 -0.50000499739E+01  0.50000500000E+01  0.51100000000E-03 0.  1.
     100001    1    1    2    0    0 -0.77447916142E-02  0.16960827408E-01 -0.12343056205E-01  0.50000500000E+01  0.50000000000E+01 0.  1.
     100001    1    1    2    0    0  0.77447916142E-02 -0.16960827408E-01  0.12343056205E-01  0.50000500000E+01  0.50000000000E+01 0. -1.
</event>
<event>
 4    1  0.5017912E-001  0.5000050E+01  0.7818608E-02  0.2136455E+00
        -11   -1    0    0    0    0  0.00000000000E+00  0.00000000000E+00  0.50000499739E+01  0.50000500000E+01  0.51100000000E-03 0. -1.
         11   -1    0    0    0    0 -0.00000000000E+00 -0.00000000000E+00 -0.50000499739E+01  0.50000500000E+01  0.51100000000E-03 0.  1.
     100001    1    1    2    0    0  0.65014838420E-02 -0.13477488306E-01 -0.16615971738E-01  0.50000500000E+01  0.50000000000E+01 0.  0.
     100001    1    1    2    0    0 -0.65014838420E-02  0.13477488306E-01  0.16615971738E-01  0.50000500000E+01  0.50000000000E+01 0. -1.
</event>
<event>
 4    1  0.5017912E-001  0.5000050E+01  0.7818608E-02  0.2136455E+00
        -11   -1    0    0    0    0  0.00000000000E+00  0.00000000000E+00  0.50000499739E+01  0.50000500000E+01  0.51100000000E-03 0.  1.
         11   -1    0    0    0    0 -0.00000000000E+00 -0.00000000000E+00 -0.50000499739E+01  0.50000500000E+01  0.51100000000E-03 0. -1.
     100001    1    1    2    0    0  0.11840639505E-01  0.16981259722E-01 -0.84521343087E-02  0.50000500000E+01  0.50000000000E+01 0. -1.
     100001    1    1    2    0    0 -0.11840639505E-01 -0.16981259722E-01  0.84521343087E-02  0.50000500000E+01  0.50000000000E+01 0.  1.
</event>
<event>
 4    1  0.5017912E-001  0.5000050E+01  0.7818608E-02  0.2136455E+00
        -11   -1    0    0    0    0  0.00000000000E+00  0.00000000000E+00  0.50000499739E+01  0.50000500000E+01  0.51100000000E-03 0. -1.
         11   -1    0    0    0    0 -0.00000000000E+00 -0.00000000000E+00 -0.50000499739E+01  0.50000500000E+01  0.51100000000E-03 0.  1.
     100001    1    1    2    0    0  0.99970147087E-02  0.17092169684E-02  0.19928391161E-01  0.50000500000E+01  0.50000000000E+01 0. -1.
     100001    1    1    2    0    0 -0.99970147087E-02 -0.17092169684E-02 -0.19928391161E-01  0.50000500000E+01  0.50000000000E+01 0. -1.
</event>
<event>
 4    1  0.5017912E-001  0.5000050E+01  0.7818608E-02  0.2136455E+00
        -11   -1    0    0    0    0  0.00000000000E+00  0.00000000000E+00  0.50000499739E+01  0.50000500000E+01  0.51100000000E-03 0. -1.
         11   -1    0    0    0    0 -0.00000000000E+00 -0.00000000000E+00 -0.50000499739E+01  0.50000500000E+01  0.51100000000E-03 0.  1.
     100001    1    1    2    0    0 -0.82621040555E-02  0.20391496507E-01 -0.39908654184E-02  0.50000500000E+01  0.50000000000E+01 0.  1.
     100001    1    1    2    0    0  0.82621040555E-02 -0.20391496507E-01  0.39908654184E-02  0.50000500000E+01  0.50000000000E+01 0. -1.
</event>
<event>
 4    1  0.5017912E-001  0.5000050E+01  0.7818608E-02  0.2136455E+00
        -11   -1    0    0    0    0  0.00000000000E+00  0.00000000000E+00  0.50000499739E+01  0.50000500000E+01  0.51100000000E-03 0. -1.
         11   -1    0    0    0    0 -0.00000000000E+00 -0.00000000000E+00 -0.50000499739E+01  0.50000500000E+01  0.51100000000E-03 0.  1.
     100001    1    1    2    0    0  0.19230551531E-01 -0.67508768653E-02  0.91985895312E-02  0.50000500000E+01  0.50000000000E+01 0. -1.
     100001    1    1    2    0    0 -0.19230551531E-01  0.67508768653E-02 -0.91985895312E-02  0.50000500000E+01  0.50000000000E+01 0.  1.
</event>
<event>
 4    1  0.5017912E-001  0.5000050E+01  0.7818608E-02  0.2136455E+00
        -11   -1    0    0    0    0  0.00000000000E+00  0.00000000000E+00  0.50000499739E+01  0.50000500000E+01  0.51100000000E-03 0.  1.
         11   -1    0    0    0    0 -0.00000000000E+00 -0.00000000000E+00 -0.50000499739E+01  0.50000500000E+01  0.51100000000E-03 0. -1.
     100001    1    1    2    0    0  0.25986228728E-02  0.21886595596E-01  0.37718155257E-02  0.50000500000E+01  0.50000000000E+01 0. -1.
     100001    1    1    2    0    0 -0.25986228728E-02 -0.21886595596E-01 -0.37718155257E-02  0.50000500000E+01  0.50000000000E+01 0.  1.
</event>
<event>
 4    1  0.5017912E-001  0.5000050E+01  0.7818608E-02  0.2136455E+00
        -11   -1    0    0    0    0  0.00000000000E+00  0.00000000000E+00  0.50000499739E+01  0.50000500000E+01  0.51100000000E-03 0.  1.
         11   -1    0    0    0    0 -0.00000000000E+00 -0.00000000000E+00 -0.50000499739E+01  0.50000500000E+01  0.51100000000E-03 0. -1.
     100001    1    1    2    0    0 -0.20381560110E-01 -0.80611702677E-02 -0.44285484520E-02  0.50000500000E+01  0.50000000000E+01 0.  1.
     100001    1    1    2    0    0  0.20381560110E-01  0.80611702677E-02  0.44285484520E-02  0.50000500000E+01  0.50000000000E+01 0. -1.
</event>
<event>
 4    1  0.5017912E-001  0.5000050E+01  0.7818608E-02  0.2136455E+00
        -11   -1    0    0    0    0  0.00000000000E+00  0.00000000000E+00  0.50000499739E+01  0.50000500000E+01  0.51100000000E-03 0.  1.
         11   -1    0    0    0    0 -0.00000000000E+00 -0.00000000000E+00 -0.50000499739E+01  0.50000500000E+01  0.51100000000E-03 0. -1.
     100001    1    1    2    0    0  0.13139605296E-01  0.17682065800E-01  0.38337738192E-02  0.50000500000E+01  0.50000000000E+01 0.  0.
     100001    1    1    2    0    0 -0.13139605296E-01 -0.17682065800E-01 -0.38337738192E-02  0.50000500000E+01  0.50000000000E+01 0.  1.
</event>
<event>
 4    1  0.5017912E-001  0.5000050E+01  0.7818608E-02  0.2136455E+00
        -11   -1    0    0    0    0  0.00000000000E+00  0.00000000000E+00  0.50000499739E+01  0.50000500000E+01  0.51100000000E-03 0.  1.
         11   -1    0    0    0    0 -0.00000000000E+00 -0.00000000000E+00 -0.50000499739E+01  0.50000500000E+01  0.51100000000E-03 0. -1.
     100001    1    1    2    0    0 -0.78487644877E-03 -0.20226550440E-01 -0.95012170929E-02  0.50000500000E+01  0.50000000000E+01 0.  0.
     100001    1    1    2    0    0  0.78487644877E-03  0.20226550440E-01  0.95012170929E-02  0.50000500000E+01  0.50000000000E+01 0.  0.
</event>
<event>
 4    1  0.5017912E-001  0.5000050E+01  0.7818608E-02  0.2136455E+00
        -11   -1    0    0    0    0  0.00000000000E+00  0.00000000000E+00  0.50000499739E+01  0.50000500000E+01  0.51100000000E-03 0. -1.
         11   -1    0    0    0    0 -0.00000000000E+00 -0.00000000000E+00 -0.50000499739E+01  0.50000500000E+01  0.51100000000E-03 0.  1.
     100001    1    1    2    0    0 -0.78547362283E-02  0.44489613359E-02 -0.20457574681E-01  0.50000500000E+01  0.50000000000E+01 0.  1.
     100001    1    1    2    0    0  0.78547362283E-02 -0.44489613359E-02  0.20457574681E-01  0.50000500000E+01  0.50000000000E+01 0.  0.
</event>
<event>
 4    1  0.5017912E-001  0.5000050E+01  0.7818608E-02  0.2136455E+00
        -11   -1    0    0    0    0  0.00000000000E+00  0.00000000000E+00  0.50000499739E+01  0.50000500000E+01  0.51100000000E-03 0.  1.
         11   -1    0    0    0    0 -0.00000000000E+00 -0.00000000000E+00 -0.50000499739E+01  0.50000500000E+01  0.51100000000E-03 0. -1.
     100001    1    1    2    0    0  0.28756205125E-02  0.80109174432E-02 -0.20677487961E-01  0.50000500000E+01  0.50000000000E+01 0.  1.
     100001    1    1    2    0    0 -0.28756205125E-02 -0.80109174432E-02  0.20677487961E-01  0.50000500000E+01  0.50000000000E+01 0.  1.
</event>
<event>
 4    1  0.5017912E-001  0.5000050E+01  0.7818608E-02  0.2136455E+00
        -11   -1    0    0    0    0  0.00000000000E+00  0.00000000000E+00  0.50000499739E+01  0.50000500000E+01  0.51100000000E-03 0.  1.
         11   -1    0    0    0    0 -0.00000000000E+00 -0.00000000000E+00 -0.50000499739E+01  0.50000500000E+01  0.51100000000E-03 0. -1.
     100001    1    1    2    0    0 -0.79395302536E-02  0.16381866556E-01  0.12984637364E-01  0.50000500000E+01  0.50000000000E+01 0.  1.
     100001    1    1    2    0    0  0.79395302536E-02 -0.16381866556E-01 -0.12984637364E-01  0.50000500000E+01  0.50000000000E+01 0. -1.
</event>
<event>
 4    1  0.5017912E-001  0.5000050E+01  0.7818608E-02  0.2136455E+00
        -11   -1    0    0    0    0  0.00000000000E+00  0.00000000000E+00  0.50000499739E+01  0.50000500000E+01  0.51100000000E-03 0. -1.
         11   -1    0    0    0    0 -0.00000000000E+00 -0.00000000000E+00 -0.50000499739E+01  0.50000500000E+01  0.51100000000E-03 0.  1.
     100001    1    1    2    0    0  0.19042376910E-01  0.10860630657E-01  0.44087507694E-02  0.50000500000E+01  0.50000000000E+01 0.  0.
     100001    1    1    2    0    0 -0.19042376910E-01 -0.10860630657E-01 -0.44087507694E-02  0.50000500000E+01  0.50000000000E+01 0. -1.
</event>
<event>
 4    1  0.5017912E-001  0.5000050E+01  0.7818608E-02  0.2136455E+00
        -11   -1    0    0    0    0  0.00000000000E+00  0.00000000000E+00  0.50000499739E+01  0.50000500000E+01  0.51100000000E-03 0.  1.
         11   -1    0    0    0    0 -0.00000000000E+00 -0.00000000000E+00 -0.50000499739E+01  0.50000500000E+01  0.51100000000E-03 0. -1.
     100001    1    1    2    0    0 -0.57262428479E-02  0.14475623155E-01  0.16052070805E-01  0.50000500000E+01  0.50000000000E+01 0.  0.
     100001    1    1    2    0    0  0.57262428479E-02 -0.14475623155E-01 -0.16052070805E-01  0.50000500000E+01  0.50000000000E+01 0. -1.
</event>
<event>
 4    1  0.5017912E-001  0.5000050E+01  0.7818608E-02  0.2136455E+00
        -11   -1    0    0    0    0  0.00000000000E+00  0.00000000000E+00  0.50000499739E+01  0.50000500000E+01  0.51100000000E-03 0.  1.
         11   -1    0    0    0    0 -0.00000000000E+00 -0.00000000000E+00 -0.50000499739E+01  0.50000500000E+01  0.51100000000E-03 0. -1.
     100001    1    1    2    0    0 -0.14598108751E-01 -0.13139730692E-01  0.10688554544E-01  0.50000500000E+01  0.50000000000E+01 0.  0.
     100001    1    1    2    0    0  0.14598108751E-01  0.13139730692E-01 -0.10688554544E-01  0.50000500000E+01  0.50000000000E+01 0.  0.
</event>
<event>
 4    1  0.5017912E-001  0.5000050E+01  0.7818608E-02  0.2136455E+00
        -11   -1    0    0    0    0  0.00000000000E+00  0.00000000000E+00  0.50000499739E+01  0.50000500000E+01  0.51100000000E-03 0.  1.
         11   -1    0    0    0    0 -0.00000000000E+00 -0.00000000000E+00 -0.50000499739E+01  0.50000500000E+01  0.51100000000E-03 0. -1.
     100001    1    1    2    0    0  0.24232117091E-02 -0.21581029819E-01  0.53281982860E-02  0.50000500000E+01  0.50000000000E+01 0.  0.
     100001    1    1    2    0    0 -0.24232117091E-02  0.21581029819E-01 -0.53281982860E-02  0.50000500000E+01  0.50000000000E+01 0.  1.
</event>
<event>
 4    1  0.5017912E-001  0.5000050E+01  0.7818608E-02  0.2136455E+00
        -11   -1    0    0    0    0  0.00000000000E+00  0.00000000000E+00  0.50000499739E+01  0.50000500000E+01  0.51100000000E-03 0. -1.
         11   -1    0    0    0    0 -0.00000000000E+00 -0.00000000000E+00 -0.50000499739E+01  0.50000500000E+01  0.51100000000E-03 0.  1.
     100001    1    1    2    0    0 -0.17507580103E-02  0.70587426409E-02 -0.21145011202E-01  0.50000500000E+01  0.50000000000E+01 0.  0.
     100001    1    1    2    0    0  0.17507580103E-02 -0.70587426409E-02  0.21145011202E-01  0.50000500000E+01  0.50000000000E+01 0.  0.
</event>
<event>
 4    1  0.5017912E-001  0.5000050E+01  0.7818608E-02  0.2136455E+00
        -11   -1    0    0    0    0  0.00000000000E+00  0.00000000000E+00  0.50000499739E+01  0.50000500000E+01  0.51100000000E-03 0.  1.
         11   -1    0    0    0    0 -0.00000000000E+00 -0.00000000000E+00 -0.50000499739E+01  0.50000500000E+01  0.51100000000E-03 0. -1.
     100001    1    1    2    0    0 -0.17890985673E-01 -0.18188132384E-02  0.13289358527E-01  0.50000500000E+01  0.50000000000E+01 0.  1.
     100001    1    1    2    0    0  0.17890985673E-01  0.18188132384E-02 -0.13289358527E-01  0.50000500000E+01  0.50000000000E+01 0. -1.
</event>
<event>
 4    1  0.5017912E-001  0.5000050E+01  0.7818608E-02  0.2136455E+00
        -11   -1    0    0    0    0  0.00000000000E+00  0.00000000000E+00  0.50000499739E+01  0.50000500000E+01  0.51100000000E-03 0. -1.
         11   -1    0    0    0    0 -0.00000000000E+00 -0.00000000000E+00 -0.50000499739E+01  0.50000500000E+01  0.51100000000E-03 0.  1.
     100001    1    1    2    0    0  0.39613430654E-02 -0.21413288350E-01  0.50775331754E-02  0.50000500000E+01  0.50000000000E+01 0.  0.
     100001    1    1    2    0    0 -0.39613430654E-02  0.21413288350E-01 -0.50775331754E-02  0.50000500000E+01  0.50000000000E+01 0. -1.
</event>
<event>
 4    1  0.5017912E-001  0.5000050E+01  0.7818608E-02  0.2136455E+00
        -11   -1    0    0    0    0  0.00000000000E+00  0.00000000000E+00  0.50000499739E+01  0.50000500000E+01  0.51100000000E-03 0. -1.
         11   -1    0    0    0    0 -0.00000000000E+00 -0.00000000000E+00 -0.50000499739E+01  0.50000500000E+01  0.51100000000E-03 0.  1.
     100001    1    1    2    0    0  0.16524165730E-01  0.49076450391E-02 -0.14243225305E-01  0.50000500000E+01  0.50000000000E+01 0. -1.
     100001    1    1    2    0    0 -0.16524165730E-01 -0.49076450391E-02  0.14243225305E-01  0.50000500000E+01  0.50000000000E+01 0. -1.
</event>
<event>
 4    1  0.5017912E-001  0.5000050E+01  0.7818608E-02  0.2136455E+00
        -11   -1    0    0    0    0  0.00000000000E+00  0.00000000000E+00  0.50000499739E+01  0.50000500000E+01  0.51100000000E-03 0.  1.
         11   -1    0    0    0    0 -0.00000000000E+00 -0.00000000000E+00 -0.50000499739E+01  0.50000500000E+01  0.51100000000E-03 0. -1.
     100001    1    1    2    0    0 -0.19978050837E-01 -0.87893222859E-02 -0.48608433963E-02  0.50000500000E+01  0.50000000000E+01 0.  0.
     100001    1    1    2    0    0  0.19978050837E-01  0.87893222859E-02  0.48608433963E-02  0.50000500000E+01  0.50000000000E+01 0.  1.
</event>
<event>
 4    1  0.5017912E-001  0.5000050E+01  0.7818608E-02  0.2136455E+00
        -11   -1    0    0    0    0  0.00000000000E+00  0.00000000000E+00  0.50000499739E+01  0.50000500000E+01  0.51100000000E-03 0.  1.
         11   -1    0    0    0    0 -0.00000000000E+00 -0.00000000000E+00 -0.50000499739E+01  0.50000500000E+01  0.51100000000E-03 0. -1.
     100001    1    1    2    0    0 -0.10616909011E-02 -0.35521735050E-02  0.22051244315E-01  0.50000500000E+01  0.50000000000E+01 0.  1.
     100001    1    1    2    0    0  0.10616909011E-02  0.35521735050E-02 -0.22051244315E-01  0.50000500000E+01  0.50000000000E+01 0.  0.
</event>
<event>
 4    1  0.5017912E-001  0.5000050E+01  0.7818608E-02  0.2136455E+00
        -11   -1    0    0    0    0  0.00000000000E+00  0.00000000000E+00  0.50000499739E+01  0.50000500000E+01  0.51100000000E-03 0.  1.
         11   -1    0    0    0    0 -0.00000000000E+00 -0.00000000000E+00 -0.50000499739E+01  0.50000500000E+01  0.51100000000E-03 0. -1.
     100001    1    1    2    0    0 -0.18882122728E-01 -0.11585174814E-01 -0.30416551076E-02  0.50000500000E+01  0.50000000000E+01 0.  1.
     100001    1    1    2    0    0  0.18882122728E-01  0.11585174814E-01  0.30416551076E-02  0.50000500000E+01  0.50000000000E+01 0. -1.
</event>
<event>
 4    1  0.5017912E-001  0.5000050E+01  0.7818608E-02  0.2136455E+00
        -11   -1    0    0    0    0  0.00000000000E+00  0.00000000000E+00  0.50000499739E+01  0.50000500000E+01  0.51100000000E-03 0. -1.
         11   -1    0    0    0    0 -0.00000000000E+00 -0.00000000000E+00 -0.50000499739E+01  0.50000500000E+01  0.51100000000E-03 0.  1.
     100001    1    1    2    0    0 -0.46725548640E-02  0.84137556361E-02  0.20183618287E-01  0.50000500000E+01  0.50000000000E+01 0. -1.
     100001    1    1    2    0    0  0.46725548640E-02 -0.84137556361E-02 -0.20183618287E-01  0.50000500000E+01  0.50000000000E+01 0.  1.
</event>
<event>
 4    1  0.5017912E-001  0.5000050E+01  0.7818608E-02  0.2136455E+00
        -11   -1    0    0    0    0  0.00000000000E+00  0.00000000000E+00  0.50000499739E+01  0.50000500000E+01  0.51100000000E-03 0.  1.
         11   -1    0    0    0    0 -0.00000000000E+00 -0.00000000000E+00 -0.50000499739E+01  0.50000500000E+01  0.51100000000E-03 0. -1.
     100001    1    1    2    0    0  0.15646095403E-01 -0.10840356249E-01 -0.11734090294E-01  0.50000500000E+01  0.50000000000E+01 0.  0.
     100001    1    1    2    0    0 -0.15646095403E-01  0.10840356249E-01  0.11734090294E-01  0.50000500000E+01  0.50000000000E+01 0. -1.
</event>
<event>
 4    1  0.5017912E-001  0.5000050E+01  0.7818608E-02  0.2136455E+00
        -11   -1    0    0    0    0  0.00000000000E+00  0.00000000000E+00  0.50000499739E+01  0.50000500000E+01  0.51100000000E-03 0. -1.
         11   -1    0    0    0    0 -0.00000000000E+00 -0.00000000000E+00 -0.50000499739E+01  0.50000500000E+01  0.51100000000E-03 0.  1.
     100001    1    1    2    0    0  0.77716938734E-02 -0.95650649818E-02  0.18657781386E-01  0.50000500000E+01  0.50000000000E+01 0.  0.
     100001    1    1    2    0    0 -0.77716938734E-02  0.95650649818E-02 -0.18657781386E-01  0.50000500000E+01  0.50000000000E+01 0.  0.
</event>
<event>
 4    1  0.5017912E-001  0.5000050E+01  0.7818608E-02  0.2136455E+00
        -11   -1    0    0    0    0  0.00000000000E+00  0.00000000000E+00  0.50000499739E+01  0.50000500000E+01  0.51100000000E-03 0. -1.
         11   -1    0    0    0    0 -0.00000000000E+00 -0.00000000000E+00 -0.50000499739E+01  0.50000500000E+01  0.51100000000E-03 0.  1.
     100001    1    1    2    0    0 -0.18120489634E-01  0.86062060565E-02 -0.98784397926E-02  0.50000500000E+01  0.50000000000E+01 0. -1.
     100001    1    1    2    0    0  0.18120489634E-01 -0.86062060565E-02  0.98784397926E-02  0.50000500000E+01  0.50000000000E+01 0. -1.
</event>
<event>
 4    1  0.5017912E-001  0.5000050E+01  0.7818608E-02  0.2136455E+00
        -11   -1    0    0    0    0  0.00000000000E+00  0.00000000000E+00  0.50000499739E+01  0.50000500000E+01  0.51100000000E-03 0.  1.
         11   -1    0    0    0    0 -0.00000000000E+00 -0.00000000000E+00 -0.50000499739E+01  0.50000500000E+01  0.51100000000E-03 0. -1.
     100001    1    1    2    0    0 -0.17833147488E-01 -0.96562486336E-02  0.94200962305E-02  0.50000500000E+01  0.50000000000E+01 0.  1.
     100001    1    1    2    0    0  0.17833147488E-01  0.96562486336E-02 -0.94200962305E-02  0.50000500000E+01  0.50000000000E+01 0. -1.
</event>
<event>
 4    1  0.5017912E-001  0.5000050E+01  0.7818608E-02  0.2136455E+00
        -11   -1    0    0    0    0  0.00000000000E+00  0.00000000000E+00  0.50000499739E+01  0.50000500000E+01  0.51100000000E-03 0. -1.
         11   -1    0    0    0    0 -0.00000000000E+00 -0.00000000000E+00 -0.50000499739E+01  0.50000500000E+01  0.51100000000E-03 0.  1.
     100001    1    1    2    0    0 -0.20126309593E-01 -0.40769983495E-02  0.88494206935E-02  0.50000500000E+01  0.50000000000E+01 0. -1.
     100001    1    1    2    0    0  0.20126309593E-01  0.40769983495E-02 -0.88494206935E-02  0.50000500000E+01  0.50000000000E+01 0.  0.
</event>
<event>
 4    1  0.5017912E-001  0.5000050E+01  0.7818608E-02  0.2136455E+00
        -11   -1    0    0    0    0  0.00000000000E+00  0.00000000000E+00  0.50000499739E+01  0.50000500000E+01  0.51100000000E-03 0. -1.
         11   -1    0    0    0    0 -0.00000000000E+00 -0.00000000000E+00 -0.50000499739E+01  0.50000500000E+01  0.51100000000E-03 0.  1.
     100001    1    1    2    0    0 -0.80601141956E-02 -0.20690082034E-01  0.26377195809E-02  0.50000500000E+01  0.50000000000E+01 0.  0.
     100001    1    1    2    0    0  0.80601141956E-02  0.20690082034E-01 -0.26377195809E-02  0.50000500000E+01  0.50000000000E+01 0.  1.
</event>
<event>
 4    1  0.5017912E-001  0.5000050E+01  0.7818608E-02  0.2136455E+00
        -11   -1    0    0    0    0  0.00000000000E+00  0.00000000000E+00  0.50000499739E+01  0.50000500000E+01  0.51100000000E-03 0. -1.
         11   -1    0    0    0    0 -0.00000000000E+00 -0.00000000000E+00 -0.50000499739E+01  0.50000500000E+01  0.51100000000E-03 0.  1.
     100001    1    1    2    0    0 -0.13262212379E-01 -0.67369035803E-02 -0.16695219464E-01  0.50000500000E+01  0.50000000000E+01 0.  1.
     100001    1    1    2    0    0  0.13262212379E-01  0.67369035803E-02  0.16695219464E-01  0.50000500000E+01  0.50000000000E+01 0. -1.
</event>
<event>
 4    1  0.5017912E-001  0.5000050E+01  0.7818608E-02  0.2136455E+00
        -11   -1    0    0    0    0  0.00000000000E+00  0.00000000000E+00  0.50000499739E+01  0.50000500000E+01  0.51100000000E-03 0.  1.
         11   -1    0    0    0    0 -0.00000000000E+00 -0.00000000000E+00 -0.50000499739E+01  0.50000500000E+01  0.51100000000E-03 0. -1.
     100001    1    1    2    0    0  0.49196809825E-02 -0.19226110686E-01  0.10303198868E-01  0.50000500000E+01  0.50000000000E+01 0.  1.
     100001    1    1    2    0    0 -0.49196809825E-02  0.19226110686E-01 -0.10303198868E-01  0.50000500000E+01  0.50000000000E+01 0. -1.
</event>
<event>
 4    1  0.5017912E-001  0.5000050E+01  0.7818608E-02  0.2136455E+00
        -11   -1    0    0    0    0  0.00000000000E+00  0.00000000000E+00  0.50000499739E+01  0.50000500000E+01  0.51100000000E-03 0. -1.
         11   -1    0    0    0    0 -0.00000000000E+00 -0.00000000000E+00 -0.50000499739E+01  0.50000500000E+01  0.51100000000E-03 0.  1.
     100001    1    1    2    0    0  0.39380968653E-02 -0.12541060219E-01 -0.18089104501E-01  0.50000500000E+01  0.50000000000E+01 0.  0.
     100001    1    1    2    0    0 -0.39380968653E-02  0.12541060219E-01  0.18089104501E-01  0.50000500000E+01  0.50000000000E+01 0. -1.
</event>
<event>
 4    1  0.5017912E-001  0.5000050E+01  0.7818608E-02  0.2136455E+00
        -11   -1    0    0    0    0  0.00000000000E+00  0.00000000000E+00  0.50000499739E+01  0.50000500000E+01  0.51100000000E-03 0. -1.
         11   -1    0    0    0    0 -0.00000000000E+00 -0.00000000000E+00 -0.50000499739E+01  0.50000500000E+01  0.51100000000E-03 0.  1.
     100001    1    1    2    0    0 -0.31481856140E-02  0.17331279647E-01 -0.13773822024E-01  0.50000500000E+01  0.50000000000E+01 0.  0.
     100001    1    1    2    0    0  0.31481856140E-02 -0.17331279647E-01  0.13773822024E-01  0.50000500000E+01  0.50000000000E+01 0.  1.
</event>
<event>
 4    1  0.5017912E-001  0.5000050E+01  0.7818608E-02  0.2136455E+00
        -11   -1    0    0    0    0  0.00000000000E+00  0.00000000000E+00  0.50000499739E+01  0.50000500000E+01  0.51100000000E-03 0.  1.
         11   -1    0    0    0    0 -0.00000000000E+00 -0.00000000000E+00 -0.50000499739E+01  0.50000500000E+01  0.51100000000E-03 0. -1.
     100001    1    1    2    0    0  0.10815513988E-01  0.62814649492E-02  0.18535650926E-01  0.50000500000E+01  0.50000000000E+01 0.  0.
     100001    1    1    2    0    0 -0.10815513988E-01 -0.62814649492E-02 -0.18535650926E-01  0.50000500000E+01  0.50000000000E+01 0.  0.
</event>
<event>
 4    1  0.5017912E-001  0.5000050E+01  0.7818608E-02  0.2136455E+00
        -11   -1    0    0    0    0  0.00000000000E+00  0.00000000000E+00  0.50000499739E+01  0.50000500000E+01  0.51100000000E-03 0.  1.
         11   -1    0    0    0    0 -0.00000000000E+00 -0.00000000000E+00 -0.50000499739E+01  0.50000500000E+01  0.51100000000E-03 0. -1.
     100001    1    1    2    0    0 -0.19376799207E-02  0.20480711851E-01 -0.87628955596E-02  0.50000500000E+01  0.50000000000E+01 0. -1.
     100001    1    1    2    0    0  0.19376799207E-02 -0.20480711851E-01  0.87628955596E-02  0.50000500000E+01  0.50000000000E+01 0.  1.
</event>
<event>
 4    1  0.5017912E-001  0.5000050E+01  0.7818608E-02  0.2136455E+00
        -11   -1    0    0    0    0  0.00000000000E+00  0.00000000000E+00  0.50000499739E+01  0.50000500000E+01  0.51100000000E-03 0. -1.
         11   -1    0    0    0    0 -0.00000000000E+00 -0.00000000000E+00 -0.50000499739E+01  0.50000500000E+01  0.51100000000E-03 0.  1.
     100001    1    1    2    0    0  0.14996875072E-01 -0.64454134267E-02 -0.15282437104E-01  0.50000500000E+01  0.50000000000E+01 0.  1.
     100001    1    1    2    0    0 -0.14996875072E-01  0.64454134267E-02  0.15282437104E-01  0.50000500000E+01  0.50000000000E+01 0. -1.
</event>
<event>
 4    1  0.5017912E-001  0.5000050E+01  0.7818608E-02  0.2136455E+00
        -11   -1    0    0    0    0  0.00000000000E+00  0.00000000000E+00  0.50000499739E+01  0.50000500000E+01  0.51100000000E-03 0.  1.
         11   -1    0    0    0    0 -0.00000000000E+00 -0.00000000000E+00 -0.50000499739E+01  0.50000500000E+01  0.51100000000E-03 0. -1.
     100001    1    1    2    0    0  0.10769241266E-01  0.18303641586E-01 -0.70001890858E-02  0.50000500000E+01  0.50000000000E+01 0.  0.
     100001    1    1    2    0    0 -0.10769241266E-01 -0.18303641586E-01  0.70001890858E-02  0.50000500000E+01  0.50000000000E+01 0.  0.
</event>
<event>
 4    1  0.5017912E-001  0.5000050E+01  0.7818608E-02  0.2136455E+00
        -11   -1    0    0    0    0  0.00000000000E+00  0.00000000000E+00  0.50000499739E+01  0.50000500000E+01  0.51100000000E-03 0.  1.
         11   -1    0    0    0    0 -0.00000000000E+00 -0.00000000000E+00 -0.50000499739E+01  0.50000500000E+01  0.51100000000E-03 0. -1.
     100001    1    1    2    0    0 -0.43157886973E-02 -0.75102106777E-02  0.20614878207E-01  0.50000500000E+01  0.50000000000E+01 0.  0.
     100001    1    1    2    0    0  0.43157886973E-02  0.75102106777E-02 -0.20614878207E-01  0.50000500000E+01  0.50000000000E+01 0. -1.
</event>
<event>
 4    1  0.5017912E-001  0.5000050E+01  0.7818608E-02  0.2136455E+00
        -11   -1    0    0    0    0  0.00000000000E+00  0.00000000000E+00  0.50000499739E+01  0.50000500000E+01  0.51100000000E-03 0. -1.
         11   -1    0    0    0    0 -0.00000000000E+00 -0.00000000000E+00 -0.50000499739E+01  0.50000500000E+01  0.51100000000E-03 0.  1.
     100001    1    1    2    0    0  0.54628326314E-02 -0.13474447982E-01 -0.16988208005E-01  0.50000500000E+01  0.50000000000E+01 0. -1.
     100001    1    1    2    0    0 -0.54628326314E-02  0.13474447982E-01  0.16988208005E-01  0.50000500000E+01  0.50000000000E+01 0. -1.
</event>
<event>
 4    1  0.5017912E-001  0.5000050E+01  0.7818608E-02  0.2136455E+00
        -11   -1    0    0    0    0  0.00000000000E+00  0.00000000000E+00  0.50000499739E+01  0.50000500000E+01  0.51100000000E-03 0. -1.
         11   -1    0    0    0    0 -0.00000000000E+00 -0.00000000000E+00 -0.50000499739E+01  0.50000500000E+01  0.51100000000E-03 0.  1.
     100001    1    1    2    0    0  0.21042621650E-01  0.36044257048E-02  0.66497134862E-02  0.50000500000E+01  0.50000000000E+01 0.  1.
     100001    1    1    2    0    0 -0.21042621650E-01 -0.36044257048E-02 -0.66497134862E-02  0.50000500000E+01  0.50000000000E+01 0.  0.
</event>
<event>
 4    1  0.5017912E-001  0.5000050E+01  0.7818608E-02  0.2136455E+00
        -11   -1    0    0    0    0  0.00000000000E+00  0.00000000000E+00  0.50000499739E+01  0.50000500000E+01  0.51100000000E-03 0.  1.
         11   -1    0    0    0    0 -0.00000000000E+00 -0.00000000000E+00 -0.50000499739E+01  0.50000500000E+01  0.51100000000E-03 0. -1.
     100001    1    1    2    0    0  0.14270274135E-01  0.54604229413E-02  0.16326222999E-01  0.50000500000E+01  0.50000000000E+01 0.  0.
     100001    1    1    2    0    0 -0.14270274135E-01 -0.54604229413E-02 -0.16326222999E-01  0.50000500000E+01  0.50000000000E+01 0.  0.
</event>
<event>
 4    1  0.5017912E-001  0.5000050E+01  0.7818608E-02  0.2136455E+00
        -11   -1    0    0    0    0  0.00000000000E+00  0.00000000000E+00  0.50000499739E+01  0.50000500000E+01  0.51100000000E-03 0. -1.
         11   -1    0    0    0    0 -0.00000000000E+00 -0.00000000000E+00 -0.50000499739E+01  0.50000500000E+01  0.51100000000E-03 0.  1.
     100001    1    1    2    0    0  0.12941011553E-01  0.14486415065E-01 -0.11075942332E-01  0.50000500000E+01  0.50000000000E+01 0.  1.
     100001    1    1    2    0    0 -0.12941011553E-01 -0.14486415065E-01  0.11075942332E-01  0.50000500000E+01  0.50000000000E+01 0.  1.
</event>
<event>
 4    1  0.5017912E-001  0.5000050E+01  0.7818608E-02  0.2136455E+00
        -11   -1    0    0    0    0  0.00000000000E+00  0.00000000000E+00  0.50000499739E+01  0.50000500000E+01  0.51100000000E-03 0. -1.
         11   -1    0    0    0    0 -0.00000000000E+00 -0.00000000000E+00 -0.50000499739E+01  0.50000500000E+01  0.51100000000E-03 0.  1.
     100001    1    1    2    0    0  0.10895771565E-01  0.95699989237E-02 -0.17020569397E-01  0.50000500000E+01  0.50000000000E+01 0.  0.
     100001    1    1    2    0    0 -0.10895771565E-01 -0.95699989237E-02  0.17020569397E-01  0.50000500000E+01  0.50000000000E+01 0.  0.
</event>
<event>
 4    1  0.5017912E-001  0.5000050E+01  0.7818608E-02  0.2136455E+00
        -11   -1    0    0    0    0  0.00000000000E+00  0.00000000000E+00  0.50000499739E+01  0.50000500000E+01  0.51100000000E-03 0. -1.
         11   -1    0    0    0    0 -0.00000000000E+00 -0.00000000000E+00 -0.50000499739E+01  0.50000500000E+01  0.51100000000E-03 0.  1.
     100001    1    1    2    0    0  0.13010999915E-02  0.19000586211E-01  0.11716968996E-01  0.50000500000E+01  0.50000000000E+01 0. -1.
     100001    1    1    2    0    0 -0.13010999915E-02 -0.19000586211E-01 -0.11716968996E-01  0.50000500000E+01  0.50000000000E+01 0. -1.
</event>
<event>
 4    1  0.5017912E-001  0.5000050E+01  0.7818608E-02  0.2136455E+00
        -11   -1    0    0    0    0  0.00000000000E+00  0.00000000000E+00  0.50000499739E+01  0.50000500000E+01  0.51100000000E-03 0. -1.
         11   -1    0    0    0    0 -0.00000000000E+00 -0.00000000000E+00 -0.50000499739E+01  0.50000500000E+01  0.51100000000E-03 0.  1.
     100001    1    1    2    0    0  0.44120180184E-02 -0.45853431504E-03  0.21916348767E-01  0.50000500000E+01  0.50000000000E+01 0. -1.
     100001    1    1    2    0    0 -0.44120180184E-02  0.45853431504E-03 -0.21916348767E-01  0.50000500000E+01  0.50000000000E+01 0.  0.
</event>
<event>
 4    1  0.5017912E-001  0.5000050E+01  0.7818608E-02  0.2136455E+00
        -11   -1    0    0    0    0  0.00000000000E+00  0.00000000000E+00  0.50000499739E+01  0.50000500000E+01  0.51100000000E-03 0.  1.
         11   -1    0    0    0    0 -0.00000000000E+00 -0.00000000000E+00 -0.50000499739E+01  0.50000500000E+01  0.51100000000E-03 0. -1.
     100001    1    1    2    0    0  0.55828655665E-02  0.21645805762E-01  0.54148406569E-03  0.50000500000E+01  0.50000000000E+01 0. -1.
     100001    1    1    2    0    0 -0.55828655665E-02 -0.21645805762E-01 -0.54148406569E-03  0.50000500000E+01  0.50000000000E+01 0.  1.
</event>
<event>
 4    1  0.5017912E-001  0.5000050E+01  0.7818608E-02  0.2136455E+00
        -11   -1    0    0    0    0  0.00000000000E+00  0.00000000000E+00  0.50000499739E+01  0.50000500000E+01  0.51100000000E-03 0.  1.
         11   -1    0    0    0    0 -0.00000000000E+00 -0.00000000000E+00 -0.50000499739E+01  0.50000500000E+01  0.51100000000E-03 0. -1.
     100001    1    1    2    0    0 -0.10074054451E-01 -0.74969268300E-02  0.18501676006E-01  0.50000500000E+01  0.50000000000E+01 0.  1.
     100001    1    1    2    0    0  0.10074054451E-01  0.74969268300E-02 -0.18501676006E-01  0.50000500000E+01  0.50000000000E+01 0. -1.
</event>
<event>
 4    1  0.5017912E-001  0.5000050E+01  0.7818608E-02  0.2136455E+00
        -11   -1    0    0    0    0  0.00000000000E+00  0.00000000000E+00  0.50000499739E+01  0.50000500000E+01  0.51100000000E-03 0. -1.
         11   -1    0    0    0    0 -0.00000000000E+00 -0.00000000000E+00 -0.50000499739E+01  0.50000500000E+01  0.51100000000E-03 0.  1.
     100001    1    1    2    0    0  0.20937337263E-02 -0.13431791533E-01  0.17754034902E-01  0.50000500000E+01  0.50000000000E+01 0. -1.
     100001    1    1    2    0    0 -0.20937337263E-02  0.13431791533E-01 -0.17754034902E-01  0.50000500000E+01  0.50000000000E+01 0.  0.
</event>
<event>
 4    1  0.5017912E-001  0.5000050E+01  0.7818608E-02  0.2136455E+00
        -11   -1    0    0    0    0  0.00000000000E+00  0.00000000000E+00  0.50000499739E+01  0.50000500000E+01  0.51100000000E-03 0.  1.
         11   -1    0    0    0    0 -0.00000000000E+00 -0.00000000000E+00 -0.50000499739E+01  0.50000500000E+01  0.51100000000E-03 0. -1.
     100001    1    1    2    0    0  0.12609489477E-01 -0.13223036476E-01  0.12890096256E-01  0.50000500000E+01  0.50000000000E+01 0.  0.
     100001    1    1    2    0    0 -0.12609489477E-01  0.13223036476E-01 -0.12890096256E-01  0.50000500000E+01  0.50000000000E+01 0.  1.
</event>
<event>
 4    1  0.5017912E-001  0.5000050E+01  0.7818608E-02  0.2136455E+00
        -11   -1    0    0    0    0  0.00000000000E+00  0.00000000000E+00  0.50000499739E+01  0.50000500000E+01  0.51100000000E-03 0. -1.
         11   -1    0    0    0    0 -0.00000000000E+00 -0.00000000000E+00 -0.50000499739E+01  0.50000500000E+01  0.51100000000E-03 0.  1.
     100001    1    1    2    0    0  0.13049607474E-01 -0.64781544801E-02  0.16963011504E-01  0.50000500000E+01  0.50000000000E+01 0. -1.
     100001    1    1    2    0    0 -0.13049607474E-01  0.64781544801E-02 -0.16963011504E-01  0.50000500000E+01  0.50000000000E+01 0.  1.
</event>
<event>
 4    1  0.5017912E-001  0.5000050E+01  0.7818608E-02  0.2136455E+00
        -11   -1    0    0    0    0  0.00000000000E+00  0.00000000000E+00  0.50000499739E+01  0.50000500000E+01  0.51100000000E-03 0. -1.
         11   -1    0    0    0    0 -0.00000000000E+00 -0.00000000000E+00 -0.50000499739E+01  0.50000500000E+01  0.51100000000E-03 0.  1.
     100001    1    1    2    0    0  0.14653713130E-01  0.15820165781E-01 -0.59155343071E-02  0.50000500000E+01  0.50000000000E+01 0.  0.
     100001    1    1    2    0    0 -0.14653713130E-01 -0.15820165781E-01  0.59155343071E-02  0.50000500000E+01  0.50000000000E+01 0.  1.
</event>
<event>
 4    1  0.5017912E-001  0.5000050E+01  0.7818608E-02  0.2136455E+00
        -11   -1    0    0    0    0  0.00000000000E+00  0.00000000000E+00  0.50000499739E+01  0.50000500000E+01  0.51100000000E-03 0.  1.
         11   -1    0    0    0    0 -0.00000000000E+00 -0.00000000000E+00 -0.50000499739E+01  0.50000500000E+01  0.51100000000E-03 0. -1.
     100001    1    1    2    0    0 -0.11255205323E-01 -0.17814675006E-01 -0.74806555586E-02  0.50000500000E+01  0.50000000000E+01 0. -1.
     100001    1    1    2    0    0  0.11255205323E-01  0.17814675006E-01  0.74806555586E-02  0.50000500000E+01  0.50000000000E+01 0.  0.
</event>
<event>
 4    1  0.5017912E-001  0.5000050E+01  0.7818608E-02  0.2136455E+00
        -11   -1    0    0    0    0  0.00000000000E+00  0.00000000000E+00  0.50000499739E+01  0.50000500000E+01  0.51100000000E-03 0. -1.
         11   -1    0    0    0    0 -0.00000000000E+00 -0.00000000000E+00 -0.50000499739E+01  0.50000500000E+01  0.51100000000E-03 0.  1.
     100001    1    1    2    0    0 -0.22555988243E-02 -0.12392795721E-01 -0.18475210098E-01  0.50000500000E+01  0.50000000000E+01 0.  1.
     100001    1    1    2    0    0  0.22555988243E-02  0.12392795721E-01  0.18475210098E-01  0.50000500000E+01  0.50000000000E+01 0. -1.
</event>
<event>
 4    1  0.5017912E-001  0.5000050E+01  0.7818608E-02  0.2136455E+00
        -11   -1    0    0    0    0  0.00000000000E+00  0.00000000000E+00  0.50000499739E+01  0.50000500000E+01  0.51100000000E-03 0.  1.
         11   -1    0    0    0    0 -0.00000000000E+00 -0.00000000000E+00 -0.50000499739E+01  0.50000500000E+01  0.51100000000E-03 0. -1.
     100001    1    1    2    0    0  0.94783642999E-02 -0.20140009221E-01 -0.21314639989E-02  0.50000500000E+01  0.50000000000E+01 0. -1.
     100001    1    1    2    0    0 -0.94783642999E-02  0.20140009221E-01  0.21314639989E-02  0.50000500000E+01  0.50000000000E+01 0.  1.
</event>
<event>
 4    1  0.5017912E-001  0.5000050E+01  0.7818608E-02  0.2136455E+00
        -11   -1    0    0    0    0  0.00000000000E+00  0.00000000000E+00  0.50000499739E+01  0.50000500000E+01  0.51100000000E-03 0.  1.
         11   -1    0    0    0    0 -0.00000000000E+00 -0.00000000000E+00 -0.50000499739E+01  0.50000500000E+01  0.51100000000E-03 0. -1.
     100001    1    1    2    0    0  0.13726108998E-01  0.13880348535E-01  0.10905611230E-01  0.50000500000E+01  0.50000000000E+01 0. -1.
     100001    1    1    2    0    0 -0.13726108998E-01 -0.13880348535E-01 -0.10905611230E-01  0.50000500000E+01  0.50000000000E+01 0.  0.
</event>
<event>
 4    1  0.5017912E-001  0.5000050E+01  0.7818608E-02  0.2136455E+00
        -11   -1    0    0    0    0  0.00000000000E+00  0.00000000000E+00  0.50000499739E+01  0.50000500000E+01  0.51100000000E-03 0. -1.
         11   -1    0    0    0    0 -0.00000000000E+00 -0.00000000000E+00 -0.50000499739E+01  0.50000500000E+01  0.51100000000E-03 0.  1.
     100001    1    1    2    0    0 -0.22187230059E-01 -0.27579062475E-02 -0.35110601892E-03  0.50000500000E+01  0.50000000000E+01 0. -1.
     100001    1    1    2    0    0  0.22187230059E-01  0.27579062475E-02  0.35110601892E-03  0.50000500000E+01  0.50000000000E+01 0.  1.
</event>
<event>
 4    1  0.5017912E-001  0.5000050E+01  0.7818608E-02  0.2136455E+00
        -11   -1    0    0    0    0  0.00000000000E+00  0.00000000000E+00  0.50000499739E+01  0.50000500000E+01  0.51100000000E-03 0.  1.
         11   -1    0    0    0    0 -0.00000000000E+00 -0.00000000000E+00 -0.50000499739E+01  0.50000500000E+01  0.51100000000E-03 0. -1.
     100001    1    1    2    0    0  0.84568228198E-02 -0.17213937979E-01  0.11496303191E-01  0.50000500000E+01  0.50000000000E+01 0.  0.
     100001    1    1    2    0    0 -0.84568228198E-02  0.17213937979E-01 -0.11496303191E-01  0.50000500000E+01  0.50000000000E+01 0.  0.
</event>
<event>
 4    1  0.5017912E-001  0.5000050E+01  0.7818608E-02  0.2136455E+00
        -11   -1    0    0    0    0  0.00000000000E+00  0.00000000000E+00  0.50000499739E+01  0.50000500000E+01  0.51100000000E-03 0.  1.
         11   -1    0    0    0    0 -0.00000000000E+00 -0.00000000000E+00 -0.50000499739E+01  0.50000500000E+01  0.51100000000E-03 0. -1.
     100001    1    1    2    0    0 -0.98754297724E-02 -0.87540301217E-02 -0.18051186760E-01  0.50000500000E+01  0.50000000000E+01 0.  0.
     100001    1    1    2    0    0  0.98754297724E-02  0.87540301217E-02  0.18051186760E-01  0.50000500000E+01  0.50000000000E+01 0.  1.
</event>
<event>
 4    1  0.5017912E-001  0.5000050E+01  0.7818608E-02  0.2136455E+00
        -11   -1    0    0    0    0  0.00000000000E+00  0.00000000000E+00  0.50000499739E+01  0.50000500000E+01  0.51100000000E-03 0.  1.
         11   -1    0    0    0    0 -0.00000000000E+00 -0.00000000000E+00 -0.50000499739E+01  0.50000500000E+01  0.51100000000E-03 0. -1.
     100001    1    1    2    0    0 -0.89521980674E-02 -0.85027919272E-02  0.18643046403E-01  0.50000500000E+01  0.50000000000E+01 0.  0.
     100001    1    1    2    0    0  0.89521980674E-02  0.85027919272E-02 -0.18643046403E-01  0.50000500000E+01  0.50000000000E+01 0.  0.
</event>
<event>
 4    1  0.5017912E-001  0.5000050E+01  0.7818608E-02  0.2136455E+00
        -11   -1    0    0    0    0  0.00000000000E+00  0.00000000000E+00  0.50000499739E+01  0.50000500000E+01  0.51100000000E-03 0. -1.
         11   -1    0    0    0    0 -0.00000000000E+00 -0.00000000000E+00 -0.50000499739E+01  0.50000500000E+01  0.51100000000E-03 0.  1.
     100001    1    1    2    0    0  0.18754514899E-01 -0.59110422926E-02  0.10645668130E-01  0.50000500000E+01  0.50000000000E+01 0.  0.
     100001    1    1    2    0    0 -0.18754514899E-01  0.59110422926E-02 -0.10645668130E-01  0.50000500000E+01  0.50000000000E+01 0.  0.
</event>
<event>
 4    1  0.5017912E-001  0.5000050E+01  0.7818608E-02  0.2136455E+00
        -11   -1    0    0    0    0  0.00000000000E+00  0.00000000000E+00  0.50000499739E+01  0.50000500000E+01  0.51100000000E-03 0.  1.
         11   -1    0    0    0    0 -0.00000000000E+00 -0.00000000000E+00 -0.50000499739E+01  0.50000500000E+01  0.51100000000E-03 0. -1.
     100001    1    1    2    0    0  0.12099094602E-01  0.17726084149E-01  0.62769698543E-02  0.50000500000E+01  0.50000000000E+01 0.  1.
     100001    1    1    2    0    0 -0.12099094602E-01 -0.17726084149E-01 -0.62769698543E-02  0.50000500000E+01  0.50000000000E+01 0. -1.
</event>
<event>
 4    1  0.5017912E-001  0.5000050E+01  0.7818608E-02  0.2136455E+00
        -11   -1    0    0    0    0  0.00000000000E+00  0.00000000000E+00  0.50000499739E+01  0.50000500000E+01  0.51100000000E-03 0.  1.
         11   -1    0    0    0    0 -0.00000000000E+00 -0.00000000000E+00 -0.50000499739E+01  0.50000500000E+01  0.51100000000E-03 0. -1.
     100001    1    1    2    0    0 -0.23588694371E-02  0.21549639733E-01  0.54819031682E-02  0.50000500000E+01  0.50000000000E+01 0.  1.
     100001    1    1    2    0    0  0.23588694371E-02 -0.21549639733E-01 -0.54819031682E-02  0.50000500000E+01  0.50000000000E+01 0. -1.
</event>
<event>
 4    1  0.5017912E-001  0.5000050E+01  0.7818608E-02  0.2136455E+00
        -11   -1    0    0    0    0  0.00000000000E+00  0.00000000000E+00  0.50000499739E+01  0.50000500000E+01  0.51100000000E-03 0. -1.
         11   -1    0    0    0    0 -0.00000000000E+00 -0.00000000000E+00 -0.50000499739E+01  0.50000500000E+01  0.51100000000E-03 0.  1.
     100001    1    1    2    0    0 -0.41280003855E-03  0.10586629587E-04  0.22356922508E-01  0.50000500000E+01  0.50000000000E+01 0.  0.
     100001    1    1    2    0    0  0.41280003855E-03 -0.10586629587E-04 -0.22356922508E-01  0.50000500000E+01  0.50000000000E+01 0.  1.
</event>
<event>
 4    1  0.5017912E-001  0.5000050E+01  0.7818608E-02  0.2136455E+00
        -11   -1    0    0    0    0  0.00000000000E+00  0.00000000000E+00  0.50000499739E+01  0.50000500000E+01  0.51100000000E-03 0. -1.
         11   -1    0    0    0    0 -0.00000000000E+00 -0.00000000000E+00 -0.50000499739E+01  0.50000500000E+01  0.51100000000E-03 0.  1.
     100001    1    1    2    0    0 -0.38002728584E-02  0.21807605866E-01  0.31604987908E-02  0.50000500000E+01  0.50000000000E+01 0. -1.
     100001    1    1    2    0    0  0.38002728584E-02 -0.21807605866E-01 -0.31604987908E-02  0.50000500000E+01  0.50000000000E+01 0.  1.
</event>
<event>
 4    1  0.5017912E-001  0.5000050E+01  0.7818608E-02  0.2136455E+00
        -11   -1    0    0    0    0  0.00000000000E+00  0.00000000000E+00  0.50000499739E+01  0.50000500000E+01  0.51100000000E-03 0. -1.
         11   -1    0    0    0    0 -0.00000000000E+00 -0.00000000000E+00 -0.50000499739E+01  0.50000500000E+01  0.51100000000E-03 0.  1.
     100001    1    1    2    0    0  0.11199656139E-01 -0.17832462943E-01 -0.75215336021E-02  0.50000500000E+01  0.50000000000E+01 0.  1.
     100001    1    1    2    0    0 -0.11199656139E-01  0.17832462943E-01  0.75215336021E-02  0.50000500000E+01  0.50000000000E+01 0. -1.
</event>
<event>
 4    1  0.5017912E-001  0.5000050E+01  0.7818608E-02  0.2136455E+00
        -11   -1    0    0    0    0  0.00000000000E+00  0.00000000000E+00  0.50000499739E+01  0.50000500000E+01  0.51100000000E-03 0.  1.
         11   -1    0    0    0    0 -0.00000000000E+00 -0.00000000000E+00 -0.50000499739E+01  0.50000500000E+01  0.51100000000E-03 0. -1.
     100001    1    1    2    0    0 -0.75463215214E-02  0.58796169705E-02 -0.20211027578E-01  0.50000500000E+01  0.50000000000E+01 0. -1.
     100001    1    1    2    0    0  0.75463215214E-02 -0.58796169705E-02  0.20211027578E-01  0.50000500000E+01  0.50000000000E+01 0.  0.
</event>
<event>
 4    1  0.5017912E-001  0.5000050E+01  0.7818608E-02  0.2136455E+00
        -11   -1    0    0    0    0  0.00000000000E+00  0.00000000000E+00  0.50000499739E+01  0.50000500000E+01  0.51100000000E-03 0.  1.
         11   -1    0    0    0    0 -0.00000000000E+00 -0.00000000000E+00 -0.50000499739E+01  0.50000500000E+01  0.51100000000E-03 0. -1.
     100001    1    1    2    0    0  0.21429964181E-01 -0.49713555122E-02 -0.40055910375E-02  0.50000500000E+01  0.50000000000E+01 0.  1.
     100001    1    1    2    0    0 -0.21429964181E-01  0.49713555122E-02  0.40055910375E-02  0.50000500000E+01  0.50000000000E+01 0.  0.
</event>
<event>
 4    1  0.5017912E-001  0.5000050E+01  0.7818608E-02  0.2136455E+00
        -11   -1    0    0    0    0  0.00000000000E+00  0.00000000000E+00  0.50000499739E+01  0.50000500000E+01  0.51100000000E-03 0.  1.
         11   -1    0    0    0    0 -0.00000000000E+00 -0.00000000000E+00 -0.50000499739E+01  0.50000500000E+01  0.51100000000E-03 0. -1.
     100001    1    1    2    0    0 -0.21794598450E-01 -0.17922138446E-02  0.46675419607E-02  0.50000500000E+01  0.50000000000E+01 0. -1.
     100001    1    1    2    0    0  0.21794598450E-01  0.17922138446E-02 -0.46675419607E-02  0.50000500000E+01  0.50000000000E+01 0.  1.
</event>
<event>
 4    1  0.5017912E-001  0.5000050E+01  0.7818608E-02  0.2136455E+00
        -11   -1    0    0    0    0  0.00000000000E+00  0.00000000000E+00  0.50000499739E+01  0.50000500000E+01  0.51100000000E-03 0. -1.
         11   -1    0    0    0    0 -0.00000000000E+00 -0.00000000000E+00 -0.50000499739E+01  0.50000500000E+01  0.51100000000E-03 0.  1.
     100001    1    1    2    0    0 -0.21902304739E-01  0.41030891665E-02  0.18590875188E-02  0.50000500000E+01  0.50000000000E+01 0.  0.
     100001    1    1    2    0    0  0.21902304739E-01 -0.41030891665E-02 -0.18590875188E-02  0.50000500000E+01  0.50000000000E+01 0.  1.
</event>
<event>
 4    1  0.5017912E-001  0.5000050E+01  0.7818608E-02  0.2136455E+00
        -11   -1    0    0    0    0  0.00000000000E+00  0.00000000000E+00  0.50000499739E+01  0.50000500000E+01  0.51100000000E-03 0. -1.
         11   -1    0    0    0    0 -0.00000000000E+00 -0.00000000000E+00 -0.50000499739E+01  0.50000500000E+01  0.51100000000E-03 0.  1.
     100001    1    1    2    0    0  0.52233275306E-02  0.60147519853E-02  0.20893590119E-01  0.50000500000E+01  0.50000000000E+01 0.  0.
     100001    1    1    2    0    0 -0.52233275306E-02 -0.60147519853E-02 -0.20893590119E-01  0.50000500000E+01  0.50000000000E+01 0.  1.
</event>
<event>
 4    1  0.5017912E-001  0.5000050E+01  0.7818608E-02  0.2136455E+00
        -11   -1    0    0    0    0  0.00000000000E+00  0.00000000000E+00  0.50000499739E+01  0.50000500000E+01  0.51100000000E-03 0.  1.
         11   -1    0    0    0    0 -0.00000000000E+00 -0.00000000000E+00 -0.50000499739E+01  0.50000500000E+01  0.51100000000E-03 0. -1.
     100001    1    1    2    0    0  0.21767777102E-02 -0.43019255389E-02 -0.21834779034E-01  0.50000500000E+01  0.50000000000E+01 0. -1.
     100001    1    1    2    0    0 -0.21767777102E-02  0.43019255389E-02  0.21834779034E-01  0.50000500000E+01  0.50000000000E+01 0.  0.
</event>
<event>
 4    1  0.5017912E-001  0.5000050E+01  0.7818608E-02  0.2136455E+00
        -11   -1    0    0    0    0  0.00000000000E+00  0.00000000000E+00  0.50000499739E+01  0.50000500000E+01  0.51100000000E-03 0.  1.
         11   -1    0    0    0    0 -0.00000000000E+00 -0.00000000000E+00 -0.50000499739E+01  0.50000500000E+01  0.51100000000E-03 0. -1.
     100001    1    1    2    0    0  0.76158884892E-02  0.63221892697E-03  0.21014305645E-01  0.50000500000E+01  0.50000000000E+01 0.  0.
     100001    1    1    2    0    0 -0.76158884892E-02 -0.63221892697E-03 -0.21014305645E-01  0.50000500000E+01  0.50000000000E+01 0.  0.
</event>
<event>
 4    1  0.5017912E-001  0.5000050E+01  0.7818608E-02  0.2136455E+00
        -11   -1    0    0    0    0  0.00000000000E+00  0.00000000000E+00  0.50000499739E+01  0.50000500000E+01  0.51100000000E-03 0.  1.
         11   -1    0    0    0    0 -0.00000000000E+00 -0.00000000000E+00 -0.50000499739E+01  0.50000500000E+01  0.51100000000E-03 0. -1.
     100001    1    1    2    0    0  0.22138495636E-01 -0.64762911920E-03  0.30773507259E-02  0.50000500000E+01  0.50000000000E+01 0.  0.
     100001    1    1    2    0    0 -0.22138495636E-01  0.64762911920E-03 -0.30773507259E-02  0.50000500000E+01  0.50000000000E+01 0. -1.
</event>
<event>
 4    1  0.5017912E-001  0.5000050E+01  0.7818608E-02  0.2136455E+00
        -11   -1    0    0    0    0  0.00000000000E+00  0.00000000000E+00  0.50000499739E+01  0.50000500000E+01  0.51100000000E-03 0. -1.
         11   -1    0    0    0    0 -0.00000000000E+00 -0.00000000000E+00 -0.50000499739E+01  0.50000500000E+01  0.51100000000E-03 0.  1.
     100001    1    1    2    0    0  0.53492434423E-02 -0.13130078145E-01 -0.17291302511E-01  0.50000500000E+01  0.50000000000E+01 0.  0.
     100001    1    1    2    0    0 -0.53492434423E-02  0.13130078145E-01  0.17291302511E-01  0.50000500000E+01  0.50000000000E+01 0.  1.
</event>
<event>
 4    1  0.5017912E-001  0.5000050E+01  0.7818608E-02  0.2136455E+00
        -11   -1    0    0    0    0  0.00000000000E+00  0.00000000000E+00  0.50000499739E+01  0.50000500000E+01  0.51100000000E-03 0. -1.
         11   -1    0    0    0    0 -0.00000000000E+00 -0.00000000000E+00 -0.50000499739E+01  0.50000500000E+01  0.51100000000E-03 0.  1.
     100001    1    1    2    0    0  0.61933917811E-02  0.18859906040E-01  0.10293121121E-01  0.50000500000E+01  0.50000000000E+01 0.  0.
     100001    1    1    2    0    0 -0.61933917811E-02 -0.18859906040E-01 -0.10293121121E-01  0.50000500000E+01  0.50000000000E+01 0. -1.
</event>
<event>
 4    1  0.5017912E-001  0.5000050E+01  0.7818608E-02  0.2136455E+00
        -11   -1    0    0    0    0  0.00000000000E+00  0.00000000000E+00  0.50000499739E+01  0.50000500000E+01  0.51100000000E-03 0. -1.
         11   -1    0    0    0    0 -0.00000000000E+00 -0.00000000000E+00 -0.50000499739E+01  0.50000500000E+01  0.51100000000E-03 0.  1.
     100001    1    1    2    0    0  0.18064795870E-01  0.10997753340E-01  0.72605145582E-02  0.50000500000E+01  0.50000000000E+01 0. -1.
     100001    1    1    2    0    0 -0.18064795870E-01 -0.10997753340E-01 -0.72605145582E-02  0.50000500000E+01  0.50000000000E+01 0.  1.
</event>
<event>
 4    1  0.5017912E-001  0.5000050E+01  0.7818608E-02  0.2136455E+00
        -11   -1    0    0    0    0  0.00000000000E+00  0.00000000000E+00  0.50000499739E+01  0.50000500000E+01  0.51100000000E-03 0. -1.
         11   -1    0    0    0    0 -0.00000000000E+00 -0.00000000000E+00 -0.50000499739E+01  0.50000500000E+01  0.51100000000E-03 0.  1.
     100001    1    1    2    0    0 -0.11062543278E-01  0.45969428038E-02  0.18880962716E-01  0.50000500000E+01  0.50000000000E+01 0.  1.
     100001    1    1    2    0    0  0.11062543278E-01 -0.45969428038E-02 -0.18880962716E-01  0.50000500000E+01  0.50000000000E+01 0.  1.
</event>
<event>
 4    1  0.5017912E-001  0.5000050E+01  0.7818608E-02  0.2136455E+00
        -11   -1    0    0    0    0  0.00000000000E+00  0.00000000000E+00  0.50000499739E+01  0.50000500000E+01  0.51100000000E-03 0.  1.
         11   -1    0    0    0    0 -0.00000000000E+00 -0.00000000000E+00 -0.50000499739E+01  0.50000500000E+01  0.51100000000E-03 0. -1.
     100001    1    1    2    0    0 -0.18213500478E-01 -0.46344188287E-02 -0.12115818686E-01  0.50000500000E+01  0.50000000000E+01 0. -1.
     100001    1    1    2    0    0  0.18213500478E-01  0.46344188287E-02  0.12115818686E-01  0.50000500000E+01  0.50000000000E+01 0.  1.
</event>
<event>
 4    1  0.5017912E-001  0.5000050E+01  0.7818608E-02  0.2136455E+00
        -11   -1    0    0    0    0  0.00000000000E+00  0.00000000000E+00  0.50000499739E+01  0.50000500000E+01  0.51100000000E-03 0.  1.
         11   -1    0    0    0    0 -0.00000000000E+00 -0.00000000000E+00 -0.50000499739E+01  0.50000500000E+01  0.51100000000E-03 0. -1.
     100001    1    1    2    0    0  0.16087129212E-01 -0.14996760030E-01  0.40378165281E-02  0.50000500000E+01  0.50000000000E+01 0.  0.
     100001    1    1    2    0    0 -0.16087129212E-01  0.14996760030E-01 -0.40378165281E-02  0.50000500000E+01  0.50000000000E+01 0.  1.
</event>
<event>
 4    1  0.5017912E-001  0.5000050E+01  0.7818608E-02  0.2136455E+00
        -11   -1    0    0    0    0  0.00000000000E+00  0.00000000000E+00  0.50000499739E+01  0.50000500000E+01  0.51100000000E-03 0.  1.
         11   -1    0    0    0    0 -0.00000000000E+00 -0.00000000000E+00 -0.50000499739E+01  0.50000500000E+01  0.51100000000E-03 0. -1.
     100001    1    1    2    0    0  0.71670174462E-02  0.14785935746E-01 -0.15166161843E-01  0.50000500000E+01  0.50000000000E+01 0. -1.
     100001    1    1    2    0    0 -0.71670174462E-02 -0.14785935746E-01  0.15166161843E-01  0.50000500000E+01  0.50000000000E+01 0. -1.
</event>
<event>
 4    1  0.5017912E-001  0.5000050E+01  0.7818608E-02  0.2136455E+00
        -11   -1    0    0    0    0  0.00000000000E+00  0.00000000000E+00  0.50000499739E+01  0.50000500000E+01  0.51100000000E-03 0. -1.
         11   -1    0    0    0    0 -0.00000000000E+00 -0.00000000000E+00 -0.50000499739E+01  0.50000500000E+01  0.51100000000E-03 0.  1.
     100001    1    1    2    0    0 -0.13653848989E-01  0.14217547977E-01  0.10556336358E-01  0.50000500000E+01  0.50000000000E+01 0.  0.
     100001    1    1    2    0    0  0.13653848989E-01 -0.14217547977E-01 -0.10556336358E-01  0.50000500000E+01  0.50000000000E+01 0.  0.
</event>
<event>
 4    1  0.5017912E-001  0.5000050E+01  0.7818608E-02  0.2136455E+00
        -11   -1    0    0    0    0  0.00000000000E+00  0.00000000000E+00  0.50000499739E+01  0.50000500000E+01  0.51100000000E-03 0.  1.
         11   -1    0    0    0    0 -0.00000000000E+00 -0.00000000000E+00 -0.50000499739E+01  0.50000500000E+01  0.51100000000E-03 0. -1.
     100001    1    1    2    0    0  0.96124561533E-02 -0.19052658427E-01 -0.66782777394E-02  0.50000500000E+01  0.50000000000E+01 0.  1.
     100001    1    1    2    0    0 -0.96124561533E-02  0.19052658427E-01  0.66782777395E-02  0.50000500000E+01  0.50000000000E+01 0.  0.
</event>
<event>
 4    1  0.5017912E-001  0.5000050E+01  0.7818608E-02  0.2136455E+00
        -11   -1    0    0    0    0  0.00000000000E+00  0.00000000000E+00  0.50000499739E+01  0.50000500000E+01  0.51100000000E-03 0. -1.
         11   -1    0    0    0    0 -0.00000000000E+00 -0.00000000000E+00 -0.50000499739E+01  0.50000500000E+01  0.51100000000E-03 0.  1.
     100001    1    1    2    0    0 -0.21559119754E-01 -0.56261009165E-02 -0.18851641563E-02  0.50000500000E+01  0.50000000000E+01 0. -1.
     100001    1    1    2    0    0  0.21559119754E-01  0.56261009165E-02  0.18851641563E-02  0.50000500000E+01  0.50000000000E+01 0.  1.
</event>
<event>
 4    1  0.5017912E-001  0.5000050E+01  0.7818608E-02  0.2136455E+00
        -11   -1    0    0    0    0  0.00000000000E+00  0.00000000000E+00  0.50000499739E+01  0.50000500000E+01  0.51100000000E-03 0.  1.
         11   -1    0    0    0    0 -0.00000000000E+00 -0.00000000000E+00 -0.50000499739E+01  0.50000500000E+01  0.51100000000E-03 0. -1.
     100001    1    1    2    0    0  0.87041629893E-02  0.20537185180E-01 -0.15697361402E-02  0.50000500000E+01  0.50000000000E+01 0.  1.
     100001    1    1    2    0    0 -0.87041629893E-02 -0.20537185180E-01  0.15697361402E-02  0.50000500000E+01  0.50000000000E+01 0.  0.
</event>
<event>
 4    1  0.5017912E-001  0.5000050E+01  0.7818608E-02  0.2136455E+00
        -11   -1    0    0    0    0  0.00000000000E+00  0.00000000000E+00  0.50000499739E+01  0.50000500000E+01  0.51100000000E-03 0.  1.
         11   -1    0    0    0    0 -0.00000000000E+00 -0.00000000000E+00 -0.50000499739E+01  0.50000500000E+01  0.51100000000E-03 0. -1.
     100001    1    1    2    0    0  0.70816110516E-02 -0.20695250810E-01 -0.46432616584E-02  0.50000500000E+01  0.50000000000E+01 0. -1.
     100001    1    1    2    0    0 -0.70816110516E-02  0.20695250810E-01  0.46432616584E-02  0.50000500000E+01  0.50000000000E+01 0.  1.
</event>
<event>
 4    1  0.5017912E-001  0.5000050E+01  0.7818608E-02  0.2136455E+00
        -11   -1    0    0    0    0  0.00000000000E+00  0.00000000000E+00  0.50000499739E+01  0.50000500000E+01  0.51100000000E-03 0.  1.
         11   -1    0    0    0    0 -0.00000000000E+00 -0.00000000000E+00 -0.50000499739E+01  0.50000500000E+01  0.51100000000E-03 0. -1.
     100001    1    1    2    0    0 -0.38108950400E-02  0.11110100550E-01 -0.19027486559E-01  0.50000500000E+01  0.50000000000E+01 0. -1.
     100001    1    1    2    0    0  0.38108950400E-02 -0.11110100550E-01  0.19027486559E-01  0.50000500000E+01  0.50000000000E+01 0.  1.
</event>
<event>
 4    1  0.5017912E-001  0.5000050E+01  0.7818608E-02  0.2136455E+00
        -11   -1    0    0    0    0  0.00000000000E+00  0.00000000000E+00  0.50000499739E+01  0.50000500000E+01  0.51100000000E-03 0.  1.
         11   -1    0    0    0    0 -0.00000000000E+00 -0.00000000000E+00 -0.50000499739E+01  0.50000500000E+01  0.51100000000E-03 0. -1.
     100001    1    1    2    0    0  0.11663979494E-01  0.53620081267E-02  0.18308548583E-01  0.50000500000E+01  0.50000000000E+01 0.  0.
     100001    1    1    2    0    0 -0.11663979494E-01 -0.53620081267E-02 -0.18308548583E-01  0.50000500000E+01  0.50000000000E+01 0. -1.
</event>
<event>
 4    1  0.5017912E-001  0.5000050E+01  0.7818608E-02  0.2136455E+00
        -11   -1    0    0    0    0  0.00000000000E+00  0.00000000000E+00  0.50000499739E+01  0.50000500000E+01  0.51100000000E-03 0. -1.
         11   -1    0    0    0    0 -0.00000000000E+00 -0.00000000000E+00 -0.50000499739E+01  0.50000500000E+01  0.51100000000E-03 0.  1.
     100001    1    1    2    0    0 -0.35707428700E-02 -0.49570754614E-02 -0.21509990661E-01  0.50000500000E+01  0.50000000000E+01 0.  0.
     100001    1    1    2    0    0  0.35707428700E-02  0.49570754614E-02  0.21509990661E-01  0.50000500000E+01  0.50000000000E+01 0. -1.
</event>
<event>
 4    1  0.5017912E-001  0.5000050E+01  0.7818608E-02  0.2136455E+00
        -11   -1    0    0    0    0  0.00000000000E+00  0.00000000000E+00  0.50000499739E+01  0.50000500000E+01  0.51100000000E-03 0. -1.
         11   -1    0    0    0    0 -0.00000000000E+00 -0.00000000000E+00 -0.50000499739E+01  0.50000500000E+01  0.51100000000E-03 0.  1.
     100001    1    1    2    0    0 -0.69703504276E-02 -0.19696237560E-01  0.79671162211E-02  0.50000500000E+01  0.50000000000E+01 0. -1.
     100001    1    1    2    0    0  0.69703504276E-02  0.19696237560E-01 -0.79671162211E-02  0.50000500000E+01  0.50000000000E+01 0.  1.
</event>
<event>
 4    1  0.5017912E-001  0.5000050E+01  0.7818608E-02  0.2136455E+00
        -11   -1    0    0    0    0  0.00000000000E+00  0.00000000000E+00  0.50000499739E+01  0.50000500000E+01  0.51100000000E-03 0. -1.
         11   -1    0    0    0    0 -0.00000000000E+00 -0.00000000000E+00 -0.50000499739E+01  0.50000500000E+01  0.51100000000E-03 0.  1.
     100001    1    1    2    0    0 -0.22277413015E-01  0.16710050138E-02  0.96286635582E-03  0.50000500000E+01  0.50000000000E+01 0.  0.
     100001    1    1    2    0    0  0.22277413015E-01 -0.16710050138E-02 -0.96286635582E-03  0.50000500000E+01  0.50000000000E+01 0.  1.
</event>
<event>
 4    1  0.5017912E-001  0.5000050E+01  0.7818608E-02  0.2136455E+00
        -11   -1    0    0    0    0  0.00000000000E+00  0.00000000000E+00  0.50000499739E+01  0.50000500000E+01  0.51100000000E-03 0. -1.
         11   -1    0    0    0    0 -0.00000000000E+00 -0.00000000000E+00 -0.50000499739E+01  0.50000500000E+01  0.51100000000E-03 0.  1.
     100001    1    1    2    0    0  0.42648922294E-02 -0.43839235873E-02  0.21508008003E-01  0.50000500000E+01  0.50000000000E+01 0.  0.
     100001    1    1    2    0    0 -0.42648922294E-02  0.43839235873E-02 -0.21508008003E-01  0.50000500000E+01  0.50000000000E+01 0.  1.
</event>
<event>
 4    1  0.5017912E-001  0.5000050E+01  0.7818608E-02  0.2136455E+00
        -11   -1    0    0    0    0  0.00000000000E+00  0.00000000000E+00  0.50000499739E+01  0.50000500000E+01  0.51100000000E-03 0.  1.
         11   -1    0    0    0    0 -0.00000000000E+00 -0.00000000000E+00 -0.50000499739E+01  0.50000500000E+01  0.51100000000E-03 0. -1.
     100001    1    1    2    0    0  0.30495679292E-03 -0.14824178544E-01 -0.16737778582E-01  0.50000500000E+01  0.50000000000E+01 0.  0.
     100001    1    1    2    0    0 -0.30495679292E-03  0.14824178544E-01  0.16737778582E-01  0.50000500000E+01  0.50000000000E+01 0.  1.
</event>
<event>
 4    1  0.5017912E-001  0.5000050E+01  0.7818608E-02  0.2136455E+00
        -11   -1    0    0    0    0  0.00000000000E+00  0.00000000000E+00  0.50000499739E+01  0.50000500000E+01  0.51100000000E-03 0. -1.
         11   -1    0    0    0    0 -0.00000000000E+00 -0.00000000000E+00 -0.50000499739E+01  0.50000500000E+01  0.51100000000E-03 0.  1.
     100001    1    1    2    0    0  0.13089295280E-01  0.97446542120E-02 -0.15287725905E-01  0.50000500000E+01  0.50000000000E+01 0.  0.
     100001    1    1    2    0    0 -0.13089295280E-01 -0.97446542120E-02  0.15287725905E-01  0.50000500000E+01  0.50000000000E+01 0.  0.
</event>
<event>
 4    1  0.5017912E-001  0.5000050E+01  0.7818608E-02  0.2136455E+00
        -11   -1    0    0    0    0  0.00000000000E+00  0.00000000000E+00  0.50000499739E+01  0.50000500000E+01  0.51100000000E-03 0.  1.
         11   -1    0    0    0    0 -0.00000000000E+00 -0.00000000000E+00 -0.50000499739E+01  0.50000500000E+01  0.51100000000E-03 0. -1.
     100001    1    1    2    0    0 -0.19104479259E-01  0.10183609393E-01 -0.55960228706E-02  0.50000500000E+01  0.50000000000E+01 0. -1.
     100001    1    1    2    0    0  0.19104479259E-01 -0.10183609393E-01  0.55960228706E-02  0.50000500000E+01  0.50000000000E+01 0.  1.
</event>
<event>
 4    1  0.5017912E-001  0.5000050E+01  0.7818608E-02  0.2136455E+00
        -11   -1    0    0    0    0  0.00000000000E+00  0.00000000000E+00  0.50000499739E+01  0.50000500000E+01  0.51100000000E-03 0. -1.
         11   -1    0    0    0    0 -0.00000000000E+00 -0.00000000000E+00 -0.50000499739E+01  0.50000500000E+01  0.51100000000E-03 0.  1.
     100001    1    1    2    0    0  0.22258777751E-02 -0.21965866497E-01  0.35424112076E-02  0.50000500000E+01  0.50000000000E+01 0.  1.
     100001    1    1    2    0    0 -0.22258777751E-02  0.21965866497E-01 -0.35424112076E-02  0.50000500000E+01  0.50000000000E+01 0.  0.
</event>
<event>
 4    1  0.5017912E-001  0.5000050E+01  0.7818608E-02  0.2136455E+00
        -11   -1    0    0    0    0  0.00000000000E+00  0.00000000000E+00  0.50000499739E+01  0.50000500000E+01  0.51100000000E-03 0. -1.
         11   -1    0    0    0    0 -0.00000000000E+00 -0.00000000000E+00 -0.50000499739E+01  0.50000500000E+01  0.51100000000E-03 0.  1.
     100001    1    1    2    0    0  0.41143125250E-02 -0.37874926844E-02 -0.21650169321E-01  0.50000500000E+01  0.50000000000E+01 0.  1.
     100001    1    1    2    0    0 -0.41143125250E-02  0.37874926844E-02  0.21650169321E-01  0.50000500000E+01  0.50000000000E+01 0.  0.
</event>
<event>
 4    1  0.5017912E-001  0.5000050E+01  0.7818608E-02  0.2136455E+00
        -11   -1    0    0    0    0  0.00000000000E+00  0.00000000000E+00  0.50000499739E+01  0.50000500000E+01  0.51100000000E-03 0.  1.
         11   -1    0    0    0    0 -0.00000000000E+00 -0.00000000000E+00 -0.50000499739E+01  0.50000500000E+01  0.51100000000E-03 0. -1.
     100001    1    1    2    0    0 -0.50890303699E-02  0.18961673264E-01  0.10703233947E-01  0.50000500000E+01  0.50000000000E+01 0.  1.
     100001    1    1    2    0    0  0.50890303699E-02 -0.18961673264E-01 -0.10703233947E-01  0.50000500000E+01  0.50000000000E+01 0. -1.
</event>
<event>
 4    1  0.5017912E-001  0.5000050E+01  0.7818608E-02  0.2136455E+00
        -11   -1    0    0    0    0  0.00000000000E+00  0.00000000000E+00  0.50000499739E+01  0.50000500000E+01  0.51100000000E-03 0.  1.
         11   -1    0    0    0    0 -0.00000000000E+00 -0.00000000000E+00 -0.50000499739E+01  0.50000500000E+01  0.51100000000E-03 0. -1.
     100001    1    1    2    0    0  0.10865903341E-02  0.16461274394E-01 -0.15094643644E-01  0.50000500000E+01  0.50000000000E+01 0. -1.
     100001    1    1    2    0    0 -0.10865903341E-02 -0.16461274394E-01  0.15094643644E-01  0.50000500000E+01  0.50000000000E+01 0. -1.
</event>
<event>
 4    1  0.5017912E-001  0.5000050E+01  0.7818608E-02  0.2136455E+00
        -11   -1    0    0    0    0  0.00000000000E+00  0.00000000000E+00  0.50000499739E+01  0.50000500000E+01  0.51100000000E-03 0.  1.
         11   -1    0    0    0    0 -0.00000000000E+00 -0.00000000000E+00 -0.50000499739E+01  0.50000500000E+01  0.51100000000E-03 0. -1.
     100001    1    1    2    0    0 -0.14102277305E-01 -0.75786333670E-02 -0.15610656331E-01  0.50000500000E+01  0.50000000000E+01 0. -1.
     100001    1    1    2    0    0  0.14102277305E-01  0.75786333670E-02  0.15610656331E-01  0.50000500000E+01  0.50000000000E+01 0.  1.
</event>
<event>
 4    1  0.5017912E-001  0.5000050E+01  0.7818608E-02  0.2136455E+00
        -11   -1    0    0    0    0  0.00000000000E+00  0.00000000000E+00  0.50000499739E+01  0.50000500000E+01  0.51100000000E-03 0.  1.
         11   -1    0    0    0    0 -0.00000000000E+00 -0.00000000000E+00 -0.50000499739E+01  0.50000500000E+01  0.51100000000E-03 0. -1.
     100001    1    1    2    0    0 -0.38337040421E-02 -0.81714681375E-02 -0.20458062513E-01  0.50000500000E+01  0.50000000000E+01 0.  1.
     100001    1    1    2    0    0  0.38337040421E-02  0.81714681375E-02  0.20458062513E-01  0.50000500000E+01  0.50000000000E+01 0.  1.
</event>
<event>
 4    1  0.5017912E-001  0.5000050E+01  0.7818608E-02  0.2136455E+00
        -11   -1    0    0    0    0  0.00000000000E+00  0.00000000000E+00  0.50000499739E+01  0.50000500000E+01  0.51100000000E-03 0.  1.
         11   -1    0    0    0    0 -0.00000000000E+00 -0.00000000000E+00 -0.50000499739E+01  0.50000500000E+01  0.51100000000E-03 0. -1.
     100001    1    1    2    0    0  0.22239575279E-01 -0.12062516341E-03  0.23214738765E-02  0.50000500000E+01  0.50000000000E+01 0.  0.
     100001    1    1    2    0    0 -0.22239575279E-01  0.12062516341E-03 -0.23214738765E-02  0.50000500000E+01  0.50000000000E+01 0.  1.
</event>
<event>
 4    1  0.5017912E-001  0.5000050E+01  0.7818608E-02  0.2136455E+00
        -11   -1    0    0    0    0  0.00000000000E+00  0.00000000000E+00  0.50000499739E+01  0.50000500000E+01  0.51100000000E-03 0.  1.
         11   -1    0    0    0    0 -0.00000000000E+00 -0.00000000000E+00 -0.50000499739E+01  0.50000500000E+01  0.51100000000E-03 0. -1.
     100001    1    1    2    0    0  0.45750818871E-02 -0.21797297523E-01  0.19871956174E-02  0.50000500000E+01  0.50000000000E+01 0.  1.
     100001    1    1    2    0    0 -0.45750818871E-02  0.21797297523E-01 -0.19871956174E-02  0.50000500000E+01  0.50000000000E+01 0.  0.
</event>
<event>
 4    1  0.5017912E-001  0.5000050E+01  0.7818608E-02  0.2136455E+00
        -11   -1    0    0    0    0  0.00000000000E+00  0.00000000000E+00  0.50000499739E+01  0.50000500000E+01  0.51100000000E-03 0.  1.
         11   -1    0    0    0    0 -0.00000000000E+00 -0.00000000000E+00 -0.50000499739E+01  0.50000500000E+01  0.51100000000E-03 0. -1.
     100001    1    1    2    0    0  0.52565583088E-04 -0.18030145017E-01 -0.13225490824E-01  0.50000500000E+01  0.50000000000E+01 0.  1.
     100001    1    1    2    0    0 -0.52565583088E-04  0.18030145017E-01  0.13225490824E-01  0.50000500000E+01  0.50000000000E+01 0.  1.
</event>
<event>
 4    1  0.5017912E-001  0.5000050E+01  0.7818608E-02  0.2136455E+00
        -11   -1    0    0    0    0  0.00000000000E+00  0.00000000000E+00  0.50000499739E+01  0.50000500000E+01  0.51100000000E-03 0.  1.
         11   -1    0    0    0    0 -0.00000000000E+00 -0.00000000000E+00 -0.50000499739E+01  0.50000500000E+01  0.51100000000E-03 0. -1.
     100001    1    1    2    0    0  0.13359809203E-01 -0.62921875337E-02 -0.16790663302E-01  0.50000500000E+01  0.50000000000E+01 0.  1.
     100001    1    1    2    0    0 -0.13359809203E-01  0.62921875337E-02  0.16790663302E-01  0.50000500000E+01  0.50000000000E+01 0.  0.
</event>
<event>
 4    1  0.5017912E-001  0.5000050E+01  0.7818608E-02  0.2136455E+00
        -11   -1    0    0    0    0  0.00000000000E+00  0.00000000000E+00  0.50000499739E+01  0.50000500000E+01  0.51100000000E-03 0.  1.
         11   -1    0    0    0    0 -0.00000000000E+00 -0.00000000000E+00 -0.50000499739E+01  0.50000500000E+01  0.51100000000E-03 0. -1.
     100001    1    1    2    0    0 -0.13011939516E-01  0.17973333821E-01 -0.27660805119E-02  0.50000500000E+01  0.50000000000E+01 0.  1.
     100001    1    1    2    0    0  0.13011939516E-01 -0.17973333821E-01  0.27660805119E-02  0.50000500000E+01  0.50000000000E+01 0. -1.
</event>
<event>
 4    1  0.5017912E-001  0.5000050E+01  0.7818608E-02  0.2136455E+00
        -11   -1    0    0    0    0  0.00000000000E+00  0.00000000000E+00  0.50000499739E+01  0.50000500000E+01  0.51100000000E-03 0.  1.
         11   -1    0    0    0    0 -0.00000000000E+00 -0.00000000000E+00 -0.50000499739E+01  0.50000500000E+01  0.51100000000E-03 0. -1.
     100001    1    1    2    0    0 -0.22996223623E-02 -0.21321303968E-01 -0.63337377672E-02  0.50000500000E+01  0.50000000000E+01 0.  1.
     100001    1    1    2    0    0  0.22996223623E-02  0.21321303968E-01  0.63337377672E-02  0.50000500000E+01  0.50000000000E+01 0. -1.
</event>
<event>
 4    1  0.5017912E-001  0.5000050E+01  0.7818608E-02  0.2136455E+00
        -11   -1    0    0    0    0  0.00000000000E+00  0.00000000000E+00  0.50000499739E+01  0.50000500000E+01  0.51100000000E-03 0.  1.
         11   -1    0    0    0    0 -0.00000000000E+00 -0.00000000000E+00 -0.50000499739E+01  0.50000500000E+01  0.51100000000E-03 0. -1.
     100001    1    1    2    0    0  0.66491590264E-02  0.10263487104E-01 -0.18720363690E-01  0.50000500000E+01  0.50000000000E+01 0.  0.
     100001    1    1    2    0    0 -0.66491590264E-02 -0.10263487104E-01  0.18720363690E-01  0.50000500000E+01  0.50000000000E+01 0.  1.
</event>
<event>
 4    1  0.5017912E-001  0.5000050E+01  0.7818608E-02  0.2136455E+00
        -11   -1    0    0    0    0  0.00000000000E+00  0.00000000000E+00  0.50000499739E+01  0.50000500000E+01  0.51100000000E-03 0.  1.
         11   -1    0    0    0    0 -0.00000000000E+00 -0.00000000000E+00 -0.50000499739E+01  0.50000500000E+01  0.51100000000E-03 0. -1.
     100001    1    1    2    0    0 -0.47894332960E-02  0.18357945239E-01 -0.11834258545E-01  0.50000500000E+01  0.50000000000E+01 0. -1.
     100001    1    1    2    0    0  0.47894332960E-02 -0.18357945239E-01  0.11834258545E-01  0.50000500000E+01  0.50000000000E+01 0.  1.
</event>
<event>
 4    1  0.5017912E-001  0.5000050E+01  0.7818608E-02  0.2136455E+00
        -11   -1    0    0    0    0  0.00000000000E+00  0.00000000000E+00  0.50000499739E+01  0.50000500000E+01  0.51100000000E-03 0.  1.
         11   -1    0    0    0    0 -0.00000000000E+00 -0.00000000000E+00 -0.50000499739E+01  0.50000500000E+01  0.51100000000E-03 0. -1.
     100001    1    1    2    0    0  0.61902819010E-02  0.65045888371E-02 -0.20478604299E-01  0.50000500000E+01  0.50000000000E+01 0. -1.
     100001    1    1    2    0    0 -0.61902819010E-02 -0.65045888371E-02  0.20478604299E-01  0.50000500000E+01  0.50000000000E+01 0.  0.
</event>
<event>
 4    1  0.5017912E-001  0.5000050E+01  0.7818608E-02  0.2136455E+00
        -11   -1    0    0    0    0  0.00000000000E+00  0.00000000000E+00  0.50000499739E+01  0.50000500000E+01  0.51100000000E-03 0.  1.
         11   -1    0    0    0    0 -0.00000000000E+00 -0.00000000000E+00 -0.50000499739E+01  0.50000500000E+01  0.51100000000E-03 0. -1.
     100001    1    1    2    0    0 -0.79900029647E-02  0.15848040993E-01 -0.13601542167E-01  0.50000500000E+01  0.50000000000E+01 0. -1.
     100001    1    1    2    0    0  0.79900029647E-02 -0.15848040993E-01  0.13601542167E-01  0.50000500000E+01  0.50000000000E+01 0.  1.
</event>
<event>
 4    1  0.5017912E-001  0.5000050E+01  0.7818608E-02  0.2136455E+00
        -11   -1    0    0    0    0  0.00000000000E+00  0.00000000000E+00  0.50000499739E+01  0.50000500000E+01  0.51100000000E-03 0. -1.
         11   -1    0    0    0    0 -0.00000000000E+00 -0.00000000000E+00 -0.50000499739E+01  0.50000500000E+01  0.51100000000E-03 0.  1.
     100001    1    1    2    0    0  0.96946121249E-02 -0.19739462059E-01  0.40460639369E-02  0.50000500000E+01  0.50000000000E+01 0. -1.
     100001    1    1    2    0    0 -0.96946121249E-02  0.19739462059E-01 -0.40460639369E-02  0.50000500000E+01  0.50000000000E+01 0.  0.
</event>
<event>
 4    1  0.5017912E-001  0.5000050E+01  0.7818608E-02  0.2136455E+00
        -11   -1    0    0    0    0  0.00000000000E+00  0.00000000000E+00  0.50000499739E+01  0.50000500000E+01  0.51100000000E-03 0.  1.
         11   -1    0    0    0    0 -0.00000000000E+00 -0.00000000000E+00 -0.50000499739E+01  0.50000500000E+01  0.51100000000E-03 0. -1.
     100001    1    1    2    0    0  0.19602145180E-01  0.49515887290E-03  0.10747707757E-01  0.50000500000E+01  0.50000000000E+01 0. -1.
     100001    1    1    2    0    0 -0.19602145180E-01 -0.49515887290E-03 -0.10747707757E-01  0.50000500000E+01  0.50000000000E+01 0.  1.
</event>
<event>
 4    1  0.5017912E-001  0.5000050E+01  0.7818608E-02  0.2136455E+00
        -11   -1    0    0    0    0  0.00000000000E+00  0.00000000000E+00  0.50000499739E+01  0.50000500000E+01  0.51100000000E-03 0.  1.
         11   -1    0    0    0    0 -0.00000000000E+00 -0.00000000000E+00 -0.50000499739E+01  0.50000500000E+01  0.51100000000E-03 0. -1.
     100001    1    1    2    0    0  0.15936247157E-01 -0.14724887404E-01 -0.54052028159E-02  0.50000500000E+01  0.50000000000E+01 0. -1.
     100001    1    1    2    0    0 -0.15936247157E-01  0.14724887404E-01  0.54052028159E-02  0.50000500000E+01  0.50000000000E+01 0.  1.
</event>
<event>
 4    1  0.5017912E-001  0.5000050E+01  0.7818608E-02  0.2136455E+00
        -11   -1    0    0    0    0  0.00000000000E+00  0.00000000000E+00  0.50000499739E+01  0.50000500000E+01  0.51100000000E-03 0. -1.
         11   -1    0    0    0    0 -0.00000000000E+00 -0.00000000000E+00 -0.50000499739E+01  0.50000500000E+01  0.51100000000E-03 0.  1.
     100001    1    1    2    0    0 -0.13781994641E-01  0.13027740082E-01  0.11846396586E-01  0.50000500000E+01  0.50000000000E+01 0. -1.
     100001    1    1    2    0    0  0.13781994641E-01 -0.13027740082E-01 -0.11846396586E-01  0.50000500000E+01  0.50000000000E+01 0.  1.
</event>
<event>
 4    1  0.5017912E-001  0.5000050E+01  0.7818608E-02  0.2136455E+00
        -11   -1    0    0    0    0  0.00000000000E+00  0.00000000000E+00  0.50000499739E+01  0.50000500000E+01  0.51100000000E-03 0. -1.
         11   -1    0    0    0    0 -0.00000000000E+00 -0.00000000000E+00 -0.50000499739E+01  0.50000500000E+01  0.51100000000E-03 0.  1.
     100001    1    1    2    0    0  0.11608214534E-01  0.15337220990E-01 -0.11402697384E-01  0.50000500000E+01  0.50000000000E+01 0. -1.
     100001    1    1    2    0    0 -0.11608214534E-01 -0.15337220990E-01  0.11402697384E-01  0.50000500000E+01  0.50000000000E+01 0.  0.
</event>
<event>
 4    1  0.5017912E-001  0.5000050E+01  0.7818608E-02  0.2136455E+00
        -11   -1    0    0    0    0  0.00000000000E+00  0.00000000000E+00  0.50000499739E+01  0.50000500000E+01  0.51100000000E-03 0.  1.
         11   -1    0    0    0    0 -0.00000000000E+00 -0.00000000000E+00 -0.50000499739E+01  0.50000500000E+01  0.51100000000E-03 0. -1.
     100001    1    1    2    0    0  0.82909236366E-02  0.12218461684E-01  0.16792030232E-01  0.50000500000E+01  0.50000000000E+01 0.  0.
     100001    1    1    2    0    0 -0.82909236366E-02 -0.12218461684E-01 -0.16792030232E-01  0.50000500000E+01  0.50000000000E+01 0.  0.
</event>
<event>
 4    1  0.5017912E-001  0.5000050E+01  0.7818608E-02  0.2136455E+00
        -11   -1    0    0    0    0  0.00000000000E+00  0.00000000000E+00  0.50000499739E+01  0.50000500000E+01  0.51100000000E-03 0. -1.
         11   -1    0    0    0    0 -0.00000000000E+00 -0.00000000000E+00 -0.50000499739E+01  0.50000500000E+01  0.51100000000E-03 0.  1.
     100001    1    1    2    0    0  0.12603438933E-02  0.12014032268E-01  0.18816935508E-01  0.50000500000E+01  0.50000000000E+01 0. -1.
     100001    1    1    2    0    0 -0.12603438933E-02 -0.12014032268E-01 -0.18816935508E-01  0.50000500000E+01  0.50000000000E+01 0.  1.
</event>
<event>
 4    1  0.5017912E-001  0.5000050E+01  0.7818608E-02  0.2136455E+00
        -11   -1    0    0    0    0  0.00000000000E+00  0.00000000000E+00  0.50000499739E+01  0.50000500000E+01  0.51100000000E-03 0. -1.
         11   -1    0    0    0    0 -0.00000000000E+00 -0.00000000000E+00 -0.50000499739E+01  0.50000500000E+01  0.51100000000E-03 0.  1.
     100001    1    1    2    0    0  0.44493839249E-03 -0.21582696638E-01  0.58302431885E-02  0.50000500000E+01  0.50000000000E+01 0. -1.
     100001    1    1    2    0    0 -0.44493839249E-03  0.21582696638E-01 -0.58302431885E-02  0.50000500000E+01  0.50000000000E+01 0.  1.
</event>
<event>
 4    1  0.5017912E-001  0.5000050E+01  0.7818608E-02  0.2136455E+00
        -11   -1    0    0    0    0  0.00000000000E+00  0.00000000000E+00  0.50000499739E+01  0.50000500000E+01  0.51100000000E-03 0.  1.
         11   -1    0    0    0    0 -0.00000000000E+00 -0.00000000000E+00 -0.50000499739E+01  0.50000500000E+01  0.51100000000E-03 0. -1.
     100001    1    1    2    0    0 -0.14892090868E-01  0.15814279160E-01 -0.53044042289E-02  0.50000500000E+01  0.50000000000E+01 0.  1.
     100001    1    1    2    0    0  0.14892090868E-01 -0.15814279160E-01  0.53044042289E-02  0.50000500000E+01  0.50000000000E+01 0.  0.
</event>
<event>
 4    1  0.5017912E-001  0.5000050E+01  0.7818608E-02  0.2136455E+00
        -11   -1    0    0    0    0  0.00000000000E+00  0.00000000000E+00  0.50000499739E+01  0.50000500000E+01  0.51100000000E-03 0. -1.
         11   -1    0    0    0    0 -0.00000000000E+00 -0.00000000000E+00 -0.50000499739E+01  0.50000500000E+01  0.51100000000E-03 0.  1.
     100001    1    1    2    0    0 -0.14252132230E-01  0.15097598830E-01 -0.83031160691E-02  0.50000500000E+01  0.50000000000E+01 0.  1.
     100001    1    1    2    0    0  0.14252132230E-01 -0.15097598830E-01  0.83031160691E-02  0.50000500000E+01  0.50000000000E+01 0. -1.
</event>
<event>
 4    1  0.5017912E-001  0.5000050E+01  0.7818608E-02  0.2136455E+00
        -11   -1    0    0    0    0  0.00000000000E+00  0.00000000000E+00  0.50000499739E+01  0.50000500000E+01  0.51100000000E-03 0. -1.
         11   -1    0    0    0    0 -0.00000000000E+00 -0.00000000000E+00 -0.50000499739E+01  0.50000500000E+01  0.51100000000E-03 0.  1.
     100001    1    1    2    0    0 -0.19630971720E-01 -0.35444693010E-02  0.10102682153E-01  0.50000500000E+01  0.50000000000E+01 0.  0.
     100001    1    1    2    0    0  0.19630971720E-01  0.35444693010E-02 -0.10102682153E-01  0.50000500000E+01  0.50000000000E+01 0. -1.
</event>
<event>
 4    1  0.5017912E-001  0.5000050E+01  0.7818608E-02  0.2136455E+00
        -11   -1    0    0    0    0  0.00000000000E+00  0.00000000000E+00  0.50000499739E+01  0.50000500000E+01  0.51100000000E-03 0.  1.
         11   -1    0    0    0    0 -0.00000000000E+00 -0.00000000000E+00 -0.50000499739E+01  0.50000500000E+01  0.51100000000E-03 0. -1.
     100001    1    1    2    0    0 -0.36825114384E-02 -0.21397715373E-01  0.53459691673E-02  0.50000500000E+01  0.50000000000E+01 0.  1.
     100001    1    1    2    0    0  0.36825114384E-02  0.21397715373E-01 -0.53459691673E-02  0.50000500000E+01  0.50000000000E+01 0.  0.
</event>
<event>
 4    1  0.5017912E-001  0.5000050E+01  0.7818608E-02  0.2136455E+00
        -11   -1    0    0    0    0  0.00000000000E+00  0.00000000000E+00  0.50000499739E+01  0.50000500000E+01  0.51100000000E-03 0. -1.
         11   -1    0    0    0    0 -0.00000000000E+00 -0.00000000000E+00 -0.50000499739E+01  0.50000500000E+01  0.51100000000E-03 0.  1.
     100001    1    1    2    0    0 -0.40052356156E-02 -0.20277441221E-01 -0.85314691117E-02  0.50000500000E+01  0.50000000000E+01 0. -1.
     100001    1    1    2    0    0  0.40052356156E-02  0.20277441221E-01  0.85314691117E-02  0.50000500000E+01  0.50000000000E+01 0.  1.
</event>
<event>
 4    1  0.5017912E-001  0.5000050E+01  0.7818608E-02  0.2136455E+00
        -11   -1    0    0    0    0  0.00000000000E+00  0.00000000000E+00  0.50000499739E+01  0.50000500000E+01  0.51100000000E-03 0.  1.
         11   -1    0    0    0    0 -0.00000000000E+00 -0.00000000000E+00 -0.50000499739E+01  0.50000500000E+01  0.51100000000E-03 0. -1.
     100001    1    1    2    0    0  0.17449426986E-01  0.28859093432E-02  0.13681795391E-01  0.50000500000E+01  0.50000000000E+01 0. -1.
     100001    1    1    2    0    0 -0.17449426986E-01 -0.28859093432E-02 -0.13681795391E-01  0.50000500000E+01  0.50000000000E+01 0. -1.
</event>
<event>
 4    1  0.5017912E-001  0.5000050E+01  0.7818608E-02  0.2136455E+00
        -11   -1    0    0    0    0  0.00000000000E+00  0.00000000000E+00  0.50000499739E+01  0.50000500000E+01  0.51100000000E-03 0. -1.
         11   -1    0    0    0    0 -0.00000000000E+00 -0.00000000000E+00 -0.50000499739E+01  0.50000500000E+01  0.51100000000E-03 0.  1.
     100001    1    1    2    0    0 -0.14394938263E-03  0.20593087859E-01  0.87124342766E-02  0.50000500000E+01  0.50000000000E+01 0. -1.
     100001    1    1    2    0    0  0.14394938263E-03 -0.20593087859E-01 -0.87124342766E-02  0.50000500000E+01  0.50000000000E+01 0.  1.
</event>
<event>
 4    1  0.5017912E-001  0.5000050E+01  0.7818608E-02  0.2136455E+00
        -11   -1    0    0    0    0  0.00000000000E+00  0.00000000000E+00  0.50000499739E+01  0.50000500000E+01  0.51100000000E-03 0. -1.
         11   -1    0    0    0    0 -0.00000000000E+00 -0.00000000000E+00 -0.50000499739E+01  0.50000500000E+01  0.51100000000E-03 0.  1.
     100001    1    1    2    0    0 -0.14292650785E-01 -0.11733471858E-01  0.12571725088E-01  0.50000500000E+01  0.50000000000E+01 0. -1.
     100001    1    1    2    0    0  0.14292650785E-01  0.11733471858E-01 -0.12571725088E-01  0.50000500000E+01  0.50000000000E+01 0.  0.
</event>
<event>
 4    1  0.5017912E-001  0.5000050E+01  0.7818608E-02  0.2136455E+00
        -11   -1    0    0    0    0  0.00000000000E+00  0.00000000000E+00  0.50000499739E+01  0.50000500000E+01  0.51100000000E-03 0.  1.
         11   -1    0    0    0    0 -0.00000000000E+00 -0.00000000000E+00 -0.50000499739E+01  0.50000500000E+01  0.51100000000E-03 0. -1.
     100001    1    1    2    0    0 -0.10382776648E-01  0.52598841646E-03  0.19797065067E-01  0.50000500000E+01  0.50000000000E+01 0.  1.
     100001    1    1    2    0    0  0.10382776648E-01 -0.52598841646E-03 -0.19797065067E-01  0.50000500000E+01  0.50000000000E+01 0.  0.
</event>
<event>
 4    1  0.5017912E-001  0.5000050E+01  0.7818608E-02  0.2136455E+00
        -11   -1    0    0    0    0  0.00000000000E+00  0.00000000000E+00  0.50000499739E+01  0.50000500000E+01  0.51100000000E-03 0. -1.
         11   -1    0    0    0    0 -0.00000000000E+00 -0.00000000000E+00 -0.50000499739E+01  0.50000500000E+01  0.51100000000E-03 0.  1.
     100001    1    1    2    0    0  0.17162185164E-01 -0.11428987984E-01  0.86510192488E-02  0.50000500000E+01  0.50000000000E+01 0.  0.
     100001    1    1    2    0    0 -0.17162185164E-01  0.11428987984E-01 -0.86510192488E-02  0.50000500000E+01  0.50000000000E+01 0. -1.
</event>
<event>
 4    1  0.5017912E-001  0.5000050E+01  0.7818608E-02  0.2136455E+00
        -11   -1    0    0    0    0  0.00000000000E+00  0.00000000000E+00  0.50000499739E+01  0.50000500000E+01  0.51100000000E-03 0. -1.
         11   -1    0    0    0    0 -0.00000000000E+00 -0.00000000000E+00 -0.50000499739E+01  0.50000500000E+01  0.51100000000E-03 0.  1.
     100001    1    1    2    0    0 -0.21385208004E-01  0.39950845642E-02  0.51686243752E-02  0.50000500000E+01  0.50000000000E+01 0. -1.
     100001    1    1    2    0    0  0.21385208004E-01 -0.39950845642E-02 -0.51686243752E-02  0.50000500000E+01  0.50000000000E+01 0.  1.
</event>
<event>
 4    1  0.5017912E-001  0.5000050E+01  0.7818608E-02  0.2136455E+00
        -11   -1    0    0    0    0  0.00000000000E+00  0.00000000000E+00  0.50000499739E+01  0.50000500000E+01  0.51100000000E-03 0. -1.
         11   -1    0    0    0    0 -0.00000000000E+00 -0.00000000000E+00 -0.50000499739E+01  0.50000500000E+01  0.51100000000E-03 0.  1.
     100001    1    1    2    0    0 -0.37606308326E-02  0.12868441753E-01 -0.17895903514E-01  0.50000500000E+01  0.50000000000E+01 0.  1.
     100001    1    1    2    0    0  0.37606308326E-02 -0.12868441753E-01  0.17895903514E-01  0.50000500000E+01  0.50000000000E+01 0. -1.
</event>
<event>
 4    1  0.5017912E-001  0.5000050E+01  0.7818608E-02  0.2136455E+00
        -11   -1    0    0    0    0  0.00000000000E+00  0.00000000000E+00  0.50000499739E+01  0.50000500000E+01  0.51100000000E-03 0. -1.
         11   -1    0    0    0    0 -0.00000000000E+00 -0.00000000000E+00 -0.50000499739E+01  0.50000500000E+01  0.51100000000E-03 0.  1.
     100001    1    1    2    0    0  0.60777904292E-02 -0.21298834490E-01 -0.30696274814E-02  0.50000500000E+01  0.50000000000E+01 0. -1.
     100001    1    1    2    0    0 -0.60777904292E-02  0.21298834490E-01  0.30696274814E-02  0.50000500000E+01  0.50000000000E+01 0.  1.
</event>
<event>
 4    1  0.5017912E-001  0.5000050E+01  0.7818608E-02  0.2136455E+00
        -11   -1    0    0    0    0  0.00000000000E+00  0.00000000000E+00  0.50000499739E+01  0.50000500000E+01  0.51100000000E-03 0.  1.
         11   -1    0    0    0    0 -0.00000000000E+00 -0.00000000000E+00 -0.50000499739E+01  0.50000500000E+01  0.51100000000E-03 0. -1.
     100001    1    1    2    0    0 -0.39922722033E-02  0.20037853974E-01  0.90856299051E-02  0.50000500000E+01  0.50000000000E+01 0.  1.
     100001    1    1    2    0    0  0.39922722033E-02 -0.20037853974E-01 -0.90856299051E-02  0.50000500000E+01  0.50000000000E+01 0. -1.
</event>
<event>
 4    1  0.5017912E-001  0.5000050E+01  0.7818608E-02  0.2136455E+00
        -11   -1    0    0    0    0  0.00000000000E+00  0.00000000000E+00  0.50000499739E+01  0.50000500000E+01  0.51100000000E-03 0.  1.
         11   -1    0    0    0    0 -0.00000000000E+00 -0.00000000000E+00 -0.50000499739E+01  0.50000500000E+01  0.51100000000E-03 0. -1.
     100001    1    1    2    0    0 -0.40634848232E-02 -0.19086829818E-01 -0.10917120434E-01  0.50000500000E+01  0.50000000000E+01 0.  1.
     100001    1    1    2    0    0  0.40634848232E-02  0.19086829818E-01  0.10917120434E-01  0.50000500000E+01  0.50000000000E+01 0. -1.
</event>
<event>
 4    1  0.5017912E-001  0.5000050E+01  0.7818608E-02  0.2136455E+00
        -11   -1    0    0    0    0  0.00000000000E+00  0.00000000000E+00  0.50000499739E+01  0.50000500000E+01  0.51100000000E-03 0.  1.
         11   -1    0    0    0    0 -0.00000000000E+00 -0.00000000000E+00 -0.50000499739E+01  0.50000500000E+01  0.51100000000E-03 0. -1.
     100001    1    1    2    0    0 -0.88667803938E-02 -0.86744029370E-02 -0.18604769258E-01  0.50000500000E+01  0.50000000000E+01 0. -1.
     100001    1    1    2    0    0  0.88667803938E-02  0.86744029370E-02  0.18604769258E-01  0.50000500000E+01  0.50000000000E+01 0.  1.
</event>
<event>
 4    1  0.5017912E-001  0.5000050E+01  0.7818608E-02  0.2136455E+00
        -11   -1    0    0    0    0  0.00000000000E+00  0.00000000000E+00  0.50000499739E+01  0.50000500000E+01  0.51100000000E-03 0. -1.
         11   -1    0    0    0    0 -0.00000000000E+00 -0.00000000000E+00 -0.50000499739E+01  0.50000500000E+01  0.51100000000E-03 0.  1.
     100001    1    1    2    0    0 -0.25136849971E-02 -0.21951491191E-01  0.34374295948E-02  0.50000500000E+01  0.50000000000E+01 0. -1.
     100001    1    1    2    0    0  0.25136849971E-02  0.21951491191E-01 -0.34374295948E-02  0.50000500000E+01  0.50000000000E+01 0.  1.
</event>
<event>
 4    1  0.5017912E-001  0.5000050E+01  0.7818608E-02  0.2136455E+00
        -11   -1    0    0    0    0  0.00000000000E+00  0.00000000000E+00  0.50000499739E+01  0.50000500000E+01  0.51100000000E-03 0.  1.
         11   -1    0    0    0    0 -0.00000000000E+00 -0.00000000000E+00 -0.50000499739E+01  0.50000500000E+01  0.51100000000E-03 0. -1.
     100001    1    1    2    0    0 -0.75137945197E-02  0.12390578215E-01  0.17029943142E-01  0.50000500000E+01  0.50000000000E+01 0.  1.
     100001    1    1    2    0    0  0.75137945197E-02 -0.12390578215E-01 -0.17029943142E-01  0.50000500000E+01  0.50000000000E+01 0. -1.
</event>
<event>
 4    1  0.5017912E-001  0.5000050E+01  0.7818608E-02  0.2136455E+00
        -11   -1    0    0    0    0  0.00000000000E+00  0.00000000000E+00  0.50000499739E+01  0.50000500000E+01  0.51100000000E-03 0. -1.
         11   -1    0    0    0    0 -0.00000000000E+00 -0.00000000000E+00 -0.50000499739E+01  0.50000500000E+01  0.51100000000E-03 0.  1.
     100001    1    1    2    0    0  0.97963895169E-02  0.10223761856E-01  0.17306297869E-01  0.50000500000E+01  0.50000000000E+01 0.  0.
     100001    1    1    2    0    0 -0.97963895169E-02 -0.10223761856E-01 -0.17306297869E-01  0.50000500000E+01  0.50000000000E+01 0.  1.
</event>
<event>
 4    1  0.5017912E-001  0.5000050E+01  0.7818608E-02  0.2136455E+00
        -11   -1    0    0    0    0  0.00000000000E+00  0.00000000000E+00  0.50000499739E+01  0.50000500000E+01  0.51100000000E-03 0. -1.
         11   -1    0    0    0    0 -0.00000000000E+00 -0.00000000000E+00 -0.50000499739E+01  0.50000500000E+01  0.51100000000E-03 0.  1.
     100001    1    1    2    0    0  0.15898088252E-01  0.58279693075E-02  0.14604385084E-01  0.50000500000E+01  0.50000000000E+01 0.  1.
     100001    1    1    2    0    0 -0.15898088252E-01 -0.58279693075E-02 -0.14604385084E-01  0.50000500000E+01  0.50000000000E+01 0.  1.
</event>
<event>
 4    1  0.5017912E-001  0.5000050E+01  0.7818608E-02  0.2136455E+00
        -11   -1    0    0    0    0  0.00000000000E+00  0.00000000000E+00  0.50000499739E+01  0.50000500000E+01  0.51100000000E-03 0.  1.
         11   -1    0    0    0    0 -0.00000000000E+00 -0.00000000000E+00 -0.50000499739E+01  0.50000500000E+01  0.51100000000E-03 0. -1.
     100001    1    1    2    0    0 -0.13319982640E-01 -0.17590759333E-01 -0.36257066271E-02  0.50000500000E+01  0.50000000000E+01 0.  0.
     100001    1    1    2    0    0  0.13319982640E-01  0.17590759333E-01  0.36257066271E-02  0.50000500000E+01  0.50000000000E+01 0. -1.
</event>
<event>
 4    1  0.5017912E-001  0.5000050E+01  0.7818608E-02  0.2136455E+00
        -11   -1    0    0    0    0  0.00000000000E+00  0.00000000000E+00  0.50000499739E+01  0.50000500000E+01  0.51100000000E-03 0.  1.
         11   -1    0    0    0    0 -0.00000000000E+00 -0.00000000000E+00 -0.50000499739E+01  0.50000500000E+01  0.51100000000E-03 0. -1.
     100001    1    1    2    0    0 -0.68825081520E-02  0.11325550557E-01  0.18010149530E-01  0.50000500000E+01  0.50000000000E+01 0.  1.
     100001    1    1    2    0    0  0.68825081520E-02 -0.11325550557E-01 -0.18010149530E-01  0.50000500000E+01  0.50000000000E+01 0. -1.
</event>
<event>
 4    1  0.5017912E-001  0.5000050E+01  0.7818608E-02  0.2136455E+00
        -11   -1    0    0    0    0  0.00000000000E+00  0.00000000000E+00  0.50000499739E+01  0.50000500000E+01  0.51100000000E-03 0. -1.
         11   -1    0    0    0    0 -0.00000000000E+00 -0.00000000000E+00 -0.50000499739E+01  0.50000500000E+01  0.51100000000E-03 0.  1.
     100001    1    1    2    0    0 -0.18264931711E-01 -0.74653022839E-02 -0.10519697306E-01  0.50000500000E+01  0.50000000000E+01 0.  1.
     100001    1    1    2    0    0  0.18264931711E-01  0.74653022839E-02  0.10519697306E-01  0.50000500000E+01  0.50000000000E+01 0. -1.
</event>
<event>
 4    1  0.5017912E-001  0.5000050E+01  0.7818608E-02  0.2136455E+00
        -11   -1    0    0    0    0  0.00000000000E+00  0.00000000000E+00  0.50000499739E+01  0.50000500000E+01  0.51100000000E-03 0.  1.
         11   -1    0    0    0    0 -0.00000000000E+00 -0.00000000000E+00 -0.50000499739E+01  0.50000500000E+01  0.51100000000E-03 0. -1.
     100001    1    1    2    0    0 -0.21522471888E-01 -0.58290812515E-02  0.16755642656E-02  0.50000500000E+01  0.50000000000E+01 0.  0.
     100001    1    1    2    0    0  0.21522471888E-01  0.58290812515E-02 -0.16755642656E-02  0.50000500000E+01  0.50000000000E+01 0. -1.
</event>
<event>
 4    1  0.5017912E-001  0.5000050E+01  0.7818608E-02  0.2136455E+00
        -11   -1    0    0    0    0  0.00000000000E+00  0.00000000000E+00  0.50000499739E+01  0.50000500000E+01  0.51100000000E-03 0. -1.
         11   -1    0    0    0    0 -0.00000000000E+00 -0.00000000000E+00 -0.50000499739E+01  0.50000500000E+01  0.51100000000E-03 0.  1.
     100001    1    1    2    0    0 -0.11572785234E-01 -0.26956119378E-02 -0.18942196763E-01  0.50000500000E+01  0.50000000000E+01 0.  0.
     100001    1    1    2    0    0  0.11572785234E-01  0.26956119378E-02  0.18942196763E-01  0.50000500000E+01  0.50000000000E+01 0.  0.
</event>
<event>
 4    1  0.5017912E-001  0.5000050E+01  0.7818608E-02  0.2136455E+00
        -11   -1    0    0    0    0  0.00000000000E+00  0.00000000000E+00  0.50000499739E+01  0.50000500000E+01  0.51100000000E-03 0. -1.
         11   -1    0    0    0    0 -0.00000000000E+00 -0.00000000000E+00 -0.50000499739E+01  0.50000500000E+01  0.51100000000E-03 0.  1.
     100001    1    1    2    0    0 -0.13497784550E-01  0.41558360140E-02  0.17336128151E-01  0.50000500000E+01  0.50000000000E+01 0.  0.
     100001    1    1    2    0    0  0.13497784550E-01 -0.41558360140E-02 -0.17336128151E-01  0.50000500000E+01  0.50000000000E+01 0.  1.
</event>
<event>
 4    1  0.5017912E-001  0.5000050E+01  0.7818608E-02  0.2136455E+00
        -11   -1    0    0    0    0  0.00000000000E+00  0.00000000000E+00  0.50000499739E+01  0.50000500000E+01  0.51100000000E-03 0.  1.
         11   -1    0    0    0    0 -0.00000000000E+00 -0.00000000000E+00 -0.50000499739E+01  0.50000500000E+01  0.51100000000E-03 0. -1.
     100001    1    1    2    0    0 -0.44600633936E-03  0.18272131826E-01  0.12881489700E-01  0.50000500000E+01  0.50000000000E+01 0.  1.
     100001    1    1    2    0    0  0.44600633936E-03 -0.18272131826E-01 -0.12881489700E-01  0.50000500000E+01  0.50000000000E+01 0.  0.
</event>
<event>
 4    1  0.5017912E-001  0.5000050E+01  0.7818608E-02  0.2136455E+00
        -11   -1    0    0    0    0  0.00000000000E+00  0.00000000000E+00  0.50000499739E+01  0.50000500000E+01  0.51100000000E-03 0.  1.
         11   -1    0    0    0    0 -0.00000000000E+00 -0.00000000000E+00 -0.50000499739E+01  0.50000500000E+01  0.51100000000E-03 0. -1.
     100001    1    1    2    0    0  0.29104143304E-02  0.14281636161E-01  0.16957796348E-01  0.50000500000E+01  0.50000000000E+01 0.  1.
     100001    1    1    2    0    0 -0.29104143304E-02 -0.14281636161E-01 -0.16957796348E-01  0.50000500000E+01  0.50000000000E+01 0.  1.
</event>
<event>
 4    1  0.5017912E-001  0.5000050E+01  0.7818608E-02  0.2136455E+00
        -11   -1    0    0    0    0  0.00000000000E+00  0.00000000000E+00  0.50000499739E+01  0.50000500000E+01  0.51100000000E-03 0.  1.
         11   -1    0    0    0    0 -0.00000000000E+00 -0.00000000000E+00 -0.50000499739E+01  0.50000500000E+01  0.51100000000E-03 0. -1.
     100001    1    1    2    0    0 -0.82516495578E-02  0.20780898530E-01  0.25891287814E-03  0.50000500000E+01  0.50000000000E+01 0.  0.
     100001    1    1    2    0    0  0.82516495578E-02 -0.20780898530E-01 -0.25891287814E-03  0.50000500000E+01  0.50000000000E+01 0. -1.
</event>
<event>
 4    1  0.5017912E-001  0.5000050E+01  0.7818608E-02  0.2136455E+00
        -11   -1    0    0    0    0  0.00000000000E+00  0.00000000000E+00  0.50000499739E+01  0.50000500000E+01  0.51100000000E-03 0. -1.
         11   -1    0    0    0    0 -0.00000000000E+00 -0.00000000000E+00 -0.50000499739E+01  0.50000500000E+01  0.51100000000E-03 0.  1.
     100001    1    1    2    0    0 -0.41979547889E-02 -0.18187873197E-01 -0.12311821318E-01  0.50000500000E+01  0.50000000000E+01 0.  0.
     100001    1    1    2    0    0  0.41979547889E-02  0.18187873197E-01  0.12311821318E-01  0.50000500000E+01  0.50000000000E+01 0.  0.
</event>
<event>
 4    1  0.5017912E-001  0.5000050E+01  0.7818608E-02  0.2136455E+00
        -11   -1    0    0    0    0  0.00000000000E+00  0.00000000000E+00  0.50000499739E+01  0.50000500000E+01  0.51100000000E-03 0. -1.
         11   -1    0    0    0    0 -0.00000000000E+00 -0.00000000000E+00 -0.50000499739E+01  0.50000500000E+01  0.51100000000E-03 0.  1.
     100001    1    1    2    0    0  0.15768349268E-01 -0.15488866616E-01 -0.33847706445E-02  0.50000500000E+01  0.50000000000E+01 0.  1.
     100001    1    1    2    0    0 -0.15768349268E-01  0.15488866616E-01  0.33847706445E-02  0.50000500000E+01  0.50000000000E+01 0.  0.
</event>
<event>
 4    1  0.5017912E-001  0.5000050E+01  0.7818608E-02  0.2136455E+00
        -11   -1    0    0    0    0  0.00000000000E+00  0.00000000000E+00  0.50000499739E+01  0.50000500000E+01  0.51100000000E-03 0. -1.
         11   -1    0    0    0    0 -0.00000000000E+00 -0.00000000000E+00 -0.50000499739E+01  0.50000500000E+01  0.51100000000E-03 0.  1.
     100001    1    1    2    0    0  0.11311580259E-01  0.10906620553E-01 -0.15908999974E-01  0.50000500000E+01  0.50000000000E+01 0.  0.
     100001    1    1    2    0    0 -0.11311580259E-01 -0.10906620553E-01  0.15908999974E-01  0.50000500000E+01  0.50000000000E+01 0.  0.
</event>
<event>
 4    1  0.5017912E-001  0.5000050E+01  0.7818608E-02  0.2136455E+00
        -11   -1    0    0    0    0  0.00000000000E+00  0.00000000000E+00  0.50000499739E+01  0.50000500000E+01  0.51100000000E-03 0.  1.
         11   -1    0    0    0    0 -0.00000000000E+00 -0.00000000000E+00 -0.50000499739E+01  0.50000500000E+01  0.51100000000E-03 0. -1.
     100001    1    1    2    0    0  0.19202464872E-01 -0.89209850369E-02  0.71891493811E-02  0.50000500000E+01  0.50000000000E+01 0.  1.
     100001    1    1    2    0    0 -0.19202464872E-01  0.89209850369E-02 -0.71891493811E-02  0.50000500000E+01  0.50000000000E+01 0. -1.
</event>
<event>
 4    1  0.5017912E-001  0.5000050E+01  0.7818608E-02  0.2136455E+00
        -11   -1    0    0    0    0  0.00000000000E+00  0.00000000000E+00  0.50000499739E+01  0.50000500000E+01  0.51100000000E-03 0.  1.
         11   -1    0    0    0    0 -0.00000000000E+00 -0.00000000000E+00 -0.50000499739E+01  0.50000500000E+01  0.51100000000E-03 0. -1.
     100001    1    1    2    0    0 -0.16149226952E-01 -0.78495682980E-02  0.13326261530E-01  0.50000500000E+01  0.50000000000E+01 0.  1.
     100001    1    1    2    0    0  0.16149226952E-01  0.78495682980E-02 -0.13326261530E-01  0.50000500000E+01  0.50000000000E+01 0. -1.
</event>
<event>
 4    1  0.5017912E-001  0.5000050E+01  0.7818608E-02  0.2136455E+00
        -11   -1    0    0    0    0  0.00000000000E+00  0.00000000000E+00  0.50000499739E+01  0.50000500000E+01  0.51100000000E-03 0.  1.
         11   -1    0    0    0    0 -0.00000000000E+00 -0.00000000000E+00 -0.50000499739E+01  0.50000500000E+01  0.51100000000E-03 0. -1.
     100001    1    1    2    0    0 -0.17922539909E-01 -0.13304062893E-01 -0.13367773762E-02  0.50000500000E+01  0.50000000000E+01 0.  1.
     100001    1    1    2    0    0  0.17922539909E-01  0.13304062893E-01  0.13367773762E-02  0.50000500000E+01  0.50000000000E+01 0. -1.
</event>
<event>
 4    1  0.5017912E-001  0.5000050E+01  0.7818608E-02  0.2136455E+00
        -11   -1    0    0    0    0  0.00000000000E+00  0.00000000000E+00  0.50000499739E+01  0.50000500000E+01  0.51100000000E-03 0. -1.
         11   -1    0    0    0    0 -0.00000000000E+00 -0.00000000000E+00 -0.50000499739E+01  0.50000500000E+01  0.51100000000E-03 0.  1.
     100001    1    1    2    0    0 -0.88436825272E-02  0.41607531968E-02  0.20111685961E-01  0.50000500000E+01  0.50000000000E+01 0. -1.
     100001    1    1    2    0    0  0.88436825272E-02 -0.41607531968E-02 -0.20111685961E-01  0.50000500000E+01  0.50000000000E+01 0.  0.
</event>
<event>
 4    1  0.5017912E-001  0.5000050E+01  0.7818608E-02  0.2136455E+00
        -11   -1    0    0    0    0  0.00000000000E+00  0.00000000000E+00  0.50000499739E+01  0.50000500000E+01  0.51100000000E-03 0. -1.
         11   -1    0    0    0    0 -0.00000000000E+00 -0.00000000000E+00 -0.50000499739E+01  0.50000500000E+01  0.51100000000E-03 0.  1.
     100001    1    1    2    0    0  0.21576435338E-01 -0.35681355455E-02  0.46613674846E-02  0.50000500000E+01  0.50000000000E+01 0.  0.
     100001    1    1    2    0    0 -0.21576435338E-01  0.35681355455E-02 -0.46613674846E-02  0.50000500000E+01  0.50000000000E+01 0. -1.
</event>
<event>
 4    1  0.5017912E-001  0.5000050E+01  0.7818608E-02  0.2136455E+00
        -11   -1    0    0    0    0  0.00000000000E+00  0.00000000000E+00  0.50000499739E+01  0.50000500000E+01  0.51100000000E-03 0. -1.
         11   -1    0    0    0    0 -0.00000000000E+00 -0.00000000000E+00 -0.50000499739E+01  0.50000500000E+01  0.51100000000E-03 0.  1.
     100001    1    1    2    0    0 -0.12194960252E-01  0.12357463612E-01 -0.14091789720E-01  0.50000500000E+01  0.50000000000E+01 0.  0.
     100001    1    1    2    0    0  0.12194960252E-01 -0.12357463612E-01  0.14091789720E-01  0.50000500000E+01  0.50000000000E+01 0.  0.
</event>
<event>
 4    1  0.5017912E-001  0.5000050E+01  0.7818608E-02  0.2136455E+00
        -11   -1    0    0    0    0  0.00000000000E+00  0.00000000000E+00  0.50000499739E+01  0.50000500000E+01  0.51100000000E-03 0.  1.
         11   -1    0    0    0    0 -0.00000000000E+00 -0.00000000000E+00 -0.50000499739E+01  0.50000500000E+01  0.51100000000E-03 0. -1.
     100001    1    1    2    0    0 -0.86458999949E-02 -0.20098643552E-01 -0.46146983279E-02  0.50000500000E+01  0.50000000000E+01 0.  1.
     100001    1    1    2    0    0  0.86458999949E-02  0.20098643552E-01  0.46146983279E-02  0.50000500000E+01  0.50000000000E+01 0.  0.
</event>
<event>
 4    1  0.5017912E-001  0.5000050E+01  0.7818608E-02  0.2136455E+00
        -11   -1    0    0    0    0  0.00000000000E+00  0.00000000000E+00  0.50000499739E+01  0.50000500000E+01  0.51100000000E-03 0. -1.
         11   -1    0    0    0    0 -0.00000000000E+00 -0.00000000000E+00 -0.50000499739E+01  0.50000500000E+01  0.51100000000E-03 0.  1.
     100001    1    1    2    0    0  0.16811322205E-01  0.11459697025E-01  0.92767068418E-02  0.50000500000E+01  0.50000000000E+01 0.  0.
     100001    1    1    2    0    0 -0.16811322205E-01 -0.11459697025E-01 -0.92767068418E-02  0.50000500000E+01  0.50000000000E+01 0.  0.
</event>
<event>
 4    1  0.5017912E-001  0.5000050E+01  0.7818608E-02  0.2136455E+00
        -11   -1    0    0    0    0  0.00000000000E+00  0.00000000000E+00  0.50000499739E+01  0.50000500000E+01  0.51100000000E-03 0. -1.
         11   -1    0    0    0    0 -0.00000000000E+00 -0.00000000000E+00 -0.50000499739E+01  0.50000500000E+01  0.51100000000E-03 0.  1.
     100001    1    1    2    0    0 -0.10143699092E-01 -0.61281432448E-02  0.18961902043E-01  0.50000500000E+01  0.50000000000E+01 0.  0.
     100001    1    1    2    0    0  0.10143699092E-01  0.61281432448E-02 -0.18961902043E-01  0.50000500000E+01  0.50000000000E+01 0.  1.
</event>
<event>
 4    1  0.5017912E-001  0.5000050E+01  0.7818608E-02  0.2136455E+00
        -11   -1    0    0    0    0  0.00000000000E+00  0.00000000000E+00  0.50000499739E+01  0.50000500000E+01  0.51100000000E-03 0.  1.
         11   -1    0    0    0    0 -0.00000000000E+00 -0.00000000000E+00 -0.50000499739E+01  0.50000500000E+01  0.51100000000E-03 0. -1.
     100001    1    1    2    0    0  0.93644823372E-03 -0.21910936158E-01  0.43630770520E-02  0.50000500000E+01  0.50000000000E+01 0.  0.
     100001    1    1    2    0    0 -0.93644823372E-03  0.21910936158E-01 -0.43630770520E-02  0.50000500000E+01  0.50000000000E+01 0.  1.
</event>
<event>
 4    1  0.5017912E-001  0.5000050E+01  0.7818608E-02  0.2136455E+00
        -11   -1    0    0    0    0  0.00000000000E+00  0.00000000000E+00  0.50000499739E+01  0.50000500000E+01  0.51100000000E-03 0. -1.
         11   -1    0    0    0    0 -0.00000000000E+00 -0.00000000000E+00 -0.50000499739E+01  0.50000500000E+01  0.51100000000E-03 0.  1.
     100001    1    1    2    0    0  0.67548819524E-02  0.43197335616E-02 -0.20873762760E-01  0.50000500000E+01  0.50000000000E+01 0.  0.
     100001    1    1    2    0    0 -0.67548819524E-02 -0.43197335616E-02  0.20873762760E-01  0.50000500000E+01  0.50000000000E+01 0. -1.
</event>
<event>
 4    1  0.5017912E-001  0.5000050E+01  0.7818608E-02  0.2136455E+00
        -11   -1    0    0    0    0  0.00000000000E+00  0.00000000000E+00  0.50000499739E+01  0.50000500000E+01  0.51100000000E-03 0. -1.
         11   -1    0    0    0    0 -0.00000000000E+00 -0.00000000000E+00 -0.50000499739E+01  0.50000500000E+01  0.51100000000E-03 0.  1.
     100001    1    1    2    0    0 -0.10737375808E-01 -0.15367233659E-01  0.12188494182E-01  0.50000500000E+01  0.50000000000E+01 0. -1.
     100001    1    1    2    0    0  0.10737375808E-01  0.15367233659E-01 -0.12188494182E-01  0.50000500000E+01  0.50000000000E+01 0.  1.
</event>
<event>
 4    1  0.5017912E-001  0.5000050E+01  0.7818608E-02  0.2136455E+00
        -11   -1    0    0    0    0  0.00000000000E+00  0.00000000000E+00  0.50000499739E+01  0.50000500000E+01  0.51100000000E-03 0. -1.
         11   -1    0    0    0    0 -0.00000000000E+00 -0.00000000000E+00 -0.50000499739E+01  0.50000500000E+01  0.51100000000E-03 0.  1.
     100001    1    1    2    0    0 -0.19241994975E-01 -0.40983126611E-02 -0.10627886088E-01  0.50000500000E+01  0.50000000000E+01 0. -1.
     100001    1    1    2    0    0  0.19241994975E-01  0.40983126611E-02  0.10627886088E-01  0.50000500000E+01  0.50000000000E+01 0.  0.
</event>
<event>
 4    1  0.5017912E-001  0.5000050E+01  0.7818608E-02  0.2136455E+00
        -11   -1    0    0    0    0  0.00000000000E+00  0.00000000000E+00  0.50000499739E+01  0.50000500000E+01  0.51100000000E-03 0.  1.
         11   -1    0    0    0    0 -0.00000000000E+00 -0.00000000000E+00 -0.50000499739E+01  0.50000500000E+01  0.51100000000E-03 0. -1.
     100001    1    1    2    0    0  0.47618488763E-02  0.43012763688E-02  0.21420231485E-01  0.50000500000E+01  0.50000000000E+01 0.  0.
     100001    1    1    2    0    0 -0.47618488763E-02 -0.43012763688E-02 -0.21420231485E-01  0.50000500000E+01  0.50000000000E+01 0. -1.
</event>
<event>
 4    1  0.5017912E-001  0.5000050E+01  0.7818608E-02  0.2136455E+00
        -11   -1    0    0    0    0  0.00000000000E+00  0.00000000000E+00  0.50000499739E+01  0.50000500000E+01  0.51100000000E-03 0.  1.
         11   -1    0    0    0    0 -0.00000000000E+00 -0.00000000000E+00 -0.50000499739E+01  0.50000500000E+01  0.51100000000E-03 0. -1.
     100001    1    1    2    0    0 -0.11335986608E-01  0.15727118962E-01 -0.11142514832E-01  0.50000500000E+01  0.50000000000E+01 0. -1.
     100001    1    1    2    0    0  0.11335986608E-01 -0.15727118962E-01  0.11142514832E-01  0.50000500000E+01  0.50000000000E+01 0.  1.
</event>
<event>
 4    1  0.5017912E-001  0.5000050E+01  0.7818608E-02  0.2136455E+00
        -11   -1    0    0    0    0  0.00000000000E+00  0.00000000000E+00  0.50000499739E+01  0.50000500000E+01  0.51100000000E-03 0.  1.
         11   -1    0    0    0    0 -0.00000000000E+00 -0.00000000000E+00 -0.50000499739E+01  0.50000500000E+01  0.51100000000E-03 0. -1.
     100001    1    1    2    0    0  0.19796828897E-01  0.76468917854E-02  0.70436575474E-02  0.50000500000E+01  0.50000000000E+01 0. -1.
     100001    1    1    2    0    0 -0.19796828897E-01 -0.76468917854E-02 -0.70436575474E-02  0.50000500000E+01  0.50000000000E+01 0.  0.
</event>
<event>
 4    1  0.5017912E-001  0.5000050E+01  0.7818608E-02  0.2136455E+00
        -11   -1    0    0    0    0  0.00000000000E+00  0.00000000000E+00  0.50000499739E+01  0.50000500000E+01  0.51100000000E-03 0. -1.
         11   -1    0    0    0    0 -0.00000000000E+00 -0.00000000000E+00 -0.50000499739E+01  0.50000500000E+01  0.51100000000E-03 0.  1.
     100001    1    1    2    0    0  0.20404006599E-01 -0.90533619217E-02 -0.13098292263E-02  0.50000500000E+01  0.50000000000E+01 0.  0.
     100001    1    1    2    0    0 -0.20404006599E-01  0.90533619217E-02  0.13098292263E-02  0.50000500000E+01  0.50000000000E+01 0. -1.
</event>
<event>
 4    1  0.5017912E-001  0.5000050E+01  0.7818608E-02  0.2136455E+00
        -11   -1    0    0    0    0  0.00000000000E+00  0.00000000000E+00  0.50000499739E+01  0.50000500000E+01  0.51100000000E-03 0. -1.
         11   -1    0    0    0    0 -0.00000000000E+00 -0.00000000000E+00 -0.50000499739E+01  0.50000500000E+01  0.51100000000E-03 0.  1.
     100001    1    1    2    0    0 -0.22313866470E-01 -0.14360714096E-02 -0.17765716377E-03  0.50000500000E+01  0.50000000000E+01 0. -1.
     100001    1    1    2    0    0  0.22313866470E-01  0.14360714096E-02  0.17765716377E-03  0.50000500000E+01  0.50000000000E+01 0.  0.
</event>
<event>
 4    1  0.5017912E-001  0.5000050E+01  0.7818608E-02  0.2136455E+00
        -11   -1    0    0    0    0  0.00000000000E+00  0.00000000000E+00  0.50000499739E+01  0.50000500000E+01  0.51100000000E-03 0.  1.
         11   -1    0    0    0    0 -0.00000000000E+00 -0.00000000000E+00 -0.50000499739E+01  0.50000500000E+01  0.51100000000E-03 0. -1.
     100001    1    1    2    0    0 -0.94341934633E-02 -0.12111028562E-01  0.16257966689E-01  0.50000500000E+01  0.50000000000E+01 0.  1.
     100001    1    1    2    0    0  0.94341934633E-02  0.12111028562E-01 -0.16257966689E-01  0.50000500000E+01  0.50000000000E+01 0. -1.
</event>
<event>
 4    1  0.5017912E-001  0.5000050E+01  0.7818608E-02  0.2136455E+00
        -11   -1    0    0    0    0  0.00000000000E+00  0.00000000000E+00  0.50000499739E+01  0.50000500000E+01  0.51100000000E-03 0. -1.
         11   -1    0    0    0    0 -0.00000000000E+00 -0.00000000000E+00 -0.50000499739E+01  0.50000500000E+01  0.51100000000E-03 0.  1.
     100001    1    1    2    0    0 -0.48313143355E-02 -0.11050278669E-01  0.18829557698E-01  0.50000500000E+01  0.50000000000E+01 0.  0.
     100001    1    1    2    0    0  0.48313143355E-02  0.11050278669E-01 -0.18829557698E-01  0.50000500000E+01  0.50000000000E+01 0.  1.
</event>
<event>
 4    1  0.5017912E-001  0.5000050E+01  0.7818608E-02  0.2136455E+00
        -11   -1    0    0    0    0  0.00000000000E+00  0.00000000000E+00  0.50000499739E+01  0.50000500000E+01  0.51100000000E-03 0.  1.
         11   -1    0    0    0    0 -0.00000000000E+00 -0.00000000000E+00 -0.50000499739E+01  0.50000500000E+01  0.51100000000E-03 0. -1.
     100001    1    1    2    0    0 -0.10459470320E-01 -0.16729143000E-01  0.10523200801E-01  0.50000500000E+01  0.50000000000E+01 0.  0.
     100001    1    1    2    0    0  0.10459470320E-01  0.16729143000E-01 -0.10523200801E-01  0.50000500000E+01  0.50000000000E+01 0.  1.
</event>
<event>
 4    1  0.5017912E-001  0.5000050E+01  0.7818608E-02  0.2136455E+00
        -11   -1    0    0    0    0  0.00000000000E+00  0.00000000000E+00  0.50000499739E+01  0.50000500000E+01  0.51100000000E-03 0. -1.
         11   -1    0    0    0    0 -0.00000000000E+00 -0.00000000000E+00 -0.50000499739E+01  0.50000500000E+01  0.51100000000E-03 0.  1.
     100001    1    1    2    0    0 -0.12144441166E-01  0.69467551275E-02  0.17442982600E-01  0.50000500000E+01  0.50000000000E+01 0.  1.
     100001    1    1    2    0    0  0.12144441166E-01 -0.69467551275E-02 -0.17442982600E-01  0.50000500000E+01  0.50000000000E+01 0.  0.
</event>
<event>
 4    1  0.5017912E-001  0.5000050E+01  0.7818608E-02  0.2136455E+00
        -11   -1    0    0    0    0  0.00000000000E+00  0.00000000000E+00  0.50000499739E+01  0.50000500000E+01  0.51100000000E-03 0. -1.
         11   -1    0    0    0    0 -0.00000000000E+00 -0.00000000000E+00 -0.50000499739E+01  0.50000500000E+01  0.51100000000E-03 0.  1.
     100001    1    1    2    0    0  0.90041850623E-02 -0.55733862084E-02  0.19694276263E-01  0.50000500000E+01  0.50000000000E+01 0. -1.
     100001    1    1    2    0    0 -0.90041850623E-02  0.55733862084E-02 -0.19694276263E-01  0.50000500000E+01  0.50000000000E+01 0.  0.
</event>
<event>
 4    1  0.5017912E-001  0.5000050E+01  0.7818608E-02  0.2136455E+00
        -11   -1    0    0    0    0  0.00000000000E+00  0.00000000000E+00  0.50000499739E+01  0.50000500000E+01  0.51100000000E-03 0. -1.
         11   -1    0    0    0    0 -0.00000000000E+00 -0.00000000000E+00 -0.50000499739E+01  0.50000500000E+01  0.51100000000E-03 0.  1.
     100001    1    1    2    0    0 -0.17527445728E-01  0.13062463277E-01  0.47077807284E-02  0.50000500000E+01  0.50000000000E+01 0. -1.
     100001    1    1    2    0    0  0.17527445728E-01 -0.13062463277E-01 -0.47077807284E-02  0.50000500000E+01  0.50000000000E+01 0.  1.
</event>
<event>
 4    1  0.5017912E-001  0.5000050E+01  0.7818608E-02  0.2136455E+00
        -11   -1    0    0    0    0  0.00000000000E+00  0.00000000000E+00  0.50000499739E+01  0.50000500000E+01  0.51100000000E-03 0.  1.
         11   -1    0    0    0    0 -0.00000000000E+00 -0.00000000000E+00 -0.50000499739E+01  0.50000500000E+01  0.51100000000E-03 0. -1.
     100001    1    1    2    0    0  0.18297695974E-01 -0.55035311870E-02  0.11614988872E-01  0.50000500000E+01  0.50000000000E+01 0.  1.
     100001    1    1    2    0    0 -0.18297695974E-01  0.55035311870E-02 -0.11614988872E-01  0.50000500000E+01  0.50000000000E+01 0. -1.
</event>
<event>
 4    1  0.5017912E-001  0.5000050E+01  0.7818608E-02  0.2136455E+00
        -11   -1    0    0    0    0  0.00000000000E+00  0.00000000000E+00  0.50000499739E+01  0.50000500000E+01  0.51100000000E-03 0.  1.
         11   -1    0    0    0    0 -0.00000000000E+00 -0.00000000000E+00 -0.50000499739E+01  0.50000500000E+01  0.51100000000E-03 0. -1.
     100001    1    1    2    0    0 -0.91334631994E-02 -0.14886426020E-01 -0.13963404682E-01  0.50000500000E+01  0.50000000000E+01 0.  0.
     100001    1    1    2    0    0  0.91334631994E-02  0.14886426020E-01  0.13963404682E-01  0.50000500000E+01  0.50000000000E+01 0.  1.
</event>
<event>
 4    1  0.5017912E-001  0.5000050E+01  0.7818608E-02  0.2136455E+00
        -11   -1    0    0    0    0  0.00000000000E+00  0.00000000000E+00  0.50000499739E+01  0.50000500000E+01  0.51100000000E-03 0. -1.
         11   -1    0    0    0    0 -0.00000000000E+00 -0.00000000000E+00 -0.50000499739E+01  0.50000500000E+01  0.51100000000E-03 0.  1.
     100001    1    1    2    0    0  0.11510211150E-01 -0.52389562810E-02 -0.18441010719E-01  0.50000500000E+01  0.50000000000E+01 0.  1.
     100001    1    1    2    0    0 -0.11510211150E-01  0.52389562810E-02  0.18441010719E-01  0.50000500000E+01  0.50000000000E+01 0.  0.
</event>
<event>
 4    1  0.5017912E-001  0.5000050E+01  0.7818608E-02  0.2136455E+00
        -11   -1    0    0    0    0  0.00000000000E+00  0.00000000000E+00  0.50000499739E+01  0.50000500000E+01  0.51100000000E-03 0.  1.
         11   -1    0    0    0    0 -0.00000000000E+00 -0.00000000000E+00 -0.50000499739E+01  0.50000500000E+01  0.51100000000E-03 0. -1.
     100001    1    1    2    0    0 -0.27587381844E-02 -0.20981273201E-01 -0.72234367507E-02  0.50000500000E+01  0.50000000000E+01 0. -1.
     100001    1    1    2    0    0  0.27587381844E-02  0.20981273201E-01  0.72234367507E-02  0.50000500000E+01  0.50000000000E+01 0.  1.
</event>
<event>
 4    1  0.5017912E-001  0.5000050E+01  0.7818608E-02  0.2136455E+00
        -11   -1    0    0    0    0  0.00000000000E+00  0.00000000000E+00  0.50000499739E+01  0.50000500000E+01  0.51100000000E-03 0. -1.
         11   -1    0    0    0    0 -0.00000000000E+00 -0.00000000000E+00 -0.50000499739E+01  0.50000500000E+01  0.51100000000E-03 0.  1.
     100001    1    1    2    0    0 -0.21158355163E-01 -0.11067132182E-02 -0.71485447911E-02  0.50000500000E+01  0.50000000000E+01 0. -1.
     100001    1    1    2    0    0  0.21158355163E-01  0.11067132182E-02  0.71485447911E-02  0.50000500000E+01  0.50000000000E+01 0.  1.
</event>
<event>
 4    1  0.5017912E-001  0.5000050E+01  0.7818608E-02  0.2136455E+00
        -11   -1    0    0    0    0  0.00000000000E+00  0.00000000000E+00  0.50000499739E+01  0.50000500000E+01  0.51100000000E-03 0. -1.
         11   -1    0    0    0    0 -0.00000000000E+00 -0.00000000000E+00 -0.50000499739E+01  0.50000500000E+01  0.51100000000E-03 0.  1.
     100001    1    1    2    0    0 -0.17413553193E-01  0.13965158672E-01  0.13209876901E-02  0.50000500000E+01  0.50000000000E+01 0.  1.
     100001    1    1    2    0    0  0.17413553193E-01 -0.13965158672E-01 -0.13209876901E-02  0.50000500000E+01  0.50000000000E+01 0.  0.
</event>
<event>
 4    1  0.5017912E-001  0.5000050E+01  0.7818608E-02  0.2136455E+00
        -11   -1    0    0    0    0  0.00000000000E+00  0.00000000000E+00  0.50000499739E+01  0.50000500000E+01  0.51100000000E-03 0.  1.
         11   -1    0    0    0    0 -0.00000000000E+00 -0.00000000000E+00 -0.50000499739E+01  0.50000500000E+01  0.51100000000E-03 0. -1.
     100001    1    1    2    0    0 -0.10829929900E-01 -0.14660378355E-01  0.12953317137E-01  0.50000500000E+01  0.50000000000E+01 0.  1.
     100001    1    1    2    0    0  0.10829929900E-01  0.14660378355E-01 -0.12953317137E-01  0.50000500000E+01  0.50000000000E+01 0. -1.
</event>
<event>
 4    1  0.5017912E-001  0.5000050E+01  0.7818608E-02  0.2136455E+00
        -11   -1    0    0    0    0  0.00000000000E+00  0.00000000000E+00  0.50000499739E+01  0.50000500000E+01  0.51100000000E-03 0. -1.
         11   -1    0    0    0    0 -0.00000000000E+00 -0.00000000000E+00 -0.50000499739E+01  0.50000500000E+01  0.51100000000E-03 0.  1.
     100001    1    1    2    0    0 -0.14348543927E-01  0.83749338729E-02 -0.14966037211E-01  0.50000500000E+01  0.50000000000E+01 0.  1.
     100001    1    1    2    0    0  0.14348543927E-01 -0.83749338729E-02  0.14966037211E-01  0.50000500000E+01  0.50000000000E+01 0. -1.
</event>
<event>
 4    1  0.5017912E-001  0.5000050E+01  0.7818608E-02  0.2136455E+00
        -11   -1    0    0    0    0  0.00000000000E+00  0.00000000000E+00  0.50000499739E+01  0.50000500000E+01  0.51100000000E-03 0.  1.
         11   -1    0    0    0    0 -0.00000000000E+00 -0.00000000000E+00 -0.50000499739E+01  0.50000500000E+01  0.51100000000E-03 0. -1.
     100001    1    1    2    0    0 -0.10976894880E-01 -0.11733995548E-01  0.15550679318E-01  0.50000500000E+01  0.50000000000E+01 0.  1.
     100001    1    1    2    0    0  0.10976894880E-01  0.11733995548E-01 -0.15550679318E-01  0.50000500000E+01  0.50000000000E+01 0.  1.
</event>
<event>
 4    1  0.5017912E-001  0.5000050E+01  0.7818608E-02  0.2136455E+00
        -11   -1    0    0    0    0  0.00000000000E+00  0.00000000000E+00  0.50000499739E+01  0.50000500000E+01  0.51100000000E-03 0. -1.
         11   -1    0    0    0    0 -0.00000000000E+00 -0.00000000000E+00 -0.50000499739E+01  0.50000500000E+01  0.51100000000E-03 0.  1.
     100001    1    1    2    0    0 -0.75920302698E-02 -0.20460066175E-01  0.48733221207E-02  0.50000500000E+01  0.50000000000E+01 0. -1.
     100001    1    1    2    0    0  0.75920302698E-02  0.20460066175E-01 -0.48733221207E-02  0.50000500000E+01  0.50000000000E+01 0.  0.
</event>
<event>
 4    1  0.5017912E-001  0.5000050E+01  0.7818608E-02  0.2136455E+00
        -11   -1    0    0    0    0  0.00000000000E+00  0.00000000000E+00  0.50000499739E+01  0.50000500000E+01  0.51100000000E-03 0. -1.
         11   -1    0    0    0    0 -0.00000000000E+00 -0.00000000000E+00 -0.50000499739E+01  0.50000500000E+01  0.51100000000E-03 0.  1.
     100001    1    1    2    0    0 -0.15044649846E-02 -0.21057151229E-01  0.73712595419E-02  0.50000500000E+01  0.50000000000E+01 0.  0.
     100001    1    1    2    0    0  0.15044649846E-02  0.21057151229E-01 -0.73712595419E-02  0.50000500000E+01  0.50000000000E+01 0. -1.
</event>
<event>
 4    1  0.5017912E-001  0.5000050E+01  0.7818608E-02  0.2136455E+00
        -11   -1    0    0    0    0  0.00000000000E+00  0.00000000000E+00  0.50000499739E+01  0.50000500000E+01  0.51100000000E-03 0. -1.
         11   -1    0    0    0    0 -0.00000000000E+00 -0.00000000000E+00 -0.50000499739E+01  0.50000500000E+01  0.51100000000E-03 0.  1.
     100001    1    1    2    0    0 -0.25674936297E-02 -0.16442168894E-01  0.14935379424E-01  0.50000500000E+01  0.50000000000E+01 0.  0.
     100001    1    1    2    0    0  0.25674936297E-02  0.16442168894E-01 -0.14935379424E-01  0.50000500000E+01  0.50000000000E+01 0. -1.
</event>
<event>
 4    1  0.5017912E-001  0.5000050E+01  0.7818608E-02  0.2136455E+00
        -11   -1    0    0    0    0  0.00000000000E+00  0.00000000000E+00  0.50000499739E+01  0.50000500000E+01  0.51100000000E-03 0. -1.
         11   -1    0    0    0    0 -0.00000000000E+00 -0.00000000000E+00 -0.50000499739E+01  0.50000500000E+01  0.51100000000E-03 0.  1.
     100001    1    1    2    0    0  0.32202270171E-02 -0.10923331640E-01  0.19243530441E-01  0.50000500000E+01  0.50000000000E+01 0. -1.
     100001    1    1    2    0    0 -0.32202270171E-02  0.10923331640E-01 -0.19243530441E-01  0.50000500000E+01  0.50000000000E+01 0.  0.
</event>
<event>
 4    1  0.5017912E-001  0.5000050E+01  0.7818608E-02  0.2136455E+00
        -11   -1    0    0    0    0  0.00000000000E+00  0.00000000000E+00  0.50000499739E+01  0.50000500000E+01  0.51100000000E-03 0. -1.
         11   -1    0    0    0    0 -0.00000000000E+00 -0.00000000000E+00 -0.50000499739E+01  0.50000500000E+01  0.51100000000E-03 0.  1.
     100001    1    1    2    0    0 -0.20818823619E-01  0.66554524113E-02  0.47205970317E-02  0.50000500000E+01  0.50000000000E+01 0. -1.
     100001    1    1    2    0    0  0.20818823619E-01 -0.66554524113E-02 -0.47205970317E-02  0.50000500000E+01  0.50000000000E+01 0.  1.
</event>
<event>
 4    1  0.5017912E-001  0.5000050E+01  0.7818608E-02  0.2136455E+00
        -11   -1    0    0    0    0  0.00000000000E+00  0.00000000000E+00  0.50000499739E+01  0.50000500000E+01  0.51100000000E-03 0.  1.
         11   -1    0    0    0    0 -0.00000000000E+00 -0.00000000000E+00 -0.50000499739E+01  0.50000500000E+01  0.51100000000E-03 0. -1.
     100001    1    1    2    0    0 -0.91065580542E-02  0.14338911867E-01  0.14541963652E-01  0.50000500000E+01  0.50000000000E+01 0.  0.
     100001    1    1    2    0    0  0.91065580542E-02 -0.14338911867E-01 -0.14541963652E-01  0.50000500000E+01  0.50000000000E+01 0. -1.
</event>
<event>
 4    1  0.5017912E-001  0.5000050E+01  0.7818608E-02  0.2136455E+00
        -11   -1    0    0    0    0  0.00000000000E+00  0.00000000000E+00  0.50000499739E+01  0.50000500000E+01  0.51100000000E-03 0. -1.
         11   -1    0    0    0    0 -0.00000000000E+00 -0.00000000000E+00 -0.50000499739E+01  0.50000500000E+01  0.51100000000E-03 0.  1.
     100001    1    1    2    0    0  0.99511669669E-02  0.19010129245E-01  0.62921985093E-02  0.50000500000E+01  0.50000000000E+01 0.  0.
     100001    1    1    2    0    0 -0.99511669669E-02 -0.19010129245E-01 -0.62921985093E-02  0.50000500000E+01  0.50000000000E+01 0.  1.
</event>
<event>
 4    1  0.5017912E-001  0.5000050E+01  0.7818608E-02  0.2136455E+00
        -11   -1    0    0    0    0  0.00000000000E+00  0.00000000000E+00  0.50000499739E+01  0.50000500000E+01  0.51100000000E-03 0.  1.
         11   -1    0    0    0    0 -0.00000000000E+00 -0.00000000000E+00 -0.50000499739E+01  0.50000500000E+01  0.51100000000E-03 0. -1.
     100001    1    1    2    0    0  0.60824757002E-02  0.15565962659E-01  0.14856203952E-01  0.50000500000E+01  0.50000000000E+01 0.  1.
     100001    1    1    2    0    0 -0.60824757002E-02 -0.15565962659E-01 -0.14856203952E-01  0.50000500000E+01  0.50000000000E+01 0. -1.
</event>
<event>
 4    1  0.5017912E-001  0.5000050E+01  0.7818608E-02  0.2136455E+00
        -11   -1    0    0    0    0  0.00000000000E+00  0.00000000000E+00  0.50000499739E+01  0.50000500000E+01  0.51100000000E-03 0.  1.
         11   -1    0    0    0    0 -0.00000000000E+00 -0.00000000000E+00 -0.50000499739E+01  0.50000500000E+01  0.51100000000E-03 0. -1.
     100001    1    1    2    0    0 -0.18961668769E-01  0.67020772107E-02  0.97744451785E-02  0.50000500000E+01  0.50000000000E+01 0. -1.
     100001    1    1    2    0    0  0.18961668769E-01 -0.67020772107E-02 -0.97744451785E-02  0.50000500000E+01  0.50000000000E+01 0.  0.
</event>
<event>
 4    1  0.5017912E-001  0.5000050E+01  0.7818608E-02  0.2136455E+00
        -11   -1    0    0    0    0  0.00000000000E+00  0.00000000000E+00  0.50000499739E+01  0.50000500000E+01  0.51100000000E-03 0. -1.
         11   -1    0    0    0    0 -0.00000000000E+00 -0.00000000000E+00 -0.50000499739E+01  0.50000500000E+01  0.51100000000E-03 0.  1.
     100001    1    1    2    0    0 -0.63435768584E-02  0.20647159321E-01  0.57841459715E-02  0.50000500000E+01  0.50000000000E+01 0.  1.
     100001    1    1    2    0    0  0.63435768584E-02 -0.20647159321E-01 -0.57841459715E-02  0.50000500000E+01  0.50000000000E+01 0. -1.
</event>
<event>
 4    1  0.5017912E-001  0.5000050E+01  0.7818608E-02  0.2136455E+00
        -11   -1    0    0    0    0  0.00000000000E+00  0.00000000000E+00  0.50000499739E+01  0.50000500000E+01  0.51100000000E-03 0. -1.
         11   -1    0    0    0    0 -0.00000000000E+00 -0.00000000000E+00 -0.50000499739E+01  0.50000500000E+01  0.51100000000E-03 0.  1.
     100001    1    1    2    0    0 -0.15188511644E-01  0.13247265968E-01 -0.96861529203E-02  0.50000500000E+01  0.50000000000E+01 0.  1.
     100001    1    1    2    0    0  0.15188511644E-01 -0.13247265968E-01  0.96861529203E-02  0.50000500000E+01  0.50000000000E+01 0. -1.
</event>
<event>
 4    1  0.5017912E-001  0.5000050E+01  0.7818608E-02  0.2136455E+00
        -11   -1    0    0    0    0  0.00000000000E+00  0.00000000000E+00  0.50000499739E+01  0.50000500000E+01  0.51100000000E-03 0. -1.
         11   -1    0    0    0    0 -0.00000000000E+00 -0.00000000000E+00 -0.50000499739E+01  0.50000500000E+01  0.51100000000E-03 0.  1.
     100001    1    1    2    0    0 -0.29900870064E-02  0.51263260776E-02  0.21558818628E-01  0.50000500000E+01  0.50000000000E+01 0. -1.
     100001    1    1    2    0    0  0.29900870064E-02 -0.51263260776E-02 -0.21558818628E-01  0.50000500000E+01  0.50000000000E+01 0.  0.
</event>
<event>
 4    1  0.5017912E-001  0.5000050E+01  0.7818608E-02  0.2136455E+00
        -11   -1    0    0    0    0  0.00000000000E+00  0.00000000000E+00  0.50000499739E+01  0.50000500000E+01  0.51100000000E-03 0.  1.
         11   -1    0    0    0    0 -0.00000000000E+00 -0.00000000000E+00 -0.50000499739E+01  0.50000500000E+01  0.51100000000E-03 0. -1.
     100001    1    1    2    0    0 -0.11245496586E-01  0.17228789441E-01  0.87584314201E-02  0.50000500000E+01  0.50000000000E+01 0. -1.
     100001    1    1    2    0    0  0.11245496586E-01 -0.17228789441E-01 -0.87584314201E-02  0.50000500000E+01  0.50000000000E+01 0.  0.
</event>
<event>
 4    1  0.5017912E-001  0.5000050E+01  0.7818608E-02  0.2136455E+00
        -11   -1    0    0    0    0  0.00000000000E+00  0.00000000000E+00  0.50000499739E+01  0.50000500000E+01  0.51100000000E-03 0. -1.
         11   -1    0    0    0    0 -0.00000000000E+00 -0.00000000000E+00 -0.50000499739E+01  0.50000500000E+01  0.51100000000E-03 0.  1.
     100001    1    1    2    0    0 -0.30198768880E-02 -0.22046373651E-01  0.22000573652E-02  0.50000500000E+01  0.50000000000E+01 0.  1.
     100001    1    1    2    0    0  0.30198768880E-02  0.22046373651E-01 -0.22000573652E-02  0.50000500000E+01  0.50000000000E+01 0. -1.
</event>
<event>
 4    1  0.5017912E-001  0.5000050E+01  0.7818608E-02  0.2136455E+00
        -11   -1    0    0    0    0  0.00000000000E+00  0.00000000000E+00  0.50000499739E+01  0.50000500000E+01  0.51100000000E-03 0. -1.
         11   -1    0    0    0    0 -0.00000000000E+00 -0.00000000000E+00 -0.50000499739E+01  0.50000500000E+01  0.51100000000E-03 0.  1.
     100001    1    1    2    0    0 -0.31516075674E-02  0.14130432199E-01  0.17041148894E-01  0.50000500000E+01  0.50000000000E+01 0. -1.
     100001    1    1    2    0    0  0.31516075674E-02 -0.14130432199E-01 -0.17041148894E-01  0.50000500000E+01  0.50000000000E+01 0.  1.
</event>
<event>
 4    1  0.5017912E-001  0.5000050E+01  0.7818608E-02  0.2136455E+00
        -11   -1    0    0    0    0  0.00000000000E+00  0.00000000000E+00  0.50000499739E+01  0.50000500000E+01  0.51100000000E-03 0.  1.
         11   -1    0    0    0    0 -0.00000000000E+00 -0.00000000000E+00 -0.50000499739E+01  0.50000500000E+01  0.51100000000E-03 0. -1.
     100001    1    1    2    0    0  0.11347477705E-02 -0.90054034633E-02  0.20435693185E-01  0.50000500000E+01  0.50000000000E+01 0.  0.
     100001    1    1    2    0    0 -0.11347477705E-02  0.90054034633E-02 -0.20435693185E-01  0.50000500000E+01  0.50000000000E+01 0. -1.
</event>
<event>
 4    1  0.5017912E-001  0.5000050E+01  0.7818608E-02  0.2136455E+00
        -11   -1    0    0    0    0  0.00000000000E+00  0.00000000000E+00  0.50000499739E+01  0.50000500000E+01  0.51100000000E-03 0. -1.
         11   -1    0    0    0    0 -0.00000000000E+00 -0.00000000000E+00 -0.50000499739E+01  0.50000500000E+01  0.51100000000E-03 0.  1.
     100001    1    1    2    0    0  0.13141389365E-01  0.12621983425E-02  0.18047527280E-01  0.50000500000E+01  0.50000000000E+01 0.  0.
     100001    1    1    2    0    0 -0.13141389365E-01 -0.12621983425E-02 -0.18047527280E-01  0.50000500000E+01  0.50000000000E+01 0.  0.
</event>
<event>
 4    1  0.5017912E-001  0.5000050E+01  0.7818608E-02  0.2136455E+00
        -11   -1    0    0    0    0  0.00000000000E+00  0.00000000000E+00  0.50000499739E+01  0.50000500000E+01  0.51100000000E-03 0. -1.
         11   -1    0    0    0    0 -0.00000000000E+00 -0.00000000000E+00 -0.50000499739E+01  0.50000500000E+01  0.51100000000E-03 0.  1.
     100001    1    1    2    0    0  0.14252607881E-01 -0.16733956409E-01 -0.41037021688E-02  0.50000500000E+01  0.50000000000E+01 0.  1.
     100001    1    1    2    0    0 -0.14252607881E-01  0.16733956409E-01  0.41037021688E-02  0.50000500000E+01  0.50000000000E+01 0. -1.
</event>
<event>
 4    1  0.5017912E-001  0.5000050E+01  0.7818608E-02  0.2136455E+00
        -11   -1    0    0    0    0  0.00000000000E+00  0.00000000000E+00  0.50000499739E+01  0.50000500000E+01  0.51100000000E-03 0. -1.
         11   -1    0    0    0    0 -0.00000000000E+00 -0.00000000000E+00 -0.50000499739E+01  0.50000500000E+01  0.51100000000E-03 0.  1.
     100001    1    1    2    0    0  0.15733662101E-01 -0.14222925627E-02  0.15825026407E-01  0.50000500000E+01  0.50000000000E+01 0. -1.
     100001    1    1    2    0    0 -0.15733662101E-01  0.14222925627E-02 -0.15825026407E-01  0.50000500000E+01  0.50000000000E+01 0.  0.
</event>
<event>
 4    1  0.5017912E-001  0.5000050E+01  0.7818608E-02  0.2136455E+00
        -11   -1    0    0    0    0  0.00000000000E+00  0.00000000000E+00  0.50000499739E+01  0.50000500000E+01  0.51100000000E-03 0.  1.
         11   -1    0    0    0    0 -0.00000000000E+00 -0.00000000000E+00 -0.50000499739E+01  0.50000500000E+01  0.51100000000E-03 0. -1.
     100001    1    1    2    0    0 -0.50612326949E-02  0.91167083475E-03  0.21761325325E-01  0.50000500000E+01  0.50000000000E+01 0.  1.
     100001    1    1    2    0    0  0.50612326949E-02 -0.91167083475E-03 -0.21761325325E-01  0.50000500000E+01  0.50000000000E+01 0.  0.
</event>
<event>
 4    1  0.5017912E-001  0.5000050E+01  0.7818608E-02  0.2136455E+00
        -11   -1    0    0    0    0  0.00000000000E+00  0.00000000000E+00  0.50000499739E+01  0.50000500000E+01  0.51100000000E-03 0.  1.
         11   -1    0    0    0    0 -0.00000000000E+00 -0.00000000000E+00 -0.50000499739E+01  0.50000500000E+01  0.51100000000E-03 0. -1.
     100001    1    1    2    0    0 -0.21780892238E-01  0.48598119152E-02  0.14062224156E-02  0.50000500000E+01  0.50000000000E+01 0. -1.
     100001    1    1    2    0    0  0.21780892238E-01 -0.48598119152E-02 -0.14062224156E-02  0.50000500000E+01  0.50000000000E+01 0.  0.
</event>
<event>
 4    1  0.5017912E-001  0.5000050E+01  0.7818608E-02  0.2136455E+00
        -11   -1    0    0    0    0  0.00000000000E+00  0.00000000000E+00  0.50000499739E+01  0.50000500000E+01  0.51100000000E-03 0.  1.
         11   -1    0    0    0    0 -0.00000000000E+00 -0.00000000000E+00 -0.50000499739E+01  0.50000500000E+01  0.51100000000E-03 0. -1.
     100001    1    1    2    0    0  0.18555913469E-01 -0.10983839018E-01  0.59191093724E-02  0.50000500000E+01  0.50000000000E+01 0. -1.
     100001    1    1    2    0    0 -0.18555913469E-01  0.10983839018E-01 -0.59191093724E-02  0.50000500000E+01  0.50000000000E+01 0.  1.
</event>
<event>
 4    1  0.5017912E-001  0.5000050E+01  0.7818608E-02  0.2136455E+00
        -11   -1    0    0    0    0  0.00000000000E+00  0.00000000000E+00  0.50000499739E+01  0.50000500000E+01  0.51100000000E-03 0.  1.
         11   -1    0    0    0    0 -0.00000000000E+00 -0.00000000000E+00 -0.50000499739E+01  0.50000500000E+01  0.51100000000E-03 0. -1.
     100001    1    1    2    0    0 -0.70773906417E-02 -0.20826094629E-01 -0.40232852519E-02  0.50000500000E+01  0.50000000000E+01 0. -1.
     100001    1    1    2    0    0  0.70773906417E-02  0.20826094629E-01  0.40232852519E-02  0.50000500000E+01  0.50000000000E+01 0.  1.
</event>
<event>
 4    1  0.5017912E-001  0.5000050E+01  0.7818608E-02  0.2136455E+00
        -11   -1    0    0    0    0  0.00000000000E+00  0.00000000000E+00  0.50000499739E+01  0.50000500000E+01  0.51100000000E-03 0.  1.
         11   -1    0    0    0    0 -0.00000000000E+00 -0.00000000000E+00 -0.50000499739E+01  0.50000500000E+01  0.51100000000E-03 0. -1.
     100001    1    1    2    0    0  0.12504193031E-01 -0.17559682487E-01 -0.59418185444E-02  0.50000500000E+01  0.50000000000E+01 0. -1.
     100001    1    1    2    0    0 -0.12504193031E-01  0.17559682487E-01  0.59418185444E-02  0.50000500000E+01  0.50000000000E+01 0.  1.
</event>
<event>
 4    1  0.5017912E-001  0.5000050E+01  0.7818608E-02  0.2136455E+00
        -11   -1    0    0    0    0  0.00000000000E+00  0.00000000000E+00  0.50000499739E+01  0.50000500000E+01  0.51100000000E-03 0.  1.
         11   -1    0    0    0    0 -0.00000000000E+00 -0.00000000000E+00 -0.50000499739E+01  0.50000500000E+01  0.51100000000E-03 0. -1.
     100001    1    1    2    0    0 -0.20566089325E-02 -0.21846539671E-01  0.43013444534E-02  0.50000500000E+01  0.50000000000E+01 0.  1.
     100001    1    1    2    0    0  0.20566089325E-02  0.21846539671E-01 -0.43013444534E-02  0.50000500000E+01  0.50000000000E+01 0. -1.
</event>
<event>
 4    1  0.5017912E-001  0.5000050E+01  0.7818608E-02  0.2136455E+00
        -11   -1    0    0    0    0  0.00000000000E+00  0.00000000000E+00  0.50000499739E+01  0.50000500000E+01  0.51100000000E-03 0.  1.
         11   -1    0    0    0    0 -0.00000000000E+00 -0.00000000000E+00 -0.50000499739E+01  0.50000500000E+01  0.51100000000E-03 0. -1.
     100001    1    1    2    0    0 -0.16649781247E-01  0.14591561835E-01 -0.31422297290E-02  0.50000500000E+01  0.50000000000E+01 0.  0.
     100001    1    1    2    0    0  0.16649781247E-01 -0.14591561835E-01  0.31422297290E-02  0.50000500000E+01  0.50000000000E+01 0.  1.
</event>
<event>
 4    1  0.5017912E-001  0.5000050E+01  0.7818608E-02  0.2136455E+00
        -11   -1    0    0    0    0  0.00000000000E+00  0.00000000000E+00  0.50000499739E+01  0.50000500000E+01  0.51100000000E-03 0.  1.
         11   -1    0    0    0    0 -0.00000000000E+00 -0.00000000000E+00 -0.50000499739E+01  0.50000500000E+01  0.51100000000E-03 0. -1.
     100001    1    1    2    0    0 -0.80817021788E-02 -0.82092847613E-02 -0.19164974135E-01  0.50000500000E+01  0.50000000000E+01 0.  0.
     100001    1    1    2    0    0  0.80817021788E-02  0.82092847613E-02  0.19164974135E-01  0.50000500000E+01  0.50000000000E+01 0.  0.
</event>
<event>
 4    1  0.5017912E-001  0.5000050E+01  0.7818608E-02  0.2136455E+00
        -11   -1    0    0    0    0  0.00000000000E+00  0.00000000000E+00  0.50000499739E+01  0.50000500000E+01  0.51100000000E-03 0. -1.
         11   -1    0    0    0    0 -0.00000000000E+00 -0.00000000000E+00 -0.50000499739E+01  0.50000500000E+01  0.51100000000E-03 0.  1.
     100001    1    1    2    0    0 -0.18880678122E-01  0.10376688444E-01  0.59872222762E-02  0.50000500000E+01  0.50000000000E+01 0. -1.
     100001    1    1    2    0    0  0.18880678122E-01 -0.10376688444E-01 -0.59872222762E-02  0.50000500000E+01  0.50000000000E+01 0.  1.
</event>
<event>
 4    1  0.5017912E-001  0.5000050E+01  0.7818608E-02  0.2136455E+00
        -11   -1    0    0    0    0  0.00000000000E+00  0.00000000000E+00  0.50000499739E+01  0.50000500000E+01  0.51100000000E-03 0. -1.
         11   -1    0    0    0    0 -0.00000000000E+00 -0.00000000000E+00 -0.50000499739E+01  0.50000500000E+01  0.51100000000E-03 0.  1.
     100001    1    1    2    0    0  0.18019059354E-02 -0.11193291896E-01  0.19273449394E-01  0.50000500000E+01  0.50000000000E+01 0. -1.
     100001    1    1    2    0    0 -0.18019059354E-02  0.11193291896E-01 -0.19273449394E-01  0.50000500000E+01  0.50000000000E+01 0.  1.
</event>
<event>
 4    1  0.5017912E-001  0.5000050E+01  0.7818608E-02  0.2136455E+00
        -11   -1    0    0    0    0  0.00000000000E+00  0.00000000000E+00  0.50000499739E+01  0.50000500000E+01  0.51100000000E-03 0.  1.
         11   -1    0    0    0    0 -0.00000000000E+00 -0.00000000000E+00 -0.50000499739E+01  0.50000500000E+01  0.51100000000E-03 0. -1.
     100001    1    1    2    0    0  0.63872954769E-02  0.20979302227E-01  0.43673601341E-02  0.50000500000E+01  0.50000000000E+01 0.  1.
     100001    1    1    2    0    0 -0.63872954769E-02 -0.20979302227E-01 -0.43673601341E-02  0.50000500000E+01  0.50000000000E+01 0. -1.
</event>
<event>
 4    1  0.5017912E-001  0.5000050E+01  0.7818608E-02  0.2136455E+00
        -11   -1    0    0    0    0  0.00000000000E+00  0.00000000000E+00  0.50000499739E+01  0.50000500000E+01  0.51100000000E-03 0.  1.
         11   -1    0    0    0    0 -0.00000000000E+00 -0.00000000000E+00 -0.50000499739E+01  0.50000500000E+01  0.51100000000E-03 0. -1.
     100001    1    1    2    0    0  0.89378308227E-02 -0.18714462416E-01 -0.83598191761E-02  0.50000500000E+01  0.50000000000E+01 0.  1.
     100001    1    1    2    0    0 -0.89378308227E-02  0.18714462416E-01  0.83598191761E-02  0.50000500000E+01  0.50000000000E+01 0.  0.
</event>
<event>
 4    1  0.5017912E-001  0.5000050E+01  0.7818608E-02  0.2136455E+00
        -11   -1    0    0    0    0  0.00000000000E+00  0.00000000000E+00  0.50000499739E+01  0.50000500000E+01  0.51100000000E-03 0. -1.
         11   -1    0    0    0    0 -0.00000000000E+00 -0.00000000000E+00 -0.50000499739E+01  0.50000500000E+01  0.51100000000E-03 0.  1.
     100001    1    1    2    0    0  0.17479492682E-02 -0.30744511464E-02  0.22079287205E-01  0.50000500000E+01  0.50000000000E+01 0. -1.
     100001    1    1    2    0    0 -0.17479492682E-02  0.30744511464E-02 -0.22079287205E-01  0.50000500000E+01  0.50000000000E+01 0.  0.
</event>
<event>
 4    1  0.5017912E-001  0.5000050E+01  0.7818608E-02  0.2136455E+00
        -11   -1    0    0    0    0  0.00000000000E+00  0.00000000000E+00  0.50000499739E+01  0.50000500000E+01  0.51100000000E-03 0.  1.
         11   -1    0    0    0    0 -0.00000000000E+00 -0.00000000000E+00 -0.50000499739E+01  0.50000500000E+01  0.51100000000E-03 0. -1.
     100001    1    1    2    0    0  0.14654670439E-02 -0.20020330864E-01 -0.98509521587E-02  0.50000500000E+01  0.50000000000E+01 0.  0.
     100001    1    1    2    0    0 -0.14654670439E-02  0.20020330864E-01  0.98509521587E-02  0.50000500000E+01  0.50000000000E+01 0.  0.
</event>
<event>
 4    1  0.5017912E-001  0.5000050E+01  0.7818608E-02  0.2136455E+00
        -11   -1    0    0    0    0  0.00000000000E+00  0.00000000000E+00  0.50000499739E+01  0.50000500000E+01  0.51100000000E-03 0. -1.
         11   -1    0    0    0    0 -0.00000000000E+00 -0.00000000000E+00 -0.50000499739E+01  0.50000500000E+01  0.51100000000E-03 0.  1.
     100001    1    1    2    0    0  0.38967156851E-03 -0.22138226271E-01  0.31224339318E-02  0.50000500000E+01  0.50000000000E+01 0.  0.
     100001    1    1    2    0    0 -0.38967156851E-03  0.22138226271E-01 -0.31224339318E-02  0.50000500000E+01  0.50000000000E+01 0.  1.
</event>
<event>
 4    1  0.5017912E-001  0.5000050E+01  0.7818608E-02  0.2136455E+00
        -11   -1    0    0    0    0  0.00000000000E+00  0.00000000000E+00  0.50000499739E+01  0.50000500000E+01  0.51100000000E-03 0.  1.
         11   -1    0    0    0    0 -0.00000000000E+00 -0.00000000000E+00 -0.50000499739E+01  0.50000500000E+01  0.51100000000E-03 0. -1.
     100001    1    1    2    0    0 -0.20862891437E-01 -0.64161387121E-02  0.48554531122E-02  0.50000500000E+01  0.50000000000E+01 0.  1.
     100001    1    1    2    0    0  0.20862891437E-01  0.64161387121E-02 -0.48554531122E-02  0.50000500000E+01  0.50000000000E+01 0. -1.
</event>
<event>
 4    1  0.5017912E-001  0.5000050E+01  0.7818608E-02  0.2136455E+00
        -11   -1    0    0    0    0  0.00000000000E+00  0.00000000000E+00  0.50000499739E+01  0.50000500000E+01  0.51100000000E-03 0.  1.
         11   -1    0    0    0    0 -0.00000000000E+00 -0.00000000000E+00 -0.50000499739E+01  0.50000500000E+01  0.51100000000E-03 0. -1.
     100001    1    1    2    0    0  0.28040991329E-02 -0.15302776680E-01 -0.16061274978E-01  0.50000500000E+01  0.50000000000E+01 0.  0.
     100001    1    1    2    0    0 -0.28040991329E-02  0.15302776680E-01  0.16061274978E-01  0.50000500000E+01  0.50000000000E+01 0.  0.
</event>
<event>
 4    1  0.5017912E-001  0.5000050E+01  0.7818608E-02  0.2136455E+00
        -11   -1    0    0    0    0  0.00000000000E+00  0.00000000000E+00  0.50000499739E+01  0.50000500000E+01  0.51100000000E-03 0.  1.
         11   -1    0    0    0    0 -0.00000000000E+00 -0.00000000000E+00 -0.50000499739E+01  0.50000500000E+01  0.51100000000E-03 0. -1.
     100001    1    1    2    0    0 -0.28405499735E-02 -0.11083317759E-01  0.19211815200E-01  0.50000500000E+01  0.50000000000E+01 0.  1.
     100001    1    1    2    0    0  0.28405499735E-02  0.11083317759E-01 -0.19211815200E-01  0.50000500000E+01  0.50000000000E+01 0. -1.
</event>
<event>
 4    1  0.5017912E-001  0.5000050E+01  0.7818608E-02  0.2136455E+00
        -11   -1    0    0    0    0  0.00000000000E+00  0.00000000000E+00  0.50000499739E+01  0.50000500000E+01  0.51100000000E-03 0. -1.
         11   -1    0    0    0    0 -0.00000000000E+00 -0.00000000000E+00 -0.50000499739E+01  0.50000500000E+01  0.51100000000E-03 0.  1.
     100001    1    1    2    0    0  0.13148533504E-01  0.17445361312E-01 -0.47726235304E-02  0.50000500000E+01  0.50000000000E+01 0. -1.
     100001    1    1    2    0    0 -0.13148533504E-01 -0.17445361312E-01  0.47726235304E-02  0.50000500000E+01  0.50000000000E+01 0.  1.
</event>
<event>
 4    1  0.5017912E-001  0.5000050E+01  0.7818608E-02  0.2136455E+00
        -11   -1    0    0    0    0  0.00000000000E+00  0.00000000000E+00  0.50000499739E+01  0.50000500000E+01  0.51100000000E-03 0.  1.
         11   -1    0    0    0    0 -0.00000000000E+00 -0.00000000000E+00 -0.50000499739E+01  0.50000500000E+01  0.51100000000E-03 0. -1.
     100001    1    1    2    0    0  0.20613319727E-01 -0.59725184706E-02 -0.62787397576E-02  0.50000500000E+01  0.50000000000E+01 0. -1.
     100001    1    1    2    0    0 -0.20613319727E-01  0.59725184706E-02  0.62787397576E-02  0.50000500000E+01  0.50000000000E+01 0.  1.
</event>
<event>
 4    1  0.5017912E-001  0.5000050E+01  0.7818608E-02  0.2136455E+00
        -11   -1    0    0    0    0  0.00000000000E+00  0.00000000000E+00  0.50000499739E+01  0.50000500000E+01  0.51100000000E-03 0.  1.
         11   -1    0    0    0    0 -0.00000000000E+00 -0.00000000000E+00 -0.50000499739E+01  0.50000500000E+01  0.51100000000E-03 0. -1.
     100001    1    1    2    0    0 -0.11456318358E-01  0.16309129571E-01 -0.10137433714E-01  0.50000500000E+01  0.50000000000E+01 0.  0.
     100001    1    1    2    0    0  0.11456318358E-01 -0.16309129571E-01  0.10137433714E-01  0.50000500000E+01  0.50000000000E+01 0.  0.
</event>
<event>
 4    1  0.5017912E-001  0.5000050E+01  0.7818608E-02  0.2136455E+00
        -11   -1    0    0    0    0  0.00000000000E+00  0.00000000000E+00  0.50000499739E+01  0.50000500000E+01  0.51100000000E-03 0.  1.
         11   -1    0    0    0    0 -0.00000000000E+00 -0.00000000000E+00 -0.50000499739E+01  0.50000500000E+01  0.51100000000E-03 0. -1.
     100001    1    1    2    0    0  0.20255740786E-01 -0.63395213162E-02 -0.70368980878E-02  0.50000500000E+01  0.50000000000E+01 0. -1.
     100001    1    1    2    0    0 -0.20255740786E-01  0.63395213162E-02  0.70368980878E-02  0.50000500000E+01  0.50000000000E+01 0.  1.
</event>
<event>
 4    1  0.5017912E-001  0.5000050E+01  0.7818608E-02  0.2136455E+00
        -11   -1    0    0    0    0  0.00000000000E+00  0.00000000000E+00  0.50000499739E+01  0.50000500000E+01  0.51100000000E-03 0. -1.
         11   -1    0    0    0    0 -0.00000000000E+00 -0.00000000000E+00 -0.50000499739E+01  0.50000500000E+01  0.51100000000E-03 0.  1.
     100001    1    1    2    0    0  0.67928789413E-02 -0.71623847703E-02  0.20063886465E-01  0.50000500000E+01  0.50000000000E+01 0.  0.
     100001    1    1    2    0    0 -0.67928789413E-02  0.71623847703E-02 -0.20063886465E-01  0.50000500000E+01  0.50000000000E+01 0.  1.
</event>
<event>
 4    1  0.5017912E-001  0.5000050E+01  0.7818608E-02  0.2136455E+00
        -11   -1    0    0    0    0  0.00000000000E+00  0.00000000000E+00  0.50000499739E+01  0.50000500000E+01  0.51100000000E-03 0. -1.
         11   -1    0    0    0    0 -0.00000000000E+00 -0.00000000000E+00 -0.50000499739E+01  0.50000500000E+01  0.51100000000E-03 0.  1.
     100001    1    1    2    0    0 -0.74195517342E-02 -0.77108775714E-02 -0.19634029621E-01  0.50000500000E+01  0.50000000000E+01 0.  1.
     100001    1    1    2    0    0  0.74195517342E-02  0.77108775714E-02  0.19634029621E-01  0.50000500000E+01  0.50000000000E+01 0.  0.
</event>
<event>
 4    1  0.5017912E-001  0.5000050E+01  0.7818608E-02  0.2136455E+00
        -11   -1    0    0    0    0  0.00000000000E+00  0.00000000000E+00  0.50000499739E+01  0.50000500000E+01  0.51100000000E-03 0.  1.
         11   -1    0    0    0    0 -0.00000000000E+00 -0.00000000000E+00 -0.50000499739E+01  0.50000500000E+01  0.51100000000E-03 0. -1.
     100001    1    1    2    0    0  0.17053052505E-01 -0.24870190897E-02  0.14248180105E-01  0.50000500000E+01  0.50000000000E+01 0.  0.
     100001    1    1    2    0    0 -0.17053052505E-01  0.24870190897E-02 -0.14248180105E-01  0.50000500000E+01  0.50000000000E+01 0. -1.
</event>
<event>
 4    1  0.5017912E-001  0.5000050E+01  0.7818608E-02  0.2136455E+00
        -11   -1    0    0    0    0  0.00000000000E+00  0.00000000000E+00  0.50000499739E+01  0.50000500000E+01  0.51100000000E-03 0.  1.
         11   -1    0    0    0    0 -0.00000000000E+00 -0.00000000000E+00 -0.50000499739E+01  0.50000500000E+01  0.51100000000E-03 0. -1.
     100001    1    1    2    0    0 -0.10357045760E-01  0.18916512993E-01 -0.59075916670E-02  0.50000500000E+01  0.50000000000E+01 0. -1.
     100001    1    1    2    0    0  0.10357045760E-01 -0.18916512993E-01  0.59075916670E-02  0.50000500000E+01  0.50000000000E+01 0.  0.
</event>
<event>
 4    1  0.5017912E-001  0.5000050E+01  0.7818608E-02  0.2136455E+00
        -11   -1    0    0    0    0  0.00000000000E+00  0.00000000000E+00  0.50000499739E+01  0.50000500000E+01  0.51100000000E-03 0. -1.
         11   -1    0    0    0    0 -0.00000000000E+00 -0.00000000000E+00 -0.50000499739E+01  0.50000500000E+01  0.51100000000E-03 0.  1.
     100001    1    1    2    0    0 -0.64323605373E-02  0.13427890396E-01  0.16682895355E-01  0.50000500000E+01  0.50000000000E+01 0. -1.
     100001    1    1    2    0    0  0.64323605373E-02 -0.13427890396E-01 -0.16682895355E-01  0.50000500000E+01  0.50000000000E+01 0.  1.
</event>
<event>
 4    1  0.5017912E-001  0.5000050E+01  0.7818608E-02  0.2136455E+00
        -11   -1    0    0    0    0  0.00000000000E+00  0.00000000000E+00  0.50000499739E+01  0.50000500000E+01  0.51100000000E-03 0.  1.
         11   -1    0    0    0    0 -0.00000000000E+00 -0.00000000000E+00 -0.50000499739E+01  0.50000500000E+01  0.51100000000E-03 0. -1.
     100001    1    1    2    0    0  0.12002448182E-01 -0.89588591700E-02 -0.16603691759E-01  0.50000500000E+01  0.50000000000E+01 0. -1.
     100001    1    1    2    0    0 -0.12002448182E-01  0.89588591700E-02  0.16603691759E-01  0.50000500000E+01  0.50000000000E+01 0. -1.
</event>
<event>
 4    1  0.5017912E-001  0.5000050E+01  0.7818608E-02  0.2136455E+00
        -11   -1    0    0    0    0  0.00000000000E+00  0.00000000000E+00  0.50000499739E+01  0.50000500000E+01  0.51100000000E-03 0.  1.
         11   -1    0    0    0    0 -0.00000000000E+00 -0.00000000000E+00 -0.50000499739E+01  0.50000500000E+01  0.51100000000E-03 0. -1.
     100001    1    1    2    0    0  0.74091575587E-02  0.88651364535E-02  0.19144613862E-01  0.50000500000E+01  0.50000000000E+01 0.  1.
     100001    1    1    2    0    0 -0.74091575587E-02 -0.88651364535E-02 -0.19144613862E-01  0.50000500000E+01  0.50000000000E+01 0.  0.
</event>
<event>
 4    1  0.5017912E-001  0.5000050E+01  0.7818608E-02  0.2136455E+00
        -11   -1    0    0    0    0  0.00000000000E+00  0.00000000000E+00  0.50000499739E+01  0.50000500000E+01  0.51100000000E-03 0.  1.
         11   -1    0    0    0    0 -0.00000000000E+00 -0.00000000000E+00 -0.50000499739E+01  0.50000500000E+01  0.51100000000E-03 0. -1.
     100001    1    1    2    0    0  0.17406383028E-01  0.12666294244E-01 -0.60485799991E-02  0.50000500000E+01  0.50000000000E+01 0.  1.
     100001    1    1    2    0    0 -0.17406383028E-01 -0.12666294244E-01  0.60485799991E-02  0.50000500000E+01  0.50000000000E+01 0.  0.
</event>
<event>
 4    1  0.5017912E-001  0.5000050E+01  0.7818608E-02  0.2136455E+00
        -11   -1    0    0    0    0  0.00000000000E+00  0.00000000000E+00  0.50000499739E+01  0.50000500000E+01  0.51100000000E-03 0. -1.
         11   -1    0    0    0    0 -0.00000000000E+00 -0.00000000000E+00 -0.50000499739E+01  0.50000500000E+01  0.51100000000E-03 0.  1.
     100001    1    1    2    0    0 -0.15583317056E-01 -0.15948577798E-01 -0.16749912643E-02  0.50000500000E+01  0.50000000000E+01 0. -1.
     100001    1    1    2    0    0  0.15583317056E-01  0.15948577798E-01  0.16749912643E-02  0.50000500000E+01  0.50000000000E+01 0.  1.
</event>
<event>
 4    1  0.5017912E-001  0.5000050E+01  0.7818608E-02  0.2136455E+00
        -11   -1    0    0    0    0  0.00000000000E+00  0.00000000000E+00  0.50000499739E+01  0.50000500000E+01  0.51100000000E-03 0. -1.
         11   -1    0    0    0    0 -0.00000000000E+00 -0.00000000000E+00 -0.50000499739E+01  0.50000500000E+01  0.51100000000E-03 0.  1.
     100001    1    1    2    0    0 -0.12411944561E-01  0.10305319847E-01 -0.15483750032E-01  0.50000500000E+01  0.50000000000E+01 0.  1.
     100001    1    1    2    0    0  0.12411944561E-01 -0.10305319847E-01  0.15483750032E-01  0.50000500000E+01  0.50000000000E+01 0. -1.
</event>
<event>
 4    1  0.5017912E-001  0.5000050E+01  0.7818608E-02  0.2136455E+00
        -11   -1    0    0    0    0  0.00000000000E+00  0.00000000000E+00  0.50000499739E+01  0.50000500000E+01  0.51100000000E-03 0. -1.
         11   -1    0    0    0    0 -0.00000000000E+00 -0.00000000000E+00 -0.50000499739E+01  0.50000500000E+01  0.51100000000E-03 0.  1.
     100001    1    1    2    0    0  0.19855936232E-01 -0.98345633857E-04 -0.10282734290E-01  0.50000500000E+01  0.50000000000E+01 0. -1.
     100001    1    1    2    0    0 -0.19855936232E-01  0.98345633857E-04  0.10282734290E-01  0.50000500000E+01  0.50000000000E+01 0. -1.
</event>
<event>
 4    1  0.5017912E-001  0.5000050E+01  0.7818608E-02  0.2136455E+00
        -11   -1    0    0    0    0  0.00000000000E+00  0.00000000000E+00  0.50000499739E+01  0.50000500000E+01  0.51100000000E-03 0. -1.
         11   -1    0    0    0    0 -0.00000000000E+00 -0.00000000000E+00 -0.50000499739E+01  0.50000500000E+01  0.51100000000E-03 0.  1.
     100001    1    1    2    0    0  0.18462408696E-01 -0.12615115931E-01  0.28551604210E-04  0.50000500000E+01  0.50000000000E+01 0.  0.
     100001    1    1    2    0    0 -0.18462408696E-01  0.12615115931E-01 -0.28551604210E-04  0.50000500000E+01  0.50000000000E+01 0.  1.
</event>
<event>
 4    1  0.5017912E-001  0.5000050E+01  0.7818608E-02  0.2136455E+00
        -11   -1    0    0    0    0  0.00000000000E+00  0.00000000000E+00  0.50000499739E+01  0.50000500000E+01  0.51100000000E-03 0.  1.
         11   -1    0    0    0    0 -0.00000000000E+00 -0.00000000000E+00 -0.50000499739E+01  0.50000500000E+01  0.51100000000E-03 0. -1.
     100001    1    1    2    0    0  0.20010564498E-01  0.97835374512E-02 -0.19652489418E-02  0.50000500000E+01  0.50000000000E+01 0.  1.
     100001    1    1    2    0    0 -0.20010564498E-01 -0.97835374512E-02  0.19652489418E-02  0.50000500000E+01  0.50000000000E+01 0. -1.
</event>
<event>
 4    1  0.5017912E-001  0.5000050E+01  0.7818608E-02  0.2136455E+00
        -11   -1    0    0    0    0  0.00000000000E+00  0.00000000000E+00  0.50000499739E+01  0.50000500000E+01  0.51100000000E-03 0. -1.
         11   -1    0    0    0    0 -0.00000000000E+00 -0.00000000000E+00 -0.50000499739E+01  0.50000500000E+01  0.51100000000E-03 0.  1.
     100001    1    1    2    0    0  0.11569023201E-01 -0.17568911598E-01 -0.75824499623E-02  0.50000500000E+01  0.50000000000E+01 0. -1.
     100001    1    1    2    0    0 -0.11569023201E-01  0.17568911598E-01  0.75824499623E-02  0.50000500000E+01  0.50000000000E+01 0.  1.
</event>
<event>
 4    1  0.5017912E-001  0.5000050E+01  0.7818608E-02  0.2136455E+00
        -11   -1    0    0    0    0  0.00000000000E+00  0.00000000000E+00  0.50000499739E+01  0.50000500000E+01  0.51100000000E-03 0. -1.
         11   -1    0    0    0    0 -0.00000000000E+00 -0.00000000000E+00 -0.50000499739E+01  0.50000500000E+01  0.51100000000E-03 0.  1.
     100001    1    1    2    0    0 -0.12071280912E-01 -0.17013005916E-01  0.80525962784E-02  0.50000500000E+01  0.50000000000E+01 0. -1.
     100001    1    1    2    0    0  0.12071280912E-01  0.17013005916E-01 -0.80525962784E-02  0.50000500000E+01  0.50000000000E+01 0.  1.
</event>
<event>
 4    1  0.5017912E-001  0.5000050E+01  0.7818608E-02  0.2136455E+00
        -11   -1    0    0    0    0  0.00000000000E+00  0.00000000000E+00  0.50000499739E+01  0.50000500000E+01  0.51100000000E-03 0. -1.
         11   -1    0    0    0    0 -0.00000000000E+00 -0.00000000000E+00 -0.50000499739E+01  0.50000500000E+01  0.51100000000E-03 0.  1.
     100001    1    1    2    0    0  0.13681092900E-02  0.15693279439E-01 -0.15869837977E-01  0.50000500000E+01  0.50000000000E+01 0.  1.
     100001    1    1    2    0    0 -0.13681092900E-02 -0.15693279439E-01  0.15869837977E-01  0.50000500000E+01  0.50000000000E+01 0. -1.
</event>
<event>
 4    1  0.5017912E-001  0.5000050E+01  0.7818608E-02  0.2136455E+00
        -11   -1    0    0    0    0  0.00000000000E+00  0.00000000000E+00  0.50000499739E+01  0.50000500000E+01  0.51100000000E-03 0. -1.
         11   -1    0    0    0    0 -0.00000000000E+00 -0.00000000000E+00 -0.50000499739E+01  0.50000500000E+01  0.51100000000E-03 0.  1.
     100001    1    1    2    0    0  0.76423420219E-02 -0.17920925530E-01 -0.10974403701E-01  0.50000500000E+01  0.50000000000E+01 0.  0.
     100001    1    1    2    0    0 -0.76423420219E-02  0.17920925530E-01  0.10974403701E-01  0.50000500000E+01  0.50000000000E+01 0.  0.
</event>
<event>
 4    1  0.5017912E-001  0.5000050E+01  0.7818608E-02  0.2136455E+00
        -11   -1    0    0    0    0  0.00000000000E+00  0.00000000000E+00  0.50000499739E+01  0.50000500000E+01  0.51100000000E-03 0. -1.
         11   -1    0    0    0    0 -0.00000000000E+00 -0.00000000000E+00 -0.50000499739E+01  0.50000500000E+01  0.51100000000E-03 0.  1.
     100001    1    1    2    0    0 -0.99548159212E-02  0.12228225997E-01  0.15854798294E-01  0.50000500000E+01  0.50000000000E+01 0.  0.
     100001    1    1    2    0    0  0.99548159212E-02 -0.12228225997E-01 -0.15854798294E-01  0.50000500000E+01  0.50000000000E+01 0.  0.
</event>
<event>
 4    1  0.5017912E-001  0.5000050E+01  0.7818608E-02  0.2136455E+00
        -11   -1    0    0    0    0  0.00000000000E+00  0.00000000000E+00  0.50000499739E+01  0.50000500000E+01  0.51100000000E-03 0.  1.
         11   -1    0    0    0    0 -0.00000000000E+00 -0.00000000000E+00 -0.50000499739E+01  0.50000500000E+01  0.51100000000E-03 0. -1.
     100001    1    1    2    0    0  0.20172567095E-01  0.59381769354E-02  0.76031632557E-02  0.50000500000E+01  0.50000000000E+01 0. -1.
     100001    1    1    2    0    0 -0.20172567095E-01 -0.59381769354E-02 -0.76031632557E-02  0.50000500000E+01  0.50000000000E+01 0.  0.
</event>
<event>
 4    1  0.5017912E-001  0.5000050E+01  0.7818608E-02  0.2136455E+00
        -11   -1    0    0    0    0  0.00000000000E+00  0.00000000000E+00  0.50000499739E+01  0.50000500000E+01  0.51100000000E-03 0.  1.
         11   -1    0    0    0    0 -0.00000000000E+00 -0.00000000000E+00 -0.50000499739E+01  0.50000500000E+01  0.51100000000E-03 0. -1.
     100001    1    1    2    0    0  0.11050900751E-01 -0.15723752667E-01 -0.11429947273E-01  0.50000500000E+01  0.50000000000E+01 0. -1.
     100001    1    1    2    0    0 -0.11050900751E-01  0.15723752667E-01  0.11429947273E-01  0.50000500000E+01  0.50000000000E+01 0.  1.
</event>
<event>
 4    1  0.5017912E-001  0.5000050E+01  0.7818608E-02  0.2136455E+00
        -11   -1    0    0    0    0  0.00000000000E+00  0.00000000000E+00  0.50000499739E+01  0.50000500000E+01  0.51100000000E-03 0.  1.
         11   -1    0    0    0    0 -0.00000000000E+00 -0.00000000000E+00 -0.50000499739E+01  0.50000500000E+01  0.51100000000E-03 0. -1.
     100001    1    1    2    0    0 -0.14328230601E-01  0.12680158155E-01  0.11572290050E-01  0.50000500000E+01  0.50000000000E+01 0.  0.
     100001    1    1    2    0    0  0.14328230601E-01 -0.12680158155E-01 -0.11572290050E-01  0.50000500000E+01  0.50000000000E+01 0.  1.
</event>
<event>
 4    1  0.5017912E-001  0.5000050E+01  0.7818608E-02  0.2136455E+00
        -11   -1    0    0    0    0  0.00000000000E+00  0.00000000000E+00  0.50000499739E+01  0.50000500000E+01  0.51100000000E-03 0.  1.
         11   -1    0    0    0    0 -0.00000000000E+00 -0.00000000000E+00 -0.50000499739E+01  0.50000500000E+01  0.51100000000E-03 0. -1.
     100001    1    1    2    0    0  0.10912362344E-01  0.18831190909E-01 -0.51292394185E-02  0.50000500000E+01  0.50000000000E+01 0.  1.
     100001    1    1    2    0    0 -0.10912362344E-01 -0.18831190909E-01  0.51292394185E-02  0.50000500000E+01  0.50000000000E+01 0. -1.
</event>
<event>
 4    1  0.5017912E-001  0.5000050E+01  0.7818608E-02  0.2136455E+00
        -11   -1    0    0    0    0  0.00000000000E+00  0.00000000000E+00  0.50000499739E+01  0.50000500000E+01  0.51100000000E-03 0.  1.
         11   -1    0    0    0    0 -0.00000000000E+00 -0.00000000000E+00 -0.50000499739E+01  0.50000500000E+01  0.51100000000E-03 0. -1.
     100001    1    1    2    0    0 -0.88567961928E-02 -0.35310284264E-02 -0.20226010468E-01  0.50000500000E+01  0.50000000000E+01 0. -1.
     100001    1    1    2    0    0  0.88567961928E-02  0.35310284264E-02  0.20226010468E-01  0.50000500000E+01  0.50000000000E+01 0. -1.
</event>
<event>
 4    1  0.5017912E-001  0.5000050E+01  0.7818608E-02  0.2136455E+00
        -11   -1    0    0    0    0  0.00000000000E+00  0.00000000000E+00  0.50000499739E+01  0.50000500000E+01  0.51100000000E-03 0. -1.
         11   -1    0    0    0    0 -0.00000000000E+00 -0.00000000000E+00 -0.50000499739E+01  0.50000500000E+01  0.51100000000E-03 0.  1.
     100001    1    1    2    0    0  0.63923539665E-02  0.15033725453E-01 -0.15268510398E-01  0.50000500000E+01  0.50000000000E+01 0.  1.
     100001    1    1    2    0    0 -0.63923539665E-02 -0.15033725453E-01  0.15268510398E-01  0.50000500000E+01  0.50000000000E+01 0. -1.
</event>
<event>
 4    1  0.5017912E-001  0.5000050E+01  0.7818608E-02  0.2136455E+00
        -11   -1    0    0    0    0  0.00000000000E+00  0.00000000000E+00  0.50000499739E+01  0.50000500000E+01  0.51100000000E-03 0.  1.
         11   -1    0    0    0    0 -0.00000000000E+00 -0.00000000000E+00 -0.50000499739E+01  0.50000500000E+01  0.51100000000E-03 0. -1.
     100001    1    1    2    0    0  0.20278761156E-01 -0.15402529915E-02 -0.92952658221E-02  0.50000500000E+01  0.50000000000E+01 0.  0.
     100001    1    1    2    0    0 -0.20278761156E-01  0.15402529915E-02  0.92952658221E-02  0.50000500000E+01  0.50000000000E+01 0.  0.
</event>
<event>
 4    1  0.5017912E-001  0.5000050E+01  0.7818608E-02  0.2136455E+00
        -11   -1    0    0    0    0  0.00000000000E+00  0.00000000000E+00  0.50000499739E+01  0.50000500000E+01  0.51100000000E-03 0. -1.
         11   -1    0    0    0    0 -0.00000000000E+00 -0.00000000000E+00 -0.50000499739E+01  0.50000500000E+01  0.51100000000E-03 0.  1.
     100001    1    1    2    0    0  0.46085522348E-02 -0.13741609221E-01  0.17027387419E-01  0.50000500000E+01  0.50000000000E+01 0.  0.
     100001    1    1    2    0    0 -0.46085522348E-02  0.13741609221E-01 -0.17027387419E-01  0.50000500000E+01  0.50000000000E+01 0.  0.
</event>
<event>
 4    1  0.5017912E-001  0.5000050E+01  0.7818608E-02  0.2136455E+00
        -11   -1    0    0    0    0  0.00000000000E+00  0.00000000000E+00  0.50000499739E+01  0.50000500000E+01  0.51100000000E-03 0. -1.
         11   -1    0    0    0    0 -0.00000000000E+00 -0.00000000000E+00 -0.50000499739E+01  0.50000500000E+01  0.51100000000E-03 0.  1.
     100001    1    1    2    0    0 -0.54973126460E-02  0.14933620562E-02  0.21622949000E-01  0.50000500000E+01  0.50000000000E+01 0.  0.
     100001    1    1    2    0    0  0.54973126460E-02 -0.14933620562E-02 -0.21622949000E-01  0.50000500000E+01  0.50000000000E+01 0.  1.
</event>
<event>
 4    1  0.5017912E-001  0.5000050E+01  0.7818608E-02  0.2136455E+00
        -11   -1    0    0    0    0  0.00000000000E+00  0.00000000000E+00  0.50000499739E+01  0.50000500000E+01  0.51100000000E-03 0.  1.
         11   -1    0    0    0    0 -0.00000000000E+00 -0.00000000000E+00 -0.50000499739E+01  0.50000500000E+01  0.51100000000E-03 0. -1.
     100001    1    1    2    0    0 -0.20757714732E-01 -0.81021238690E-02  0.18642338718E-02  0.50000500000E+01  0.50000000000E+01 0. -1.
     100001    1    1    2    0    0  0.20757714732E-01  0.81021238690E-02 -0.18642338718E-02  0.50000500000E+01  0.50000000000E+01 0.  0.
</event>
<event>
 4    1  0.5017912E-001  0.5000050E+01  0.7818608E-02  0.2136455E+00
        -11   -1    0    0    0    0  0.00000000000E+00  0.00000000000E+00  0.50000499739E+01  0.50000500000E+01  0.51100000000E-03 0.  1.
         11   -1    0    0    0    0 -0.00000000000E+00 -0.00000000000E+00 -0.50000499739E+01  0.50000500000E+01  0.51100000000E-03 0. -1.
     100001    1    1    2    0    0 -0.53513853278E-02 -0.21189564420E-01 -0.47294328175E-02  0.50000500000E+01  0.50000000000E+01 0.  0.
     100001    1    1    2    0    0  0.53513853278E-02  0.21189564420E-01  0.47294328175E-02  0.50000500000E+01  0.50000000000E+01 0. -1.
</event>
<event>
 4    1  0.5017912E-001  0.5000050E+01  0.7818608E-02  0.2136455E+00
        -11   -1    0    0    0    0  0.00000000000E+00  0.00000000000E+00  0.50000499739E+01  0.50000500000E+01  0.51100000000E-03 0. -1.
         11   -1    0    0    0    0 -0.00000000000E+00 -0.00000000000E+00 -0.50000499739E+01  0.50000500000E+01  0.51100000000E-03 0.  1.
     100001    1    1    2    0    0  0.15457025236E-01 -0.11906483219E-01 -0.10923302075E-01  0.50000500000E+01  0.50000000000E+01 0.  1.
     100001    1    1    2    0    0 -0.15457025236E-01  0.11906483219E-01  0.10923302075E-01  0.50000500000E+01  0.50000000000E+01 0. -1.
</event>
<event>
 4    1  0.5017912E-001  0.5000050E+01  0.7818608E-02  0.2136455E+00
        -11   -1    0    0    0    0  0.00000000000E+00  0.00000000000E+00  0.50000499739E+01  0.50000500000E+01  0.51100000000E-03 0.  1.
         11   -1    0    0    0    0 -0.00000000000E+00 -0.00000000000E+00 -0.50000499739E+01  0.50000500000E+01  0.51100000000E-03 0. -1.
     100001    1    1    2    0    0 -0.20476044642E-01  0.12326268302E-03 -0.89843698801E-02  0.50000500000E+01  0.50000000000E+01 0.  1.
     100001    1    1    2    0    0  0.20476044642E-01 -0.12326268302E-03  0.89843698801E-02  0.50000500000E+01  0.50000000000E+01 0.  0.
</event>
<event>
 4    1  0.5017912E-001  0.5000050E+01  0.7818608E-02  0.2136455E+00
        -11   -1    0    0    0    0  0.00000000000E+00  0.00000000000E+00  0.50000499739E+01  0.50000500000E+01  0.51100000000E-03 0.  1.
         11   -1    0    0    0    0 -0.00000000000E+00 -0.00000000000E+00 -0.50000499739E+01  0.50000500000E+01  0.51100000000E-03 0. -1.
     100001    1    1    2    0    0  0.13937630479E-01 -0.23817633547E-03 -0.17483942023E-01  0.50000500000E+01  0.50000000000E+01 0. -1.
     100001    1    1    2    0    0 -0.13937630479E-01  0.23817633547E-03  0.17483942023E-01  0.50000500000E+01  0.50000000000E+01 0.  0.
</event>
<event>
 4    1  0.5017912E-001  0.5000050E+01  0.7818608E-02  0.2136455E+00
        -11   -1    0    0    0    0  0.00000000000E+00  0.00000000000E+00  0.50000499739E+01  0.50000500000E+01  0.51100000000E-03 0.  1.
         11   -1    0    0    0    0 -0.00000000000E+00 -0.00000000000E+00 -0.50000499739E+01  0.50000500000E+01  0.51100000000E-03 0. -1.
     100001    1    1    2    0    0 -0.20110484495E-01 -0.30290078435E-03 -0.97713440473E-02  0.50000500000E+01  0.50000000000E+01 0.  1.
     100001    1    1    2    0    0  0.20110484495E-01  0.30290078435E-03  0.97713440473E-02  0.50000500000E+01  0.50000000000E+01 0.  0.
</event>
<event>
 4    1  0.5017912E-001  0.5000050E+01  0.7818608E-02  0.2136455E+00
        -11   -1    0    0    0    0  0.00000000000E+00  0.00000000000E+00  0.50000499739E+01  0.50000500000E+01  0.51100000000E-03 0. -1.
         11   -1    0    0    0    0 -0.00000000000E+00 -0.00000000000E+00 -0.50000499739E+01  0.50000500000E+01  0.51100000000E-03 0.  1.
     100001    1    1    2    0    0  0.11608450417E-01 -0.12638171175E-02  0.19069586917E-01  0.50000500000E+01  0.50000000000E+01 0. -1.
     100001    1    1    2    0    0 -0.11608450417E-01  0.12638171175E-02 -0.19069586917E-01  0.50000500000E+01  0.50000000000E+01 0.  1.
</event>
<event>
 4    1  0.5017912E-001  0.5000050E+01  0.7818608E-02  0.2136455E+00
        -11   -1    0    0    0    0  0.00000000000E+00  0.00000000000E+00  0.50000499739E+01  0.50000500000E+01  0.51100000000E-03 0.  1.
         11   -1    0    0    0    0 -0.00000000000E+00 -0.00000000000E+00 -0.50000499739E+01  0.50000500000E+01  0.51100000000E-03 0. -1.
     100001    1    1    2    0    0 -0.12384703943E-01  0.17402942559E-01  0.66150735836E-02  0.50000500000E+01  0.50000000000E+01 0. -1.
     100001    1    1    2    0    0  0.12384703943E-01 -0.17402942559E-01 -0.66150735836E-02  0.50000500000E+01  0.50000000000E+01 0.  0.
</event>
<event>
 4    1  0.5017912E-001  0.5000050E+01  0.7818608E-02  0.2136455E+00
        -11   -1    0    0    0    0  0.00000000000E+00  0.00000000000E+00  0.50000499739E+01  0.50000500000E+01  0.51100000000E-03 0. -1.
         11   -1    0    0    0    0 -0.00000000000E+00 -0.00000000000E+00 -0.50000499739E+01  0.50000500000E+01  0.51100000000E-03 0.  1.
     100001    1    1    2    0    0  0.16091344893E-02 -0.22188457997E-01 -0.22551092910E-02  0.50000500000E+01  0.50000000000E+01 0. -1.
     100001    1    1    2    0    0 -0.16091344893E-02  0.22188457997E-01  0.22551092910E-02  0.50000500000E+01  0.50000000000E+01 0.  0.
</event>
<event>
 4    1  0.5017912E-001  0.5000050E+01  0.7818608E-02  0.2136455E+00
        -11   -1    0    0    0    0  0.00000000000E+00  0.00000000000E+00  0.50000499739E+01  0.50000500000E+01  0.51100000000E-03 0. -1.
         11   -1    0    0    0    0 -0.00000000000E+00 -0.00000000000E+00 -0.50000499739E+01  0.50000500000E+01  0.51100000000E-03 0.  1.
     100001    1    1    2    0    0 -0.22166810623E-02 -0.19533233473E-01 -0.10655590794E-01  0.50000500000E+01  0.50000000000E+01 0.  0.
     100001    1    1    2    0    0  0.22166810623E-02  0.19533233473E-01  0.10655590794E-01  0.50000500000E+01  0.50000000000E+01 0.  1.
</event>
<event>
 4    1  0.5017912E-001  0.5000050E+01  0.7818608E-02  0.2136455E+00
        -11   -1    0    0    0    0  0.00000000000E+00  0.00000000000E+00  0.50000499739E+01  0.50000500000E+01  0.51100000000E-03 0. -1.
         11   -1    0    0    0    0 -0.00000000000E+00 -0.00000000000E+00 -0.50000499739E+01  0.50000500000E+01  0.51100000000E-03 0.  1.
     100001    1    1    2    0    0  0.35957043052E-02 -0.19161514501E-01  0.10950332077E-01  0.50000500000E+01  0.50000000000E+01 0.  0.
     100001    1    1    2    0    0 -0.35957043052E-02  0.19161514501E-01 -0.10950332077E-01  0.50000500000E+01  0.50000000000E+01 0.  0.
</event>
<event>
 4    1  0.5017912E-001  0.5000050E+01  0.7818608E-02  0.2136455E+00
        -11   -1    0    0    0    0  0.00000000000E+00  0.00000000000E+00  0.50000499739E+01  0.50000500000E+01  0.51100000000E-03 0. -1.
         11   -1    0    0    0    0 -0.00000000000E+00 -0.00000000000E+00 -0.50000499739E+01  0.50000500000E+01  0.51100000000E-03 0.  1.
     100001    1    1    2    0    0  0.17900936583E-01 -0.70551195652E-03  0.13381375951E-01  0.50000500000E+01  0.50000000000E+01 0.  0.
     100001    1    1    2    0    0 -0.17900936583E-01  0.70551195652E-03 -0.13381375951E-01  0.50000500000E+01  0.50000000000E+01 0.  0.
</event>
<event>
 4    1  0.5017912E-001  0.5000050E+01  0.7818608E-02  0.2136455E+00
        -11   -1    0    0    0    0  0.00000000000E+00  0.00000000000E+00  0.50000499739E+01  0.50000500000E+01  0.51100000000E-03 0.  1.
         11   -1    0    0    0    0 -0.00000000000E+00 -0.00000000000E+00 -0.50000499739E+01  0.50000500000E+01  0.51100000000E-03 0. -1.
     100001    1    1    2    0    0 -0.16564677297E-01 -0.14010825271E-01  0.54139395317E-02  0.50000500000E+01  0.50000000000E+01 0.  1.
     100001    1    1    2    0    0  0.16564677297E-01  0.14010825271E-01 -0.54139395317E-02  0.50000500000E+01  0.50000000000E+01 0. -1.
</event>
<event>
 4    1  0.5017912E-001  0.5000050E+01  0.7818608E-02  0.2136455E+00
        -11   -1    0    0    0    0  0.00000000000E+00  0.00000000000E+00  0.50000499739E+01  0.50000500000E+01  0.51100000000E-03 0.  1.
         11   -1    0    0    0    0 -0.00000000000E+00 -0.00000000000E+00 -0.50000499739E+01  0.50000500000E+01  0.51100000000E-03 0. -1.
     100001    1    1    2    0    0  0.11948464954E-01  0.11943690635E-01 -0.14648718007E-01  0.50000500000E+01  0.50000000000E+01 0.  0.
     100001    1    1    2    0    0 -0.11948464954E-01 -0.11943690635E-01  0.14648718007E-01  0.50000500000E+01  0.50000000000E+01 0.  1.
</event>
<event>
 4    1  0.5017912E-001  0.5000050E+01  0.7818608E-02  0.2136455E+00
        -11   -1    0    0    0    0  0.00000000000E+00  0.00000000000E+00  0.50000499739E+01  0.50000500000E+01  0.51100000000E-03 0.  1.
         11   -1    0    0    0    0 -0.00000000000E+00 -0.00000000000E+00 -0.50000499739E+01  0.50000500000E+01  0.51100000000E-03 0. -1.
     100001    1    1    2    0    0 -0.13008418875E-01 -0.14271989564E-02 -0.18131371749E-01  0.50000500000E+01  0.50000000000E+01 0.  0.
     100001    1    1    2    0    0  0.13008418875E-01  0.14271989564E-02  0.18131371749E-01  0.50000500000E+01  0.50000000000E+01 0.  1.
</event>
<event>
 4    1  0.5017912E-001  0.5000050E+01  0.7818608E-02  0.2136455E+00
        -11   -1    0    0    0    0  0.00000000000E+00  0.00000000000E+00  0.50000499739E+01  0.50000500000E+01  0.51100000000E-03 0. -1.
         11   -1    0    0    0    0 -0.00000000000E+00 -0.00000000000E+00 -0.50000499739E+01  0.50000500000E+01  0.51100000000E-03 0.  1.
     100001    1    1    2    0    0  0.12414329060E-01 -0.14960531978E-01 -0.11048502926E-01  0.50000500000E+01  0.50000000000E+01 0. -1.
     100001    1    1    2    0    0 -0.12414329060E-01  0.14960531978E-01  0.11048502926E-01  0.50000500000E+01  0.50000000000E+01 0.  1.
</event>
<event>
 4    1  0.5017912E-001  0.5000050E+01  0.7818608E-02  0.2136455E+00
        -11   -1    0    0    0    0  0.00000000000E+00  0.00000000000E+00  0.50000499739E+01  0.50000500000E+01  0.51100000000E-03 0. -1.
         11   -1    0    0    0    0 -0.00000000000E+00 -0.00000000000E+00 -0.50000499739E+01  0.50000500000E+01  0.51100000000E-03 0.  1.
     100001    1    1    2    0    0  0.14918434499E-01  0.18825148005E-02 -0.16549892753E-01  0.50000500000E+01  0.50000000000E+01 0.  1.
     100001    1    1    2    0    0 -0.14918434499E-01 -0.18825148005E-02  0.16549892753E-01  0.50000500000E+01  0.50000000000E+01 0. -1.
</event>
<event>
 4    1  0.5017912E-001  0.5000050E+01  0.7818608E-02  0.2136455E+00
        -11   -1    0    0    0    0  0.00000000000E+00  0.00000000000E+00  0.50000499739E+01  0.50000500000E+01  0.51100000000E-03 0. -1.
         11   -1    0    0    0    0 -0.00000000000E+00 -0.00000000000E+00 -0.50000499739E+01  0.50000500000E+01  0.51100000000E-03 0.  1.
     100001    1    1    2    0    0  0.10620785051E-01 -0.93473118854E-02 -0.17315576381E-01  0.50000500000E+01  0.50000000000E+01 0.  1.
     100001    1    1    2    0    0 -0.10620785051E-01  0.93473118854E-02  0.17315576381E-01  0.50000500000E+01  0.50000000000E+01 0. -1.
</event>
<event>
 4    1  0.5017912E-001  0.5000050E+01  0.7818608E-02  0.2136455E+00
        -11   -1    0    0    0    0  0.00000000000E+00  0.00000000000E+00  0.50000499739E+01  0.50000500000E+01  0.51100000000E-03 0.  1.
         11   -1    0    0    0    0 -0.00000000000E+00 -0.00000000000E+00 -0.50000499739E+01  0.50000500000E+01  0.51100000000E-03 0. -1.
     100001    1    1    2    0    0 -0.15943824004E-01 -0.13644172165E-01 -0.77222757047E-02  0.50000500000E+01  0.50000000000E+01 0.  1.
     100001    1    1    2    0    0  0.15943824004E-01  0.13644172165E-01  0.77222757047E-02  0.50000500000E+01  0.50000000000E+01 0.  0.
</event>
<event>
 4    1  0.5017912E-001  0.5000050E+01  0.7818608E-02  0.2136455E+00
        -11   -1    0    0    0    0  0.00000000000E+00  0.00000000000E+00  0.50000499739E+01  0.50000500000E+01  0.51100000000E-03 0.  1.
         11   -1    0    0    0    0 -0.00000000000E+00 -0.00000000000E+00 -0.50000499739E+01  0.50000500000E+01  0.51100000000E-03 0. -1.
     100001    1    1    2    0    0  0.21682436579E-02  0.97145384273E-02  0.20023210596E-01  0.50000500000E+01  0.50000000000E+01 0.  0.
     100001    1    1    2    0    0 -0.21682436579E-02 -0.97145384273E-02 -0.20023210596E-01  0.50000500000E+01  0.50000000000E+01 0.  0.
</event>
<event>
 4    1  0.5017912E-001  0.5000050E+01  0.7818608E-02  0.2136455E+00
        -11   -1    0    0    0    0  0.00000000000E+00  0.00000000000E+00  0.50000499739E+01  0.50000500000E+01  0.51100000000E-03 0.  1.
         11   -1    0    0    0    0 -0.00000000000E+00 -0.00000000000E+00 -0.50000499739E+01  0.50000500000E+01  0.51100000000E-03 0. -1.
     100001    1    1    2    0    0  0.17511483327E-01  0.13654052740E-01  0.26300751789E-02  0.50000500000E+01  0.50000000000E+01 0.  0.
     100001    1    1    2    0    0 -0.17511483327E-01 -0.13654052740E-01 -0.26300751789E-02  0.50000500000E+01  0.50000000000E+01 0.  1.
</event>
<event>
 4    1  0.5017912E-001  0.5000050E+01  0.7818608E-02  0.2136455E+00
        -11   -1    0    0    0    0  0.00000000000E+00  0.00000000000E+00  0.50000499739E+01  0.50000500000E+01  0.51100000000E-03 0. -1.
         11   -1    0    0    0    0 -0.00000000000E+00 -0.00000000000E+00 -0.50000499739E+01  0.50000500000E+01  0.51100000000E-03 0.  1.
     100001    1    1    2    0    0  0.41708226364E-02 -0.40890987335E-02 -0.21584392743E-01  0.50000500000E+01  0.50000000000E+01 0.  0.
     100001    1    1    2    0    0 -0.41708226364E-02  0.40890987335E-02  0.21584392743E-01  0.50000500000E+01  0.50000000000E+01 0. -1.
</event>
<event>
 4    1  0.5017912E-001  0.5000050E+01  0.7818608E-02  0.2136455E+00
        -11   -1    0    0    0    0  0.00000000000E+00  0.00000000000E+00  0.50000499739E+01  0.50000500000E+01  0.51100000000E-03 0.  1.
         11   -1    0    0    0    0 -0.00000000000E+00 -0.00000000000E+00 -0.50000499739E+01  0.50000500000E+01  0.51100000000E-03 0. -1.
     100001    1    1    2    0    0 -0.36618748960E-02  0.14572463623E-01  0.16560086841E-01  0.50000500000E+01  0.50000000000E+01 0.  1.
     100001    1    1    2    0    0  0.36618748960E-02 -0.14572463623E-01 -0.16560086841E-01  0.50000500000E+01  0.50000000000E+01 0.  0.
</event>
<event>
 4    1  0.5017912E-001  0.5000050E+01  0.7818608E-02  0.2136455E+00
        -11   -1    0    0    0    0  0.00000000000E+00  0.00000000000E+00  0.50000499739E+01  0.50000500000E+01  0.51100000000E-03 0.  1.
         11   -1    0    0    0    0 -0.00000000000E+00 -0.00000000000E+00 -0.50000499739E+01  0.50000500000E+01  0.51100000000E-03 0. -1.
     100001    1    1    2    0    0  0.12687137361E-01 -0.12777755706E-01  0.13257752627E-01  0.50000500000E+01  0.50000000000E+01 0.  0.
     100001    1    1    2    0    0 -0.12687137361E-01  0.12777755706E-01 -0.13257752627E-01  0.50000500000E+01  0.50000000000E+01 0. -1.
</event>
<event>
 4    1  0.5017912E-001  0.5000050E+01  0.7818608E-02  0.2136455E+00
        -11   -1    0    0    0    0  0.00000000000E+00  0.00000000000E+00  0.50000499739E+01  0.50000500000E+01  0.51100000000E-03 0.  1.
         11   -1    0    0    0    0 -0.00000000000E+00 -0.00000000000E+00 -0.50000499739E+01  0.50000500000E+01  0.51100000000E-03 0. -1.
     100001    1    1    2    0    0 -0.18116139605E-01 -0.18959462201E-02  0.12969709856E-01  0.50000500000E+01  0.50000000000E+01 0. -1.
     100001    1    1    2    0    0  0.18116139605E-01  0.18959462201E-02 -0.12969709856E-01  0.50000500000E+01  0.50000000000E+01 0.  0.
</event>
<event>
 4    1  0.5017912E-001  0.5000050E+01  0.7818608E-02  0.2136455E+00
        -11   -1    0    0    0    0  0.00000000000E+00  0.00000000000E+00  0.50000499739E+01  0.50000500000E+01  0.51100000000E-03 0. -1.
         11   -1    0    0    0    0 -0.00000000000E+00 -0.00000000000E+00 -0.50000499739E+01  0.50000500000E+01  0.51100000000E-03 0.  1.
     100001    1    1    2    0    0  0.18342608070E-01  0.11810025806E-01  0.49065792213E-02  0.50000500000E+01  0.50000000000E+01 0.  1.
     100001    1    1    2    0    0 -0.18342608070E-01 -0.11810025806E-01 -0.49065792213E-02  0.50000500000E+01  0.50000000000E+01 0. -1.
</event>
<event>
 4    1  0.5017912E-001  0.5000050E+01  0.7818608E-02  0.2136455E+00
        -11   -1    0    0    0    0  0.00000000000E+00  0.00000000000E+00  0.50000499739E+01  0.50000500000E+01  0.51100000000E-03 0.  1.
         11   -1    0    0    0    0 -0.00000000000E+00 -0.00000000000E+00 -0.50000499739E+01  0.50000500000E+01  0.51100000000E-03 0. -1.
     100001    1    1    2    0    0  0.20307815610E-01  0.78796982110E-02  0.50502951633E-02  0.50000500000E+01  0.50000000000E+01 0.  1.
     100001    1    1    2    0    0 -0.20307815610E-01 -0.78796982110E-02 -0.50502951633E-02  0.50000500000E+01  0.50000000000E+01 0. -1.
</event>
<event>
 4    1  0.5017912E-001  0.5000050E+01  0.7818608E-02  0.2136455E+00
        -11   -1    0    0    0    0  0.00000000000E+00  0.00000000000E+00  0.50000499739E+01  0.50000500000E+01  0.51100000000E-03 0. -1.
         11   -1    0    0    0    0 -0.00000000000E+00 -0.00000000000E+00 -0.50000499739E+01  0.50000500000E+01  0.51100000000E-03 0.  1.
     100001    1    1    2    0    0  0.91074761643E-02 -0.49254327502E-03  0.20416017708E-01  0.50000500000E+01  0.50000000000E+01 0.  0.
     100001    1    1    2    0    0 -0.91074761643E-02  0.49254327502E-03 -0.20416017708E-01  0.50000500000E+01  0.50000000000E+01 0.  1.
</event>
<event>
 4    1  0.5017912E-001  0.5000050E+01  0.7818608E-02  0.2136455E+00
        -11   -1    0    0    0    0  0.00000000000E+00  0.00000000000E+00  0.50000499739E+01  0.50000500000E+01  0.51100000000E-03 0.  1.
         11   -1    0    0    0    0 -0.00000000000E+00 -0.00000000000E+00 -0.50000499739E+01  0.50000500000E+01  0.51100000000E-03 0. -1.
     100001    1    1    2    0    0  0.11755313131E-01 -0.16826526520E-01 -0.88703505267E-02  0.50000500000E+01  0.50000000000E+01 0.  0.
     100001    1    1    2    0    0 -0.11755313131E-01  0.16826526520E-01  0.88703505267E-02  0.50000500000E+01  0.50000000000E+01 0. -1.
</event>
<event>
 4    1  0.5017912E-001  0.5000050E+01  0.7818608E-02  0.2136455E+00
        -11   -1    0    0    0    0  0.00000000000E+00  0.00000000000E+00  0.50000499739E+01  0.50000500000E+01  0.51100000000E-03 0. -1.
         11   -1    0    0    0    0 -0.00000000000E+00 -0.00000000000E+00 -0.50000499739E+01  0.50000500000E+01  0.51100000000E-03 0.  1.
     100001    1    1    2    0    0  0.88013124429E-02 -0.17848248504E-01  0.10197030186E-01  0.50000500000E+01  0.50000000000E+01 0.  0.
     100001    1    1    2    0    0 -0.88013124429E-02  0.17848248504E-01 -0.10197030186E-01  0.50000500000E+01  0.50000000000E+01 0.  0.
</event>
<event>
 4    1  0.5017912E-001  0.5000050E+01  0.7818608E-02  0.2136455E+00
        -11   -1    0    0    0    0  0.00000000000E+00  0.00000000000E+00  0.50000499739E+01  0.50000500000E+01  0.51100000000E-03 0.  1.
         11   -1    0    0    0    0 -0.00000000000E+00 -0.00000000000E+00 -0.50000499739E+01  0.50000500000E+01  0.51100000000E-03 0. -1.
     100001    1    1    2    0    0 -0.21662402074E-01  0.25221795270E-02 -0.49377572666E-02  0.50000500000E+01  0.50000000000E+01 0.  1.
     100001    1    1    2    0    0  0.21662402074E-01 -0.25221795270E-02  0.49377572666E-02  0.50000500000E+01  0.50000000000E+01 0.  0.
</event>
<event>
 4    1  0.5017912E-001  0.5000050E+01  0.7818608E-02  0.2136455E+00
        -11   -1    0    0    0    0  0.00000000000E+00  0.00000000000E+00  0.50000499739E+01  0.50000500000E+01  0.51100000000E-03 0. -1.
         11   -1    0    0    0    0 -0.00000000000E+00 -0.00000000000E+00 -0.50000499739E+01  0.50000500000E+01  0.51100000000E-03 0.  1.
     100001    1    1    2    0    0 -0.39039280984E-02 -0.21997682557E-01 -0.92941246516E-03  0.50000500000E+01  0.50000000000E+01 0. -1.
     100001    1    1    2    0    0  0.39039280984E-02  0.21997682557E-01  0.92941246516E-03  0.50000500000E+01  0.50000000000E+01 0.  1.
</event>
<event>
 4    1  0.5017912E-001  0.5000050E+01  0.7818608E-02  0.2136455E+00
        -11   -1    0    0    0    0  0.00000000000E+00  0.00000000000E+00  0.50000499739E+01  0.50000500000E+01  0.51100000000E-03 0. -1.
         11   -1    0    0    0    0 -0.00000000000E+00 -0.00000000000E+00 -0.50000499739E+01  0.50000500000E+01  0.51100000000E-03 0.  1.
     100001    1    1    2    0    0 -0.19113930771E-01  0.41115264246E-04  0.11604243190E-01  0.50000500000E+01  0.50000000000E+01 0.  0.
     100001    1    1    2    0    0  0.19113930771E-01 -0.41115264246E-04 -0.11604243190E-01  0.50000500000E+01  0.50000000000E+01 0.  0.
</event>
<event>
 4    1  0.5017912E-001  0.5000050E+01  0.7818608E-02  0.2136455E+00
        -11   -1    0    0    0    0  0.00000000000E+00  0.00000000000E+00  0.50000499739E+01  0.50000500000E+01  0.51100000000E-03 0. -1.
         11   -1    0    0    0    0 -0.00000000000E+00 -0.00000000000E+00 -0.50000499739E+01  0.50000500000E+01  0.51100000000E-03 0.  1.
     100001    1    1    2    0    0  0.14102083916E-01  0.15141762846E-01  0.84770718496E-02  0.50000500000E+01  0.50000000000E+01 0. -1.
     100001    1    1    2    0    0 -0.14102083916E-01 -0.15141762846E-01 -0.84770718496E-02  0.50000500000E+01  0.50000000000E+01 0.  1.
</event>
<event>
 4    1  0.5017912E-001  0.5000050E+01  0.7818608E-02  0.2136455E+00
        -11   -1    0    0    0    0  0.00000000000E+00  0.00000000000E+00  0.50000499739E+01  0.50000500000E+01  0.51100000000E-03 0. -1.
         11   -1    0    0    0    0 -0.00000000000E+00 -0.00000000000E+00 -0.50000499739E+01  0.50000500000E+01  0.51100000000E-03 0.  1.
     100001    1    1    2    0    0  0.17985330945E-01  0.83186637451E-02 -0.10360029165E-01  0.50000500000E+01  0.50000000000E+01 0.  1.
     100001    1    1    2    0    0 -0.17985330945E-01 -0.83186637451E-02  0.10360029165E-01  0.50000500000E+01  0.50000000000E+01 0. -1.
</event>
<event>
 4    1  0.5017912E-001  0.5000050E+01  0.7818608E-02  0.2136455E+00
        -11   -1    0    0    0    0  0.00000000000E+00  0.00000000000E+00  0.50000499739E+01  0.50000500000E+01  0.51100000000E-03 0. -1.
         11   -1    0    0    0    0 -0.00000000000E+00 -0.00000000000E+00 -0.50000499739E+01  0.50000500000E+01  0.51100000000E-03 0.  1.
     100001    1    1    2    0    0  0.19877969352E-01 -0.29654628982E-02  0.98017786255E-02  0.50000500000E+01  0.50000000000E+01 0. -1.
     100001    1    1    2    0    0 -0.19877969352E-01  0.29654628982E-02 -0.98017786255E-02  0.50000500000E+01  0.50000000000E+01 0.  1.
</event>
<event>
 4    1  0.5017912E-001  0.5000050E+01  0.7818608E-02  0.2136455E+00
        -11   -1    0    0    0    0  0.00000000000E+00  0.00000000000E+00  0.50000499739E+01  0.50000500000E+01  0.51100000000E-03 0.  1.
         11   -1    0    0    0    0 -0.00000000000E+00 -0.00000000000E+00 -0.50000499739E+01  0.50000500000E+01  0.51100000000E-03 0. -1.
     100001    1    1    2    0    0  0.98519130245E-02  0.51368733282E-02  0.19405021056E-01  0.50000500000E+01  0.50000000000E+01 0.  1.
     100001    1    1    2    0    0 -0.98519130245E-02 -0.51368733282E-02 -0.19405021056E-01  0.50000500000E+01  0.50000000000E+01 0. -1.
</event>
<event>
 4    1  0.5017912E-001  0.5000050E+01  0.7818608E-02  0.2136455E+00
        -11   -1    0    0    0    0  0.00000000000E+00  0.00000000000E+00  0.50000499739E+01  0.50000500000E+01  0.51100000000E-03 0.  1.
         11   -1    0    0    0    0 -0.00000000000E+00 -0.00000000000E+00 -0.50000499739E+01  0.50000500000E+01  0.51100000000E-03 0. -1.
     100001    1    1    2    0    0 -0.81928641767E-02 -0.18777206952E-01 -0.89608021775E-02  0.50000500000E+01  0.50000000000E+01 0. -1.
     100001    1    1    2    0    0  0.81928641767E-02  0.18777206952E-01  0.89608021776E-02  0.50000500000E+01  0.50000000000E+01 0.  1.
</event>
<event>
 4    1  0.5017912E-001  0.5000050E+01  0.7818608E-02  0.2136455E+00
        -11   -1    0    0    0    0  0.00000000000E+00  0.00000000000E+00  0.50000499739E+01  0.50000500000E+01  0.51100000000E-03 0. -1.
         11   -1    0    0    0    0 -0.00000000000E+00 -0.00000000000E+00 -0.50000499739E+01  0.50000500000E+01  0.51100000000E-03 0.  1.
     100001    1    1    2    0    0 -0.48677606653E-02 -0.21814246804E-01  0.66786411471E-03  0.50000500000E+01  0.50000000000E+01 0. -1.
     100001    1    1    2    0    0  0.48677606653E-02  0.21814246804E-01 -0.66786411471E-03  0.50000500000E+01  0.50000000000E+01 0.  0.
</event>
<event>
 4    1  0.5017912E-001  0.5000050E+01  0.7818608E-02  0.2136455E+00
        -11   -1    0    0    0    0  0.00000000000E+00  0.00000000000E+00  0.50000499739E+01  0.50000500000E+01  0.51100000000E-03 0.  1.
         11   -1    0    0    0    0 -0.00000000000E+00 -0.00000000000E+00 -0.50000499739E+01  0.50000500000E+01  0.51100000000E-03 0. -1.
     100001    1    1    2    0    0 -0.64030740611E-02 -0.11695814108E-01 -0.17950238854E-01  0.50000500000E+01  0.50000000000E+01 0.  0.
     100001    1    1    2    0    0  0.64030740611E-02  0.11695814108E-01  0.17950238854E-01  0.50000500000E+01  0.50000000000E+01 0.  0.
</event>
<event>
 4    1  0.5017912E-001  0.5000050E+01  0.7818608E-02  0.2136455E+00
        -11   -1    0    0    0    0  0.00000000000E+00  0.00000000000E+00  0.50000499739E+01  0.50000500000E+01  0.51100000000E-03 0.  1.
         11   -1    0    0    0    0 -0.00000000000E+00 -0.00000000000E+00 -0.50000499739E+01  0.50000500000E+01  0.51100000000E-03 0. -1.
     100001    1    1    2    0    0 -0.20210877689E-01 -0.67483413995E-02  0.67810627025E-02  0.50000500000E+01  0.50000000000E+01 0. -1.
     100001    1    1    2    0    0  0.20210877689E-01  0.67483413995E-02 -0.67810627025E-02  0.50000500000E+01  0.50000000000E+01 0.  0.
</event>
<event>
 4    1  0.5017912E-001  0.5000050E+01  0.7818608E-02  0.2136455E+00
        -11   -1    0    0    0    0  0.00000000000E+00  0.00000000000E+00  0.50000499739E+01  0.50000500000E+01  0.51100000000E-03 0. -1.
         11   -1    0    0    0    0 -0.00000000000E+00 -0.00000000000E+00 -0.50000499739E+01  0.50000500000E+01  0.51100000000E-03 0.  1.
     100001    1    1    2    0    0  0.81840228421E-02 -0.20806934841E-01 -0.30940692769E-03  0.50000500000E+01  0.50000000000E+01 0.  0.
     100001    1    1    2    0    0 -0.81840228421E-02  0.20806934841E-01  0.30940692769E-03  0.50000500000E+01  0.50000000000E+01 0. -1.
</event>
<event>
 4    1  0.5017912E-001  0.5000050E+01  0.7818608E-02  0.2136455E+00
        -11   -1    0    0    0    0  0.00000000000E+00  0.00000000000E+00  0.50000499739E+01  0.50000500000E+01  0.51100000000E-03 0.  1.
         11   -1    0    0    0    0 -0.00000000000E+00 -0.00000000000E+00 -0.50000499739E+01  0.50000500000E+01  0.51100000000E-03 0. -1.
     100001    1    1    2    0    0  0.32592262756E-02 -0.12529102789E-01  0.18231882168E-01  0.50000500000E+01  0.50000000000E+01 0.  0.
     100001    1    1    2    0    0 -0.32592262756E-02  0.12529102789E-01 -0.18231882168E-01  0.50000500000E+01  0.50000000000E+01 0. -1.
</event>
<event>
 4    1  0.5017912E-001  0.5000050E+01  0.7818608E-02  0.2136455E+00
        -11   -1    0    0    0    0  0.00000000000E+00  0.00000000000E+00  0.50000499739E+01  0.50000500000E+01  0.51100000000E-03 0.  1.
         11   -1    0    0    0    0 -0.00000000000E+00 -0.00000000000E+00 -0.50000499739E+01  0.50000500000E+01  0.51100000000E-03 0. -1.
     100001    1    1    2    0    0  0.12142333786E-01 -0.56311850062E-03 -0.18768301142E-01  0.50000500000E+01  0.50000000000E+01 0.  1.
     100001    1    1    2    0    0 -0.12142333786E-01  0.56311850062E-03  0.18768301142E-01  0.50000500000E+01  0.50000000000E+01 0.  1.
</event>
<event>
 4    1  0.5017912E-001  0.5000050E+01  0.7818608E-02  0.2136455E+00
        -11   -1    0    0    0    0  0.00000000000E+00  0.00000000000E+00  0.50000499739E+01  0.50000500000E+01  0.51100000000E-03 0. -1.
         11   -1    0    0    0    0 -0.00000000000E+00 -0.00000000000E+00 -0.50000499739E+01  0.50000500000E+01  0.51100000000E-03 0.  1.
     100001    1    1    2    0    0 -0.13780560908E-03 -0.12499293845E-01 -0.18540527581E-01  0.50000500000E+01  0.50000000000E+01 0.  0.
     100001    1    1    2    0    0  0.13780560908E-03  0.12499293845E-01  0.18540527581E-01  0.50000500000E+01  0.50000000000E+01 0. -1.
</event>
<event>
 4    1  0.5017912E-001  0.5000050E+01  0.7818608E-02  0.2136455E+00
        -11   -1    0    0    0    0  0.00000000000E+00  0.00000000000E+00  0.50000499739E+01  0.50000500000E+01  0.51100000000E-03 0.  1.
         11   -1    0    0    0    0 -0.00000000000E+00 -0.00000000000E+00 -0.50000499739E+01  0.50000500000E+01  0.51100000000E-03 0. -1.
     100001    1    1    2    0    0  0.12400287406E-01  0.16799755072E-01  0.80002251075E-02  0.50000500000E+01  0.50000000000E+01 0.  1.
     100001    1    1    2    0    0 -0.12400287406E-01 -0.16799755072E-01 -0.80002251075E-02  0.50000500000E+01  0.50000000000E+01 0.  1.
</event>
<event>
 4    1  0.5017912E-001  0.5000050E+01  0.7818608E-02  0.2136455E+00
        -11   -1    0    0    0    0  0.00000000000E+00  0.00000000000E+00  0.50000499739E+01  0.50000500000E+01  0.51100000000E-03 0. -1.
         11   -1    0    0    0    0 -0.00000000000E+00 -0.00000000000E+00 -0.50000499739E+01  0.50000500000E+01  0.51100000000E-03 0.  1.
     100001    1    1    2    0    0 -0.20741126281E-01 -0.68951839586E-02  0.47185398960E-02  0.50000500000E+01  0.50000000000E+01 0.  1.
     100001    1    1    2    0    0  0.20741126281E-01  0.68951839586E-02 -0.47185398960E-02  0.50000500000E+01  0.50000000000E+01 0. -1.
</event>
<event>
 4    1  0.5017912E-001  0.5000050E+01  0.7818608E-02  0.2136455E+00
        -11   -1    0    0    0    0  0.00000000000E+00  0.00000000000E+00  0.50000499739E+01  0.50000500000E+01  0.51100000000E-03 0. -1.
         11   -1    0    0    0    0 -0.00000000000E+00 -0.00000000000E+00 -0.50000499739E+01  0.50000500000E+01  0.51100000000E-03 0.  1.
     100001    1    1    2    0    0  0.12365200577E-01 -0.67750597281E-02 -0.17355197503E-01  0.50000500000E+01  0.50000000000E+01 0.  1.
     100001    1    1    2    0    0 -0.12365200577E-01  0.67750597281E-02  0.17355197503E-01  0.50000500000E+01  0.50000000000E+01 0.  0.
</event>
<event>
 4    1  0.5017912E-001  0.5000050E+01  0.7818608E-02  0.2136455E+00
        -11   -1    0    0    0    0  0.00000000000E+00  0.00000000000E+00  0.50000499739E+01  0.50000500000E+01  0.51100000000E-03 0. -1.
         11   -1    0    0    0    0 -0.00000000000E+00 -0.00000000000E+00 -0.50000499739E+01  0.50000500000E+01  0.51100000000E-03 0.  1.
     100001    1    1    2    0    0  0.48005078657E-02 -0.78803951447E-02 -0.20368038604E-01  0.50000500000E+01  0.50000000000E+01 0.  0.
     100001    1    1    2    0    0 -0.48005078657E-02  0.78803951447E-02  0.20368038604E-01  0.50000500000E+01  0.50000000000E+01 0. -1.
</event>
<event>
 4    1  0.5017912E-001  0.5000050E+01  0.7818608E-02  0.2136455E+00
        -11   -1    0    0    0    0  0.00000000000E+00  0.00000000000E+00  0.50000499739E+01  0.50000500000E+01  0.51100000000E-03 0.  1.
         11   -1    0    0    0    0 -0.00000000000E+00 -0.00000000000E+00 -0.50000499739E+01  0.50000500000E+01  0.51100000000E-03 0. -1.
     100001    1    1    2    0    0  0.77289081716E-02 -0.20207850778E-01  0.56488269040E-02  0.50000500000E+01  0.50000000000E+01 0. -1.
     100001    1    1    2    0    0 -0.77289081716E-02  0.20207850778E-01 -0.56488269040E-02  0.50000500000E+01  0.50000000000E+01 0.  1.
</event>
<event>
 4    1  0.5017912E-001  0.5000050E+01  0.7818608E-02  0.2136455E+00
        -11   -1    0    0    0    0  0.00000000000E+00  0.00000000000E+00  0.50000499739E+01  0.50000500000E+01  0.51100000000E-03 0. -1.
         11   -1    0    0    0    0 -0.00000000000E+00 -0.00000000000E+00 -0.50000499739E+01  0.50000500000E+01  0.51100000000E-03 0.  1.
     100001    1    1    2    0    0  0.19427965162E-01  0.10946923151E-01  0.16497100315E-02  0.50000500000E+01  0.50000000000E+01 0.  1.
     100001    1    1    2    0    0 -0.19427965162E-01 -0.10946923151E-01 -0.16497100315E-02  0.50000500000E+01  0.50000000000E+01 0. -1.
</event>
<event>
 4    1  0.5017912E-001  0.5000050E+01  0.7818608E-02  0.2136455E+00
        -11   -1    0    0    0    0  0.00000000000E+00  0.00000000000E+00  0.50000499739E+01  0.50000500000E+01  0.51100000000E-03 0.  1.
         11   -1    0    0    0    0 -0.00000000000E+00 -0.00000000000E+00 -0.50000499739E+01  0.50000500000E+01  0.51100000000E-03 0. -1.
     100001    1    1    2    0    0 -0.14969441645E-01 -0.13309965574E-01  0.99379642397E-02  0.50000500000E+01  0.50000000000E+01 0.  1.
     100001    1    1    2    0    0  0.14969441645E-01  0.13309965574E-01 -0.99379642397E-02  0.50000500000E+01  0.50000000000E+01 0. -1.
</event>
<event>
 4    1  0.5017912E-001  0.5000050E+01  0.7818608E-02  0.2136455E+00
        -11   -1    0    0    0    0  0.00000000000E+00  0.00000000000E+00  0.50000499739E+01  0.50000500000E+01  0.51100000000E-03 0.  1.
         11   -1    0    0    0    0 -0.00000000000E+00 -0.00000000000E+00 -0.50000499739E+01  0.50000500000E+01  0.51100000000E-03 0. -1.
     100001    1    1    2    0    0  0.64504288528E-02  0.22136647626E-02  0.21295402225E-01  0.50000500000E+01  0.50000000000E+01 0.  1.
     100001    1    1    2    0    0 -0.64504288528E-02 -0.22136647626E-02 -0.21295402225E-01  0.50000500000E+01  0.50000000000E+01 0.  0.
</event>
<event>
 4    1  0.5017912E-001  0.5000050E+01  0.7818608E-02  0.2136455E+00
        -11   -1    0    0    0    0  0.00000000000E+00  0.00000000000E+00  0.50000499739E+01  0.50000500000E+01  0.51100000000E-03 0. -1.
         11   -1    0    0    0    0 -0.00000000000E+00 -0.00000000000E+00 -0.50000499739E+01  0.50000500000E+01  0.51100000000E-03 0.  1.
     100001    1    1    2    0    0 -0.41375547199E-02  0.20880211826E-01 -0.68483498026E-02  0.50000500000E+01  0.50000000000E+01 0.  1.
     100001    1    1    2    0    0  0.41375547199E-02 -0.20880211826E-01  0.68483498026E-02  0.50000500000E+01  0.50000000000E+01 0. -1.
</event>
<event>
 4    1  0.5017912E-001  0.5000050E+01  0.7818608E-02  0.2136455E+00
        -11   -1    0    0    0    0  0.00000000000E+00  0.00000000000E+00  0.50000499739E+01  0.50000500000E+01  0.51100000000E-03 0. -1.
         11   -1    0    0    0    0 -0.00000000000E+00 -0.00000000000E+00 -0.50000499739E+01  0.50000500000E+01  0.51100000000E-03 0.  1.
     100001    1    1    2    0    0  0.87179297793E-02  0.20589065788E-01 -0.30094908309E-03  0.50000500000E+01  0.50000000000E+01 0.  1.
     100001    1    1    2    0    0 -0.87179297793E-02 -0.20589065788E-01  0.30094908309E-03  0.50000500000E+01  0.50000000000E+01 0.  0.
</event>
<event>
 4    1  0.5017912E-001  0.5000050E+01  0.7818608E-02  0.2136455E+00
        -11   -1    0    0    0    0  0.00000000000E+00  0.00000000000E+00  0.50000499739E+01  0.50000500000E+01  0.51100000000E-03 0.  1.
         11   -1    0    0    0    0 -0.00000000000E+00 -0.00000000000E+00 -0.50000499739E+01  0.50000500000E+01  0.51100000000E-03 0. -1.
     100001    1    1    2    0    0  0.22124829815E-01  0.25359707111E-02  0.20157525142E-02  0.50000500000E+01  0.50000000000E+01 0.  1.
     100001    1    1    2    0    0 -0.22124829815E-01 -0.25359707111E-02 -0.20157525142E-02  0.50000500000E+01  0.50000000000E+01 0. -1.
</event>
<event>
 4    1  0.5017912E-001  0.5000050E+01  0.7818608E-02  0.2136455E+00
        -11   -1    0    0    0    0  0.00000000000E+00  0.00000000000E+00  0.50000499739E+01  0.50000500000E+01  0.51100000000E-03 0. -1.
         11   -1    0    0    0    0 -0.00000000000E+00 -0.00000000000E+00 -0.50000499739E+01  0.50000500000E+01  0.51100000000E-03 0.  1.
     100001    1    1    2    0    0  0.16184363811E-01 -0.64467686726E-02  0.14018132605E-01  0.50000500000E+01  0.50000000000E+01 0.  1.
     100001    1    1    2    0    0 -0.16184363811E-01  0.64467686726E-02 -0.14018132605E-01  0.50000500000E+01  0.50000000000E+01 0. -1.
</event>
<event>
 4    1  0.5017912E-001  0.5000050E+01  0.7818608E-02  0.2136455E+00
        -11   -1    0    0    0    0  0.00000000000E+00  0.00000000000E+00  0.50000499739E+01  0.50000500000E+01  0.51100000000E-03 0. -1.
         11   -1    0    0    0    0 -0.00000000000E+00 -0.00000000000E+00 -0.50000499739E+01  0.50000500000E+01  0.51100000000E-03 0.  1.
     100001    1    1    2    0    0 -0.17871788011E-01 -0.54711629973E-02 -0.12274692205E-01  0.50000500000E+01  0.50000000000E+01 0. -1.
     100001    1    1    2    0    0  0.17871788011E-01  0.54711629973E-02  0.12274692205E-01  0.50000500000E+01  0.50000000000E+01 0. -1.
</event>
<event>
 4    1  0.5017912E-001  0.5000050E+01  0.7818608E-02  0.2136455E+00
        -11   -1    0    0    0    0  0.00000000000E+00  0.00000000000E+00  0.50000499739E+01  0.50000500000E+01  0.51100000000E-03 0. -1.
         11   -1    0    0    0    0 -0.00000000000E+00 -0.00000000000E+00 -0.50000499739E+01  0.50000500000E+01  0.51100000000E-03 0.  1.
     100001    1    1    2    0    0 -0.14733541060E-01  0.49035954789E-02 -0.16089748886E-01  0.50000500000E+01  0.50000000000E+01 0.  0.
     100001    1    1    2    0    0  0.14733541060E-01 -0.49035954789E-02  0.16089748886E-01  0.50000500000E+01  0.50000000000E+01 0.  0.
</event>
<event>
 4    1  0.5017912E-001  0.5000050E+01  0.7818608E-02  0.2136455E+00
        -11   -1    0    0    0    0  0.00000000000E+00  0.00000000000E+00  0.50000499739E+01  0.50000500000E+01  0.51100000000E-03 0. -1.
         11   -1    0    0    0    0 -0.00000000000E+00 -0.00000000000E+00 -0.50000499739E+01  0.50000500000E+01  0.51100000000E-03 0.  1.
     100001    1    1    2    0    0 -0.17348246308E-01 -0.10209034291E-02 -0.14071197754E-01  0.50000500000E+01  0.50000000000E+01 0.  1.
     100001    1    1    2    0    0  0.17348246308E-01  0.10209034291E-02  0.14071197754E-01  0.50000500000E+01  0.50000000000E+01 0. -1.
</event>
<event>
 4    1  0.5017912E-001  0.5000050E+01  0.7818608E-02  0.2136455E+00
        -11   -1    0    0    0    0  0.00000000000E+00  0.00000000000E+00  0.50000499739E+01  0.50000500000E+01  0.51100000000E-03 0.  1.
         11   -1    0    0    0    0 -0.00000000000E+00 -0.00000000000E+00 -0.50000499739E+01  0.50000500000E+01  0.51100000000E-03 0. -1.
     100001    1    1    2    0    0  0.54617382387E-03 -0.11831363631E-01 -0.18966365724E-01  0.50000500000E+01  0.50000000000E+01 0. -1.
     100001    1    1    2    0    0 -0.54617382387E-03  0.11831363631E-01  0.18966365724E-01  0.50000500000E+01  0.50000000000E+01 0.  1.
</event>
<event>
 4    1  0.5017912E-001  0.5000050E+01  0.7818608E-02  0.2136455E+00
        -11   -1    0    0    0    0  0.00000000000E+00  0.00000000000E+00  0.50000499739E+01  0.50000500000E+01  0.51100000000E-03 0.  1.
         11   -1    0    0    0    0 -0.00000000000E+00 -0.00000000000E+00 -0.50000499739E+01  0.50000500000E+01  0.51100000000E-03 0. -1.
     100001    1    1    2    0    0  0.77491731397E-02  0.18745540398E-01 -0.94105010933E-02  0.50000500000E+01  0.50000000000E+01 0.  1.
     100001    1    1    2    0    0 -0.77491731397E-02 -0.18745540398E-01  0.94105010933E-02  0.50000500000E+01  0.50000000000E+01 0. -1.
</event>
<event>
 4    1  0.5017912E-001  0.5000050E+01  0.7818608E-02  0.2136455E+00
        -11   -1    0    0    0    0  0.00000000000E+00  0.00000000000E+00  0.50000499739E+01  0.50000500000E+01  0.51100000000E-03 0. -1.
         11   -1    0    0    0    0 -0.00000000000E+00 -0.00000000000E+00 -0.50000499739E+01  0.50000500000E+01  0.51100000000E-03 0.  1.
     100001    1    1    2    0    0 -0.73388771347E-02 -0.20907620535E-01 -0.30024633189E-02  0.50000500000E+01  0.50000000000E+01 0. -1.
     100001    1    1    2    0    0  0.73388771347E-02  0.20907620535E-01  0.30024633189E-02  0.50000500000E+01  0.50000000000E+01 0.  0.
</event>
<event>
 4    1  0.5017912E-001  0.5000050E+01  0.7818608E-02  0.2136455E+00
        -11   -1    0    0    0    0  0.00000000000E+00  0.00000000000E+00  0.50000499739E+01  0.50000500000E+01  0.51100000000E-03 0. -1.
         11   -1    0    0    0    0 -0.00000000000E+00 -0.00000000000E+00 -0.50000499739E+01  0.50000500000E+01  0.51100000000E-03 0.  1.
     100001    1    1    2    0    0 -0.20047250893E-01  0.23251294188E-02  0.96282918947E-02  0.50000500000E+01  0.50000000000E+01 0.  0.
     100001    1    1    2    0    0  0.20047250893E-01 -0.23251294188E-02 -0.96282918947E-02  0.50000500000E+01  0.50000000000E+01 0.  0.
</event>
<event>
 4    1  0.5017912E-001  0.5000050E+01  0.7818608E-02  0.2136455E+00
        -11   -1    0    0    0    0  0.00000000000E+00  0.00000000000E+00  0.50000499739E+01  0.50000500000E+01  0.51100000000E-03 0. -1.
         11   -1    0    0    0    0 -0.00000000000E+00 -0.00000000000E+00 -0.50000499739E+01  0.50000500000E+01  0.51100000000E-03 0.  1.
     100001    1    1    2    0    0 -0.52340090374E-02  0.16978851402E-01  0.13576680539E-01  0.50000500000E+01  0.50000000000E+01 0. -1.
     100001    1    1    2    0    0  0.52340090374E-02 -0.16978851402E-01 -0.13576680539E-01  0.50000500000E+01  0.50000000000E+01 0.  1.
</event>
<event>
 4    1  0.5017912E-001  0.5000050E+01  0.7818608E-02  0.2136455E+00
        -11   -1    0    0    0    0  0.00000000000E+00  0.00000000000E+00  0.50000499739E+01  0.50000500000E+01  0.51100000000E-03 0. -1.
         11   -1    0    0    0    0 -0.00000000000E+00 -0.00000000000E+00 -0.50000499739E+01  0.50000500000E+01  0.51100000000E-03 0.  1.
     100001    1    1    2    0    0  0.60808099714E-02 -0.66010021674E-02  0.20480552250E-01  0.50000500000E+01  0.50000000000E+01 0.  0.
     100001    1    1    2    0    0 -0.60808099714E-02  0.66010021674E-02 -0.20480552250E-01  0.50000500000E+01  0.50000000000E+01 0.  1.
</event>
<event>
 4    1  0.5017912E-001  0.5000050E+01  0.7818608E-02  0.2136455E+00
        -11   -1    0    0    0    0  0.00000000000E+00  0.00000000000E+00  0.50000499739E+01  0.50000500000E+01  0.51100000000E-03 0. -1.
         11   -1    0    0    0    0 -0.00000000000E+00 -0.00000000000E+00 -0.50000499739E+01  0.50000500000E+01  0.51100000000E-03 0.  1.
     100001    1    1    2    0    0 -0.12913640824E-01 -0.38236491892E-02  0.17849932424E-01  0.50000500000E+01  0.50000000000E+01 0.  0.
     100001    1    1    2    0    0  0.12913640824E-01  0.38236491892E-02 -0.17849932424E-01  0.50000500000E+01  0.50000000000E+01 0.  1.
</event>
<event>
 4    1  0.5017912E-001  0.5000050E+01  0.7818608E-02  0.2136455E+00
        -11   -1    0    0    0    0  0.00000000000E+00  0.00000000000E+00  0.50000499739E+01  0.50000500000E+01  0.51100000000E-03 0.  1.
         11   -1    0    0    0    0 -0.00000000000E+00 -0.00000000000E+00 -0.50000499739E+01  0.50000500000E+01  0.51100000000E-03 0. -1.
     100001    1    1    2    0    0  0.13900340182E-01  0.11429195341E-01  0.13272397549E-01  0.50000500000E+01  0.50000000000E+01 0. -1.
     100001    1    1    2    0    0 -0.13900340182E-01 -0.11429195341E-01 -0.13272397549E-01  0.50000500000E+01  0.50000000000E+01 0.  0.
</event>
<event>
 4    1  0.5017912E-001  0.5000050E+01  0.7818608E-02  0.2136455E+00
        -11   -1    0    0    0    0  0.00000000000E+00  0.00000000000E+00  0.50000499739E+01  0.50000500000E+01  0.51100000000E-03 0.  1.
         11   -1    0    0    0    0 -0.00000000000E+00 -0.00000000000E+00 -0.50000499739E+01  0.50000500000E+01  0.51100000000E-03 0. -1.
     100001    1    1    2    0    0 -0.20619661042E-01 -0.81886939799E-02 -0.27887935411E-02  0.50000500000E+01  0.50000000000E+01 0. -1.
     100001    1    1    2    0    0  0.20619661042E-01  0.81886939799E-02  0.27887935411E-02  0.50000500000E+01  0.50000000000E+01 0.  1.
</event>
<event>
 4    1  0.5017912E-001  0.5000050E+01  0.7818608E-02  0.2136455E+00
        -11   -1    0    0    0    0  0.00000000000E+00  0.00000000000E+00  0.50000499739E+01  0.50000500000E+01  0.51100000000E-03 0.  1.
         11   -1    0    0    0    0 -0.00000000000E+00 -0.00000000000E+00 -0.50000499739E+01  0.50000500000E+01  0.51100000000E-03 0. -1.
     100001    1    1    2    0    0  0.11417753275E-01  0.17909417315E-01 -0.69921514278E-02  0.50000500000E+01  0.50000000000E+01 0.  0.
     100001    1    1    2    0    0 -0.11417753275E-01 -0.17909417315E-01  0.69921514278E-02  0.50000500000E+01  0.50000000000E+01 0.  0.
</event>
<event>
 4    1  0.5017912E-001  0.5000050E+01  0.7818608E-02  0.2136455E+00
        -11   -1    0    0    0    0  0.00000000000E+00  0.00000000000E+00  0.50000499739E+01  0.50000500000E+01  0.51100000000E-03 0.  1.
         11   -1    0    0    0    0 -0.00000000000E+00 -0.00000000000E+00 -0.50000499739E+01  0.50000500000E+01  0.51100000000E-03 0. -1.
     100001    1    1    2    0    0  0.57834674806E-02 -0.52222224064E-02  0.20959064794E-01  0.50000500000E+01  0.50000000000E+01 0. -1.
     100001    1    1    2    0    0 -0.57834674806E-02  0.52222224064E-02 -0.20959064794E-01  0.50000500000E+01  0.50000000000E+01 0. -1.
</event>
<event>
 4    1  0.5017912E-001  0.5000050E+01  0.7818608E-02  0.2136455E+00
        -11   -1    0    0    0    0  0.00000000000E+00  0.00000000000E+00  0.50000499739E+01  0.50000500000E+01  0.51100000000E-03 0. -1.
         11   -1    0    0    0    0 -0.00000000000E+00 -0.00000000000E+00 -0.50000499739E+01  0.50000500000E+01  0.51100000000E-03 0.  1.
     100001    1    1    2    0    0  0.62468615177E-02  0.20429998092E-01  0.66026054823E-02  0.50000500000E+01  0.50000000000E+01 0. -1.
     100001    1    1    2    0    0 -0.62468615177E-02 -0.20429998092E-01 -0.66026054823E-02  0.50000500000E+01  0.50000000000E+01 0. -1.
</event>
<event>
 4    1  0.5017912E-001  0.5000050E+01  0.7818608E-02  0.2136455E+00
        -11   -1    0    0    0    0  0.00000000000E+00  0.00000000000E+00  0.50000499739E+01  0.50000500000E+01  0.51100000000E-03 0. -1.
         11   -1    0    0    0    0 -0.00000000000E+00 -0.00000000000E+00 -0.50000499739E+01  0.50000500000E+01  0.51100000000E-03 0.  1.
     100001    1    1    2    0    0 -0.15200536668E-01 -0.14996841711E-01  0.66363336023E-02  0.50000500000E+01  0.50000000000E+01 0.  1.
     100001    1    1    2    0    0  0.15200536668E-01  0.14996841711E-01 -0.66363336023E-02  0.50000500000E+01  0.50000000000E+01 0.  0.
</event>
<event>
 4    1  0.5017912E-001  0.5000050E+01  0.7818608E-02  0.2136455E+00
        -11   -1    0    0    0    0  0.00000000000E+00  0.00000000000E+00  0.50000499739E+01  0.50000500000E+01  0.51100000000E-03 0. -1.
         11   -1    0    0    0    0 -0.00000000000E+00 -0.00000000000E+00 -0.50000499739E+01  0.50000500000E+01  0.51100000000E-03 0.  1.
     100001    1    1    2    0    0  0.12917153054E-01  0.15365109281E-01  0.98520593663E-02  0.50000500000E+01  0.50000000000E+01 0. -1.
     100001    1    1    2    0    0 -0.12917153054E-01 -0.15365109281E-01 -0.98520593663E-02  0.50000500000E+01  0.50000000000E+01 0. -1.
</event>
<event>
 4    1  0.5017912E-001  0.5000050E+01  0.7818608E-02  0.2136455E+00
        -11   -1    0    0    0    0  0.00000000000E+00  0.00000000000E+00  0.50000499739E+01  0.50000500000E+01  0.51100000000E-03 0. -1.
         11   -1    0    0    0    0 -0.00000000000E+00 -0.00000000000E+00 -0.50000499739E+01  0.50000500000E+01  0.51100000000E-03 0.  1.
     100001    1    1    2    0    0 -0.10812402280E-01 -0.11330375525E-01  0.15959857374E-01  0.50000500000E+01  0.50000000000E+01 0.  0.
     100001    1    1    2    0    0  0.10812402280E-01  0.11330375525E-01 -0.15959857374E-01  0.50000500000E+01  0.50000000000E+01 0.  0.
</event>
<event>
 4    1  0.5017912E-001  0.5000050E+01  0.7818608E-02  0.2136455E+00
        -11   -1    0    0    0    0  0.00000000000E+00  0.00000000000E+00  0.50000499739E+01  0.50000500000E+01  0.51100000000E-03 0.  1.
         11   -1    0    0    0    0 -0.00000000000E+00 -0.00000000000E+00 -0.50000499739E+01  0.50000500000E+01  0.51100000000E-03 0. -1.
     100001    1    1    2    0    0  0.13368705339E-03  0.11664557045E-01 -0.19076759072E-01  0.50000500000E+01  0.50000000000E+01 0. -1.
     100001    1    1    2    0    0 -0.13368705339E-03 -0.11664557045E-01  0.19076759072E-01  0.50000500000E+01  0.50000000000E+01 0.  0.
</event>
<event>
 4    1  0.5017912E-001  0.5000050E+01  0.7818608E-02  0.2136455E+00
        -11   -1    0    0    0    0  0.00000000000E+00  0.00000000000E+00  0.50000499739E+01  0.50000500000E+01  0.51100000000E-03 0.  1.
         11   -1    0    0    0    0 -0.00000000000E+00 -0.00000000000E+00 -0.50000499739E+01  0.50000500000E+01  0.51100000000E-03 0. -1.
     100001    1    1    2    0    0 -0.15941259903E-01  0.52472284183E-03 -0.15671738852E-01  0.50000500000E+01  0.50000000000E+01 0. -1.
     100001    1    1    2    0    0  0.15941259903E-01 -0.52472284183E-03  0.15671738852E-01  0.50000500000E+01  0.50000000000E+01 0. -1.
</event>
<event>
 4    1  0.5017912E-001  0.5000050E+01  0.7818608E-02  0.2136455E+00
        -11   -1    0    0    0    0  0.00000000000E+00  0.00000000000E+00  0.50000499739E+01  0.50000500000E+01  0.51100000000E-03 0. -1.
         11   -1    0    0    0    0 -0.00000000000E+00 -0.00000000000E+00 -0.50000499739E+01  0.50000500000E+01  0.51100000000E-03 0.  1.
     100001    1    1    2    0    0  0.18524934770E-01  0.83360414305E-02  0.93455714121E-02  0.50000500000E+01  0.50000000000E+01 0. -1.
     100001    1    1    2    0    0 -0.18524934770E-01 -0.83360414305E-02 -0.93455714121E-02  0.50000500000E+01  0.50000000000E+01 0.  1.
</event>
<event>
 4    1  0.5017912E-001  0.5000050E+01  0.7818608E-02  0.2136455E+00
        -11   -1    0    0    0    0  0.00000000000E+00  0.00000000000E+00  0.50000499739E+01  0.50000500000E+01  0.51100000000E-03 0.  1.
         11   -1    0    0    0    0 -0.00000000000E+00 -0.00000000000E+00 -0.50000499739E+01  0.50000500000E+01  0.51100000000E-03 0. -1.
     100001    1    1    2    0    0  0.53086080224E-02 -0.21701742395E-01 -0.92496370995E-03  0.50000500000E+01  0.50000000000E+01 0. -1.
     100001    1    1    2    0    0 -0.53086080224E-02  0.21701742395E-01  0.92496370995E-03  0.50000500000E+01  0.50000000000E+01 0.  1.
</event>
<event>
 4    1  0.5017912E-001  0.5000050E+01  0.7818608E-02  0.2136455E+00
        -11   -1    0    0    0    0  0.00000000000E+00  0.00000000000E+00  0.50000499739E+01  0.50000500000E+01  0.51100000000E-03 0.  1.
         11   -1    0    0    0    0 -0.00000000000E+00 -0.00000000000E+00 -0.50000499739E+01  0.50000500000E+01  0.51100000000E-03 0. -1.
     100001    1    1    2    0    0  0.21501396274E-01  0.52340122679E-02 -0.32089833060E-02  0.50000500000E+01  0.50000000000E+01 0.  0.
     100001    1    1    2    0    0 -0.21501396274E-01 -0.52340122679E-02  0.32089833060E-02  0.50000500000E+01  0.50000000000E+01 0.  1.
</event>
<event>
 4    1  0.5017912E-001  0.5000050E+01  0.7818608E-02  0.2136455E+00
        -11   -1    0    0    0    0  0.00000000000E+00  0.00000000000E+00  0.50000499739E+01  0.50000500000E+01  0.51100000000E-03 0.  1.
         11   -1    0    0    0    0 -0.00000000000E+00 -0.00000000000E+00 -0.50000499739E+01  0.50000500000E+01  0.51100000000E-03 0. -1.
     100001    1    1    2    0    0  0.21512747825E-01 -0.20877237440E-02  0.57311072725E-02  0.50000500000E+01  0.50000000000E+01 0. -1.
     100001    1    1    2    0    0 -0.21512747825E-01  0.20877237440E-02 -0.57311072725E-02  0.50000500000E+01  0.50000000000E+01 0.  1.
</event>
<event>
 4    1  0.5017912E-001  0.5000050E+01  0.7818608E-02  0.2136455E+00
        -11   -1    0    0    0    0  0.00000000000E+00  0.00000000000E+00  0.50000499739E+01  0.50000500000E+01  0.51100000000E-03 0.  1.
         11   -1    0    0    0    0 -0.00000000000E+00 -0.00000000000E+00 -0.50000499739E+01  0.50000500000E+01  0.51100000000E-03 0. -1.
     100001    1    1    2    0    0  0.17091600746E-01  0.23274599671E-02  0.14228935801E-01  0.50000500000E+01  0.50000000000E+01 0.  0.
     100001    1    1    2    0    0 -0.17091600746E-01 -0.23274599671E-02 -0.14228935801E-01  0.50000500000E+01  0.50000000000E+01 0.  0.
</event>
<event>
 4    1  0.5017912E-001  0.5000050E+01  0.7818608E-02  0.2136455E+00
        -11   -1    0    0    0    0  0.00000000000E+00  0.00000000000E+00  0.50000499739E+01  0.50000500000E+01  0.51100000000E-03 0. -1.
         11   -1    0    0    0    0 -0.00000000000E+00 -0.00000000000E+00 -0.50000499739E+01  0.50000500000E+01  0.51100000000E-03 0.  1.
     100001    1    1    2    0    0  0.10680679537E-01 -0.16877552640E-01  0.10053546712E-01  0.50000500000E+01  0.50000000000E+01 0. -1.
     100001    1    1    2    0    0 -0.10680679537E-01  0.16877552640E-01 -0.10053546712E-01  0.50000500000E+01  0.50000000000E+01 0.  1.
</event>
<event>
 4    1  0.5017912E-001  0.5000050E+01  0.7818608E-02  0.2136455E+00
        -11   -1    0    0    0    0  0.00000000000E+00  0.00000000000E+00  0.50000499739E+01  0.50000500000E+01  0.51100000000E-03 0. -1.
         11   -1    0    0    0    0 -0.00000000000E+00 -0.00000000000E+00 -0.50000499739E+01  0.50000500000E+01  0.51100000000E-03 0.  1.
     100001    1    1    2    0    0 -0.18891057795E-01 -0.18757693195E-03 -0.11962242695E-01  0.50000500000E+01  0.50000000000E+01 0.  0.
     100001    1    1    2    0    0  0.18891057795E-01  0.18757693195E-03  0.11962242695E-01  0.50000500000E+01  0.50000000000E+01 0.  0.
</event>
<event>
 4    1  0.5017912E-001  0.5000050E+01  0.7818608E-02  0.2136455E+00
        -11   -1    0    0    0    0  0.00000000000E+00  0.00000000000E+00  0.50000499739E+01  0.50000500000E+01  0.51100000000E-03 0. -1.
         11   -1    0    0    0    0 -0.00000000000E+00 -0.00000000000E+00 -0.50000499739E+01  0.50000500000E+01  0.51100000000E-03 0.  1.
     100001    1    1    2    0    0  0.33554561288E-02  0.17429468115E-01  0.13599891742E-01  0.50000500000E+01  0.50000000000E+01 0. -1.
     100001    1    1    2    0    0 -0.33554561288E-02 -0.17429468115E-01 -0.13599891742E-01  0.50000500000E+01  0.50000000000E+01 0.  1.
</event>
<event>
 4    1  0.5017912E-001  0.5000050E+01  0.7818608E-02  0.2136455E+00
        -11   -1    0    0    0    0  0.00000000000E+00  0.00000000000E+00  0.50000499739E+01  0.50000500000E+01  0.51100000000E-03 0.  1.
         11   -1    0    0    0    0 -0.00000000000E+00 -0.00000000000E+00 -0.50000499739E+01  0.50000500000E+01  0.51100000000E-03 0. -1.
     100001    1    1    2    0    0  0.49635626087E-03 -0.69581916548E-02 -0.21244756985E-01  0.50000500000E+01  0.50000000000E+01 0. -1.
     100001    1    1    2    0    0 -0.49635626087E-03  0.69581916548E-02  0.21244756985E-01  0.50000500000E+01  0.50000000000E+01 0.  1.
</event>
<event>
 4    1  0.5017912E-001  0.5000050E+01  0.7818608E-02  0.2136455E+00
        -11   -1    0    0    0    0  0.00000000000E+00  0.00000000000E+00  0.50000499739E+01  0.50000500000E+01  0.51100000000E-03 0. -1.
         11   -1    0    0    0    0 -0.00000000000E+00 -0.00000000000E+00 -0.50000499739E+01  0.50000500000E+01  0.51100000000E-03 0.  1.
     100001    1    1    2    0    0 -0.86549773759E-02 -0.16901856021E-01  0.11807672491E-01  0.50000500000E+01  0.50000000000E+01 0.  1.
     100001    1    1    2    0    0  0.86549773759E-02  0.16901856021E-01 -0.11807672491E-01  0.50000500000E+01  0.50000000000E+01 0.  1.
</event>
<event>
 4    1  0.5017912E-001  0.5000050E+01  0.7818608E-02  0.2136455E+00
        -11   -1    0    0    0    0  0.00000000000E+00  0.00000000000E+00  0.50000499739E+01  0.50000500000E+01  0.51100000000E-03 0. -1.
         11   -1    0    0    0    0 -0.00000000000E+00 -0.00000000000E+00 -0.50000499739E+01  0.50000500000E+01  0.51100000000E-03 0.  1.
     100001    1    1    2    0    0 -0.19978800912E-01 -0.88443281563E-02 -0.47568764526E-02  0.50000500000E+01  0.50000000000E+01 0.  1.
     100001    1    1    2    0    0  0.19978800912E-01  0.88443281563E-02  0.47568764526E-02  0.50000500000E+01  0.50000000000E+01 0. -1.
</event>
<event>
 4    1  0.5017912E-001  0.5000050E+01  0.7818608E-02  0.2136455E+00
        -11   -1    0    0    0    0  0.00000000000E+00  0.00000000000E+00  0.50000499739E+01  0.50000500000E+01  0.51100000000E-03 0. -1.
         11   -1    0    0    0    0 -0.00000000000E+00 -0.00000000000E+00 -0.50000499739E+01  0.50000500000E+01  0.51100000000E-03 0.  1.
     100001    1    1    2    0    0  0.11629605952E-03  0.84563507684E-02  0.20699736880E-01  0.50000500000E+01  0.50000000000E+01 0. -1.
     100001    1    1    2    0    0 -0.11629605952E-03 -0.84563507684E-02 -0.20699736880E-01  0.50000500000E+01  0.50000000000E+01 0.  0.
</event>
<event>
 4    1  0.5017912E-001  0.5000050E+01  0.7818608E-02  0.2136455E+00
        -11   -1    0    0    0    0  0.00000000000E+00  0.00000000000E+00  0.50000499739E+01  0.50000500000E+01  0.51100000000E-03 0.  1.
         11   -1    0    0    0    0 -0.00000000000E+00 -0.00000000000E+00 -0.50000499739E+01  0.50000500000E+01  0.51100000000E-03 0. -1.
     100001    1    1    2    0    0 -0.12461209897E-01 -0.16500197699E-01  0.85125920726E-02  0.50000500000E+01  0.50000000000E+01 0.  0.
     100001    1    1    2    0    0  0.12461209897E-01  0.16500197699E-01 -0.85125920726E-02  0.50000500000E+01  0.50000000000E+01 0.  1.
</event>
<event>
 4    1  0.5017912E-001  0.5000050E+01  0.7818608E-02  0.2136455E+00
        -11   -1    0    0    0    0  0.00000000000E+00  0.00000000000E+00  0.50000499739E+01  0.50000500000E+01  0.51100000000E-03 0.  1.
         11   -1    0    0    0    0 -0.00000000000E+00 -0.00000000000E+00 -0.50000499739E+01  0.50000500000E+01  0.51100000000E-03 0. -1.
     100001    1    1    2    0    0 -0.20579052301E-01 -0.87216567377E-02 -0.66167223822E-03  0.50000500000E+01  0.50000000000E+01 0. -1.
     100001    1    1    2    0    0  0.20579052301E-01  0.87216567377E-02  0.66167223822E-03  0.50000500000E+01  0.50000000000E+01 0.  1.
</event>
<event>
 4    1  0.5017912E-001  0.5000050E+01  0.7818608E-02  0.2136455E+00
        -11   -1    0    0    0    0  0.00000000000E+00  0.00000000000E+00  0.50000499739E+01  0.50000500000E+01  0.51100000000E-03 0.  1.
         11   -1    0    0    0    0 -0.00000000000E+00 -0.00000000000E+00 -0.50000499739E+01  0.50000500000E+01  0.51100000000E-03 0. -1.
     100001    1    1    2    0    0  0.18210711420E-01  0.85622067036E-02  0.97499285095E-02  0.50000500000E+01  0.50000000000E+01 0.  1.
     100001    1    1    2    0    0 -0.18210711420E-01 -0.85622067036E-02 -0.97499285095E-02  0.50000500000E+01  0.50000000000E+01 0. -1.
</event>
<event>
 4    1  0.5017912E-001  0.5000050E+01  0.7818608E-02  0.2136455E+00
        -11   -1    0    0    0    0  0.00000000000E+00  0.00000000000E+00  0.50000499739E+01  0.50000500000E+01  0.51100000000E-03 0. -1.
         11   -1    0    0    0    0 -0.00000000000E+00 -0.00000000000E+00 -0.50000499739E+01  0.50000500000E+01  0.51100000000E-03 0.  1.
     100001    1    1    2    0    0 -0.88694823609E-02 -0.13580507944E-01  0.15391705124E-01  0.50000500000E+01  0.50000000000E+01 0. -1.
     100001    1    1    2    0    0  0.88694823609E-02  0.13580507944E-01 -0.15391705124E-01  0.50000500000E+01  0.50000000000E+01 0.  1.
</event>
<event>
 4    1  0.5017912E-001  0.5000050E+01  0.7818608E-02  0.2136455E+00
        -11   -1    0    0    0    0  0.00000000000E+00  0.00000000000E+00  0.50000499739E+01  0.50000500000E+01  0.51100000000E-03 0. -1.
         11   -1    0    0    0    0 -0.00000000000E+00 -0.00000000000E+00 -0.50000499739E+01  0.50000500000E+01  0.51100000000E-03 0.  1.
     100001    1    1    2    0    0 -0.19178211534E-01 -0.11150844789E-01  0.28030987929E-02  0.50000500000E+01  0.50000000000E+01 0. -1.
     100001    1    1    2    0    0  0.19178211534E-01  0.11150844789E-01 -0.28030987929E-02  0.50000500000E+01  0.50000000000E+01 0.  1.
</event>
<event>
 4    1  0.5017912E-001  0.5000050E+01  0.7818608E-02  0.2136455E+00
        -11   -1    0    0    0    0  0.00000000000E+00  0.00000000000E+00  0.50000499739E+01  0.50000500000E+01  0.51100000000E-03 0. -1.
         11   -1    0    0    0    0 -0.00000000000E+00 -0.00000000000E+00 -0.50000499739E+01  0.50000500000E+01  0.51100000000E-03 0.  1.
     100001    1    1    2    0    0  0.14264798677E-01  0.58802382374E-02  0.16184585783E-01  0.50000500000E+01  0.50000000000E+01 0. -1.
     100001    1    1    2    0    0 -0.14264798677E-01 -0.58802382374E-02 -0.16184585783E-01  0.50000500000E+01  0.50000000000E+01 0.  1.
</event>
<event>
 4    1  0.5017912E-001  0.5000050E+01  0.7818608E-02  0.2136455E+00
        -11   -1    0    0    0    0  0.00000000000E+00  0.00000000000E+00  0.50000499739E+01  0.50000500000E+01  0.51100000000E-03 0.  1.
         11   -1    0    0    0    0 -0.00000000000E+00 -0.00000000000E+00 -0.50000499739E+01  0.50000500000E+01  0.51100000000E-03 0. -1.
     100001    1    1    2    0    0  0.15271872904E-01 -0.12404808589E-01  0.10625117499E-01  0.50000500000E+01  0.50000000000E+01 0.  1.
     100001    1    1    2    0    0 -0.15271872904E-01  0.12404808589E-01 -0.10625117499E-01  0.50000500000E+01  0.50000000000E+01 0. -1.
</event>
<event>
 4    1  0.5017912E-001  0.5000050E+01  0.7818608E-02  0.2136455E+00
        -11   -1    0    0    0    0  0.00000000000E+00  0.00000000000E+00  0.50000499739E+01  0.50000500000E+01  0.51100000000E-03 0.  1.
         11   -1    0    0    0    0 -0.00000000000E+00 -0.00000000000E+00 -0.50000499739E+01  0.50000500000E+01  0.51100000000E-03 0. -1.
     100001    1    1    2    0    0  0.37012076449E-02  0.85606363354E-02  0.20322870553E-01  0.50000500000E+01  0.50000000000E+01 0.  0.
     100001    1    1    2    0    0 -0.37012076449E-02 -0.85606363354E-02 -0.20322870553E-01  0.50000500000E+01  0.50000000000E+01 0.  0.
</event>
<event>
 4    1  0.5017912E-001  0.5000050E+01  0.7818608E-02  0.2136455E+00
        -11   -1    0    0    0    0  0.00000000000E+00  0.00000000000E+00  0.50000499739E+01  0.50000500000E+01  0.51100000000E-03 0.  1.
         11   -1    0    0    0    0 -0.00000000000E+00 -0.00000000000E+00 -0.50000499739E+01  0.50000500000E+01  0.51100000000E-03 0. -1.
     100001    1    1    2    0    0  0.10132495315E-01 -0.10434515982E-01  0.16983989959E-01  0.50000500000E+01  0.50000000000E+01 0.  1.
     100001    1    1    2    0    0 -0.10132495315E-01  0.10434515982E-01 -0.16983989959E-01  0.50000500000E+01  0.50000000000E+01 0. -1.
</event>
<event>
 4    1  0.5017912E-001  0.5000050E+01  0.7818608E-02  0.2136455E+00
        -11   -1    0    0    0    0  0.00000000000E+00  0.00000000000E+00  0.50000499739E+01  0.50000500000E+01  0.51100000000E-03 0.  1.
         11   -1    0    0    0    0 -0.00000000000E+00 -0.00000000000E+00 -0.50000499739E+01  0.50000500000E+01  0.51100000000E-03 0. -1.
     100001    1    1    2    0    0 -0.55403979543E-02 -0.59247159303E-02 -0.20837567796E-01  0.50000500000E+01  0.50000000000E+01 0. -1.
     100001    1    1    2    0    0  0.55403979543E-02  0.59247159303E-02  0.20837567796E-01  0.50000500000E+01  0.50000000000E+01 0.  0.
</event>
<event>
 4    1  0.5017912E-001  0.5000050E+01  0.7818608E-02  0.2136455E+00
        -11   -1    0    0    0    0  0.00000000000E+00  0.00000000000E+00  0.50000499739E+01  0.50000500000E+01  0.51100000000E-03 0. -1.
         11   -1    0    0    0    0 -0.00000000000E+00 -0.00000000000E+00 -0.50000499739E+01  0.50000500000E+01  0.51100000000E-03 0.  1.
     100001    1    1    2    0    0 -0.10010018693E-01 -0.17901548516E-01  0.89071087621E-02  0.50000500000E+01  0.50000000000E+01 0. -1.
     100001    1    1    2    0    0  0.10010018693E-01  0.17901548516E-01 -0.89071087621E-02  0.50000500000E+01  0.50000000000E+01 0.  1.
</event>
<event>
 4    1  0.5017912E-001  0.5000050E+01  0.7818608E-02  0.2136455E+00
        -11   -1    0    0    0    0  0.00000000000E+00  0.00000000000E+00  0.50000499739E+01  0.50000500000E+01  0.51100000000E-03 0.  1.
         11   -1    0    0    0    0 -0.00000000000E+00 -0.00000000000E+00 -0.50000499739E+01  0.50000500000E+01  0.51100000000E-03 0. -1.
     100001    1    1    2    0    0 -0.17723069899E-01 -0.80533865718E-02  0.11001738866E-01  0.50000500000E+01  0.50000000000E+01 0. -1.
     100001    1    1    2    0    0  0.17723069899E-01  0.80533865718E-02 -0.11001738866E-01  0.50000500000E+01  0.50000000000E+01 0.  0.
</event>
<event>
 4    1  0.5017912E-001  0.5000050E+01  0.7818608E-02  0.2136455E+00
        -11   -1    0    0    0    0  0.00000000000E+00  0.00000000000E+00  0.50000499739E+01  0.50000500000E+01  0.51100000000E-03 0.  1.
         11   -1    0    0    0    0 -0.00000000000E+00 -0.00000000000E+00 -0.50000499739E+01  0.50000500000E+01  0.51100000000E-03 0. -1.
     100001    1    1    2    0    0 -0.18542058059E-01 -0.87219287112E-02 -0.89511196221E-02  0.50000500000E+01  0.50000000000E+01 0.  1.
     100001    1    1    2    0    0  0.18542058059E-01  0.87219287112E-02  0.89511196221E-02  0.50000500000E+01  0.50000000000E+01 0. -1.
</event>
<event>
 4    1  0.5017912E-001  0.5000050E+01  0.7818608E-02  0.2136455E+00
        -11   -1    0    0    0    0  0.00000000000E+00  0.00000000000E+00  0.50000499739E+01  0.50000500000E+01  0.51100000000E-03 0. -1.
         11   -1    0    0    0    0 -0.00000000000E+00 -0.00000000000E+00 -0.50000499739E+01  0.50000500000E+01  0.51100000000E-03 0.  1.
     100001    1    1    2    0    0 -0.15027874437E-01  0.61019601878E-03 -0.16546696067E-01  0.50000500000E+01  0.50000000000E+01 0.  1.
     100001    1    1    2    0    0  0.15027874437E-01 -0.61019601878E-03  0.16546696067E-01  0.50000500000E+01  0.50000000000E+01 0.  1.
</event>
<event>
 4    1  0.5017912E-001  0.5000050E+01  0.7818608E-02  0.2136455E+00
        -11   -1    0    0    0    0  0.00000000000E+00  0.00000000000E+00  0.50000499739E+01  0.50000500000E+01  0.51100000000E-03 0. -1.
         11   -1    0    0    0    0 -0.00000000000E+00 -0.00000000000E+00 -0.50000499739E+01  0.50000500000E+01  0.51100000000E-03 0.  1.
     100001    1    1    2    0    0  0.62210030795E-02 -0.19552349177E-01 -0.88886029460E-02  0.50000500000E+01  0.50000000000E+01 0. -1.
     100001    1    1    2    0    0 -0.62210030795E-02  0.19552349177E-01  0.88886029460E-02  0.50000500000E+01  0.50000000000E+01 0.  1.
</event>
<event>
 4    1  0.5017912E-001  0.5000050E+01  0.7818608E-02  0.2136455E+00
        -11   -1    0    0    0    0  0.00000000000E+00  0.00000000000E+00  0.50000499739E+01  0.50000500000E+01  0.51100000000E-03 0.  1.
         11   -1    0    0    0    0 -0.00000000000E+00 -0.00000000000E+00 -0.50000499739E+01  0.50000500000E+01  0.51100000000E-03 0. -1.
     100001    1    1    2    0    0 -0.14442218957E-01 -0.11867885441E-01  0.12271027127E-01  0.50000500000E+01  0.50000000000E+01 0.  0.
     100001    1    1    2    0    0  0.14442218957E-01  0.11867885441E-01 -0.12271027127E-01  0.50000500000E+01  0.50000000000E+01 0.  0.
</event>
<event>
 4    1  0.5017912E-001  0.5000050E+01  0.7818608E-02  0.2136455E+00
        -11   -1    0    0    0    0  0.00000000000E+00  0.00000000000E+00  0.50000499739E+01  0.50000500000E+01  0.51100000000E-03 0. -1.
         11   -1    0    0    0    0 -0.00000000000E+00 -0.00000000000E+00 -0.50000499739E+01  0.50000500000E+01  0.51100000000E-03 0.  1.
     100001    1    1    2    0    0  0.76219215554E-02 -0.16558078963E-01  0.12951402737E-01  0.50000500000E+01  0.50000000000E+01 0.  1.
     100001    1    1    2    0    0 -0.76219215554E-02  0.16558078963E-01 -0.12951402737E-01  0.50000500000E+01  0.50000000000E+01 0.  0.
</event>
<event>
 4    1  0.5017912E-001  0.5000050E+01  0.7818608E-02  0.2136455E+00
        -11   -1    0    0    0    0  0.00000000000E+00  0.00000000000E+00  0.50000499739E+01  0.50000500000E+01  0.51100000000E-03 0. -1.
         11   -1    0    0    0    0 -0.00000000000E+00 -0.00000000000E+00 -0.50000499739E+01  0.50000500000E+01  0.51100000000E-03 0.  1.
     100001    1    1    2    0    0 -0.14943744315E-01 -0.11564831037E-01 -0.11955822386E-01  0.50000500000E+01  0.50000000000E+01 0. -1.
     100001    1    1    2    0    0  0.14943744315E-01  0.11564831037E-01  0.11955822386E-01  0.50000500000E+01  0.50000000000E+01 0. -1.
</event>
<event>
 4    1  0.5017912E-001  0.5000050E+01  0.7818608E-02  0.2136455E+00
        -11   -1    0    0    0    0  0.00000000000E+00  0.00000000000E+00  0.50000499739E+01  0.50000500000E+01  0.51100000000E-03 0. -1.
         11   -1    0    0    0    0 -0.00000000000E+00 -0.00000000000E+00 -0.50000499739E+01  0.50000500000E+01  0.51100000000E-03 0.  1.
     100001    1    1    2    0    0 -0.76321131850E-02 -0.84147506605E-02 -0.19259940801E-01  0.50000500000E+01  0.50000000000E+01 0. -1.
     100001    1    1    2    0    0  0.76321131850E-02  0.84147506605E-02  0.19259940801E-01  0.50000500000E+01  0.50000000000E+01 0. -1.
</event>
<event>
 4    1  0.5017912E-001  0.5000050E+01  0.7818608E-02  0.2136455E+00
        -11   -1    0    0    0    0  0.00000000000E+00  0.00000000000E+00  0.50000499739E+01  0.50000500000E+01  0.51100000000E-03 0. -1.
         11   -1    0    0    0    0 -0.00000000000E+00 -0.00000000000E+00 -0.50000499739E+01  0.50000500000E+01  0.51100000000E-03 0.  1.
     100001    1    1    2    0    0  0.87726850382E-02 -0.13179613314E-02  0.20525727153E-01  0.50000500000E+01  0.50000000000E+01 0.  0.
     100001    1    1    2    0    0 -0.87726850382E-02  0.13179613314E-02 -0.20525727153E-01  0.50000500000E+01  0.50000000000E+01 0.  0.
</event>
<event>
 4    1  0.5017912E-001  0.5000050E+01  0.7818608E-02  0.2136455E+00
        -11   -1    0    0    0    0  0.00000000000E+00  0.00000000000E+00  0.50000499739E+01  0.50000500000E+01  0.51100000000E-03 0. -1.
         11   -1    0    0    0    0 -0.00000000000E+00 -0.00000000000E+00 -0.50000499739E+01  0.50000500000E+01  0.51100000000E-03 0.  1.
     100001    1    1    2    0    0 -0.48826746567E-02 -0.43909113631E-02 -0.21374795568E-01  0.50000500000E+01  0.50000000000E+01 0.  0.
     100001    1    1    2    0    0  0.48826746567E-02  0.43909113631E-02  0.21374795568E-01  0.50000500000E+01  0.50000000000E+01 0. -1.
</event>
<event>
 4    1  0.5017912E-001  0.5000050E+01  0.7818608E-02  0.2136455E+00
        -11   -1    0    0    0    0  0.00000000000E+00  0.00000000000E+00  0.50000499739E+01  0.50000500000E+01  0.51100000000E-03 0. -1.
         11   -1    0    0    0    0 -0.00000000000E+00 -0.00000000000E+00 -0.50000499739E+01  0.50000500000E+01  0.51100000000E-03 0.  1.
     100001    1    1    2    0    0 -0.58756633614E-02 -0.19174745609E-01  0.98898033804E-02  0.50000500000E+01  0.50000000000E+01 0.  1.
     100001    1    1    2    0    0  0.58756633614E-02  0.19174745609E-01 -0.98898033804E-02  0.50000500000E+01  0.50000000000E+01 0. -1.
</event>
<event>
 4    1  0.5017912E-001  0.5000050E+01  0.7818608E-02  0.2136455E+00
        -11   -1    0    0    0    0  0.00000000000E+00  0.00000000000E+00  0.50000499739E+01  0.50000500000E+01  0.51100000000E-03 0.  1.
         11   -1    0    0    0    0 -0.00000000000E+00 -0.00000000000E+00 -0.50000499739E+01  0.50000500000E+01  0.51100000000E-03 0. -1.
     100001    1    1    2    0    0 -0.59997104101E-02 -0.32638511788E-02 -0.21292093614E-01  0.50000500000E+01  0.50000000000E+01 0.  0.
     100001    1    1    2    0    0  0.59997104101E-02  0.32638511788E-02  0.21292093614E-01  0.50000500000E+01  0.50000000000E+01 0.  1.
</event>
<event>
 4    1  0.5017912E-001  0.5000050E+01  0.7818608E-02  0.2136455E+00
        -11   -1    0    0    0    0  0.00000000000E+00  0.00000000000E+00  0.50000499739E+01  0.50000500000E+01  0.51100000000E-03 0. -1.
         11   -1    0    0    0    0 -0.00000000000E+00 -0.00000000000E+00 -0.50000499739E+01  0.50000500000E+01  0.51100000000E-03 0.  1.
     100001    1    1    2    0    0 -0.14263629001E-01  0.15485567840E-01  0.75331650974E-02  0.50000500000E+01  0.50000000000E+01 0.  0.
     100001    1    1    2    0    0  0.14263629001E-01 -0.15485567840E-01 -0.75331650974E-02  0.50000500000E+01  0.50000000000E+01 0. -1.
</event>
<event>
 4    1  0.5017912E-001  0.5000050E+01  0.7818608E-02  0.2136455E+00
        -11   -1    0    0    0    0  0.00000000000E+00  0.00000000000E+00  0.50000499739E+01  0.50000500000E+01  0.51100000000E-03 0.  1.
         11   -1    0    0    0    0 -0.00000000000E+00 -0.00000000000E+00 -0.50000499739E+01  0.50000500000E+01  0.51100000000E-03 0. -1.
     100001    1    1    2    0    0 -0.15770641192E-01 -0.90759384961E-03  0.15826106590E-01  0.50000500000E+01  0.50000000000E+01 0.  1.
     100001    1    1    2    0    0  0.15770641192E-01  0.90759384961E-03 -0.15826106590E-01  0.50000500000E+01  0.50000000000E+01 0. -1.
</event>
<event>
 4    1  0.5017912E-001  0.5000050E+01  0.7818608E-02  0.2136455E+00
        -11   -1    0    0    0    0  0.00000000000E+00  0.00000000000E+00  0.50000499739E+01  0.50000500000E+01  0.51100000000E-03 0.  1.
         11   -1    0    0    0    0 -0.00000000000E+00 -0.00000000000E+00 -0.50000499739E+01  0.50000500000E+01  0.51100000000E-03 0. -1.
     100001    1    1    2    0    0 -0.19349105071E-01 -0.10517991253E-01 -0.38712392020E-02  0.50000500000E+01  0.50000000000E+01 0. -1.
     100001    1    1    2    0    0  0.19349105071E-01  0.10517991253E-01  0.38712392020E-02  0.50000500000E+01  0.50000000000E+01 0. -1.
</event>
<event>
 4    1  0.5017912E-001  0.5000050E+01  0.7818608E-02  0.2136455E+00
        -11   -1    0    0    0    0  0.00000000000E+00  0.00000000000E+00  0.50000499739E+01  0.50000500000E+01  0.51100000000E-03 0. -1.
         11   -1    0    0    0    0 -0.00000000000E+00 -0.00000000000E+00 -0.50000499739E+01  0.50000500000E+01  0.51100000000E-03 0.  1.
     100001    1    1    2    0    0 -0.44245642816E-02  0.45480531794E-02 -0.21441570446E-01  0.50000500000E+01  0.50000000000E+01 0.  0.
     100001    1    1    2    0    0  0.44245642816E-02 -0.45480531794E-02  0.21441570446E-01  0.50000500000E+01  0.50000000000E+01 0. -1.
</event>
<event>
 4    1  0.5017912E-001  0.5000050E+01  0.7818608E-02  0.2136455E+00
        -11   -1    0    0    0    0  0.00000000000E+00  0.00000000000E+00  0.50000499739E+01  0.50000500000E+01  0.51100000000E-03 0. -1.
         11   -1    0    0    0    0 -0.00000000000E+00 -0.00000000000E+00 -0.50000499739E+01  0.50000500000E+01  0.51100000000E-03 0.  1.
     100001    1    1    2    0    0  0.15726991790E-01 -0.15563980032E-01  0.32290485926E-02  0.50000500000E+01  0.50000000000E+01 0. -1.
     100001    1    1    2    0    0 -0.15726991790E-01  0.15563980032E-01 -0.32290485926E-02  0.50000500000E+01  0.50000000000E+01 0.  0.
</event>
<event>
 4    1  0.5017912E-001  0.5000050E+01  0.7818608E-02  0.2136455E+00
        -11   -1    0    0    0    0  0.00000000000E+00  0.00000000000E+00  0.50000499739E+01  0.50000500000E+01  0.51100000000E-03 0.  1.
         11   -1    0    0    0    0 -0.00000000000E+00 -0.00000000000E+00 -0.50000499739E+01  0.50000500000E+01  0.51100000000E-03 0. -1.
     100001    1    1    2    0    0  0.20327848734E-01 -0.79204149935E-02  0.49038854168E-02  0.50000500000E+01  0.50000000000E+01 0.  0.
     100001    1    1    2    0    0 -0.20327848734E-01  0.79204149935E-02 -0.49038854168E-02  0.50000500000E+01  0.50000000000E+01 0.  1.
</event>
<event>
 4    1  0.5017912E-001  0.5000050E+01  0.7818608E-02  0.2136455E+00
        -11   -1    0    0    0    0  0.00000000000E+00  0.00000000000E+00  0.50000499739E+01  0.50000500000E+01  0.51100000000E-03 0.  1.
         11   -1    0    0    0    0 -0.00000000000E+00 -0.00000000000E+00 -0.50000499739E+01  0.50000500000E+01  0.51100000000E-03 0. -1.
     100001    1    1    2    0    0  0.23589293731E-02 -0.21465572594E-01 -0.58023396507E-02  0.50000500000E+01  0.50000000000E+01 0. -1.
     100001    1    1    2    0    0 -0.23589293731E-02  0.21465572594E-01  0.58023396507E-02  0.50000500000E+01  0.50000000000E+01 0.  1.
</event>
<event>
 4    1  0.5017912E-001  0.5000050E+01  0.7818608E-02  0.2136455E+00
        -11   -1    0    0    0    0  0.00000000000E+00  0.00000000000E+00  0.50000499739E+01  0.50000500000E+01  0.51100000000E-03 0.  1.
         11   -1    0    0    0    0 -0.00000000000E+00 -0.00000000000E+00 -0.50000499739E+01  0.50000500000E+01  0.51100000000E-03 0. -1.
     100001    1    1    2    0    0  0.19977408914E-01 -0.31185242618E-02 -0.95488449297E-02  0.50000500000E+01  0.50000000000E+01 0.  1.
     100001    1    1    2    0    0 -0.19977408914E-01  0.31185242618E-02  0.95488449297E-02  0.50000500000E+01  0.50000000000E+01 0.  0.
</event>
<event>
 4    1  0.5017912E-001  0.5000050E+01  0.7818608E-02  0.2136455E+00
        -11   -1    0    0    0    0  0.00000000000E+00  0.00000000000E+00  0.50000499739E+01  0.50000500000E+01  0.51100000000E-03 0. -1.
         11   -1    0    0    0    0 -0.00000000000E+00 -0.00000000000E+00 -0.50000499739E+01  0.50000500000E+01  0.51100000000E-03 0.  1.
     100001    1    1    2    0    0  0.17077941127E-01  0.14326904621E-01 -0.17567671561E-02  0.50000500000E+01  0.50000000000E+01 0. -1.
     100001    1    1    2    0    0 -0.17077941127E-01 -0.14326904621E-01  0.17567671561E-02  0.50000500000E+01  0.50000000000E+01 0.  1.
</event>
<event>
 4    1  0.5017912E-001  0.5000050E+01  0.7818608E-02  0.2136455E+00
        -11   -1    0    0    0    0  0.00000000000E+00  0.00000000000E+00  0.50000499739E+01  0.50000500000E+01  0.51100000000E-03 0.  1.
         11   -1    0    0    0    0 -0.00000000000E+00 -0.00000000000E+00 -0.50000499739E+01  0.50000500000E+01  0.51100000000E-03 0. -1.
     100001    1    1    2    0    0  0.17319798784E-01 -0.12386289758E-01  0.68269243524E-02  0.50000500000E+01  0.50000000000E+01 0. -1.
     100001    1    1    2    0    0 -0.17319798784E-01  0.12386289758E-01 -0.68269243524E-02  0.50000500000E+01  0.50000000000E+01 0.  1.
</event>
<event>
 4    1  0.5017912E-001  0.5000050E+01  0.7818608E-02  0.2136455E+00
        -11   -1    0    0    0    0  0.00000000000E+00  0.00000000000E+00  0.50000499739E+01  0.50000500000E+01  0.51100000000E-03 0.  1.
         11   -1    0    0    0    0 -0.00000000000E+00 -0.00000000000E+00 -0.50000499739E+01  0.50000500000E+01  0.51100000000E-03 0. -1.
     100001    1    1    2    0    0  0.20245087388E-01  0.65784569964E-02 -0.68456438843E-02  0.50000500000E+01  0.50000000000E+01 0.  0.
     100001    1    1    2    0    0 -0.20245087388E-01 -0.65784569964E-02  0.68456438843E-02  0.50000500000E+01  0.50000000000E+01 0. -1.
</event>
<event>
 4    1  0.5017912E-001  0.5000050E+01  0.7818608E-02  0.2136455E+00
        -11   -1    0    0    0    0  0.00000000000E+00  0.00000000000E+00  0.50000499739E+01  0.50000500000E+01  0.51100000000E-03 0. -1.
         11   -1    0    0    0    0 -0.00000000000E+00 -0.00000000000E+00 -0.50000499739E+01  0.50000500000E+01  0.51100000000E-03 0.  1.
     100001    1    1    2    0    0 -0.13618165911E-01  0.12284742609E-01  0.12791917613E-01  0.50000500000E+01  0.50000000000E+01 0. -1.
     100001    1    1    2    0    0  0.13618165911E-01 -0.12284742609E-01 -0.12791917613E-01  0.50000500000E+01  0.50000000000E+01 0.  1.
</event>
<event>
 4    1  0.5017912E-001  0.5000050E+01  0.7818608E-02  0.2136455E+00
        -11   -1    0    0    0    0  0.00000000000E+00  0.00000000000E+00  0.50000499739E+01  0.50000500000E+01  0.51100000000E-03 0.  1.
         11   -1    0    0    0    0 -0.00000000000E+00 -0.00000000000E+00 -0.50000499739E+01  0.50000500000E+01  0.51100000000E-03 0. -1.
     100001    1    1    2    0    0 -0.53596094692E-02 -0.21688748601E-01 -0.93555891243E-03  0.50000500000E+01  0.50000000000E+01 0. -1.
     100001    1    1    2    0    0  0.53596094692E-02  0.21688748601E-01  0.93555891243E-03  0.50000500000E+01  0.50000000000E+01 0.  1.
</event>
<event>
 4    1  0.5017912E-001  0.5000050E+01  0.7818608E-02  0.2136455E+00
        -11   -1    0    0    0    0  0.00000000000E+00  0.00000000000E+00  0.50000499739E+01  0.50000500000E+01  0.51100000000E-03 0. -1.
         11   -1    0    0    0    0 -0.00000000000E+00 -0.00000000000E+00 -0.50000499739E+01  0.50000500000E+01  0.51100000000E-03 0.  1.
     100001    1    1    2    0    0  0.55632454569E-02  0.84811867812E-02 -0.19927926906E-01  0.50000500000E+01  0.50000000000E+01 0.  1.
     100001    1    1    2    0    0 -0.55632454569E-02 -0.84811867812E-02  0.19927926906E-01  0.50000500000E+01  0.50000000000E+01 0.  0.
</event>
<event>
 4    1  0.5017912E-001  0.5000050E+01  0.7818608E-02  0.2136455E+00
        -11   -1    0    0    0    0  0.00000000000E+00  0.00000000000E+00  0.50000499739E+01  0.50000500000E+01  0.51100000000E-03 0. -1.
         11   -1    0    0    0    0 -0.00000000000E+00 -0.00000000000E+00 -0.50000499739E+01  0.50000500000E+01  0.51100000000E-03 0.  1.
     100001    1    1    2    0    0 -0.17100812573E-01  0.12426476163E-01  0.72902263008E-02  0.50000500000E+01  0.50000000000E+01 0.  1.
     100001    1    1    2    0    0  0.17100812573E-01 -0.12426476163E-01 -0.72902263008E-02  0.50000500000E+01  0.50000000000E+01 0. -1.
</event>
<event>
 4    1  0.5017912E-001  0.5000050E+01  0.7818608E-02  0.2136455E+00
        -11   -1    0    0    0    0  0.00000000000E+00  0.00000000000E+00  0.50000499739E+01  0.50000500000E+01  0.51100000000E-03 0. -1.
         11   -1    0    0    0    0 -0.00000000000E+00 -0.00000000000E+00 -0.50000499739E+01  0.50000500000E+01  0.51100000000E-03 0.  1.
     100001    1    1    2    0    0 -0.12673573881E-01  0.10958313688E-01  0.14808726691E-01  0.50000500000E+01  0.50000000000E+01 0. -1.
     100001    1    1    2    0    0  0.12673573881E-01 -0.10958313688E-01 -0.14808726691E-01  0.50000500000E+01  0.50000000000E+01 0.  1.
</event>
<event>
 4    1  0.5017912E-001  0.5000050E+01  0.7818608E-02  0.2136455E+00
        -11   -1    0    0    0    0  0.00000000000E+00  0.00000000000E+00  0.50000499739E+01  0.50000500000E+01  0.51100000000E-03 0.  1.
         11   -1    0    0    0    0 -0.00000000000E+00 -0.00000000000E+00 -0.50000499739E+01  0.50000500000E+01  0.51100000000E-03 0. -1.
     100001    1    1    2    0    0  0.12327720314E-01  0.14353428256E-01 -0.11916749102E-01  0.50000500000E+01  0.50000000000E+01 0.  0.
     100001    1    1    2    0    0 -0.12327720314E-01 -0.14353428256E-01  0.11916749102E-01  0.50000500000E+01  0.50000000000E+01 0.  0.
</event>
<event>
 4    1  0.5017912E-001  0.5000050E+01  0.7818608E-02  0.2136455E+00
        -11   -1    0    0    0    0  0.00000000000E+00  0.00000000000E+00  0.50000499739E+01  0.50000500000E+01  0.51100000000E-03 0.  1.
         11   -1    0    0    0    0 -0.00000000000E+00 -0.00000000000E+00 -0.50000499739E+01  0.50000500000E+01  0.51100000000E-03 0. -1.
     100001    1    1    2    0    0 -0.48013814254E-02  0.15072080146E-01  0.15804481532E-01  0.50000500000E+01  0.50000000000E+01 0.  1.
     100001    1    1    2    0    0  0.48013814254E-02 -0.15072080146E-01 -0.15804481532E-01  0.50000500000E+01  0.50000000000E+01 0. -1.
</event>
<event>
 4    1  0.5017912E-001  0.5000050E+01  0.7818608E-02  0.2136455E+00
        -11   -1    0    0    0    0  0.00000000000E+00  0.00000000000E+00  0.50000499739E+01  0.50000500000E+01  0.51100000000E-03 0.  1.
         11   -1    0    0    0    0 -0.00000000000E+00 -0.00000000000E+00 -0.50000499739E+01  0.50000500000E+01  0.51100000000E-03 0. -1.
     100001    1    1    2    0    0 -0.12630459909E-01  0.18053302658E-01  0.38147405731E-02  0.50000500000E+01  0.50000000000E+01 0. -1.
     100001    1    1    2    0    0  0.12630459909E-01 -0.18053302658E-01 -0.38147405731E-02  0.50000500000E+01  0.50000000000E+01 0.  1.
</event>
<event>
 4    1  0.5017912E-001  0.5000050E+01  0.7818608E-02  0.2136455E+00
        -11   -1    0    0    0    0  0.00000000000E+00  0.00000000000E+00  0.50000499739E+01  0.50000500000E+01  0.51100000000E-03 0. -1.
         11   -1    0    0    0    0 -0.00000000000E+00 -0.00000000000E+00 -0.50000499739E+01  0.50000500000E+01  0.51100000000E-03 0.  1.
     100001    1    1    2    0    0 -0.20758726681E-01  0.61346745777E-02  0.56074534694E-02  0.50000500000E+01  0.50000000000E+01 0. -1.
     100001    1    1    2    0    0  0.20758726681E-01 -0.61346745777E-02 -0.56074534694E-02  0.50000500000E+01  0.50000000000E+01 0.  1.
</event>
<event>
 4    1  0.5017912E-001  0.5000050E+01  0.7818608E-02  0.2136455E+00
        -11   -1    0    0    0    0  0.00000000000E+00  0.00000000000E+00  0.50000499739E+01  0.50000500000E+01  0.51100000000E-03 0. -1.
         11   -1    0    0    0    0 -0.00000000000E+00 -0.00000000000E+00 -0.50000499739E+01  0.50000500000E+01  0.51100000000E-03 0.  1.
     100001    1    1    2    0    0  0.12482556439E-01  0.72649538661E-03 -0.18538082134E-01  0.50000500000E+01  0.50000000000E+01 0.  1.
     100001    1    1    2    0    0 -0.12482556439E-01 -0.72649538661E-03  0.18538082134E-01  0.50000500000E+01  0.50000000000E+01 0. -1.
</event>
<event>
 4    1  0.5017912E-001  0.5000050E+01  0.7818608E-02  0.2136455E+00
        -11   -1    0    0    0    0  0.00000000000E+00  0.00000000000E+00  0.50000499739E+01  0.50000500000E+01  0.51100000000E-03 0. -1.
         11   -1    0    0    0    0 -0.00000000000E+00 -0.00000000000E+00 -0.50000499739E+01  0.50000500000E+01  0.51100000000E-03 0.  1.
     100001    1    1    2    0    0 -0.19707976163E-01 -0.72219110658E-02 -0.77098752332E-02  0.50000500000E+01  0.50000000000E+01 0. -1.
     100001    1    1    2    0    0  0.19707976163E-01  0.72219110658E-02  0.77098752332E-02  0.50000500000E+01  0.50000000000E+01 0.  1.
</event>
<event>
 4    1  0.5017912E-001  0.5000050E+01  0.7818608E-02  0.2136455E+00
        -11   -1    0    0    0    0  0.00000000000E+00  0.00000000000E+00  0.50000499739E+01  0.50000500000E+01  0.51100000000E-03 0.  1.
         11   -1    0    0    0    0 -0.00000000000E+00 -0.00000000000E+00 -0.50000499739E+01  0.50000500000E+01  0.51100000000E-03 0. -1.
     100001    1    1    2    0    0  0.15379825147E-01 -0.14482801820E-01 -0.73288423295E-02  0.50000500000E+01  0.50000000000E+01 0.  0.
     100001    1    1    2    0    0 -0.15379825147E-01  0.14482801820E-01  0.73288423295E-02  0.50000500000E+01  0.50000000000E+01 0. -1.
</event>
<event>
 4    1  0.5017912E-001  0.5000050E+01  0.7818608E-02  0.2136455E+00
        -11   -1    0    0    0    0  0.00000000000E+00  0.00000000000E+00  0.50000499739E+01  0.50000500000E+01  0.51100000000E-03 0. -1.
         11   -1    0    0    0    0 -0.00000000000E+00 -0.00000000000E+00 -0.50000499739E+01  0.50000500000E+01  0.51100000000E-03 0.  1.
     100001    1    1    2    0    0 -0.12287106388E-02  0.20531806197E-01 -0.87714140497E-02  0.50000500000E+01  0.50000000000E+01 0.  0.
     100001    1    1    2    0    0  0.12287106388E-02 -0.20531806197E-01  0.87714140497E-02  0.50000500000E+01  0.50000000000E+01 0.  1.
</event>
<event>
 4    1  0.5017912E-001  0.5000050E+01  0.7818608E-02  0.2136455E+00
        -11   -1    0    0    0    0  0.00000000000E+00  0.00000000000E+00  0.50000499739E+01  0.50000500000E+01  0.51100000000E-03 0.  1.
         11   -1    0    0    0    0 -0.00000000000E+00 -0.00000000000E+00 -0.50000499739E+01  0.50000500000E+01  0.51100000000E-03 0. -1.
     100001    1    1    2    0    0  0.10837640756E-01  0.13951359459E-01 -0.13707939746E-01  0.50000500000E+01  0.50000000000E+01 0.  0.
     100001    1    1    2    0    0 -0.10837640756E-01 -0.13951359459E-01  0.13707939746E-01  0.50000500000E+01  0.50000000000E+01 0.  0.
</event>
<event>
 4    1  0.5017912E-001  0.5000050E+01  0.7818608E-02  0.2136455E+00
        -11   -1    0    0    0    0  0.00000000000E+00  0.00000000000E+00  0.50000499739E+01  0.50000500000E+01  0.51100000000E-03 0.  1.
         11   -1    0    0    0    0 -0.00000000000E+00 -0.00000000000E+00 -0.50000499739E+01  0.50000500000E+01  0.51100000000E-03 0. -1.
     100001    1    1    2    0    0 -0.17431179673E-01 -0.37019921557E-02  0.13507469389E-01  0.50000500000E+01  0.50000000000E+01 0.  1.
     100001    1    1    2    0    0  0.17431179673E-01  0.37019921557E-02 -0.13507469389E-01  0.50000500000E+01  0.50000000000E+01 0.  0.
</event>
<event>
 4    1  0.5017912E-001  0.5000050E+01  0.7818608E-02  0.2136455E+00
        -11   -1    0    0    0    0  0.00000000000E+00  0.00000000000E+00  0.50000499739E+01  0.50000500000E+01  0.51100000000E-03 0. -1.
         11   -1    0    0    0    0 -0.00000000000E+00 -0.00000000000E+00 -0.50000499739E+01  0.50000500000E+01  0.51100000000E-03 0.  1.
     100001    1    1    2    0    0 -0.84196956382E-02  0.20268030642E-01  0.42799718734E-02  0.50000500000E+01  0.50000000000E+01 0. -1.
     100001    1    1    2    0    0  0.84196956382E-02 -0.20268030642E-01 -0.42799718734E-02  0.50000500000E+01  0.50000000000E+01 0.  1.
</event>
<event>
 4    1  0.5017912E-001  0.5000050E+01  0.7818608E-02  0.2136455E+00
        -11   -1    0    0    0    0  0.00000000000E+00  0.00000000000E+00  0.50000499739E+01  0.50000500000E+01  0.51100000000E-03 0. -1.
         11   -1    0    0    0    0 -0.00000000000E+00 -0.00000000000E+00 -0.50000499739E+01  0.50000500000E+01  0.51100000000E-03 0.  1.
     100001    1    1    2    0    0 -0.11484936383E-01 -0.67404394961E-02 -0.17962884280E-01  0.50000500000E+01  0.50000000000E+01 0.  1.
     100001    1    1    2    0    0  0.11484936383E-01  0.67404394961E-02  0.17962884280E-01  0.50000500000E+01  0.50000000000E+01 0. -1.
</event>
<event>
 4    1  0.5017912E-001  0.5000050E+01  0.7818608E-02  0.2136455E+00
        -11   -1    0    0    0    0  0.00000000000E+00  0.00000000000E+00  0.50000499739E+01  0.50000500000E+01  0.51100000000E-03 0.  1.
         11   -1    0    0    0    0 -0.00000000000E+00 -0.00000000000E+00 -0.50000499739E+01  0.50000500000E+01  0.51100000000E-03 0. -1.
     100001    1    1    2    0    0  0.10778903272E-01  0.13210729525E-01  0.14467009701E-01  0.50000500000E+01  0.50000000000E+01 0. -1.
     100001    1    1    2    0    0 -0.10778903272E-01 -0.13210729525E-01 -0.14467009701E-01  0.50000500000E+01  0.50000000000E+01 0.  0.
</event>
<event>
 4    1  0.5017912E-001  0.5000050E+01  0.7818608E-02  0.2136455E+00
        -11   -1    0    0    0    0  0.00000000000E+00  0.00000000000E+00  0.50000499739E+01  0.50000500000E+01  0.51100000000E-03 0. -1.
         11   -1    0    0    0    0 -0.00000000000E+00 -0.00000000000E+00 -0.50000499739E+01  0.50000500000E+01  0.51100000000E-03 0.  1.
     100001    1    1    2    0    0  0.90333634383E-02  0.20299553711E-01 -0.25157432569E-02  0.50000500000E+01  0.50000000000E+01 0.  1.
     100001    1    1    2    0    0 -0.90333634383E-02 -0.20299553711E-01  0.25157432569E-02  0.50000500000E+01  0.50000000000E+01 0.  0.
</event>
<event>
 4    1  0.5017912E-001  0.5000050E+01  0.7818608E-02  0.2136455E+00
        -11   -1    0    0    0    0  0.00000000000E+00  0.00000000000E+00  0.50000499739E+01  0.50000500000E+01  0.51100000000E-03 0.  1.
         11   -1    0    0    0    0 -0.00000000000E+00 -0.00000000000E+00 -0.50000499739E+01  0.50000500000E+01  0.51100000000E-03 0. -1.
     100001    1    1    2    0    0 -0.19668734787E-01 -0.95115155287E-02  0.47617690209E-02  0.50000500000E+01  0.50000000000E+01 0.  1.
     100001    1    1    2    0    0  0.19668734787E-01  0.95115155287E-02 -0.47617690209E-02  0.50000500000E+01  0.50000000000E+01 0.  0.
</event>
<event>
 4    1  0.5017912E-001  0.5000050E+01  0.7818608E-02  0.2136455E+00
        -11   -1    0    0    0    0  0.00000000000E+00  0.00000000000E+00  0.50000499739E+01  0.50000500000E+01  0.51100000000E-03 0.  1.
         11   -1    0    0    0    0 -0.00000000000E+00 -0.00000000000E+00 -0.50000499739E+01  0.50000500000E+01  0.51100000000E-03 0. -1.
     100001    1    1    2    0    0  0.10332845098E-01  0.37321459266E-02  0.19475777236E-01  0.50000500000E+01  0.50000000000E+01 0.  1.
     100001    1    1    2    0    0 -0.10332845098E-01 -0.37321459266E-02 -0.19475777236E-01  0.50000500000E+01  0.50000000000E+01 0.  0.
</event>
<event>
 4    1  0.5017912E-001  0.5000050E+01  0.7818608E-02  0.2136455E+00
        -11   -1    0    0    0    0  0.00000000000E+00  0.00000000000E+00  0.50000499739E+01  0.50000500000E+01  0.51100000000E-03 0.  1.
         11   -1    0    0    0    0 -0.00000000000E+00 -0.00000000000E+00 -0.50000499739E+01  0.50000500000E+01  0.51100000000E-03 0. -1.
     100001    1    1    2    0    0 -0.21593124226E-01 -0.55576196831E-02  0.16888900530E-02  0.50000500000E+01  0.50000000000E+01 0.  0.
     100001    1    1    2    0    0  0.21593124226E-01  0.55576196831E-02 -0.16888900530E-02  0.50000500000E+01  0.50000000000E+01 0.  1.
</event>
<event>
 4    1  0.5017912E-001  0.5000050E+01  0.7818608E-02  0.2136455E+00
        -11   -1    0    0    0    0  0.00000000000E+00  0.00000000000E+00  0.50000499739E+01  0.50000500000E+01  0.51100000000E-03 0. -1.
         11   -1    0    0    0    0 -0.00000000000E+00 -0.00000000000E+00 -0.50000499739E+01  0.50000500000E+01  0.51100000000E-03 0.  1.
     100001    1    1    2    0    0 -0.20727850745E-01  0.19010030212E-02 -0.81697546485E-02  0.50000500000E+01  0.50000000000E+01 0.  1.
     100001    1    1    2    0    0  0.20727850745E-01 -0.19010030212E-02  0.81697546485E-02  0.50000500000E+01  0.50000000000E+01 0. -1.
</event>
<event>
 4    1  0.5017912E-001  0.5000050E+01  0.7818608E-02  0.2136455E+00
        -11   -1    0    0    0    0  0.00000000000E+00  0.00000000000E+00  0.50000499739E+01  0.50000500000E+01  0.51100000000E-03 0.  1.
         11   -1    0    0    0    0 -0.00000000000E+00 -0.00000000000E+00 -0.50000499739E+01  0.50000500000E+01  0.51100000000E-03 0. -1.
     100001    1    1    2    0    0 -0.11221514734E-01  0.10609704968E-01 -0.16171402770E-01  0.50000500000E+01  0.50000000000E+01 0.  0.
     100001    1    1    2    0    0  0.11221514734E-01 -0.10609704968E-01  0.16171402770E-01  0.50000500000E+01  0.50000000000E+01 0.  1.
</event>
<event>
 4    1  0.5017912E-001  0.5000050E+01  0.7818608E-02  0.2136455E+00
        -11   -1    0    0    0    0  0.00000000000E+00  0.00000000000E+00  0.50000499739E+01  0.50000500000E+01  0.51100000000E-03 0.  1.
         11   -1    0    0    0    0 -0.00000000000E+00 -0.00000000000E+00 -0.50000499739E+01  0.50000500000E+01  0.51100000000E-03 0. -1.
     100001    1    1    2    0    0 -0.12881609122E-01  0.16051614092E-01  0.87414147302E-02  0.50000500000E+01  0.50000000000E+01 0.  1.
     100001    1    1    2    0    0  0.12881609122E-01 -0.16051614092E-01 -0.87414147302E-02  0.50000500000E+01  0.50000000000E+01 0. -1.
</event>
<event>
 4    1  0.5017912E-001  0.5000050E+01  0.7818608E-02  0.2136455E+00
        -11   -1    0    0    0    0  0.00000000000E+00  0.00000000000E+00  0.50000499739E+01  0.50000500000E+01  0.51100000000E-03 0. -1.
         11   -1    0    0    0    0 -0.00000000000E+00 -0.00000000000E+00 -0.50000499739E+01  0.50000500000E+01  0.51100000000E-03 0.  1.
     100001    1    1    2    0    0  0.85843948701E-02  0.99902069404E-02 -0.18069488925E-01  0.50000500000E+01  0.50000000000E+01 0. -1.
     100001    1    1    2    0    0 -0.85843948701E-02 -0.99902069404E-02  0.18069488925E-01  0.50000500000E+01  0.50000000000E+01 0. -1.
</event>
<event>
 4    1  0.5017912E-001  0.5000050E+01  0.7818608E-02  0.2136455E+00
        -11   -1    0    0    0    0  0.00000000000E+00  0.00000000000E+00  0.50000499739E+01  0.50000500000E+01  0.51100000000E-03 0.  1.
         11   -1    0    0    0    0 -0.00000000000E+00 -0.00000000000E+00 -0.50000499739E+01  0.50000500000E+01  0.51100000000E-03 0. -1.
     100001    1    1    2    0    0  0.12572451194E-01  0.39925093578E-02 -0.18055354884E-01  0.50000500000E+01  0.50000000000E+01 0.  0.
     100001    1    1    2    0    0 -0.12572451194E-01 -0.39925093578E-02  0.18055354884E-01  0.50000500000E+01  0.50000000000E+01 0.  1.
</event>
<event>
 4    1  0.5017912E-001  0.5000050E+01  0.7818608E-02  0.2136455E+00
        -11   -1    0    0    0    0  0.00000000000E+00  0.00000000000E+00  0.50000499739E+01  0.50000500000E+01  0.51100000000E-03 0.  1.
         11   -1    0    0    0    0 -0.00000000000E+00 -0.00000000000E+00 -0.50000499739E+01  0.50000500000E+01  0.51100000000E-03 0. -1.
     100001    1    1    2    0    0  0.18624742837E-01 -0.12371299137E-01  0.26909457476E-03  0.50000500000E+01  0.50000000000E+01 0. -1.
     100001    1    1    2    0    0 -0.18624742837E-01  0.12371299137E-01 -0.26909457476E-03  0.50000500000E+01  0.50000000000E+01 0.  0.
</event>
<event>
 4    1  0.5017912E-001  0.5000050E+01  0.7818608E-02  0.2136455E+00
        -11   -1    0    0    0    0  0.00000000000E+00  0.00000000000E+00  0.50000499739E+01  0.50000500000E+01  0.51100000000E-03 0.  1.
         11   -1    0    0    0    0 -0.00000000000E+00 -0.00000000000E+00 -0.50000499739E+01  0.50000500000E+01  0.51100000000E-03 0. -1.
     100001    1    1    2    0    0  0.17717744611E-01 -0.53643099183E-02 -0.12542256774E-01  0.50000500000E+01  0.50000000000E+01 0.  0.
     100001    1    1    2    0    0 -0.17717744611E-01  0.53643099183E-02  0.12542256774E-01  0.50000500000E+01  0.50000000000E+01 0. -1.
</event>
<event>
 4    1  0.5017912E-001  0.5000050E+01  0.7818608E-02  0.2136455E+00
        -11   -1    0    0    0    0  0.00000000000E+00  0.00000000000E+00  0.50000499739E+01  0.50000500000E+01  0.51100000000E-03 0.  1.
         11   -1    0    0    0    0 -0.00000000000E+00 -0.00000000000E+00 -0.50000499739E+01  0.50000500000E+01  0.51100000000E-03 0. -1.
     100001    1    1    2    0    0  0.16137809404E-01 -0.77971377560E-02  0.13370798423E-01  0.50000500000E+01  0.50000000000E+01 0. -1.
     100001    1    1    2    0    0 -0.16137809404E-01  0.77971377560E-02 -0.13370798423E-01  0.50000500000E+01  0.50000000000E+01 0. -1.
</event>
<event>
 4    1  0.5017912E-001  0.5000050E+01  0.7818608E-02  0.2136455E+00
        -11   -1    0    0    0    0  0.00000000000E+00  0.00000000000E+00  0.50000499739E+01  0.50000500000E+01  0.51100000000E-03 0. -1.
         11   -1    0    0    0    0 -0.00000000000E+00 -0.00000000000E+00 -0.50000499739E+01  0.50000500000E+01  0.51100000000E-03 0.  1.
     100001    1    1    2    0    0 -0.76406073802E-02  0.11737928036E-01  0.17431140648E-01  0.50000500000E+01  0.50000000000E+01 0. -1.
     100001    1    1    2    0    0  0.76406073802E-02 -0.11737928036E-01 -0.17431140648E-01  0.50000500000E+01  0.50000000000E+01 0. -1.
</event>
<event>
 4    1  0.5017912E-001  0.5000050E+01  0.7818608E-02  0.2136455E+00
        -11   -1    0    0    0    0  0.00000000000E+00  0.00000000000E+00  0.50000499739E+01  0.50000500000E+01  0.51100000000E-03 0. -1.
         11   -1    0    0    0    0 -0.00000000000E+00 -0.00000000000E+00 -0.50000499739E+01  0.50000500000E+01  0.51100000000E-03 0.  1.
     100001    1    1    2    0    0  0.13369417300E-01 -0.16466238687E-01  0.70798421271E-02  0.50000500000E+01  0.50000000000E+01 0.  1.
     100001    1    1    2    0    0 -0.13369417300E-01  0.16466238687E-01 -0.70798421271E-02  0.50000500000E+01  0.50000000000E+01 0.  0.
</event>
<event>
 4    1  0.5017912E-001  0.5000050E+01  0.7818608E-02  0.2136455E+00
        -11   -1    0    0    0    0  0.00000000000E+00  0.00000000000E+00  0.50000499739E+01  0.50000500000E+01  0.51100000000E-03 0. -1.
         11   -1    0    0    0    0 -0.00000000000E+00 -0.00000000000E+00 -0.50000499739E+01  0.50000500000E+01  0.51100000000E-03 0.  1.
     100001    1    1    2    0    0  0.17985259135E-01 -0.77327853245E-02 -0.10804489112E-01  0.50000500000E+01  0.50000000000E+01 0.  0.
     100001    1    1    2    0    0 -0.17985259135E-01  0.77327853245E-02  0.10804489112E-01  0.50000500000E+01  0.50000000000E+01 0.  1.
</event>
<event>
 4    1  0.5017912E-001  0.5000050E+01  0.7818608E-02  0.2136455E+00
        -11   -1    0    0    0    0  0.00000000000E+00  0.00000000000E+00  0.50000499739E+01  0.50000500000E+01  0.51100000000E-03 0. -1.
         11   -1    0    0    0    0 -0.00000000000E+00 -0.00000000000E+00 -0.50000499739E+01  0.50000500000E+01  0.51100000000E-03 0.  1.
     100001    1    1    2    0    0  0.17880535486E-01  0.10961760110E-01  0.77542740484E-02  0.50000500000E+01  0.50000000000E+01 0. -1.
     100001    1    1    2    0    0 -0.17880535486E-01 -0.10961760110E-01 -0.77542740484E-02  0.50000500000E+01  0.50000000000E+01 0.  1.
</event>
<event>
 4    1  0.5017912E-001  0.5000050E+01  0.7818608E-02  0.2136455E+00
        -11   -1    0    0    0    0  0.00000000000E+00  0.00000000000E+00  0.50000499739E+01  0.50000500000E+01  0.51100000000E-03 0.  1.
         11   -1    0    0    0    0 -0.00000000000E+00 -0.00000000000E+00 -0.50000499739E+01  0.50000500000E+01  0.51100000000E-03 0. -1.
     100001    1    1    2    0    0 -0.13990831405E-01 -0.14546288221E-01  0.96262472220E-02  0.50000500000E+01  0.50000000000E+01 0. -1.
     100001    1    1    2    0    0  0.13990831405E-01  0.14546288221E-01 -0.96262472220E-02  0.50000500000E+01  0.50000000000E+01 0.  1.
</event>
<event>
 4    1  0.5017912E-001  0.5000050E+01  0.7818608E-02  0.2136455E+00
        -11   -1    0    0    0    0  0.00000000000E+00  0.00000000000E+00  0.50000499739E+01  0.50000500000E+01  0.51100000000E-03 0.  1.
         11   -1    0    0    0    0 -0.00000000000E+00 -0.00000000000E+00 -0.50000499739E+01  0.50000500000E+01  0.51100000000E-03 0. -1.
     100001    1    1    2    0    0  0.32892974234E-02 -0.19090600529E-01  0.11168347859E-01  0.50000500000E+01  0.50000000000E+01 0.  1.
     100001    1    1    2    0    0 -0.32892974234E-02  0.19090600529E-01 -0.11168347859E-01  0.50000500000E+01  0.50000000000E+01 0. -1.
</event>
<event>
 4    1  0.5017912E-001  0.5000050E+01  0.7818608E-02  0.2136455E+00
        -11   -1    0    0    0    0  0.00000000000E+00  0.00000000000E+00  0.50000499739E+01  0.50000500000E+01  0.51100000000E-03 0.  1.
         11   -1    0    0    0    0 -0.00000000000E+00 -0.00000000000E+00 -0.50000499739E+01  0.50000500000E+01  0.51100000000E-03 0. -1.
     100001    1    1    2    0    0 -0.45598638219E-02  0.18891169945E-03  0.21890053775E-01  0.50000500000E+01  0.50000000000E+01 0.  1.
     100001    1    1    2    0    0  0.45598638219E-02 -0.18891169945E-03 -0.21890053775E-01  0.50000500000E+01  0.50000000000E+01 0.  0.
</event>
<event>
 4    1  0.5017912E-001  0.5000050E+01  0.7818608E-02  0.2136455E+00
        -11   -1    0    0    0    0  0.00000000000E+00  0.00000000000E+00  0.50000499739E+01  0.50000500000E+01  0.51100000000E-03 0.  1.
         11   -1    0    0    0    0 -0.00000000000E+00 -0.00000000000E+00 -0.50000499739E+01  0.50000500000E+01  0.51100000000E-03 0. -1.
     100001    1    1    2    0    0  0.32644572021E-02 -0.20372483378E-01  0.86201937439E-02  0.50000500000E+01  0.50000000000E+01 0.  1.
     100001    1    1    2    0    0 -0.32644572021E-02  0.20372483378E-01 -0.86201937439E-02  0.50000500000E+01  0.50000000000E+01 0. -1.
</event>
<event>
 4    1  0.5017912E-001  0.5000050E+01  0.7818608E-02  0.2136455E+00
        -11   -1    0    0    0    0  0.00000000000E+00  0.00000000000E+00  0.50000499739E+01  0.50000500000E+01  0.51100000000E-03 0. -1.
         11   -1    0    0    0    0 -0.00000000000E+00 -0.00000000000E+00 -0.50000499739E+01  0.50000500000E+01  0.51100000000E-03 0.  1.
     100001    1    1    2    0    0  0.15397582526E-01  0.35150396198E-02 -0.15829132914E-01  0.50000500000E+01  0.50000000000E+01 0.  1.
     100001    1    1    2    0    0 -0.15397582526E-01 -0.35150396198E-02  0.15829132914E-01  0.50000500000E+01  0.50000000000E+01 0. -1.
</event>
<event>
 4    1  0.5017912E-001  0.5000050E+01  0.7818608E-02  0.2136455E+00
        -11   -1    0    0    0    0  0.00000000000E+00  0.00000000000E+00  0.50000499739E+01  0.50000500000E+01  0.51100000000E-03 0. -1.
         11   -1    0    0    0    0 -0.00000000000E+00 -0.00000000000E+00 -0.50000499739E+01  0.50000500000E+01  0.51100000000E-03 0.  1.
     100001    1    1    2    0    0  0.80094488687E-02  0.20639372938E-01 -0.31412598677E-02  0.50000500000E+01  0.50000000000E+01 0.  0.
     100001    1    1    2    0    0 -0.80094488687E-02 -0.20639372938E-01  0.31412598677E-02  0.50000500000E+01  0.50000000000E+01 0. -1.
</event>
<event>
 4    1  0.5017912E-001  0.5000050E+01  0.7818608E-02  0.2136455E+00
        -11   -1    0    0    0    0  0.00000000000E+00  0.00000000000E+00  0.50000499739E+01  0.50000500000E+01  0.51100000000E-03 0.  1.
         11   -1    0    0    0    0 -0.00000000000E+00 -0.00000000000E+00 -0.50000499739E+01  0.50000500000E+01  0.51100000000E-03 0. -1.
     100001    1    1    2    0    0 -0.94318755744E-02  0.19635112096E-01 -0.50502075320E-02  0.50000500000E+01  0.50000000000E+01 0.  1.
     100001    1    1    2    0    0  0.94318755744E-02 -0.19635112096E-01  0.50502075320E-02  0.50000500000E+01  0.50000000000E+01 0. -1.
</event>
<event>
 4    1  0.5017912E-001  0.5000050E+01  0.7818608E-02  0.2136455E+00
        -11   -1    0    0    0    0  0.00000000000E+00  0.00000000000E+00  0.50000499739E+01  0.50000500000E+01  0.51100000000E-03 0.  1.
         11   -1    0    0    0    0 -0.00000000000E+00 -0.00000000000E+00 -0.50000499739E+01  0.50000500000E+01  0.51100000000E-03 0. -1.
     100001    1    1    2    0    0  0.15252160183E-01  0.46427665223E-02  0.15678610550E-01  0.50000500000E+01  0.50000000000E+01 0.  1.
     100001    1    1    2    0    0 -0.15252160183E-01 -0.46427665223E-02 -0.15678610550E-01  0.50000500000E+01  0.50000000000E+01 0.  1.
</event>
<event>
 4    1  0.5017912E-001  0.5000050E+01  0.7818608E-02  0.2136455E+00
        -11   -1    0    0    0    0  0.00000000000E+00  0.00000000000E+00  0.50000499739E+01  0.50000500000E+01  0.51100000000E-03 0.  1.
         11   -1    0    0    0    0 -0.00000000000E+00 -0.00000000000E+00 -0.50000499739E+01  0.50000500000E+01  0.51100000000E-03 0. -1.
     100001    1    1    2    0    0  0.10322518773E-01 -0.12386158267E-01  0.15492939991E-01  0.50000500000E+01  0.50000000000E+01 0.  1.
     100001    1    1    2    0    0 -0.10322518773E-01  0.12386158267E-01 -0.15492939991E-01  0.50000500000E+01  0.50000000000E+01 0.  0.
</event>
<event>
 4    1  0.5017912E-001  0.5000050E+01  0.7818608E-02  0.2136455E+00
        -11   -1    0    0    0    0  0.00000000000E+00  0.00000000000E+00  0.50000499739E+01  0.50000500000E+01  0.51100000000E-03 0.  1.
         11   -1    0    0    0    0 -0.00000000000E+00 -0.00000000000E+00 -0.50000499739E+01  0.50000500000E+01  0.51100000000E-03 0. -1.
     100001    1    1    2    0    0  0.10316129773E-01 -0.76453439983E-03 -0.19824112935E-01  0.50000500000E+01  0.50000000000E+01 0.  0.
     100001    1    1    2    0    0 -0.10316129773E-01  0.76453439983E-03  0.19824112935E-01  0.50000500000E+01  0.50000000000E+01 0.  1.
</event>
<event>
 4    1  0.5017912E-001  0.5000050E+01  0.7818608E-02  0.2136455E+00
        -11   -1    0    0    0    0  0.00000000000E+00  0.00000000000E+00  0.50000499739E+01  0.50000500000E+01  0.51100000000E-03 0. -1.
         11   -1    0    0    0    0 -0.00000000000E+00 -0.00000000000E+00 -0.50000499739E+01  0.50000500000E+01  0.51100000000E-03 0.  1.
     100001    1    1    2    0    0 -0.18578564774E-01  0.12036087773E-01  0.31578508587E-02  0.50000500000E+01  0.50000000000E+01 0. -1.
     100001    1    1    2    0    0  0.18578564774E-01 -0.12036087773E-01 -0.31578508587E-02  0.50000500000E+01  0.50000000000E+01 0.  1.
</event>
<event>
 4    1  0.5017912E-001  0.5000050E+01  0.7818608E-02  0.2136455E+00
        -11   -1    0    0    0    0  0.00000000000E+00  0.00000000000E+00  0.50000499739E+01  0.50000500000E+01  0.51100000000E-03 0.  1.
         11   -1    0    0    0    0 -0.00000000000E+00 -0.00000000000E+00 -0.50000499739E+01  0.50000500000E+01  0.51100000000E-03 0. -1.
     100001    1    1    2    0    0 -0.11719164377E-01 -0.38156608374E-02  0.18657556610E-01  0.50000500000E+01  0.50000000000E+01 0.  1.
     100001    1    1    2    0    0  0.11719164377E-01  0.38156608374E-02 -0.18657556610E-01  0.50000500000E+01  0.50000000000E+01 0.  0.
</event>
<event>
 4    1  0.5017912E-001  0.5000050E+01  0.7818608E-02  0.2136455E+00
        -11   -1    0    0    0    0  0.00000000000E+00  0.00000000000E+00  0.50000499739E+01  0.50000500000E+01  0.51100000000E-03 0. -1.
         11   -1    0    0    0    0 -0.00000000000E+00 -0.00000000000E+00 -0.50000499739E+01  0.50000500000E+01  0.51100000000E-03 0.  1.
     100001    1    1    2    0    0  0.40675673506E-02 -0.15373781342E-01  0.15719549710E-01  0.50000500000E+01  0.50000000000E+01 0. -1.
     100001    1    1    2    0    0 -0.40675673506E-02  0.15373781342E-01 -0.15719549710E-01  0.50000500000E+01  0.50000000000E+01 0.  1.
</event>
<event>
 4    1  0.5017912E-001  0.5000050E+01  0.7818608E-02  0.2136455E+00
        -11   -1    0    0    0    0  0.00000000000E+00  0.00000000000E+00  0.50000499739E+01  0.50000500000E+01  0.51100000000E-03 0. -1.
         11   -1    0    0    0    0 -0.00000000000E+00 -0.00000000000E+00 -0.50000499739E+01  0.50000500000E+01  0.51100000000E-03 0.  1.
     100001    1    1    2    0    0 -0.99396605251E-03  0.13200459239E-01 -0.18021165538E-01  0.50000500000E+01  0.50000000000E+01 0. -1.
     100001    1    1    2    0    0  0.99396605251E-03 -0.13200459239E-01  0.18021165538E-01  0.50000500000E+01  0.50000000000E+01 0.  0.
</event>
<event>
 4    1  0.5017912E-001  0.5000050E+01  0.7818608E-02  0.2136455E+00
        -11   -1    0    0    0    0  0.00000000000E+00  0.00000000000E+00  0.50000499739E+01  0.50000500000E+01  0.51100000000E-03 0.  1.
         11   -1    0    0    0    0 -0.00000000000E+00 -0.00000000000E+00 -0.50000499739E+01  0.50000500000E+01  0.51100000000E-03 0. -1.
     100001    1    1    2    0    0  0.13458863863E-01 -0.19791396577E-02  0.17746675455E-01  0.50000500000E+01  0.50000000000E+01 0.  1.
     100001    1    1    2    0    0 -0.13458863863E-01  0.19791396577E-02 -0.17746675455E-01  0.50000500000E+01  0.50000000000E+01 0. -1.
</event>
<event>
 4    1  0.5017912E-001  0.5000050E+01  0.7818608E-02  0.2136455E+00
        -11   -1    0    0    0    0  0.00000000000E+00  0.00000000000E+00  0.50000499739E+01  0.50000500000E+01  0.51100000000E-03 0. -1.
         11   -1    0    0    0    0 -0.00000000000E+00 -0.00000000000E+00 -0.50000499739E+01  0.50000500000E+01  0.51100000000E-03 0.  1.
     100001    1    1    2    0    0  0.13069069330E-01  0.96083864506E-02 -0.15390933587E-01  0.50000500000E+01  0.50000000000E+01 0.  0.
     100001    1    1    2    0    0 -0.13069069330E-01 -0.96083864506E-02  0.15390933587E-01  0.50000500000E+01  0.50000000000E+01 0.  0.
</event>
<event>
 4    1  0.5017912E-001  0.5000050E+01  0.7818608E-02  0.2136455E+00
        -11   -1    0    0    0    0  0.00000000000E+00  0.00000000000E+00  0.50000499739E+01  0.50000500000E+01  0.51100000000E-03 0. -1.
         11   -1    0    0    0    0 -0.00000000000E+00 -0.00000000000E+00 -0.50000499739E+01  0.50000500000E+01  0.51100000000E-03 0.  1.
     100001    1    1    2    0    0  0.35503333147E-02 -0.14222946541E-01 -0.16885065148E-01  0.50000500000E+01  0.50000000000E+01 0.  1.
     100001    1    1    2    0    0 -0.35503333147E-02  0.14222946541E-01  0.16885065148E-01  0.50000500000E+01  0.50000000000E+01 0. -1.
</event>
<event>
 4    1  0.5017912E-001  0.5000050E+01  0.7818608E-02  0.2136455E+00
        -11   -1    0    0    0    0  0.00000000000E+00  0.00000000000E+00  0.50000499739E+01  0.50000500000E+01  0.51100000000E-03 0. -1.
         11   -1    0    0    0    0 -0.00000000000E+00 -0.00000000000E+00 -0.50000499739E+01  0.50000500000E+01  0.51100000000E-03 0.  1.
     100001    1    1    2    0    0 -0.13199900567E-01  0.11711300143E-01  0.13733556493E-01  0.50000500000E+01  0.50000000000E+01 0.  1.
     100001    1    1    2    0    0  0.13199900567E-01 -0.11711300143E-01 -0.13733556493E-01  0.50000500000E+01  0.50000000000E+01 0. -1.
</event>
<event>
 4    1  0.5017912E-001  0.5000050E+01  0.7818608E-02  0.2136455E+00
        -11   -1    0    0    0    0  0.00000000000E+00  0.00000000000E+00  0.50000499739E+01  0.50000500000E+01  0.51100000000E-03 0. -1.
         11   -1    0    0    0    0 -0.00000000000E+00 -0.00000000000E+00 -0.50000499739E+01  0.50000500000E+01  0.51100000000E-03 0.  1.
     100001    1    1    2    0    0  0.21369953146E-01  0.58400035618E-02  0.30367681705E-02  0.50000500000E+01  0.50000000000E+01 0. -1.
     100001    1    1    2    0    0 -0.21369953146E-01 -0.58400035618E-02 -0.30367681705E-02  0.50000500000E+01  0.50000000000E+01 0.  0.
</event>
<event>
 4    1  0.5017912E-001  0.5000050E+01  0.7818608E-02  0.2136455E+00
        -11   -1    0    0    0    0  0.00000000000E+00  0.00000000000E+00  0.50000499739E+01  0.50000500000E+01  0.51100000000E-03 0.  1.
         11   -1    0    0    0    0 -0.00000000000E+00 -0.00000000000E+00 -0.50000499739E+01  0.50000500000E+01  0.51100000000E-03 0. -1.
     100001    1    1    2    0    0 -0.14049220323E-01 -0.42546230379E-02 -0.16867723354E-01  0.50000500000E+01  0.50000000000E+01 0.  0.
     100001    1    1    2    0    0  0.14049220323E-01  0.42546230379E-02  0.16867723354E-01  0.50000500000E+01  0.50000000000E+01 0.  0.
</event>
<event>
 4    1  0.5017912E-001  0.5000050E+01  0.7818608E-02  0.2136455E+00
        -11   -1    0    0    0    0  0.00000000000E+00  0.00000000000E+00  0.50000499739E+01  0.50000500000E+01  0.51100000000E-03 0.  1.
         11   -1    0    0    0    0 -0.00000000000E+00 -0.00000000000E+00 -0.50000499739E+01  0.50000500000E+01  0.51100000000E-03 0. -1.
     100001    1    1    2    0    0 -0.15532412557E-01 -0.62516055402E-02 -0.14821069068E-01  0.50000500000E+01  0.50000000000E+01 0.  0.
     100001    1    1    2    0    0  0.15532412557E-01  0.62516055402E-02  0.14821069068E-01  0.50000500000E+01  0.50000000000E+01 0.  0.
</event>
<event>
 4    1  0.5017912E-001  0.5000050E+01  0.7818608E-02  0.2136455E+00
        -11   -1    0    0    0    0  0.00000000000E+00  0.00000000000E+00  0.50000499739E+01  0.50000500000E+01  0.51100000000E-03 0.  1.
         11   -1    0    0    0    0 -0.00000000000E+00 -0.00000000000E+00 -0.50000499739E+01  0.50000500000E+01  0.51100000000E-03 0. -1.
     100001    1    1    2    0    0  0.13969463821E-01  0.15899960061E-01  0.72144196302E-02  0.50000500000E+01  0.50000000000E+01 0. -1.
     100001    1    1    2    0    0 -0.13969463821E-01 -0.15899960061E-01 -0.72144196302E-02  0.50000500000E+01  0.50000000000E+01 0.  0.
</event>
<event>
 4    1  0.5017912E-001  0.5000050E+01  0.7818608E-02  0.2136455E+00
        -11   -1    0    0    0    0  0.00000000000E+00  0.00000000000E+00  0.50000499739E+01  0.50000500000E+01  0.51100000000E-03 0. -1.
         11   -1    0    0    0    0 -0.00000000000E+00 -0.00000000000E+00 -0.50000499739E+01  0.50000500000E+01  0.51100000000E-03 0.  1.
     100001    1    1    2    0    0 -0.17632969714E-01 -0.19170519704E-02  0.13616379504E-01  0.50000500000E+01  0.50000000000E+01 0. -1.
     100001    1    1    2    0    0  0.17632969714E-01  0.19170519704E-02 -0.13616379504E-01  0.50000500000E+01  0.50000000000E+01 0.  1.
</event>
<event>
 4    1  0.5017912E-001  0.5000050E+01  0.7818608E-02  0.2136455E+00
        -11   -1    0    0    0    0  0.00000000000E+00  0.00000000000E+00  0.50000499739E+01  0.50000500000E+01  0.51100000000E-03 0. -1.
         11   -1    0    0    0    0 -0.00000000000E+00 -0.00000000000E+00 -0.50000499739E+01  0.50000500000E+01  0.51100000000E-03 0.  1.
     100001    1    1    2    0    0  0.31513691131E-02  0.12677460152E-01 -0.18148095680E-01  0.50000500000E+01  0.50000000000E+01 0.  1.
     100001    1    1    2    0    0 -0.31513691131E-02 -0.12677460152E-01  0.18148095680E-01  0.50000500000E+01  0.50000000000E+01 0. -1.
</event>
<event>
 4    1  0.5017912E-001  0.5000050E+01  0.7818608E-02  0.2136455E+00
        -11   -1    0    0    0    0  0.00000000000E+00  0.00000000000E+00  0.50000499739E+01  0.50000500000E+01  0.51100000000E-03 0. -1.
         11   -1    0    0    0    0 -0.00000000000E+00 -0.00000000000E+00 -0.50000499739E+01  0.50000500000E+01  0.51100000000E-03 0.  1.
     100001    1    1    2    0    0 -0.15955155953E-01 -0.15637657215E-01 -0.94824855231E-03  0.50000500000E+01  0.50000000000E+01 0.  0.
     100001    1    1    2    0    0  0.15955155953E-01  0.15637657215E-01  0.94824855231E-03  0.50000500000E+01  0.50000000000E+01 0. -1.
</event>
<event>
 4    1  0.5017912E-001  0.5000050E+01  0.7818608E-02  0.2136455E+00
        -11   -1    0    0    0    0  0.00000000000E+00  0.00000000000E+00  0.50000499739E+01  0.50000500000E+01  0.51100000000E-03 0. -1.
         11   -1    0    0    0    0 -0.00000000000E+00 -0.00000000000E+00 -0.50000499739E+01  0.50000500000E+01  0.51100000000E-03 0.  1.
     100001    1    1    2    0    0 -0.12371256098E-01  0.83150298391E-02  0.16667777336E-01  0.50000500000E+01  0.50000000000E+01 0.  0.
     100001    1    1    2    0    0  0.12371256098E-01 -0.83150298391E-02 -0.16667777336E-01  0.50000500000E+01  0.50000000000E+01 0.  1.
</event>
<event>
 4    1  0.5017912E-001  0.5000050E+01  0.7818608E-02  0.2136455E+00
        -11   -1    0    0    0    0  0.00000000000E+00  0.00000000000E+00  0.50000499739E+01  0.50000500000E+01  0.51100000000E-03 0.  1.
         11   -1    0    0    0    0 -0.00000000000E+00 -0.00000000000E+00 -0.50000499739E+01  0.50000500000E+01  0.51100000000E-03 0. -1.
     100001    1    1    2    0    0  0.19980931794E-02 -0.11569914671E-01  0.19030165479E-01  0.50000500000E+01  0.50000000000E+01 0.  1.
     100001    1    1    2    0    0 -0.19980931794E-02  0.11569914671E-01 -0.19030165479E-01  0.50000500000E+01  0.50000000000E+01 0. -1.
</event>
<event>
 4    1  0.5017912E-001  0.5000050E+01  0.7818608E-02  0.2136455E+00
        -11   -1    0    0    0    0  0.00000000000E+00  0.00000000000E+00  0.50000499739E+01  0.50000500000E+01  0.51100000000E-03 0. -1.
         11   -1    0    0    0    0 -0.00000000000E+00 -0.00000000000E+00 -0.50000499739E+01  0.50000500000E+01  0.51100000000E-03 0.  1.
     100001    1    1    2    0    0 -0.20470103480E-01 -0.62327744862E-02  0.64907538627E-02  0.50000500000E+01  0.50000000000E+01 0.  1.
     100001    1    1    2    0    0  0.20470103480E-01  0.62327744862E-02 -0.64907538627E-02  0.50000500000E+01  0.50000000000E+01 0.  0.
</event>
<event>
 4    1  0.5017912E-001  0.5000050E+01  0.7818608E-02  0.2136455E+00
        -11   -1    0    0    0    0  0.00000000000E+00  0.00000000000E+00  0.50000499739E+01  0.50000500000E+01  0.51100000000E-03 0.  1.
         11   -1    0    0    0    0 -0.00000000000E+00 -0.00000000000E+00 -0.50000499739E+01  0.50000500000E+01  0.51100000000E-03 0. -1.
     100001    1    1    2    0    0 -0.67716737628E-02  0.20889092424E-01  0.42181455823E-02  0.50000500000E+01  0.50000000000E+01 0.  0.
     100001    1    1    2    0    0  0.67716737628E-02 -0.20889092424E-01 -0.42181455823E-02  0.50000500000E+01  0.50000000000E+01 0.  1.
</event>
<event>
 4    1  0.5017912E-001  0.5000050E+01  0.7818608E-02  0.2136455E+00
        -11   -1    0    0    0    0  0.00000000000E+00  0.00000000000E+00  0.50000499739E+01  0.50000500000E+01  0.51100000000E-03 0.  1.
         11   -1    0    0    0    0 -0.00000000000E+00 -0.00000000000E+00 -0.50000499739E+01  0.50000500000E+01  0.51100000000E-03 0. -1.
     100001    1    1    2    0    0  0.63933739925E-02  0.21189061853E-01  0.31860519111E-02  0.50000500000E+01  0.50000000000E+01 0. -1.
     100001    1    1    2    0    0 -0.63933739925E-02 -0.21189061853E-01 -0.31860519111E-02  0.50000500000E+01  0.50000000000E+01 0.  1.
</event>
<event>
 4    1  0.5017912E-001  0.5000050E+01  0.7818608E-02  0.2136455E+00
        -11   -1    0    0    0    0  0.00000000000E+00  0.00000000000E+00  0.50000499739E+01  0.50000500000E+01  0.51100000000E-03 0. -1.
         11   -1    0    0    0    0 -0.00000000000E+00 -0.00000000000E+00 -0.50000499739E+01  0.50000500000E+01  0.51100000000E-03 0.  1.
     100001    1    1    2    0    0 -0.14652406198E-01  0.16821252552E-01 -0.15345863200E-02  0.50000500000E+01  0.50000000000E+01 0. -1.
     100001    1    1    2    0    0  0.14652406198E-01 -0.16821252552E-01  0.15345863200E-02  0.50000500000E+01  0.50000000000E+01 0.  0.
</event>
<event>
 4    1  0.5017912E-001  0.5000050E+01  0.7818608E-02  0.2136455E+00
        -11   -1    0    0    0    0  0.00000000000E+00  0.00000000000E+00  0.50000499739E+01  0.50000500000E+01  0.51100000000E-03 0.  1.
         11   -1    0    0    0    0 -0.00000000000E+00 -0.00000000000E+00 -0.50000499739E+01  0.50000500000E+01  0.51100000000E-03 0. -1.
     100001    1    1    2    0    0 -0.52715609694E-02  0.18784409425E-01 -0.10925159381E-01  0.50000500000E+01  0.50000000000E+01 0. -1.
     100001    1    1    2    0    0  0.52715609694E-02 -0.18784409425E-01  0.10925159381E-01  0.50000500000E+01  0.50000000000E+01 0.  1.
</event>
<event>
 4    1  0.5017912E-001  0.5000050E+01  0.7818608E-02  0.2136455E+00
        -11   -1    0    0    0    0  0.00000000000E+00  0.00000000000E+00  0.50000499739E+01  0.50000500000E+01  0.51100000000E-03 0.  1.
         11   -1    0    0    0    0 -0.00000000000E+00 -0.00000000000E+00 -0.50000499739E+01  0.50000500000E+01  0.51100000000E-03 0. -1.
     100001    1    1    2    0    0 -0.77343632820E-02 -0.82393810370E-02  0.19294940392E-01  0.50000500000E+01  0.50000000000E+01 0.  0.
     100001    1    1    2    0    0  0.77343632820E-02  0.82393810370E-02 -0.19294940392E-01  0.50000500000E+01  0.50000000000E+01 0. -1.
</event>
<event>
 4    1  0.5017912E-001  0.5000050E+01  0.7818608E-02  0.2136455E+00
        -11   -1    0    0    0    0  0.00000000000E+00  0.00000000000E+00  0.50000499739E+01  0.50000500000E+01  0.51100000000E-03 0.  1.
         11   -1    0    0    0    0 -0.00000000000E+00 -0.00000000000E+00 -0.50000499739E+01  0.50000500000E+01  0.51100000000E-03 0. -1.
     100001    1    1    2    0    0 -0.17043132976E-01 -0.50773401102E-02 -0.13555616392E-01  0.50000500000E+01  0.50000000000E+01 0. -1.
     100001    1    1    2    0    0  0.17043132976E-01  0.50773401102E-02  0.13555616392E-01  0.50000500000E+01  0.50000000000E+01 0.  0.
</event>
