<event>
 4    1  0.5008549E-001  0.5000050E+01  0.7818608E-02  0.2136455E+00
        -11   -1    0    0    0    0  0.00000000000E+00  0.00000000000E+00  0.50000499739E+01  0.50000500000E+01  0.51100000000E-03 0.  1.
         11   -1    0    0    0    0 -0.00000000000E+00 -0.00000000000E+00 -0.50000499739E+01  0.50000500000E+01  0.51100000000E-03 0. -1.
     100001    1    1    2    0    0 -0.17605864495E-02  0.63107962833E-02  0.21379351852E-01  0.50000500000E+01  0.50000000000E+01 0.  0.
     100001    1    1    2    0    0  0.17605864495E-02 -0.63107962833E-02 -0.21379351852E-01  0.50000500000E+01  0.50000000000E+01 0. -1.
</event>
<event>
 4    1  0.5008549E-001  0.5000050E+01  0.7818608E-02  0.2136455E+00
        -11   -1    0    0    0    0  0.00000000000E+00  0.00000000000E+00  0.50000499739E+01  0.50000500000E+01  0.51100000000E-03 0.  1.
         11   -1    0    0    0    0 -0.00000000000E+00 -0.00000000000E+00 -0.50000499739E+01  0.50000500000E+01  0.51100000000E-03 0. -1.
     100001    1    1    2    0    0 -0.11355983725E-02  0.20216499359E-01  0.94871528924E-02  0.50000500000E+01  0.50000000000E+01 0.  1.
     100001    1    1    2    0    0  0.11355983725E-02 -0.20216499359E-01 -0.94871528924E-02  0.50000500000E+01  0.50000000000E+01 0. -1.
</event>
<event>
 4    1  0.5008549E-001  0.5000050E+01  0.7818608E-02  0.2136455E+00
        -11   -1    0    0    0    0  0.00000000000E+00  0.00000000000E+00  0.50000499739E+01  0.50000500000E+01  0.51100000000E-03 0. -1.
         11   -1    0    0    0    0 -0.00000000000E+00 -0.00000000000E+00 -0.50000499739E+01  0.50000500000E+01  0.51100000000E-03 0.  1.
     100001    1    1    2    0    0 -0.77695966222E-02 -0.20899680210E-01 -0.16850030965E-02  0.50000500000E+01  0.50000000000E+01 0.  0.
     100001    1    1    2    0    0  0.77695966222E-02  0.20899680210E-01  0.16850030965E-02  0.50000500000E+01  0.50000000000E+01 0. -1.
</event>
<event>
 4    1  0.5008549E-001  0.5000050E+01  0.7818608E-02  0.2136455E+00
        -11   -1    0    0    0    0  0.00000000000E+00  0.00000000000E+00  0.50000499739E+01  0.50000500000E+01  0.51100000000E-03 0.  1.
         11   -1    0    0    0    0 -0.00000000000E+00 -0.00000000000E+00 -0.50000499739E+01  0.50000500000E+01  0.51100000000E-03 0. -1.
     100001    1    1    2    0    0  0.11537426986E-01 -0.31868257180E-03  0.19151728902E-01  0.50000500000E+01  0.50000000000E+01 0.  1.
     100001    1    1    2    0    0 -0.11537426986E-01  0.31868257180E-03 -0.19151728902E-01  0.50000500000E+01  0.50000000000E+01 0. -1.
</event>
<event>
 4    1  0.5008549E-001  0.5000050E+01  0.7818608E-02  0.2136455E+00
        -11   -1    0    0    0    0  0.00000000000E+00  0.00000000000E+00  0.50000499739E+01  0.50000500000E+01  0.51100000000E-03 0. -1.
         11   -1    0    0    0    0 -0.00000000000E+00 -0.00000000000E+00 -0.50000499739E+01  0.50000500000E+01  0.51100000000E-03 0.  1.
     100001    1    1    2    0    0  0.16007590988E-01  0.15011818073E-01  0.42900872838E-02  0.50000500000E+01  0.50000000000E+01 0.  1.
     100001    1    1    2    0    0 -0.16007590988E-01 -0.15011818073E-01 -0.42900872838E-02  0.50000500000E+01  0.50000000000E+01 0.  0.
</event>
<event>
 4    1  0.5008549E-001  0.5000050E+01  0.7818608E-02  0.2136455E+00
        -11   -1    0    0    0    0  0.00000000000E+00  0.00000000000E+00  0.50000499739E+01  0.50000500000E+01  0.51100000000E-03 0.  1.
         11   -1    0    0    0    0 -0.00000000000E+00 -0.00000000000E+00 -0.50000499739E+01  0.50000500000E+01  0.51100000000E-03 0. -1.
     100001    1    1    2    0    0 -0.14918730588E-01  0.14325785547E-01 -0.84974023152E-02  0.50000500000E+01  0.50000000000E+01 0.  1.
     100001    1    1    2    0    0  0.14918730588E-01 -0.14325785547E-01  0.84974023152E-02  0.50000500000E+01  0.50000000000E+01 0.  0.
</event>
<event>
 4    1  0.5008549E-001  0.5000050E+01  0.7818608E-02  0.2136455E+00
        -11   -1    0    0    0    0  0.00000000000E+00  0.00000000000E+00  0.50000499739E+01  0.50000500000E+01  0.51100000000E-03 0. -1.
         11   -1    0    0    0    0 -0.00000000000E+00 -0.00000000000E+00 -0.50000499739E+01  0.50000500000E+01  0.51100000000E-03 0.  1.
     100001    1    1    2    0    0 -0.64465662279E-03  0.13787632841E-01  0.17592273829E-01  0.50000500000E+01  0.50000000000E+01 0.  0.
     100001    1    1    2    0    0  0.64465662279E-03 -0.13787632841E-01 -0.17592273829E-01  0.50000500000E+01  0.50000000000E+01 0.  0.
</event>
<event>
 4    1  0.5008549E-001  0.5000050E+01  0.7818608E-02  0.2136455E+00
        -11   -1    0    0    0    0  0.00000000000E+00  0.00000000000E+00  0.50000499739E+01  0.50000500000E+01  0.51100000000E-03 0. -1.
         11   -1    0    0    0    0 -0.00000000000E+00 -0.00000000000E+00 -0.50000499739E+01  0.50000500000E+01  0.51100000000E-03 0.  1.
     100001    1    1    2    0    0 -0.11516779555E-01  0.55063166941E-03 -0.19158890715E-01  0.50000500000E+01  0.50000000000E+01 0.  1.
     100001    1    1    2    0    0  0.11516779555E-01 -0.55063166941E-03  0.19158890715E-01  0.50000500000E+01  0.50000000000E+01 0.  1.
</event>
<event>
 4    1  0.5008549E-001  0.5000050E+01  0.7818608E-02  0.2136455E+00
        -11   -1    0    0    0    0  0.00000000000E+00  0.00000000000E+00  0.50000499739E+01  0.50000500000E+01  0.51100000000E-03 0.  1.
         11   -1    0    0    0    0 -0.00000000000E+00 -0.00000000000E+00 -0.50000499739E+01  0.50000500000E+01  0.51100000000E-03 0. -1.
     100001    1    1    2    0    0 -0.21411101527E-03 -0.65404687728E-02  0.21381742789E-01  0.50000500000E+01  0.50000000000E+01 0.  0.
     100001    1    1    2    0    0  0.21411101527E-03  0.65404687728E-02 -0.21381742789E-01  0.50000500000E+01  0.50000000000E+01 0. -1.
</event>
<event>
 4    1  0.5008549E-001  0.5000050E+01  0.7818608E-02  0.2136455E+00
        -11   -1    0    0    0    0  0.00000000000E+00  0.00000000000E+00  0.50000499739E+01  0.50000500000E+01  0.51100000000E-03 0. -1.
         11   -1    0    0    0    0 -0.00000000000E+00 -0.00000000000E+00 -0.50000499739E+01  0.50000500000E+01  0.51100000000E-03 0.  1.
     100001    1    1    2    0    0  0.94114024965E-02  0.17356792068E-01 -0.10496178931E-01  0.50000500000E+01  0.50000000000E+01 0. -1.
     100001    1    1    2    0    0 -0.94114024965E-02 -0.17356792068E-01  0.10496178931E-01  0.50000500000E+01  0.50000000000E+01 0. -1.
</event>
<event>
 4    1  0.5008549E-001  0.5000050E+01  0.7818608E-02  0.2136455E+00
        -11   -1    0    0    0    0  0.00000000000E+00  0.00000000000E+00  0.50000499739E+01  0.50000500000E+01  0.51100000000E-03 0.  1.
         11   -1    0    0    0    0 -0.00000000000E+00 -0.00000000000E+00 -0.50000499739E+01  0.50000500000E+01  0.51100000000E-03 0. -1.
     100001    1    1    2    0    0  0.64716372838E-02  0.23712426365E-02  0.21271991426E-01  0.50000500000E+01  0.50000000000E+01 0.  1.
     100001    1    1    2    0    0 -0.64716372838E-02 -0.23712426365E-02 -0.21271991426E-01  0.50000500000E+01  0.50000000000E+01 0.  0.
</event>
<event>
 4    1  0.5008549E-001  0.5000050E+01  0.7818608E-02  0.2136455E+00
        -11   -1    0    0    0    0  0.00000000000E+00  0.00000000000E+00  0.50000499739E+01  0.50000500000E+01  0.51100000000E-03 0. -1.
         11   -1    0    0    0    0 -0.00000000000E+00 -0.00000000000E+00 -0.50000499739E+01  0.50000500000E+01  0.51100000000E-03 0.  1.
     100001    1    1    2    0    0 -0.17742622097E-01  0.10922553270E-01  0.81178624776E-02  0.50000500000E+01  0.50000000000E+01 0.  0.
     100001    1    1    2    0    0  0.17742622097E-01 -0.10922553270E-01 -0.81178624776E-02  0.50000500000E+01  0.50000000000E+01 0. -1.
</event>
<event>
 4    1  0.5008549E-001  0.5000050E+01  0.7818608E-02  0.2136455E+00
        -11   -1    0    0    0    0  0.00000000000E+00  0.00000000000E+00  0.50000499739E+01  0.50000500000E+01  0.51100000000E-03 0. -1.
         11   -1    0    0    0    0 -0.00000000000E+00 -0.00000000000E+00 -0.50000499739E+01  0.50000500000E+01  0.51100000000E-03 0.  1.
     100001    1    1    2    0    0  0.11168103249E-01 -0.22620637532E-02  0.19239517597E-01  0.50000500000E+01  0.50000000000E+01 0.  0.
     100001    1    1    2    0    0 -0.11168103249E-01  0.22620637532E-02 -0.19239517597E-01  0.50000500000E+01  0.50000000000E+01 0.  1.
</event>
<event>
 4    1  0.5008549E-001  0.5000050E+01  0.7818608E-02  0.2136455E+00
        -11   -1    0    0    0    0  0.00000000000E+00  0.00000000000E+00  0.50000499739E+01  0.50000500000E+01  0.51100000000E-03 0.  1.
         11   -1    0    0    0    0 -0.00000000000E+00 -0.00000000000E+00 -0.50000499739E+01  0.50000500000E+01  0.51100000000E-03 0. -1.
     100001    1    1    2    0    0 -0.13767030836E-01 -0.10696474773E-01  0.14002028045E-01  0.50000500000E+01  0.50000000000E+01 0.  0.
     100001    1    1    2    0    0  0.13767030836E-01  0.10696474773E-01 -0.14002028045E-01  0.50000500000E+01  0.50000000000E+01 0.  0.
</event>
<event>
 4    1  0.5008549E-001  0.5000050E+01  0.7818608E-02  0.2136455E+00
        -11   -1    0    0    0    0  0.00000000000E+00  0.00000000000E+00  0.50000499739E+01  0.50000500000E+01  0.51100000000E-03 0.  1.
         11   -1    0    0    0    0 -0.00000000000E+00 -0.00000000000E+00 -0.50000499739E+01  0.50000500000E+01  0.51100000000E-03 0. -1.
     100001    1    1    2    0    0 -0.16190609531E-01 -0.13942497994E-01  0.65934370934E-02  0.50000500000E+01  0.50000000000E+01 0.  1.
     100001    1    1    2    0    0  0.16190609531E-01  0.13942497994E-01 -0.65934370934E-02  0.50000500000E+01  0.50000000000E+01 0. -1.
</event>
<event>
 4    1  0.5008549E-001  0.5000050E+01  0.7818608E-02  0.2136455E+00
        -11   -1    0    0    0    0  0.00000000000E+00  0.00000000000E+00  0.50000499739E+01  0.50000500000E+01  0.51100000000E-03 0. -1.
         11   -1    0    0    0    0 -0.00000000000E+00 -0.00000000000E+00 -0.50000499739E+01  0.50000500000E+01  0.51100000000E-03 0.  1.
     100001    1    1    2    0    0  0.16591547306E-01  0.12474294914E-01  0.83135446351E-02  0.50000500000E+01  0.50000000000E+01 0.  1.
     100001    1    1    2    0    0 -0.16591547306E-01 -0.12474294914E-01 -0.83135446351E-02  0.50000500000E+01  0.50000000000E+01 0.  1.
</event>
<event>
 4    1  0.5008549E-001  0.5000050E+01  0.7818608E-02  0.2136455E+00
        -11   -1    0    0    0    0  0.00000000000E+00  0.00000000000E+00  0.50000499739E+01  0.50000500000E+01  0.51100000000E-03 0.  1.
         11   -1    0    0    0    0 -0.00000000000E+00 -0.00000000000E+00 -0.50000499739E+01  0.50000500000E+01  0.51100000000E-03 0. -1.
     100001    1    1    2    0    0  0.26486080272E-02 -0.13074957132E-01  0.17945274351E-01  0.50000500000E+01  0.50000000000E+01 0.  1.
     100001    1    1    2    0    0 -0.26486080272E-02  0.13074957132E-01 -0.17945274351E-01  0.50000500000E+01  0.50000000000E+01 0.  1.
</event>
<event>
 4    1  0.5008549E-001  0.5000050E+01  0.7818608E-02  0.2136455E+00
        -11   -1    0    0    0    0  0.00000000000E+00  0.00000000000E+00  0.50000499739E+01  0.50000500000E+01  0.51100000000E-03 0. -1.
         11   -1    0    0    0    0 -0.00000000000E+00 -0.00000000000E+00 -0.50000499739E+01  0.50000500000E+01  0.51100000000E-03 0.  1.
     100001    1    1    2    0    0 -0.15792694081E-01 -0.12040061260E-01 -0.10277657248E-01  0.50000500000E+01  0.50000000000E+01 0.  1.
     100001    1    1    2    0    0  0.15792694081E-01  0.12040061260E-01  0.10277657248E-01  0.50000500000E+01  0.50000000000E+01 0. -1.
</event>
<event>
 4    1  0.5008549E-001  0.5000050E+01  0.7818608E-02  0.2136455E+00
        -11   -1    0    0    0    0  0.00000000000E+00  0.00000000000E+00  0.50000499739E+01  0.50000500000E+01  0.51100000000E-03 0. -1.
         11   -1    0    0    0    0 -0.00000000000E+00 -0.00000000000E+00 -0.50000499739E+01  0.50000500000E+01  0.51100000000E-03 0.  1.
     100001    1    1    2    0    0 -0.64545532327E-02 -0.11552175762E-01 -0.18024663040E-01  0.50000500000E+01  0.50000000000E+01 0.  1.
     100001    1    1    2    0    0  0.64545532327E-02  0.11552175762E-01  0.18024663040E-01  0.50000500000E+01  0.50000000000E+01 0. -1.
</event>
<event>
 4    1  0.5008549E-001  0.5000050E+01  0.7818608E-02  0.2136455E+00
        -11   -1    0    0    0    0  0.00000000000E+00  0.00000000000E+00  0.50000499739E+01  0.50000500000E+01  0.51100000000E-03 0.  1.
         11   -1    0    0    0    0 -0.00000000000E+00 -0.00000000000E+00 -0.50000499739E+01  0.50000500000E+01  0.51100000000E-03 0. -1.
     100001    1    1    2    0    0 -0.19466478531E-01  0.23738546559E-02  0.10743534226E-01  0.50000500000E+01  0.50000000000E+01 0.  0.
     100001    1    1    2    0    0  0.19466478531E-01 -0.23738546559E-02 -0.10743534226E-01  0.50000500000E+01  0.50000000000E+01 0.  1.
</event>
<event>
 4    1  0.5008549E-001  0.5000050E+01  0.7818608E-02  0.2136455E+00
        -11   -1    0    0    0    0  0.00000000000E+00  0.00000000000E+00  0.50000499739E+01  0.50000500000E+01  0.51100000000E-03 0. -1.
         11   -1    0    0    0    0 -0.00000000000E+00 -0.00000000000E+00 -0.50000499739E+01  0.50000500000E+01  0.51100000000E-03 0.  1.
     100001    1    1    2    0    0  0.20033370122E-01  0.82133032811E-02 -0.55864327404E-02  0.50000500000E+01  0.50000000000E+01 0.  1.
     100001    1    1    2    0    0 -0.20033370122E-01 -0.82133032811E-02  0.55864327404E-02  0.50000500000E+01  0.50000000000E+01 0.  0.
</event>
<event>
 4    1  0.5008549E-001  0.5000050E+01  0.7818608E-02  0.2136455E+00
        -11   -1    0    0    0    0  0.00000000000E+00  0.00000000000E+00  0.50000499739E+01  0.50000500000E+01  0.51100000000E-03 0.  1.
         11   -1    0    0    0    0 -0.00000000000E+00 -0.00000000000E+00 -0.50000499739E+01  0.50000500000E+01  0.51100000000E-03 0. -1.
     100001    1    1    2    0    0  0.15936701037E-01  0.14206563874E-01  0.66481277778E-02  0.50000500000E+01  0.50000000000E+01 0. -1.
     100001    1    1    2    0    0 -0.15936701037E-01 -0.14206563874E-01 -0.66481277778E-02  0.50000500000E+01  0.50000000000E+01 0.  0.
</event>
<event>
 4    1  0.5008549E-001  0.5000050E+01  0.7818608E-02  0.2136455E+00
        -11   -1    0    0    0    0  0.00000000000E+00  0.00000000000E+00  0.50000499739E+01  0.50000500000E+01  0.51100000000E-03 0. -1.
         11   -1    0    0    0    0 -0.00000000000E+00 -0.00000000000E+00 -0.50000499739E+01  0.50000500000E+01  0.51100000000E-03 0.  1.
     100001    1    1    2    0    0 -0.18166572285E-01 -0.80939099092E-02 -0.10220898875E-01  0.50000500000E+01  0.50000000000E+01 0.  1.
     100001    1    1    2    0    0  0.18166572285E-01  0.80939099092E-02  0.10220898875E-01  0.50000500000E+01  0.50000000000E+01 0. -1.
</event>
<event>
 4    1  0.5008549E-001  0.5000050E+01  0.7818608E-02  0.2136455E+00
        -11   -1    0    0    0    0  0.00000000000E+00  0.00000000000E+00  0.50000499739E+01  0.50000500000E+01  0.51100000000E-03 0. -1.
         11   -1    0    0    0    0 -0.00000000000E+00 -0.00000000000E+00 -0.50000499739E+01  0.50000500000E+01  0.51100000000E-03 0.  1.
     100001    1    1    2    0    0  0.19624059538E-01  0.99029179057E-02  0.41025606889E-02  0.50000500000E+01  0.50000000000E+01 0.  1.
     100001    1    1    2    0    0 -0.19624059538E-01 -0.99029179057E-02 -0.41025606889E-02  0.50000500000E+01  0.50000000000E+01 0. -1.
</event>
<event>
 4    1  0.5008549E-001  0.5000050E+01  0.7818608E-02  0.2136455E+00
        -11   -1    0    0    0    0  0.00000000000E+00  0.00000000000E+00  0.50000499739E+01  0.50000500000E+01  0.51100000000E-03 0.  1.
         11   -1    0    0    0    0 -0.00000000000E+00 -0.00000000000E+00 -0.50000499739E+01  0.50000500000E+01  0.51100000000E-03 0. -1.
     100001    1    1    2    0    0 -0.15814667136E-01  0.85956381301E-02  0.13267019579E-01  0.50000500000E+01  0.50000000000E+01 0.  1.
     100001    1    1    2    0    0  0.15814667136E-01 -0.85956381301E-02 -0.13267019579E-01  0.50000500000E+01  0.50000000000E+01 0. -1.
</event>
<event>
 4    1  0.5008549E-001  0.5000050E+01  0.7818608E-02  0.2136455E+00
        -11   -1    0    0    0    0  0.00000000000E+00  0.00000000000E+00  0.50000499739E+01  0.50000500000E+01  0.51100000000E-03 0.  1.
         11   -1    0    0    0    0 -0.00000000000E+00 -0.00000000000E+00 -0.50000499739E+01  0.50000500000E+01  0.51100000000E-03 0. -1.
     100001    1    1    2    0    0  0.13422052912E-01 -0.17883189481E-01 -0.20622710608E-03  0.50000500000E+01  0.50000000000E+01 0. -1.
     100001    1    1    2    0    0 -0.13422052912E-01  0.17883189481E-01  0.20622710608E-03  0.50000500000E+01  0.50000000000E+01 0.  1.
</event>
<event>
 4    1  0.5008549E-001  0.5000050E+01  0.7818608E-02  0.2136455E+00
        -11   -1    0    0    0    0  0.00000000000E+00  0.00000000000E+00  0.50000499739E+01  0.50000500000E+01  0.51100000000E-03 0.  1.
         11   -1    0    0    0    0 -0.00000000000E+00 -0.00000000000E+00 -0.50000499739E+01  0.50000500000E+01  0.51100000000E-03 0. -1.
     100001    1    1    2    0    0  0.69206929533E-02 -0.19164034196E-01  0.92112052627E-02  0.50000500000E+01  0.50000000000E+01 0. -1.
     100001    1    1    2    0    0 -0.69206929533E-02  0.19164034196E-01 -0.92112052627E-02  0.50000500000E+01  0.50000000000E+01 0.  0.
</event>
<event>
 4    1  0.5008549E-001  0.5000050E+01  0.7818608E-02  0.2136455E+00
        -11   -1    0    0    0    0  0.00000000000E+00  0.00000000000E+00  0.50000499739E+01  0.50000500000E+01  0.51100000000E-03 0.  1.
         11   -1    0    0    0    0 -0.00000000000E+00 -0.00000000000E+00 -0.50000499739E+01  0.50000500000E+01  0.51100000000E-03 0. -1.
     100001    1    1    2    0    0 -0.20498854539E-01 -0.86293494252E-02 -0.23095001763E-02  0.50000500000E+01  0.50000000000E+01 0.  0.
     100001    1    1    2    0    0  0.20498854539E-01  0.86293494252E-02  0.23095001763E-02  0.50000500000E+01  0.50000000000E+01 0. -1.
</event>
<event>
 4    1  0.5008549E-001  0.5000050E+01  0.7818608E-02  0.2136455E+00
        -11   -1    0    0    0    0  0.00000000000E+00  0.00000000000E+00  0.50000499739E+01  0.50000500000E+01  0.51100000000E-03 0.  1.
         11   -1    0    0    0    0 -0.00000000000E+00 -0.00000000000E+00 -0.50000499739E+01  0.50000500000E+01  0.51100000000E-03 0. -1.
     100001    1    1    2    0    0  0.81723538412E-02 -0.11676582492E-02  0.20781042007E-01  0.50000500000E+01  0.50000000000E+01 0.  0.
     100001    1    1    2    0    0 -0.81723538412E-02  0.11676582492E-02 -0.20781042007E-01  0.50000500000E+01  0.50000000000E+01 0.  0.
</event>
<event>
 4    1  0.5008549E-001  0.5000050E+01  0.7818608E-02  0.2136455E+00
        -11   -1    0    0    0    0  0.00000000000E+00  0.00000000000E+00  0.50000499739E+01  0.50000500000E+01  0.51100000000E-03 0. -1.
         11   -1    0    0    0    0 -0.00000000000E+00 -0.00000000000E+00 -0.50000499739E+01  0.50000500000E+01  0.51100000000E-03 0.  1.
     100001    1    1    2    0    0 -0.19304133171E-01  0.97082743621E-02 -0.57534642975E-02  0.50000500000E+01  0.50000000000E+01 0.  1.
     100001    1    1    2    0    0  0.19304133171E-01 -0.97082743621E-02  0.57534642975E-02  0.50000500000E+01  0.50000000000E+01 0. -1.
</event>
<event>
 4    1  0.5008549E-001  0.5000050E+01  0.7818608E-02  0.2136455E+00
        -11   -1    0    0    0    0  0.00000000000E+00  0.00000000000E+00  0.50000499739E+01  0.50000500000E+01  0.51100000000E-03 0. -1.
         11   -1    0    0    0    0 -0.00000000000E+00 -0.00000000000E+00 -0.50000499739E+01  0.50000500000E+01  0.51100000000E-03 0.  1.
     100001    1    1    2    0    0 -0.12634698449E-01 -0.18284240983E-01 -0.24603712714E-02  0.50000500000E+01  0.50000000000E+01 0.  1.
     100001    1    1    2    0    0  0.12634698449E-01  0.18284240983E-01  0.24603712714E-02  0.50000500000E+01  0.50000000000E+01 0. -1.
</event>
<event>
 4    1  0.5008549E-001  0.5000050E+01  0.7818608E-02  0.2136455E+00
        -11   -1    0    0    0    0  0.00000000000E+00  0.00000000000E+00  0.50000499739E+01  0.50000500000E+01  0.51100000000E-03 0. -1.
         11   -1    0    0    0    0 -0.00000000000E+00 -0.00000000000E+00 -0.50000499739E+01  0.50000500000E+01  0.51100000000E-03 0.  1.
     100001    1    1    2    0    0 -0.14291427881E-01  0.94562245793E-03 -0.17171586627E-01  0.50000500000E+01  0.50000000000E+01 0.  1.
     100001    1    1    2    0    0  0.14291427881E-01 -0.94562245793E-03  0.17171586627E-01  0.50000500000E+01  0.50000000000E+01 0. -1.
</event>
<event>
 4    1  0.5008549E-001  0.5000050E+01  0.7818608E-02  0.2136455E+00
        -11   -1    0    0    0    0  0.00000000000E+00  0.00000000000E+00  0.50000499739E+01  0.50000500000E+01  0.51100000000E-03 0. -1.
         11   -1    0    0    0    0 -0.00000000000E+00 -0.00000000000E+00 -0.50000499739E+01  0.50000500000E+01  0.51100000000E-03 0.  1.
     100001    1    1    2    0    0  0.74873797817E-02  0.14352882427E-01  0.15425187520E-01  0.50000500000E+01  0.50000000000E+01 0.  0.
     100001    1    1    2    0    0 -0.74873797817E-02 -0.14352882427E-01 -0.15425187520E-01  0.50000500000E+01  0.50000000000E+01 0.  0.
</event>
<event>
 4    1  0.5008549E-001  0.5000050E+01  0.7818608E-02  0.2136455E+00
        -11   -1    0    0    0    0  0.00000000000E+00  0.00000000000E+00  0.50000499739E+01  0.50000500000E+01  0.51100000000E-03 0.  1.
         11   -1    0    0    0    0 -0.00000000000E+00 -0.00000000000E+00 -0.50000499739E+01  0.50000500000E+01  0.51100000000E-03 0. -1.
     100001    1    1    2    0    0  0.11850613342E-01  0.18916401958E-01  0.13172700503E-02  0.50000500000E+01  0.50000000000E+01 0.  1.
     100001    1    1    2    0    0 -0.11850613342E-01 -0.18916401958E-01 -0.13172700503E-02  0.50000500000E+01  0.50000000000E+01 0.  0.
</event>
<event>
 4    1  0.5008549E-001  0.5000050E+01  0.7818608E-02  0.2136455E+00
        -11   -1    0    0    0    0  0.00000000000E+00  0.00000000000E+00  0.50000499739E+01  0.50000500000E+01  0.51100000000E-03 0.  1.
         11   -1    0    0    0    0 -0.00000000000E+00 -0.00000000000E+00 -0.50000499739E+01  0.50000500000E+01  0.51100000000E-03 0. -1.
     100001    1    1    2    0    0 -0.16712066559E-01 -0.11812540998E-01 -0.90096174439E-02  0.50000500000E+01  0.50000000000E+01 0.  1.
     100001    1    1    2    0    0  0.16712066559E-01  0.11812540998E-01  0.90096174439E-02  0.50000500000E+01  0.50000000000E+01 0.  0.
</event>
<event>
 4    1  0.5008549E-001  0.5000050E+01  0.7818608E-02  0.2136455E+00
        -11   -1    0    0    0    0  0.00000000000E+00  0.00000000000E+00  0.50000499739E+01  0.50000500000E+01  0.51100000000E-03 0.  1.
         11   -1    0    0    0    0 -0.00000000000E+00 -0.00000000000E+00 -0.50000499739E+01  0.50000500000E+01  0.51100000000E-03 0. -1.
     100001    1    1    2    0    0  0.39436620498E-02 -0.77421332613E-02 -0.20603625948E-01  0.50000500000E+01  0.50000000000E+01 0. -1.
     100001    1    1    2    0    0 -0.39436620498E-02  0.77421332613E-02  0.20603625948E-01  0.50000500000E+01  0.50000000000E+01 0.  0.
</event>
<event>
 4    1  0.5008549E-001  0.5000050E+01  0.7818608E-02  0.2136455E+00
        -11   -1    0    0    0    0  0.00000000000E+00  0.00000000000E+00  0.50000499739E+01  0.50000500000E+01  0.51100000000E-03 0.  1.
         11   -1    0    0    0    0 -0.00000000000E+00 -0.00000000000E+00 -0.50000499739E+01  0.50000500000E+01  0.51100000000E-03 0. -1.
     100001    1    1    2    0    0  0.97499646301E-02  0.16698638606E-01  0.11229254580E-01  0.50000500000E+01  0.50000000000E+01 0.  1.
     100001    1    1    2    0    0 -0.97499646301E-02 -0.16698638606E-01 -0.11229254580E-01  0.50000500000E+01  0.50000000000E+01 0. -1.
</event>
<event>
 4    1  0.5008549E-001  0.5000050E+01  0.7818608E-02  0.2136455E+00
        -11   -1    0    0    0    0  0.00000000000E+00  0.00000000000E+00  0.50000499739E+01  0.50000500000E+01  0.51100000000E-03 0. -1.
         11   -1    0    0    0    0 -0.00000000000E+00 -0.00000000000E+00 -0.50000499739E+01  0.50000500000E+01  0.51100000000E-03 0.  1.
     100001    1    1    2    0    0  0.14057824355E-01 -0.92736557998E-02 -0.14709839650E-01  0.50000500000E+01  0.50000000000E+01 0. -1.
     100001    1    1    2    0    0 -0.14057824355E-01  0.92736557998E-02  0.14709839650E-01  0.50000500000E+01  0.50000000000E+01 0.  0.
</event>
<event>
 4    1  0.5008549E-001  0.5000050E+01  0.7818608E-02  0.2136455E+00
        -11   -1    0    0    0    0  0.00000000000E+00  0.00000000000E+00  0.50000499739E+01  0.50000500000E+01  0.51100000000E-03 0. -1.
         11   -1    0    0    0    0 -0.00000000000E+00 -0.00000000000E+00 -0.50000499739E+01  0.50000500000E+01  0.51100000000E-03 0.  1.
     100001    1    1    2    0    0  0.29601023209E-02 -0.12893524050E-01  0.18027682375E-01  0.50000500000E+01  0.50000000000E+01 0. -1.
     100001    1    1    2    0    0 -0.29601023209E-02  0.12893524050E-01 -0.18027682375E-01  0.50000500000E+01  0.50000000000E+01 0.  1.
</event>
<event>
 4    1  0.5008549E-001  0.5000050E+01  0.7818608E-02  0.2136455E+00
        -11   -1    0    0    0    0  0.00000000000E+00  0.00000000000E+00  0.50000499739E+01  0.50000500000E+01  0.51100000000E-03 0.  1.
         11   -1    0    0    0    0 -0.00000000000E+00 -0.00000000000E+00 -0.50000499739E+01  0.50000500000E+01  0.51100000000E-03 0. -1.
     100001    1    1    2    0    0  0.12815122095E-01  0.13861798051E-01 -0.11984394039E-01  0.50000500000E+01  0.50000000000E+01 0.  0.
     100001    1    1    2    0    0 -0.12815122095E-01 -0.13861798051E-01  0.11984394039E-01  0.50000500000E+01  0.50000000000E+01 0. -1.
</event>
<event>
 4    1  0.5008549E-001  0.5000050E+01  0.7818608E-02  0.2136455E+00
        -11   -1    0    0    0    0  0.00000000000E+00  0.00000000000E+00  0.50000499739E+01  0.50000500000E+01  0.51100000000E-03 0. -1.
         11   -1    0    0    0    0 -0.00000000000E+00 -0.00000000000E+00 -0.50000499739E+01  0.50000500000E+01  0.51100000000E-03 0.  1.
     100001    1    1    2    0    0  0.21437761641E-01  0.58052505104E-02 -0.25930565578E-02  0.50000500000E+01  0.50000000000E+01 0.  1.
     100001    1    1    2    0    0 -0.21437761641E-01 -0.58052505104E-02  0.25930565578E-02  0.50000500000E+01  0.50000000000E+01 0. -1.
</event>
<event>
 4    1  0.5008549E-001  0.5000050E+01  0.7818608E-02  0.2136455E+00
        -11   -1    0    0    0    0  0.00000000000E+00  0.00000000000E+00  0.50000499739E+01  0.50000500000E+01  0.51100000000E-03 0.  1.
         11   -1    0    0    0    0 -0.00000000000E+00 -0.00000000000E+00 -0.50000499739E+01  0.50000500000E+01  0.51100000000E-03 0. -1.
     100001    1    1    2    0    0 -0.10087285020E-01  0.10640297278E-01  0.16882927909E-01  0.50000500000E+01  0.50000000000E+01 0.  1.
     100001    1    1    2    0    0  0.10087285020E-01 -0.10640297278E-01 -0.16882927909E-01  0.50000500000E+01  0.50000000000E+01 0.  0.
</event>
<event>
 4    1  0.5008549E-001  0.5000050E+01  0.7818608E-02  0.2136455E+00
        -11   -1    0    0    0    0  0.00000000000E+00  0.00000000000E+00  0.50000499739E+01  0.50000500000E+01  0.51100000000E-03 0.  1.
         11   -1    0    0    0    0 -0.00000000000E+00 -0.00000000000E+00 -0.50000499739E+01  0.50000500000E+01  0.51100000000E-03 0. -1.
     100001    1    1    2    0    0 -0.60847252257E-02  0.10732044119E-01  0.18649446318E-01  0.50000500000E+01  0.50000000000E+01 0.  1.
     100001    1    1    2    0    0  0.60847252257E-02 -0.10732044119E-01 -0.18649446318E-01  0.50000500000E+01  0.50000000000E+01 0.  0.
</event>
<event>
 4    1  0.5008549E-001  0.5000050E+01  0.7818608E-02  0.2136455E+00
        -11   -1    0    0    0    0  0.00000000000E+00  0.00000000000E+00  0.50000499739E+01  0.50000500000E+01  0.51100000000E-03 0.  1.
         11   -1    0    0    0    0 -0.00000000000E+00 -0.00000000000E+00 -0.50000499739E+01  0.50000500000E+01  0.51100000000E-03 0. -1.
     100001    1    1    2    0    0  0.12196831342E-01 -0.96090374284E-02 -0.16090562604E-01  0.50000500000E+01  0.50000000000E+01 0.  1.
     100001    1    1    2    0    0 -0.12196831342E-01  0.96090374284E-02  0.16090562604E-01  0.50000500000E+01  0.50000000000E+01 0.  0.
</event>
<event>
 4    1  0.5008549E-001  0.5000050E+01  0.7818608E-02  0.2136455E+00
        -11   -1    0    0    0    0  0.00000000000E+00  0.00000000000E+00  0.50000499739E+01  0.50000500000E+01  0.51100000000E-03 0.  1.
         11   -1    0    0    0    0 -0.00000000000E+00 -0.00000000000E+00 -0.50000499739E+01  0.50000500000E+01  0.51100000000E-03 0. -1.
     100001    1    1    2    0    0 -0.65674970743E-02  0.11292818145E-01 -0.18147802636E-01  0.50000500000E+01  0.50000000000E+01 0.  0.
     100001    1    1    2    0    0  0.65674970743E-02 -0.11292818145E-01  0.18147802636E-01  0.50000500000E+01  0.50000000000E+01 0.  1.
</event>
<event>
 4    1  0.5008549E-001  0.5000050E+01  0.7818608E-02  0.2136455E+00
        -11   -1    0    0    0    0  0.00000000000E+00  0.00000000000E+00  0.50000499739E+01  0.50000500000E+01  0.51100000000E-03 0.  1.
         11   -1    0    0    0    0 -0.00000000000E+00 -0.00000000000E+00 -0.50000499739E+01  0.50000500000E+01  0.51100000000E-03 0. -1.
     100001    1    1    2    0    0 -0.17571499608E-01 -0.13812939675E-01  0.66902844660E-03  0.50000500000E+01  0.50000000000E+01 0.  1.
     100001    1    1    2    0    0  0.17571499608E-01  0.13812939675E-01 -0.66902844660E-03  0.50000500000E+01  0.50000000000E+01 0.  0.
</event>
<event>
 4    1  0.5008549E-001  0.5000050E+01  0.7818608E-02  0.2136455E+00
        -11   -1    0    0    0    0  0.00000000000E+00  0.00000000000E+00  0.50000499739E+01  0.50000500000E+01  0.51100000000E-03 0.  1.
         11   -1    0    0    0    0 -0.00000000000E+00 -0.00000000000E+00 -0.50000499739E+01  0.50000500000E+01  0.51100000000E-03 0. -1.
     100001    1    1    2    0    0 -0.16979209545E-01  0.97106296086E-02 -0.10835710213E-01  0.50000500000E+01  0.50000000000E+01 0. -1.
     100001    1    1    2    0    0  0.16979209545E-01 -0.97106296086E-02  0.10835710213E-01  0.50000500000E+01  0.50000000000E+01 0.  1.
</event>
<event>
 4    1  0.5008549E-001  0.5000050E+01  0.7818608E-02  0.2136455E+00
        -11   -1    0    0    0    0  0.00000000000E+00  0.00000000000E+00  0.50000499739E+01  0.50000500000E+01  0.51100000000E-03 0.  1.
         11   -1    0    0    0    0 -0.00000000000E+00 -0.00000000000E+00 -0.50000499739E+01  0.50000500000E+01  0.51100000000E-03 0. -1.
     100001    1    1    2    0    0 -0.20050932283E-01 -0.21178352244E-02  0.96683705206E-02  0.50000500000E+01  0.50000000000E+01 0.  0.
     100001    1    1    2    0    0  0.20050932283E-01  0.21178352244E-02 -0.96683705206E-02  0.50000500000E+01  0.50000000000E+01 0.  1.
</event>
<event>
 4    1  0.5008549E-001  0.5000050E+01  0.7818608E-02  0.2136455E+00
        -11   -1    0    0    0    0  0.00000000000E+00  0.00000000000E+00  0.50000499739E+01  0.50000500000E+01  0.51100000000E-03 0.  1.
         11   -1    0    0    0    0 -0.00000000000E+00 -0.00000000000E+00 -0.50000499739E+01  0.50000500000E+01  0.51100000000E-03 0. -1.
     100001    1    1    2    0    0  0.92068711357E-02 -0.11083723227E-01  0.17099330493E-01  0.50000500000E+01  0.50000000000E+01 0.  0.
     100001    1    1    2    0    0 -0.92068711357E-02  0.11083723227E-01 -0.17099330493E-01  0.50000500000E+01  0.50000000000E+01 0. -1.
</event>
<event>
 4    1  0.5008549E-001  0.5000050E+01  0.7818608E-02  0.2136455E+00
        -11   -1    0    0    0    0  0.00000000000E+00  0.00000000000E+00  0.50000499739E+01  0.50000500000E+01  0.51100000000E-03 0. -1.
         11   -1    0    0    0    0 -0.00000000000E+00 -0.00000000000E+00 -0.50000499739E+01  0.50000500000E+01  0.51100000000E-03 0.  1.
     100001    1    1    2    0    0 -0.18704313552E-01  0.31604796843E-02 -0.11839025412E-01  0.50000500000E+01  0.50000000000E+01 0.  0.
     100001    1    1    2    0    0  0.18704313552E-01 -0.31604796843E-02  0.11839025412E-01  0.50000500000E+01  0.50000000000E+01 0.  0.
</event>
<event>
 4    1  0.5008549E-001  0.5000050E+01  0.7818608E-02  0.2136455E+00
        -11   -1    0    0    0    0  0.00000000000E+00  0.00000000000E+00  0.50000499739E+01  0.50000500000E+01  0.51100000000E-03 0.  1.
         11   -1    0    0    0    0 -0.00000000000E+00 -0.00000000000E+00 -0.50000499739E+01  0.50000500000E+01  0.51100000000E-03 0. -1.
     100001    1    1    2    0    0  0.45859365320E-02 -0.16753960908E-01 -0.14081068141E-01  0.50000500000E+01  0.50000000000E+01 0. -1.
     100001    1    1    2    0    0 -0.45859365320E-02  0.16753960908E-01  0.14081068141E-01  0.50000500000E+01  0.50000000000E+01 0. -1.
</event>
<event>
 4    1  0.5008549E-001  0.5000050E+01  0.7818608E-02  0.2136455E+00
        -11   -1    0    0    0    0  0.00000000000E+00  0.00000000000E+00  0.50000499739E+01  0.50000500000E+01  0.51100000000E-03 0. -1.
         11   -1    0    0    0    0 -0.00000000000E+00 -0.00000000000E+00 -0.50000499739E+01  0.50000500000E+01  0.51100000000E-03 0.  1.
     100001    1    1    2    0    0 -0.54466264743E-03 -0.21717315126E-01 -0.52975528623E-02  0.50000500000E+01  0.50000000000E+01 0. -1.
     100001    1    1    2    0    0  0.54466264743E-03  0.21717315126E-01  0.52975528623E-02  0.50000500000E+01  0.50000000000E+01 0.  1.
</event>
<event>
 4    1  0.5008549E-001  0.5000050E+01  0.7818608E-02  0.2136455E+00
        -11   -1    0    0    0    0  0.00000000000E+00  0.00000000000E+00  0.50000499739E+01  0.50000500000E+01  0.51100000000E-03 0.  1.
         11   -1    0    0    0    0 -0.00000000000E+00 -0.00000000000E+00 -0.50000499739E+01  0.50000500000E+01  0.51100000000E-03 0. -1.
     100001    1    1    2    0    0  0.21560607413E-01  0.16694882484E-02  0.56881910099E-02  0.50000500000E+01  0.50000000000E+01 0.  1.
     100001    1    1    2    0    0 -0.21560607413E-01 -0.16694882484E-02 -0.56881910099E-02  0.50000500000E+01  0.50000000000E+01 0.  0.
</event>
<event>
 4    1  0.5008549E-001  0.5000050E+01  0.7818608E-02  0.2136455E+00
        -11   -1    0    0    0    0  0.00000000000E+00  0.00000000000E+00  0.50000499739E+01  0.50000500000E+01  0.51100000000E-03 0. -1.
         11   -1    0    0    0    0 -0.00000000000E+00 -0.00000000000E+00 -0.50000499739E+01  0.50000500000E+01  0.51100000000E-03 0.  1.
     100001    1    1    2    0    0  0.12045347421E-01 -0.16583616849E-01 -0.89384426894E-02  0.50000500000E+01  0.50000000000E+01 0. -1.
     100001    1    1    2    0    0 -0.12045347421E-01  0.16583616849E-01  0.89384426894E-02  0.50000500000E+01  0.50000000000E+01 0.  0.
</event>
<event>
 4    1  0.5008549E-001  0.5000050E+01  0.7818608E-02  0.2136455E+00
        -11   -1    0    0    0    0  0.00000000000E+00  0.00000000000E+00  0.50000499739E+01  0.50000500000E+01  0.51100000000E-03 0.  1.
         11   -1    0    0    0    0 -0.00000000000E+00 -0.00000000000E+00 -0.50000499739E+01  0.50000500000E+01  0.51100000000E-03 0. -1.
     100001    1    1    2    0    0 -0.25148989384E-02  0.18348710369E-01  0.12530068281E-01  0.50000500000E+01  0.50000000000E+01 0.  0.
     100001    1    1    2    0    0  0.25148989384E-02 -0.18348710369E-01 -0.12530068281E-01  0.50000500000E+01  0.50000000000E+01 0.  0.
</event>
<event>
 4    1  0.5008549E-001  0.5000050E+01  0.7818608E-02  0.2136455E+00
        -11   -1    0    0    0    0  0.00000000000E+00  0.00000000000E+00  0.50000499739E+01  0.50000500000E+01  0.51100000000E-03 0. -1.
         11   -1    0    0    0    0 -0.00000000000E+00 -0.00000000000E+00 -0.50000499739E+01  0.50000500000E+01  0.51100000000E-03 0.  1.
     100001    1    1    2    0    0 -0.17728924520E-01 -0.13002335863E-01 -0.40776215456E-02  0.50000500000E+01  0.50000000000E+01 0. -1.
     100001    1    1    2    0    0  0.17728924520E-01  0.13002335863E-01  0.40776215456E-02  0.50000500000E+01  0.50000000000E+01 0.  1.
</event>
<event>
 4    1  0.5008549E-001  0.5000050E+01  0.7818608E-02  0.2136455E+00
        -11   -1    0    0    0    0  0.00000000000E+00  0.00000000000E+00  0.50000499739E+01  0.50000500000E+01  0.51100000000E-03 0.  1.
         11   -1    0    0    0    0 -0.00000000000E+00 -0.00000000000E+00 -0.50000499739E+01  0.50000500000E+01  0.51100000000E-03 0. -1.
     100001    1    1    2    0    0 -0.14939037700E-01 -0.11915944510E-01 -0.11611973089E-01  0.50000500000E+01  0.50000000000E+01 0.  0.
     100001    1    1    2    0    0  0.14939037700E-01  0.11915944510E-01  0.11611973089E-01  0.50000500000E+01  0.50000000000E+01 0.  0.
</event>
<event>
 4    1  0.5008549E-001  0.5000050E+01  0.7818608E-02  0.2136455E+00
        -11   -1    0    0    0    0  0.00000000000E+00  0.00000000000E+00  0.50000499739E+01  0.50000500000E+01  0.51100000000E-03 0. -1.
         11   -1    0    0    0    0 -0.00000000000E+00 -0.00000000000E+00 -0.50000499739E+01  0.50000500000E+01  0.51100000000E-03 0.  1.
     100001    1    1    2    0    0  0.24294036909E-02 -0.22181878296E-01 -0.14369317948E-02  0.50000500000E+01  0.50000000000E+01 0. -1.
     100001    1    1    2    0    0 -0.24294036909E-02  0.22181878296E-01  0.14369317948E-02  0.50000500000E+01  0.50000000000E+01 0.  1.
</event>
<event>
 4    1  0.5008549E-001  0.5000050E+01  0.7818608E-02  0.2136455E+00
        -11   -1    0    0    0    0  0.00000000000E+00  0.00000000000E+00  0.50000499739E+01  0.50000500000E+01  0.51100000000E-03 0.  1.
         11   -1    0    0    0    0 -0.00000000000E+00 -0.00000000000E+00 -0.50000499739E+01  0.50000500000E+01  0.51100000000E-03 0. -1.
     100001    1    1    2    0    0  0.18325832797E-01  0.11262586776E-01  0.61090499599E-02  0.50000500000E+01  0.50000000000E+01 0. -1.
     100001    1    1    2    0    0 -0.18325832797E-01 -0.11262586776E-01 -0.61090499599E-02  0.50000500000E+01  0.50000000000E+01 0.  0.
</event>
<event>
 4    1  0.5008549E-001  0.5000050E+01  0.7818608E-02  0.2136455E+00
        -11   -1    0    0    0    0  0.00000000000E+00  0.00000000000E+00  0.50000499739E+01  0.50000500000E+01  0.51100000000E-03 0. -1.
         11   -1    0    0    0    0 -0.00000000000E+00 -0.00000000000E+00 -0.50000499739E+01  0.50000500000E+01  0.51100000000E-03 0.  1.
     100001    1    1    2    0    0  0.11236690903E-01  0.72012759687E-02  0.17941039601E-01  0.50000500000E+01  0.50000000000E+01 0.  0.
     100001    1    1    2    0    0 -0.11236690903E-01 -0.72012759687E-02 -0.17941039601E-01  0.50000500000E+01  0.50000000000E+01 0.  0.
</event>
<event>
 4    1  0.5008549E-001  0.5000050E+01  0.7818608E-02  0.2136455E+00
        -11   -1    0    0    0    0  0.00000000000E+00  0.00000000000E+00  0.50000499739E+01  0.50000500000E+01  0.51100000000E-03 0.  1.
         11   -1    0    0    0    0 -0.00000000000E+00 -0.00000000000E+00 -0.50000499739E+01  0.50000500000E+01  0.51100000000E-03 0. -1.
     100001    1    1    2    0    0  0.15205355346E-01  0.38818085001E-02  0.15928943203E-01  0.50000500000E+01  0.50000000000E+01 0.  1.
     100001    1    1    2    0    0 -0.15205355346E-01 -0.38818085001E-02 -0.15928943203E-01  0.50000500000E+01  0.50000000000E+01 0.  0.
</event>
<event>
 4    1  0.5008549E-001  0.5000050E+01  0.7818608E-02  0.2136455E+00
        -11   -1    0    0    0    0  0.00000000000E+00  0.00000000000E+00  0.50000499739E+01  0.50000500000E+01  0.51100000000E-03 0.  1.
         11   -1    0    0    0    0 -0.00000000000E+00 -0.00000000000E+00 -0.50000499739E+01  0.50000500000E+01  0.51100000000E-03 0. -1.
     100001    1    1    2    0    0 -0.16481155967E-01  0.13737388081E-01  0.62974730415E-02  0.50000500000E+01  0.50000000000E+01 0.  0.
     100001    1    1    2    0    0  0.16481155967E-01 -0.13737388081E-01 -0.62974730415E-02  0.50000500000E+01  0.50000000000E+01 0.  1.
</event>
<event>
 4    1  0.5008549E-001  0.5000050E+01  0.7818608E-02  0.2136455E+00
        -11   -1    0    0    0    0  0.00000000000E+00  0.00000000000E+00  0.50000499739E+01  0.50000500000E+01  0.51100000000E-03 0. -1.
         11   -1    0    0    0    0 -0.00000000000E+00 -0.00000000000E+00 -0.50000499739E+01  0.50000500000E+01  0.51100000000E-03 0.  1.
     100001    1    1    2    0    0  0.11221184164E-01  0.97740735494E-02  0.16689967412E-01  0.50000500000E+01  0.50000000000E+01 0. -1.
     100001    1    1    2    0    0 -0.11221184164E-01 -0.97740735494E-02 -0.16689967412E-01  0.50000500000E+01  0.50000000000E+01 0.  1.
</event>
<event>
 4    1  0.5008549E-001  0.5000050E+01  0.7818608E-02  0.2136455E+00
        -11   -1    0    0    0    0  0.00000000000E+00  0.00000000000E+00  0.50000499739E+01  0.50000500000E+01  0.51100000000E-03 0.  1.
         11   -1    0    0    0    0 -0.00000000000E+00 -0.00000000000E+00 -0.50000499739E+01  0.50000500000E+01  0.51100000000E-03 0. -1.
     100001    1    1    2    0    0  0.73028117233E-02 -0.19097993174E-01  0.90519665085E-02  0.50000500000E+01  0.50000000000E+01 0.  0.
     100001    1    1    2    0    0 -0.73028117233E-02  0.19097993174E-01 -0.90519665085E-02  0.50000500000E+01  0.50000000000E+01 0.  0.
</event>
<event>
 4    1  0.5008549E-001  0.5000050E+01  0.7818608E-02  0.2136455E+00
        -11   -1    0    0    0    0  0.00000000000E+00  0.00000000000E+00  0.50000499739E+01  0.50000500000E+01  0.51100000000E-03 0. -1.
         11   -1    0    0    0    0 -0.00000000000E+00 -0.00000000000E+00 -0.50000499739E+01  0.50000500000E+01  0.51100000000E-03 0.  1.
     100001    1    1    2    0    0  0.43326871643E-02 -0.10872065439E-01 -0.19053307194E-01  0.50000500000E+01  0.50000000000E+01 0.  1.
     100001    1    1    2    0    0 -0.43326871643E-02  0.10872065439E-01  0.19053307194E-01  0.50000500000E+01  0.50000000000E+01 0. -1.
</event>
<event>
 4    1  0.5008549E-001  0.5000050E+01  0.7818608E-02  0.2136455E+00
        -11   -1    0    0    0    0  0.00000000000E+00  0.00000000000E+00  0.50000499739E+01  0.50000500000E+01  0.51100000000E-03 0. -1.
         11   -1    0    0    0    0 -0.00000000000E+00 -0.00000000000E+00 -0.50000499739E+01  0.50000500000E+01  0.51100000000E-03 0.  1.
     100001    1    1    2    0    0  0.16306414696E-01  0.15065319662E-01  0.26719811498E-02  0.50000500000E+01  0.50000000000E+01 0. -1.
     100001    1    1    2    0    0 -0.16306414696E-01 -0.15065319662E-01 -0.26719811498E-02  0.50000500000E+01  0.50000000000E+01 0.  1.
</event>
<event>
 4    1  0.5008549E-001  0.5000050E+01  0.7818608E-02  0.2136455E+00
        -11   -1    0    0    0    0  0.00000000000E+00  0.00000000000E+00  0.50000499739E+01  0.50000500000E+01  0.51100000000E-03 0. -1.
         11   -1    0    0    0    0 -0.00000000000E+00 -0.00000000000E+00 -0.50000499739E+01  0.50000500000E+01  0.51100000000E-03 0.  1.
     100001    1    1    2    0    0  0.12356551184E-01 -0.12356558724E-01 -0.13951114627E-01  0.50000500000E+01  0.50000000000E+01 0. -1.
     100001    1    1    2    0    0 -0.12356551184E-01  0.12356558724E-01  0.13951114627E-01  0.50000500000E+01  0.50000000000E+01 0. -1.
</event>
<event>
 4    1  0.5008549E-001  0.5000050E+01  0.7818608E-02  0.2136455E+00
        -11   -1    0    0    0    0  0.00000000000E+00  0.00000000000E+00  0.50000499739E+01  0.50000500000E+01  0.51100000000E-03 0. -1.
         11   -1    0    0    0    0 -0.00000000000E+00 -0.00000000000E+00 -0.50000499739E+01  0.50000500000E+01  0.51100000000E-03 0.  1.
     100001    1    1    2    0    0 -0.26524572033E-02  0.15332028205E-01 -0.16059137022E-01  0.50000500000E+01  0.50000000000E+01 0. -1.
     100001    1    1    2    0    0  0.26524572033E-02 -0.15332028205E-01  0.16059137022E-01  0.50000500000E+01  0.50000000000E+01 0.  0.
</event>
<event>
 4    1  0.5008549E-001  0.5000050E+01  0.7818608E-02  0.2136455E+00
        -11   -1    0    0    0    0  0.00000000000E+00  0.00000000000E+00  0.50000499739E+01  0.50000500000E+01  0.51100000000E-03 0. -1.
         11   -1    0    0    0    0 -0.00000000000E+00 -0.00000000000E+00 -0.50000499739E+01  0.50000500000E+01  0.51100000000E-03 0.  1.
     100001    1    1    2    0    0  0.74082645832E-02  0.18861682079E-01 -0.94528865979E-02  0.50000500000E+01  0.50000000000E+01 0.  0.
     100001    1    1    2    0    0 -0.74082645832E-02 -0.18861682079E-01  0.94528865979E-02  0.50000500000E+01  0.50000000000E+01 0.  1.
</event>
<event>
 4    1  0.5008549E-001  0.5000050E+01  0.7818608E-02  0.2136455E+00
        -11   -1    0    0    0    0  0.00000000000E+00  0.00000000000E+00  0.50000499739E+01  0.50000500000E+01  0.51100000000E-03 0. -1.
         11   -1    0    0    0    0 -0.00000000000E+00 -0.00000000000E+00 -0.50000499739E+01  0.50000500000E+01  0.51100000000E-03 0.  1.
     100001    1    1    2    0    0 -0.20858713568E-01 -0.32340949261E-02  0.73795120639E-02  0.50000500000E+01  0.50000000000E+01 0. -1.
     100001    1    1    2    0    0  0.20858713568E-01  0.32340949261E-02 -0.73795120639E-02  0.50000500000E+01  0.50000000000E+01 0.  1.
</event>
<event>
 4    1  0.5008549E-001  0.5000050E+01  0.7818608E-02  0.2136455E+00
        -11   -1    0    0    0    0  0.00000000000E+00  0.00000000000E+00  0.50000499739E+01  0.50000500000E+01  0.51100000000E-03 0. -1.
         11   -1    0    0    0    0 -0.00000000000E+00 -0.00000000000E+00 -0.50000499739E+01  0.50000500000E+01  0.51100000000E-03 0.  1.
     100001    1    1    2    0    0  0.16074476989E-02  0.68973620705E-02  0.21209549933E-01  0.50000500000E+01  0.50000000000E+01 0.  0.
     100001    1    1    2    0    0 -0.16074476989E-02 -0.68973620705E-02 -0.21209549933E-01  0.50000500000E+01  0.50000000000E+01 0.  1.
</event>
<event>
 4    1  0.5008549E-001  0.5000050E+01  0.7818608E-02  0.2136455E+00
        -11   -1    0    0    0    0  0.00000000000E+00  0.00000000000E+00  0.50000499739E+01  0.50000500000E+01  0.51100000000E-03 0. -1.
         11   -1    0    0    0    0 -0.00000000000E+00 -0.00000000000E+00 -0.50000499739E+01  0.50000500000E+01  0.51100000000E-03 0.  1.
     100001    1    1    2    0    0 -0.28753966169E-03  0.51616963010E-02 -0.21754923862E-01  0.50000500000E+01  0.50000000000E+01 0.  1.
     100001    1    1    2    0    0  0.28753966169E-03 -0.51616963010E-02  0.21754923862E-01  0.50000500000E+01  0.50000000000E+01 0.  0.
</event>
<event>
 4    1  0.5008549E-001  0.5000050E+01  0.7818608E-02  0.2136455E+00
        -11   -1    0    0    0    0  0.00000000000E+00  0.00000000000E+00  0.50000499739E+01  0.50000500000E+01  0.51100000000E-03 0.  1.
         11   -1    0    0    0    0 -0.00000000000E+00 -0.00000000000E+00 -0.50000499739E+01  0.50000500000E+01  0.51100000000E-03 0. -1.
     100001    1    1    2    0    0  0.17635264446E-01  0.98107068373E-02  0.96306790657E-02  0.50000500000E+01  0.50000000000E+01 0.  1.
     100001    1    1    2    0    0 -0.17635264446E-01 -0.98107068373E-02 -0.96306790657E-02  0.50000500000E+01  0.50000000000E+01 0. -1.
</event>
<event>
 4    1  0.5008549E-001  0.5000050E+01  0.7818608E-02  0.2136455E+00
        -11   -1    0    0    0    0  0.00000000000E+00  0.00000000000E+00  0.50000499739E+01  0.50000500000E+01  0.51100000000E-03 0. -1.
         11   -1    0    0    0    0 -0.00000000000E+00 -0.00000000000E+00 -0.50000499739E+01  0.50000500000E+01  0.51100000000E-03 0.  1.
     100001    1    1    2    0    0  0.18516999498E-02 -0.22247328287E-01  0.12767503198E-02  0.50000500000E+01  0.50000000000E+01 0. -1.
     100001    1    1    2    0    0 -0.18516999498E-02  0.22247328287E-01 -0.12767503198E-02  0.50000500000E+01  0.50000000000E+01 0.  1.
</event>
<event>
 4    1  0.5008549E-001  0.5000050E+01  0.7818608E-02  0.2136455E+00
        -11   -1    0    0    0    0  0.00000000000E+00  0.00000000000E+00  0.50000499739E+01  0.50000500000E+01  0.51100000000E-03 0. -1.
         11   -1    0    0    0    0 -0.00000000000E+00 -0.00000000000E+00 -0.50000499739E+01  0.50000500000E+01  0.51100000000E-03 0.  1.
     100001    1    1    2    0    0 -0.28996493839E-02 -0.51117019743E-02  0.21574638731E-01  0.50000500000E+01  0.50000000000E+01 0. -1.
     100001    1    1    2    0    0  0.28996493839E-02  0.51117019743E-02 -0.21574638731E-01  0.50000500000E+01  0.50000000000E+01 0.  1.
</event>
<event>
 4    1  0.5008549E-001  0.5000050E+01  0.7818608E-02  0.2136455E+00
        -11   -1    0    0    0    0  0.00000000000E+00  0.00000000000E+00  0.50000499739E+01  0.50000500000E+01  0.51100000000E-03 0. -1.
         11   -1    0    0    0    0 -0.00000000000E+00 -0.00000000000E+00 -0.50000499739E+01  0.50000500000E+01  0.51100000000E-03 0.  1.
     100001    1    1    2    0    0  0.10579532774E-01 -0.17478913798E-01 -0.90864491802E-02  0.50000500000E+01  0.50000000000E+01 0.  1.
     100001    1    1    2    0    0 -0.10579532774E-01  0.17478913798E-01  0.90864491802E-02  0.50000500000E+01  0.50000000000E+01 0. -1.
</event>
<event>
 4    1  0.5008549E-001  0.5000050E+01  0.7818608E-02  0.2136455E+00
        -11   -1    0    0    0    0  0.00000000000E+00  0.00000000000E+00  0.50000499739E+01  0.50000500000E+01  0.51100000000E-03 0. -1.
         11   -1    0    0    0    0 -0.00000000000E+00 -0.00000000000E+00 -0.50000499739E+01  0.50000500000E+01  0.51100000000E-03 0.  1.
     100001    1    1    2    0    0  0.14397504013E-01 -0.74996625124E-02 -0.15377562889E-01  0.50000500000E+01  0.50000000000E+01 0.  0.
     100001    1    1    2    0    0 -0.14397504013E-01  0.74996625124E-02  0.15377562889E-01  0.50000500000E+01  0.50000000000E+01 0.  0.
</event>
<event>
 4    1  0.5008549E-001  0.5000050E+01  0.7818608E-02  0.2136455E+00
        -11   -1    0    0    0    0  0.00000000000E+00  0.00000000000E+00  0.50000499739E+01  0.50000500000E+01  0.51100000000E-03 0.  1.
         11   -1    0    0    0    0 -0.00000000000E+00 -0.00000000000E+00 -0.50000499739E+01  0.50000500000E+01  0.51100000000E-03 0. -1.
     100001    1    1    2    0    0 -0.66197909820E-02 -0.16836186709E-01 -0.13142438299E-01  0.50000500000E+01  0.50000000000E+01 0.  0.
     100001    1    1    2    0    0  0.66197909820E-02  0.16836186709E-01  0.13142438299E-01  0.50000500000E+01  0.50000000000E+01 0.  0.
</event>
<event>
 4    1  0.5008549E-001  0.5000050E+01  0.7818608E-02  0.2136455E+00
        -11   -1    0    0    0    0  0.00000000000E+00  0.00000000000E+00  0.50000499739E+01  0.50000500000E+01  0.51100000000E-03 0. -1.
         11   -1    0    0    0    0 -0.00000000000E+00 -0.00000000000E+00 -0.50000499739E+01  0.50000500000E+01  0.51100000000E-03 0.  1.
     100001    1    1    2    0    0 -0.14637204795E-02 -0.91454015124E-02  0.20352436059E-01  0.50000500000E+01  0.50000000000E+01 0. -1.
     100001    1    1    2    0    0  0.14637204795E-02  0.91454015124E-02 -0.20352436059E-01  0.50000500000E+01  0.50000000000E+01 0.  0.
</event>
<event>
 4    1  0.5008549E-001  0.5000050E+01  0.7818608E-02  0.2136455E+00
        -11   -1    0    0    0    0  0.00000000000E+00  0.00000000000E+00  0.50000499739E+01  0.50000500000E+01  0.51100000000E-03 0. -1.
         11   -1    0    0    0    0 -0.00000000000E+00 -0.00000000000E+00 -0.50000499739E+01  0.50000500000E+01  0.51100000000E-03 0.  1.
     100001    1    1    2    0    0  0.31476143467E-02 -0.19431905068E-01 -0.10606417367E-01  0.50000500000E+01  0.50000000000E+01 0.  1.
     100001    1    1    2    0    0 -0.31476143467E-02  0.19431905068E-01  0.10606417367E-01  0.50000500000E+01  0.50000000000E+01 0.  1.
</event>
<event>
 4    1  0.5008549E-001  0.5000050E+01  0.7818608E-02  0.2136455E+00
        -11   -1    0    0    0    0  0.00000000000E+00  0.00000000000E+00  0.50000499739E+01  0.50000500000E+01  0.51100000000E-03 0. -1.
         11   -1    0    0    0    0 -0.00000000000E+00 -0.00000000000E+00 -0.50000499739E+01  0.50000500000E+01  0.51100000000E-03 0.  1.
     100001    1    1    2    0    0 -0.21732067642E-01  0.48747335712E-02  0.19891477118E-02  0.50000500000E+01  0.50000000000E+01 0.  1.
     100001    1    1    2    0    0  0.21732067642E-01 -0.48747335712E-02 -0.19891477118E-02  0.50000500000E+01  0.50000000000E+01 0.  0.
</event>
<event>
 4    1  0.5008549E-001  0.5000050E+01  0.7818608E-02  0.2136455E+00
        -11   -1    0    0    0    0  0.00000000000E+00  0.00000000000E+00  0.50000499739E+01  0.50000500000E+01  0.51100000000E-03 0. -1.
         11   -1    0    0    0    0 -0.00000000000E+00 -0.00000000000E+00 -0.50000499739E+01  0.50000500000E+01  0.51100000000E-03 0.  1.
     100001    1    1    2    0    0 -0.16284803027E-01 -0.91181593801E-02 -0.12315309979E-01  0.50000500000E+01  0.50000000000E+01 0.  0.
     100001    1    1    2    0    0  0.16284803027E-01  0.91181593801E-02  0.12315309979E-01  0.50000500000E+01  0.50000000000E+01 0.  0.
</event>
<event>
 4    1  0.5008549E-001  0.5000050E+01  0.7818608E-02  0.2136455E+00
        -11   -1    0    0    0    0  0.00000000000E+00  0.00000000000E+00  0.50000499739E+01  0.50000500000E+01  0.51100000000E-03 0. -1.
         11   -1    0    0    0    0 -0.00000000000E+00 -0.00000000000E+00 -0.50000499739E+01  0.50000500000E+01  0.51100000000E-03 0.  1.
     100001    1    1    2    0    0  0.17889577166E-01  0.10466583837E-01 -0.83914332255E-02  0.50000500000E+01  0.50000000000E+01 0.  1.
     100001    1    1    2    0    0 -0.17889577166E-01 -0.10466583837E-01  0.83914332255E-02  0.50000500000E+01  0.50000000000E+01 0. -1.
</event>
<event>
 4    1  0.5008549E-001  0.5000050E+01  0.7818608E-02  0.2136455E+00
        -11   -1    0    0    0    0  0.00000000000E+00  0.00000000000E+00  0.50000499739E+01  0.50000500000E+01  0.51100000000E-03 0. -1.
         11   -1    0    0    0    0 -0.00000000000E+00 -0.00000000000E+00 -0.50000499739E+01  0.50000500000E+01  0.51100000000E-03 0.  1.
     100001    1    1    2    0    0 -0.59307439535E-02 -0.54167134110E-03 -0.21553082571E-01  0.50000500000E+01  0.50000000000E+01 0.  0.
     100001    1    1    2    0    0  0.59307439535E-02  0.54167134110E-03  0.21553082571E-01  0.50000500000E+01  0.50000000000E+01 0. -1.
</event>
<event>
 4    1  0.5008549E-001  0.5000050E+01  0.7818608E-02  0.2136455E+00
        -11   -1    0    0    0    0  0.00000000000E+00  0.00000000000E+00  0.50000499739E+01  0.50000500000E+01  0.51100000000E-03 0. -1.
         11   -1    0    0    0    0 -0.00000000000E+00 -0.00000000000E+00 -0.50000499739E+01  0.50000500000E+01  0.51100000000E-03 0.  1.
     100001    1    1    2    0    0 -0.48196791991E-02 -0.21571551209E-01 -0.33825095516E-02  0.50000500000E+01  0.50000000000E+01 0.  0.
     100001    1    1    2    0    0  0.48196791991E-02  0.21571551209E-01  0.33825095516E-02  0.50000500000E+01  0.50000000000E+01 0.  1.
</event>
<event>
 4    1  0.5008549E-001  0.5000050E+01  0.7818608E-02  0.2136455E+00
        -11   -1    0    0    0    0  0.00000000000E+00  0.00000000000E+00  0.50000499739E+01  0.50000500000E+01  0.51100000000E-03 0.  1.
         11   -1    0    0    0    0 -0.00000000000E+00 -0.00000000000E+00 -0.50000499739E+01  0.50000500000E+01  0.51100000000E-03 0. -1.
     100001    1    1    2    0    0  0.74024020094E-02 -0.12083083155E-01  0.17297573412E-01  0.50000500000E+01  0.50000000000E+01 0.  1.
     100001    1    1    2    0    0 -0.74024020094E-02  0.12083083155E-01 -0.17297573412E-01  0.50000500000E+01  0.50000000000E+01 0. -1.
</event>
<event>
 4    1  0.5008549E-001  0.5000050E+01  0.7818608E-02  0.2136455E+00
        -11   -1    0    0    0    0  0.00000000000E+00  0.00000000000E+00  0.50000499739E+01  0.50000500000E+01  0.51100000000E-03 0. -1.
         11   -1    0    0    0    0 -0.00000000000E+00 -0.00000000000E+00 -0.50000499739E+01  0.50000500000E+01  0.51100000000E-03 0.  1.
     100001    1    1    2    0    0 -0.17191819245E-01  0.14273938983E-01  0.83577326412E-03  0.50000500000E+01  0.50000000000E+01 0. -1.
     100001    1    1    2    0    0  0.17191819245E-01 -0.14273938983E-01 -0.83577326412E-03  0.50000500000E+01  0.50000000000E+01 0.  0.
</event>
<event>
 4    1  0.5008549E-001  0.5000050E+01  0.7818608E-02  0.2136455E+00
        -11   -1    0    0    0    0  0.00000000000E+00  0.00000000000E+00  0.50000499739E+01  0.50000500000E+01  0.51100000000E-03 0. -1.
         11   -1    0    0    0    0 -0.00000000000E+00 -0.00000000000E+00 -0.50000499739E+01  0.50000500000E+01  0.51100000000E-03 0.  1.
     100001    1    1    2    0    0 -0.21793045247E-01 -0.43583802189E-02 -0.24637777329E-02  0.50000500000E+01  0.50000000000E+01 0. -1.
     100001    1    1    2    0    0  0.21793045247E-01  0.43583802189E-02  0.24637777329E-02  0.50000500000E+01  0.50000000000E+01 0.  0.
</event>
<event>
 4    1  0.5008549E-001  0.5000050E+01  0.7818608E-02  0.2136455E+00
        -11   -1    0    0    0    0  0.00000000000E+00  0.00000000000E+00  0.50000499739E+01  0.50000500000E+01  0.51100000000E-03 0. -1.
         11   -1    0    0    0    0 -0.00000000000E+00 -0.00000000000E+00 -0.50000499739E+01  0.50000500000E+01  0.51100000000E-03 0.  1.
     100001    1    1    2    0    0 -0.60714939405E-02  0.43019084881E-02  0.21086323641E-01  0.50000500000E+01  0.50000000000E+01 0.  0.
     100001    1    1    2    0    0  0.60714939405E-02 -0.43019084881E-02 -0.21086323641E-01  0.50000500000E+01  0.50000000000E+01 0.  1.
</event>
<event>
 4    1  0.5008549E-001  0.5000050E+01  0.7818608E-02  0.2136455E+00
        -11   -1    0    0    0    0  0.00000000000E+00  0.00000000000E+00  0.50000499739E+01  0.50000500000E+01  0.51100000000E-03 0. -1.
         11   -1    0    0    0    0 -0.00000000000E+00 -0.00000000000E+00 -0.50000499739E+01  0.50000500000E+01  0.51100000000E-03 0.  1.
     100001    1    1    2    0    0 -0.21530586149E-03  0.20799726467E-01 -0.82053349892E-02  0.50000500000E+01  0.50000000000E+01 0. -1.
     100001    1    1    2    0    0  0.21530586149E-03 -0.20799726467E-01  0.82053349892E-02  0.50000500000E+01  0.50000000000E+01 0.  0.
</event>
<event>
 4    1  0.5008549E-001  0.5000050E+01  0.7818608E-02  0.2136455E+00
        -11   -1    0    0    0    0  0.00000000000E+00  0.00000000000E+00  0.50000499739E+01  0.50000500000E+01  0.51100000000E-03 0. -1.
         11   -1    0    0    0    0 -0.00000000000E+00 -0.00000000000E+00 -0.50000499739E+01  0.50000500000E+01  0.51100000000E-03 0.  1.
     100001    1    1    2    0    0  0.15038538643E-01 -0.87909004745E-02 -0.14020161352E-01  0.50000500000E+01  0.50000000000E+01 0.  0.
     100001    1    1    2    0    0 -0.15038538643E-01  0.87909004745E-02  0.14020161352E-01  0.50000500000E+01  0.50000000000E+01 0.  1.
</event>
<event>
 4    1  0.5008549E-001  0.5000050E+01  0.7818608E-02  0.2136455E+00
        -11   -1    0    0    0    0  0.00000000000E+00  0.00000000000E+00  0.50000499739E+01  0.50000500000E+01  0.51100000000E-03 0.  1.
         11   -1    0    0    0    0 -0.00000000000E+00 -0.00000000000E+00 -0.50000499739E+01  0.50000500000E+01  0.51100000000E-03 0. -1.
     100001    1    1    2    0    0 -0.16744847352E-01 -0.11829586333E-01 -0.89259999072E-02  0.50000500000E+01  0.50000000000E+01 0.  1.
     100001    1    1    2    0    0  0.16744847352E-01  0.11829586333E-01  0.89259999072E-02  0.50000500000E+01  0.50000000000E+01 0.  0.
</event>
<event>
 4    1  0.5008549E-001  0.5000050E+01  0.7818608E-02  0.2136455E+00
        -11   -1    0    0    0    0  0.00000000000E+00  0.00000000000E+00  0.50000499739E+01  0.50000500000E+01  0.51100000000E-03 0. -1.
         11   -1    0    0    0    0 -0.00000000000E+00 -0.00000000000E+00 -0.50000499739E+01  0.50000500000E+01  0.51100000000E-03 0.  1.
     100001    1    1    2    0    0 -0.44190860937E-02  0.13984708263E-01  0.16879043601E-01  0.50000500000E+01  0.50000000000E+01 0.  0.
     100001    1    1    2    0    0  0.44190860937E-02 -0.13984708263E-01 -0.16879043601E-01  0.50000500000E+01  0.50000000000E+01 0.  1.
</event>
<event>
 4    1  0.5008549E-001  0.5000050E+01  0.7818608E-02  0.2136455E+00
        -11   -1    0    0    0    0  0.00000000000E+00  0.00000000000E+00  0.50000499739E+01  0.50000500000E+01  0.51100000000E-03 0. -1.
         11   -1    0    0    0    0 -0.00000000000E+00 -0.00000000000E+00 -0.50000499739E+01  0.50000500000E+01  0.51100000000E-03 0.  1.
     100001    1    1    2    0    0  0.11592535963E-01 -0.19095804176E-01  0.98278829363E-03  0.50000500000E+01  0.50000000000E+01 0.  0.
     100001    1    1    2    0    0 -0.11592535963E-01  0.19095804176E-01 -0.98278829363E-03  0.50000500000E+01  0.50000000000E+01 0. -1.
</event>
<event>
 4    1  0.5008549E-001  0.5000050E+01  0.7818608E-02  0.2136455E+00
        -11   -1    0    0    0    0  0.00000000000E+00  0.00000000000E+00  0.50000499739E+01  0.50000500000E+01  0.51100000000E-03 0.  1.
         11   -1    0    0    0    0 -0.00000000000E+00 -0.00000000000E+00 -0.50000499739E+01  0.50000500000E+01  0.51100000000E-03 0. -1.
     100001    1    1    2    0    0 -0.16524173535E-01  0.10968588123E-01 -0.10326870947E-01  0.50000500000E+01  0.50000000000E+01 0. -1.
     100001    1    1    2    0    0  0.16524173535E-01 -0.10968588123E-01  0.10326870947E-01  0.50000500000E+01  0.50000000000E+01 0.  1.
</event>
<event>
 4    1  0.5008549E-001  0.5000050E+01  0.7818608E-02  0.2136455E+00
        -11   -1    0    0    0    0  0.00000000000E+00  0.00000000000E+00  0.50000499739E+01  0.50000500000E+01  0.51100000000E-03 0. -1.
         11   -1    0    0    0    0 -0.00000000000E+00 -0.00000000000E+00 -0.50000499739E+01  0.50000500000E+01  0.51100000000E-03 0.  1.
     100001    1    1    2    0    0 -0.13518604029E-01 -0.16692778511E-01  0.62129695551E-02  0.50000500000E+01  0.50000000000E+01 0. -1.
     100001    1    1    2    0    0  0.13518604029E-01  0.16692778511E-01 -0.62129695551E-02  0.50000500000E+01  0.50000000000E+01 0.  1.
</event>
<event>
 4    1  0.5008549E-001  0.5000050E+01  0.7818608E-02  0.2136455E+00
        -11   -1    0    0    0    0  0.00000000000E+00  0.00000000000E+00  0.50000499739E+01  0.50000500000E+01  0.51100000000E-03 0. -1.
         11   -1    0    0    0    0 -0.00000000000E+00 -0.00000000000E+00 -0.50000499739E+01  0.50000500000E+01  0.51100000000E-03 0.  1.
     100001    1    1    2    0    0  0.94590358632E-02  0.44792802122E-02  0.19760192036E-01  0.50000500000E+01  0.50000000000E+01 0. -1.
     100001    1    1    2    0    0 -0.94590358632E-02 -0.44792802122E-02 -0.19760192036E-01  0.50000500000E+01  0.50000000000E+01 0.  0.
</event>
<event>
 4    1  0.5008549E-001  0.5000050E+01  0.7818608E-02  0.2136455E+00
        -11   -1    0    0    0    0  0.00000000000E+00  0.00000000000E+00  0.50000499739E+01  0.50000500000E+01  0.51100000000E-03 0.  1.
         11   -1    0    0    0    0 -0.00000000000E+00 -0.00000000000E+00 -0.50000499739E+01  0.50000500000E+01  0.51100000000E-03 0. -1.
     100001    1    1    2    0    0  0.53881165414E-02 -0.90075987458E-02 -0.19744210923E-01  0.50000500000E+01  0.50000000000E+01 0.  0.
     100001    1    1    2    0    0 -0.53881165414E-02  0.90075987458E-02  0.19744210923E-01  0.50000500000E+01  0.50000000000E+01 0.  1.
</event>
<event>
 4    1  0.5008549E-001  0.5000050E+01  0.7818608E-02  0.2136455E+00
        -11   -1    0    0    0    0  0.00000000000E+00  0.00000000000E+00  0.50000499739E+01  0.50000500000E+01  0.51100000000E-03 0. -1.
         11   -1    0    0    0    0 -0.00000000000E+00 -0.00000000000E+00 -0.50000499739E+01  0.50000500000E+01  0.51100000000E-03 0.  1.
     100001    1    1    2    0    0  0.21557415888E-01 -0.48975471707E-02  0.33607070598E-02  0.50000500000E+01  0.50000000000E+01 0. -1.
     100001    1    1    2    0    0 -0.21557415888E-01  0.48975471707E-02 -0.33607070598E-02  0.50000500000E+01  0.50000000000E+01 0.  1.
</event>
<event>
 4    1  0.5008549E-001  0.5000050E+01  0.7818608E-02  0.2136455E+00
        -11   -1    0    0    0    0  0.00000000000E+00  0.00000000000E+00  0.50000499739E+01  0.50000500000E+01  0.51100000000E-03 0.  1.
         11   -1    0    0    0    0 -0.00000000000E+00 -0.00000000000E+00 -0.50000499739E+01  0.50000500000E+01  0.51100000000E-03 0. -1.
     100001    1    1    2    0    0  0.95092264741E-02 -0.38246725463E-02 -0.19873323622E-01  0.50000500000E+01  0.50000000000E+01 0. -1.
     100001    1    1    2    0    0 -0.95092264741E-02  0.38246725463E-02  0.19873323622E-01  0.50000500000E+01  0.50000000000E+01 0.  0.
</event>
<event>
 4    1  0.5008549E-001  0.5000050E+01  0.7818608E-02  0.2136455E+00
        -11   -1    0    0    0    0  0.00000000000E+00  0.00000000000E+00  0.50000499739E+01  0.50000500000E+01  0.51100000000E-03 0.  1.
         11   -1    0    0    0    0 -0.00000000000E+00 -0.00000000000E+00 -0.50000499739E+01  0.50000500000E+01  0.51100000000E-03 0. -1.
     100001    1    1    2    0    0 -0.34033234134E-02 -0.18312294546E-01  0.12372540491E-01  0.50000500000E+01  0.50000000000E+01 0. -1.
     100001    1    1    2    0    0  0.34033234134E-02  0.18312294546E-01 -0.12372540491E-01  0.50000500000E+01  0.50000000000E+01 0. -1.
</event>
<event>
 4    1  0.5008549E-001  0.5000050E+01  0.7818608E-02  0.2136455E+00
        -11   -1    0    0    0    0  0.00000000000E+00  0.00000000000E+00  0.50000499739E+01  0.50000500000E+01  0.51100000000E-03 0. -1.
         11   -1    0    0    0    0 -0.00000000000E+00 -0.00000000000E+00 -0.50000499739E+01  0.50000500000E+01  0.51100000000E-03 0.  1.
     100001    1    1    2    0    0  0.91176344927E-02 -0.66473683000E-02 -0.19305018413E-01  0.50000500000E+01  0.50000000000E+01 0.  1.
     100001    1    1    2    0    0 -0.91176344927E-02  0.66473683000E-02  0.19305018413E-01  0.50000500000E+01  0.50000000000E+01 0. -1.
</event>
<event>
 4    1  0.5008549E-001  0.5000050E+01  0.7818608E-02  0.2136455E+00
        -11   -1    0    0    0    0  0.00000000000E+00  0.00000000000E+00  0.50000499739E+01  0.50000500000E+01  0.51100000000E-03 0.  1.
         11   -1    0    0    0    0 -0.00000000000E+00 -0.00000000000E+00 -0.50000499739E+01  0.50000500000E+01  0.51100000000E-03 0. -1.
     100001    1    1    2    0    0  0.10289699131E-01 -0.17112372784E-01 -0.10064357380E-01  0.50000500000E+01  0.50000000000E+01 0.  1.
     100001    1    1    2    0    0 -0.10289699131E-01  0.17112372784E-01  0.10064357380E-01  0.50000500000E+01  0.50000000000E+01 0. -1.
</event>
<event>
 4    1  0.5008549E-001  0.5000050E+01  0.7818608E-02  0.2136455E+00
        -11   -1    0    0    0    0  0.00000000000E+00  0.00000000000E+00  0.50000499739E+01  0.50000500000E+01  0.51100000000E-03 0.  1.
         11   -1    0    0    0    0 -0.00000000000E+00 -0.00000000000E+00 -0.50000499739E+01  0.50000500000E+01  0.51100000000E-03 0. -1.
     100001    1    1    2    0    0  0.15644855603E-01  0.10756415411E-01 -0.11812727063E-01  0.50000500000E+01  0.50000000000E+01 0.  0.
     100001    1    1    2    0    0 -0.15644855603E-01 -0.10756415411E-01  0.11812727063E-01  0.50000500000E+01  0.50000000000E+01 0. -1.
</event>
<event>
 4    1  0.5008549E-001  0.5000050E+01  0.7818608E-02  0.2136455E+00
        -11   -1    0    0    0    0  0.00000000000E+00  0.00000000000E+00  0.50000499739E+01  0.50000500000E+01  0.51100000000E-03 0.  1.
         11   -1    0    0    0    0 -0.00000000000E+00 -0.00000000000E+00 -0.50000499739E+01  0.50000500000E+01  0.51100000000E-03 0. -1.
     100001    1    1    2    0    0 -0.17113798175E-01  0.14049251628E-01  0.31207275963E-02  0.50000500000E+01  0.50000000000E+01 0.  0.
     100001    1    1    2    0    0  0.17113798175E-01 -0.14049251628E-01 -0.31207275963E-02  0.50000500000E+01  0.50000000000E+01 0. -1.
</event>
<event>
 4    1  0.5008549E-001  0.5000050E+01  0.7818608E-02  0.2136455E+00
        -11   -1    0    0    0    0  0.00000000000E+00  0.00000000000E+00  0.50000499739E+01  0.50000500000E+01  0.51100000000E-03 0.  1.
         11   -1    0    0    0    0 -0.00000000000E+00 -0.00000000000E+00 -0.50000499739E+01  0.50000500000E+01  0.51100000000E-03 0. -1.
     100001    1    1    2    0    0 -0.22343732590E-01  0.28129218635E-03  0.82522037073E-03  0.50000500000E+01  0.50000000000E+01 0.  1.
     100001    1    1    2    0    0  0.22343732590E-01 -0.28129218635E-03 -0.82522037073E-03  0.50000500000E+01  0.50000000000E+01 0. -1.
</event>
<event>
 4    1  0.5008549E-001  0.5000050E+01  0.7818608E-02  0.2136455E+00
        -11   -1    0    0    0    0  0.00000000000E+00  0.00000000000E+00  0.50000499739E+01  0.50000500000E+01  0.51100000000E-03 0.  1.
         11   -1    0    0    0    0 -0.00000000000E+00 -0.00000000000E+00 -0.50000499739E+01  0.50000500000E+01  0.51100000000E-03 0. -1.
     100001    1    1    2    0    0  0.76081093182E-02  0.11244763739E-01  0.17767229977E-01  0.50000500000E+01  0.50000000000E+01 0.  0.
     100001    1    1    2    0    0 -0.76081093182E-02 -0.11244763739E-01 -0.17767229977E-01  0.50000500000E+01  0.50000000000E+01 0.  1.
</event>
<event>
 4    1  0.5008549E-001  0.5000050E+01  0.7818608E-02  0.2136455E+00
        -11   -1    0    0    0    0  0.00000000000E+00  0.00000000000E+00  0.50000499739E+01  0.50000500000E+01  0.51100000000E-03 0. -1.
         11   -1    0    0    0    0 -0.00000000000E+00 -0.00000000000E+00 -0.50000499739E+01  0.50000500000E+01  0.51100000000E-03 0.  1.
     100001    1    1    2    0    0  0.16665487560E-01 -0.62829900759E-02  0.13519913465E-01  0.50000500000E+01  0.50000000000E+01 0.  1.
     100001    1    1    2    0    0 -0.16665487560E-01  0.62829900759E-02 -0.13519913465E-01  0.50000500000E+01  0.50000000000E+01 0.  0.
</event>
<event>
 4    1  0.5008549E-001  0.5000050E+01  0.7818608E-02  0.2136455E+00
        -11   -1    0    0    0    0  0.00000000000E+00  0.00000000000E+00  0.50000499739E+01  0.50000500000E+01  0.51100000000E-03 0.  1.
         11   -1    0    0    0    0 -0.00000000000E+00 -0.00000000000E+00 -0.50000499739E+01  0.50000500000E+01  0.51100000000E-03 0. -1.
     100001    1    1    2    0    0  0.10096348479E-01  0.86097259417E-02  0.17998301770E-01  0.50000500000E+01  0.50000000000E+01 0.  1.
     100001    1    1    2    0    0 -0.10096348479E-01 -0.86097259417E-02 -0.17998301770E-01  0.50000500000E+01  0.50000000000E+01 0.  0.
</event>
<event>
 4    1  0.5008549E-001  0.5000050E+01  0.7818608E-02  0.2136455E+00
        -11   -1    0    0    0    0  0.00000000000E+00  0.00000000000E+00  0.50000499739E+01  0.50000500000E+01  0.51100000000E-03 0.  1.
         11   -1    0    0    0    0 -0.00000000000E+00 -0.00000000000E+00 -0.50000499739E+01  0.50000500000E+01  0.51100000000E-03 0. -1.
     100001    1    1    2    0    0  0.10365557160E-01 -0.29136253870E-03 -0.19810927102E-01  0.50000500000E+01  0.50000000000E+01 0.  1.
     100001    1    1    2    0    0 -0.10365557160E-01  0.29136253870E-03  0.19810927102E-01  0.50000500000E+01  0.50000000000E+01 0.  1.
</event>
<event>
 4    1  0.5008549E-001  0.5000050E+01  0.7818608E-02  0.2136455E+00
        -11   -1    0    0    0    0  0.00000000000E+00  0.00000000000E+00  0.50000499739E+01  0.50000500000E+01  0.51100000000E-03 0.  1.
         11   -1    0    0    0    0 -0.00000000000E+00 -0.00000000000E+00 -0.50000499739E+01  0.50000500000E+01  0.51100000000E-03 0. -1.
     100001    1    1    2    0    0  0.13616587066E-01 -0.66431901040E-02 -0.16445640210E-01  0.50000500000E+01  0.50000000000E+01 0.  0.
     100001    1    1    2    0    0 -0.13616587066E-01  0.66431901040E-02  0.16445640210E-01  0.50000500000E+01  0.50000000000E+01 0.  0.
</event>
<event>
 4    1  0.5008549E-001  0.5000050E+01  0.7818608E-02  0.2136455E+00
        -11   -1    0    0    0    0  0.00000000000E+00  0.00000000000E+00  0.50000499739E+01  0.50000500000E+01  0.51100000000E-03 0. -1.
         11   -1    0    0    0    0 -0.00000000000E+00 -0.00000000000E+00 -0.50000499739E+01  0.50000500000E+01  0.51100000000E-03 0.  1.
     100001    1    1    2    0    0 -0.73386018277E-02  0.43653898669E-02  0.20666175130E-01  0.50000500000E+01  0.50000000000E+01 0.  0.
     100001    1    1    2    0    0  0.73386018277E-02 -0.43653898669E-02 -0.20666175130E-01  0.50000500000E+01  0.50000000000E+01 0.  1.
</event>
<event>
 4    1  0.5008549E-001  0.5000050E+01  0.7818608E-02  0.2136455E+00
        -11   -1    0    0    0    0  0.00000000000E+00  0.00000000000E+00  0.50000499739E+01  0.50000500000E+01  0.51100000000E-03 0.  1.
         11   -1    0    0    0    0 -0.00000000000E+00 -0.00000000000E+00 -0.50000499739E+01  0.50000500000E+01  0.51100000000E-03 0. -1.
     100001    1    1    2    0    0  0.15690711905E-01  0.62961545568E-02  0.14634291842E-01  0.50000500000E+01  0.50000000000E+01 0. -1.
     100001    1    1    2    0    0 -0.15690711905E-01 -0.62961545568E-02 -0.14634291842E-01  0.50000500000E+01  0.50000000000E+01 0. -1.
</event>
<event>
 4    1  0.5008549E-001  0.5000050E+01  0.7818608E-02  0.2136455E+00
        -11   -1    0    0    0    0  0.00000000000E+00  0.00000000000E+00  0.50000499739E+01  0.50000500000E+01  0.51100000000E-03 0. -1.
         11   -1    0    0    0    0 -0.00000000000E+00 -0.00000000000E+00 -0.50000499739E+01  0.50000500000E+01  0.51100000000E-03 0.  1.
     100001    1    1    2    0    0  0.15298340555E-01 -0.11406693363E-01  0.11655497534E-01  0.50000500000E+01  0.50000000000E+01 0.  0.
     100001    1    1    2    0    0 -0.15298340555E-01  0.11406693363E-01 -0.11655497534E-01  0.50000500000E+01  0.50000000000E+01 0. -1.
</event>
<event>
 4    1  0.5008549E-001  0.5000050E+01  0.7818608E-02  0.2136455E+00
        -11   -1    0    0    0    0  0.00000000000E+00  0.00000000000E+00  0.50000499739E+01  0.50000500000E+01  0.51100000000E-03 0. -1.
         11   -1    0    0    0    0 -0.00000000000E+00 -0.00000000000E+00 -0.50000499739E+01  0.50000500000E+01  0.51100000000E-03 0.  1.
     100001    1    1    2    0    0  0.47926282643E-02  0.18424960186E-01 -0.11728344148E-01  0.50000500000E+01  0.50000000000E+01 0.  1.
     100001    1    1    2    0    0 -0.47926282643E-02 -0.18424960186E-01  0.11728344148E-01  0.50000500000E+01  0.50000000000E+01 0. -1.
</event>
<event>
 4    1  0.5008549E-001  0.5000050E+01  0.7818608E-02  0.2136455E+00
        -11   -1    0    0    0    0  0.00000000000E+00  0.00000000000E+00  0.50000499739E+01  0.50000500000E+01  0.51100000000E-03 0. -1.
         11   -1    0    0    0    0 -0.00000000000E+00 -0.00000000000E+00 -0.50000499739E+01  0.50000500000E+01  0.51100000000E-03 0.  1.
     100001    1    1    2    0    0 -0.16752938498E-01  0.14799831070E-01 -0.55367137275E-03  0.50000500000E+01  0.50000000000E+01 0.  1.
     100001    1    1    2    0    0  0.16752938498E-01 -0.14799831070E-01  0.55367137275E-03  0.50000500000E+01  0.50000000000E+01 0. -1.
</event>
<event>
 4    1  0.5008549E-001  0.5000050E+01  0.7818608E-02  0.2136455E+00
        -11   -1    0    0    0    0  0.00000000000E+00  0.00000000000E+00  0.50000499739E+01  0.50000500000E+01  0.51100000000E-03 0.  1.
         11   -1    0    0    0    0 -0.00000000000E+00 -0.00000000000E+00 -0.50000499739E+01  0.50000500000E+01  0.51100000000E-03 0. -1.
     100001    1    1    2    0    0 -0.21457986658E-01  0.62156655115E-02 -0.96063042996E-03  0.50000500000E+01  0.50000000000E+01 0. -1.
     100001    1    1    2    0    0  0.21457986658E-01 -0.62156655115E-02  0.96063042996E-03  0.50000500000E+01  0.50000000000E+01 0.  0.
</event>
<event>
 4    1  0.5008549E-001  0.5000050E+01  0.7818608E-02  0.2136455E+00
        -11   -1    0    0    0    0  0.00000000000E+00  0.00000000000E+00  0.50000499739E+01  0.50000500000E+01  0.51100000000E-03 0.  1.
         11   -1    0    0    0    0 -0.00000000000E+00 -0.00000000000E+00 -0.50000499739E+01  0.50000500000E+01  0.51100000000E-03 0. -1.
     100001    1    1    2    0    0  0.16783506139E-01 -0.21333084738E-02  0.14620718746E-01  0.50000500000E+01  0.50000000000E+01 0.  0.
     100001    1    1    2    0    0 -0.16783506139E-01  0.21333084738E-02 -0.14620718746E-01  0.50000500000E+01  0.50000000000E+01 0.  0.
</event>
<event>
 4    1  0.5008549E-001  0.5000050E+01  0.7818608E-02  0.2136455E+00
        -11   -1    0    0    0    0  0.00000000000E+00  0.00000000000E+00  0.50000499739E+01  0.50000500000E+01  0.51100000000E-03 0. -1.
         11   -1    0    0    0    0 -0.00000000000E+00 -0.00000000000E+00 -0.50000499739E+01  0.50000500000E+01  0.51100000000E-03 0.  1.
     100001    1    1    2    0    0  0.18885176517E-01 -0.11970549407E-01  0.24198095778E-03  0.50000500000E+01  0.50000000000E+01 0.  1.
     100001    1    1    2    0    0 -0.18885176517E-01  0.11970549407E-01 -0.24198095778E-03  0.50000500000E+01  0.50000000000E+01 0.  0.
</event>
<event>
 4    1  0.5008549E-001  0.5000050E+01  0.7818608E-02  0.2136455E+00
        -11   -1    0    0    0    0  0.00000000000E+00  0.00000000000E+00  0.50000499739E+01  0.50000500000E+01  0.51100000000E-03 0.  1.
         11   -1    0    0    0    0 -0.00000000000E+00 -0.00000000000E+00 -0.50000499739E+01  0.50000500000E+01  0.51100000000E-03 0. -1.
     100001    1    1    2    0    0 -0.77749421474E-02  0.17884810696E-01 -0.10940124358E-01  0.50000500000E+01  0.50000000000E+01 0. -1.
     100001    1    1    2    0    0  0.77749421474E-02 -0.17884810696E-01  0.10940124358E-01  0.50000500000E+01  0.50000000000E+01 0. -1.
</event>
<event>
 4    1  0.5008549E-001  0.5000050E+01  0.7818608E-02  0.2136455E+00
        -11   -1    0    0    0    0  0.00000000000E+00  0.00000000000E+00  0.50000499739E+01  0.50000500000E+01  0.51100000000E-03 0.  1.
         11   -1    0    0    0    0 -0.00000000000E+00 -0.00000000000E+00 -0.50000499739E+01  0.50000500000E+01  0.51100000000E-03 0. -1.
     100001    1    1    2    0    0  0.16989185803E-01 -0.15427487329E-02 -0.14456486160E-01  0.50000500000E+01  0.50000000000E+01 0.  0.
     100001    1    1    2    0    0 -0.16989185803E-01  0.15427487329E-02  0.14456486160E-01  0.50000500000E+01  0.50000000000E+01 0.  0.
</event>
<event>
 4    1  0.5008549E-001  0.5000050E+01  0.7818608E-02  0.2136455E+00
        -11   -1    0    0    0    0  0.00000000000E+00  0.00000000000E+00  0.50000499739E+01  0.50000500000E+01  0.51100000000E-03 0.  1.
         11   -1    0    0    0    0 -0.00000000000E+00 -0.00000000000E+00 -0.50000499739E+01  0.50000500000E+01  0.51100000000E-03 0. -1.
     100001    1    1    2    0    0 -0.84601610998E-02  0.87230376833E-02  0.18770636317E-01  0.50000500000E+01  0.50000000000E+01 0.  1.
     100001    1    1    2    0    0  0.84601610998E-02 -0.87230376833E-02 -0.18770636317E-01  0.50000500000E+01  0.50000000000E+01 0. -1.
</event>
<event>
 4    1  0.5008549E-001  0.5000050E+01  0.7818608E-02  0.2136455E+00
        -11   -1    0    0    0    0  0.00000000000E+00  0.00000000000E+00  0.50000499739E+01  0.50000500000E+01  0.51100000000E-03 0.  1.
         11   -1    0    0    0    0 -0.00000000000E+00 -0.00000000000E+00 -0.50000499739E+01  0.50000500000E+01  0.51100000000E-03 0. -1.
     100001    1    1    2    0    0 -0.12010154712E-01 -0.18478417595E-01 -0.37824287156E-02  0.50000500000E+01  0.50000000000E+01 0. -1.
     100001    1    1    2    0    0  0.12010154712E-01  0.18478417595E-01  0.37824287156E-02  0.50000500000E+01  0.50000000000E+01 0.  1.
</event>
<event>
 4    1  0.1787930E+000  0.5000050E+01  0.7818608E-02  0.2136455E+00
        -11   -1    0    0    0    0  0.00000000000E+00  0.00000000000E+00  0.50000499739E+01  0.50000500000E+01  0.51100000000E-03 0.  1.
         11   -1    0    0    0    0 -0.00000000000E+00 -0.00000000000E+00 -0.50000499739E+01  0.50000500000E+01  0.51100000000E-03 0. -1.
     100001    1    1    2    0    0  0.41541291777E-02 -0.89761746351E-03  0.21953131751E-01  0.50000500000E+01  0.50000000000E+01 0.  1.
     100001    1    1    2    0    0 -0.41541291777E-02  0.89761746351E-03 -0.21953131751E-01  0.50000500000E+01  0.50000000000E+01 0.  0.
</event>
<event>
 4    1  0.5008549E-001  0.5000050E+01  0.7818608E-02  0.2136455E+00
        -11   -1    0    0    0    0  0.00000000000E+00  0.00000000000E+00  0.50000499739E+01  0.50000500000E+01  0.51100000000E-03 0. -1.
         11   -1    0    0    0    0 -0.00000000000E+00 -0.00000000000E+00 -0.50000499739E+01  0.50000500000E+01  0.51100000000E-03 0.  1.
     100001    1    1    2    0    0 -0.20492332063E-02 -0.21968696559E-01 -0.36303601451E-02  0.50000500000E+01  0.50000000000E+01 0. -1.
     100001    1    1    2    0    0  0.20492332063E-02  0.21968696559E-01  0.36303601451E-02  0.50000500000E+01  0.50000000000E+01 0.  1.
</event>
<event>
 4    1  0.5008549E-001  0.5000050E+01  0.7818608E-02  0.2136455E+00
        -11   -1    0    0    0    0  0.00000000000E+00  0.00000000000E+00  0.50000499739E+01  0.50000500000E+01  0.51100000000E-03 0.  1.
         11   -1    0    0    0    0 -0.00000000000E+00 -0.00000000000E+00 -0.50000499739E+01  0.50000500000E+01  0.51100000000E-03 0. -1.
     100001    1    1    2    0    0  0.21735573506E-01  0.11270271411E-02 -0.51280750936E-02  0.50000500000E+01  0.50000000000E+01 0.  0.
     100001    1    1    2    0    0 -0.21735573506E-01 -0.11270271411E-02  0.51280750936E-02  0.50000500000E+01  0.50000000000E+01 0. -1.
</event>
<event>
 4    1  0.5008549E-001  0.5000050E+01  0.7818608E-02  0.2136455E+00
        -11   -1    0    0    0    0  0.00000000000E+00  0.00000000000E+00  0.50000499739E+01  0.50000500000E+01  0.51100000000E-03 0. -1.
         11   -1    0    0    0    0 -0.00000000000E+00 -0.00000000000E+00 -0.50000499739E+01  0.50000500000E+01  0.51100000000E-03 0.  1.
     100001    1    1    2    0    0  0.53124958137E-02  0.21476605006E-01 -0.32458166402E-02  0.50000500000E+01  0.50000000000E+01 0.  1.
     100001    1    1    2    0    0 -0.53124958137E-02 -0.21476605006E-01  0.32458166402E-02  0.50000500000E+01  0.50000000000E+01 0. -1.
</event>
<event>
 4    1  0.5008549E-001  0.5000050E+01  0.7818608E-02  0.2136455E+00
        -11   -1    0    0    0    0  0.00000000000E+00  0.00000000000E+00  0.50000499739E+01  0.50000500000E+01  0.51100000000E-03 0. -1.
         11   -1    0    0    0    0 -0.00000000000E+00 -0.00000000000E+00 -0.50000499739E+01  0.50000500000E+01  0.51100000000E-03 0.  1.
     100001    1    1    2    0    0  0.14378604129E-01  0.58044574528E-02 -0.16111068151E-01  0.50000500000E+01  0.50000000000E+01 0. -1.
     100001    1    1    2    0    0 -0.14378604129E-01 -0.58044574528E-02  0.16111068151E-01  0.50000500000E+01  0.50000000000E+01 0. -1.
</event>
<event>
 4    1  0.5008549E-001  0.5000050E+01  0.7818608E-02  0.2136455E+00
        -11   -1    0    0    0    0  0.00000000000E+00  0.00000000000E+00  0.50000499739E+01  0.50000500000E+01  0.51100000000E-03 0. -1.
         11   -1    0    0    0    0 -0.00000000000E+00 -0.00000000000E+00 -0.50000499739E+01  0.50000500000E+01  0.51100000000E-03 0.  1.
     100001    1    1    2    0    0 -0.14368364905E-01  0.12435439921E-01  0.11786111484E-01  0.50000500000E+01  0.50000000000E+01 0. -1.
     100001    1    1    2    0    0  0.14368364905E-01 -0.12435439921E-01 -0.11786111484E-01  0.50000500000E+01  0.50000000000E+01 0.  1.
</event>
<event>
 4    1  0.5008549E-001  0.5000050E+01  0.7818608E-02  0.2136455E+00
        -11   -1    0    0    0    0  0.00000000000E+00  0.00000000000E+00  0.50000499739E+01  0.50000500000E+01  0.51100000000E-03 0.  1.
         11   -1    0    0    0    0 -0.00000000000E+00 -0.00000000000E+00 -0.50000499739E+01  0.50000500000E+01  0.51100000000E-03 0. -1.
     100001    1    1    2    0    0 -0.19585870111E-02 -0.12085908659E-01  0.18710885837E-01  0.50000500000E+01  0.50000000000E+01 0.  1.
     100001    1    1    2    0    0  0.19585870111E-02  0.12085908659E-01 -0.18710885837E-01  0.50000500000E+01  0.50000000000E+01 0.  0.
</event>
<event>
 4    1  0.5008549E-001  0.5000050E+01  0.7818608E-02  0.2136455E+00
        -11   -1    0    0    0    0  0.00000000000E+00  0.00000000000E+00  0.50000499739E+01  0.50000500000E+01  0.51100000000E-03 0.  1.
         11   -1    0    0    0    0 -0.00000000000E+00 -0.00000000000E+00 -0.50000499739E+01  0.50000500000E+01  0.51100000000E-03 0. -1.
     100001    1    1    2    0    0 -0.18434523696E-01 -0.25248257427E-02 -0.12401455200E-01  0.50000500000E+01  0.50000000000E+01 0.  1.
     100001    1    1    2    0    0  0.18434523696E-01  0.25248257427E-02  0.12401455200E-01  0.50000500000E+01  0.50000000000E+01 0.  0.
</event>
<event>
 4    1  0.5008549E-001  0.5000050E+01  0.7818608E-02  0.2136455E+00
        -11   -1    0    0    0    0  0.00000000000E+00  0.00000000000E+00  0.50000499739E+01  0.50000500000E+01  0.51100000000E-03 0.  1.
         11   -1    0    0    0    0 -0.00000000000E+00 -0.00000000000E+00 -0.50000499739E+01  0.50000500000E+01  0.51100000000E-03 0. -1.
     100001    1    1    2    0    0 -0.12864130815E-01 -0.18098667411E-01  0.26372099486E-02  0.50000500000E+01  0.50000000000E+01 0.  0.
     100001    1    1    2    0    0  0.12864130815E-01  0.18098667411E-01 -0.26372099486E-02  0.50000500000E+01  0.50000000000E+01 0. -1.
</event>
<event>
 4    1  0.5008549E-001  0.5000050E+01  0.7818608E-02  0.2136455E+00
        -11   -1    0    0    0    0  0.00000000000E+00  0.00000000000E+00  0.50000499739E+01  0.50000500000E+01  0.51100000000E-03 0. -1.
         11   -1    0    0    0    0 -0.00000000000E+00 -0.00000000000E+00 -0.50000499739E+01  0.50000500000E+01  0.51100000000E-03 0.  1.
     100001    1    1    2    0    0  0.19169897875E-01 -0.10199457502E-01 -0.53374696369E-02  0.50000500000E+01  0.50000000000E+01 0. -1.
     100001    1    1    2    0    0 -0.19169897875E-01  0.10199457502E-01  0.53374696369E-02  0.50000500000E+01  0.50000000000E+01 0.  0.
</event>
<event>
 4    1  0.5008549E-001  0.5000050E+01  0.7818608E-02  0.2136455E+00
        -11   -1    0    0    0    0  0.00000000000E+00  0.00000000000E+00  0.50000499739E+01  0.50000500000E+01  0.51100000000E-03 0.  1.
         11   -1    0    0    0    0 -0.00000000000E+00 -0.00000000000E+00 -0.50000499739E+01  0.50000500000E+01  0.51100000000E-03 0. -1.
     100001    1    1    2    0    0 -0.72350123118E-02  0.20143051606E-01  0.64741461879E-02  0.50000500000E+01  0.50000000000E+01 0.  1.
     100001    1    1    2    0    0  0.72350123118E-02 -0.20143051606E-01 -0.64741461879E-02  0.50000500000E+01  0.50000000000E+01 0. -1.
</event>
<event>
 4    1  0.5008549E-001  0.5000050E+01  0.7818608E-02  0.2136455E+00
        -11   -1    0    0    0    0  0.00000000000E+00  0.00000000000E+00  0.50000499739E+01  0.50000500000E+01  0.51100000000E-03 0. -1.
         11   -1    0    0    0    0 -0.00000000000E+00 -0.00000000000E+00 -0.50000499739E+01  0.50000500000E+01  0.51100000000E-03 0.  1.
     100001    1    1    2    0    0 -0.19341144091E-01  0.56416505773E-02  0.97002280395E-02  0.50000500000E+01  0.50000000000E+01 0. -1.
     100001    1    1    2    0    0  0.19341144091E-01 -0.56416505773E-02 -0.97002280395E-02  0.50000500000E+01  0.50000000000E+01 0. -1.
</event>
<event>
 4    1  0.5008549E-001  0.5000050E+01  0.7818608E-02  0.2136455E+00
        -11   -1    0    0    0    0  0.00000000000E+00  0.00000000000E+00  0.50000499739E+01  0.50000500000E+01  0.51100000000E-03 0.  1.
         11   -1    0    0    0    0 -0.00000000000E+00 -0.00000000000E+00 -0.50000499739E+01  0.50000500000E+01  0.51100000000E-03 0. -1.
     100001    1    1    2    0    0 -0.13155884626E-01  0.17059390824E-01  0.59918598456E-02  0.50000500000E+01  0.50000000000E+01 0.  1.
     100001    1    1    2    0    0  0.13155884626E-01 -0.17059390824E-01 -0.59918598456E-02  0.50000500000E+01  0.50000000000E+01 0. -1.
</event>
<event>
 4    1  0.5008549E-001  0.5000050E+01  0.7818608E-02  0.2136455E+00
        -11   -1    0    0    0    0  0.00000000000E+00  0.00000000000E+00  0.50000499739E+01  0.50000500000E+01  0.51100000000E-03 0.  1.
         11   -1    0    0    0    0 -0.00000000000E+00 -0.00000000000E+00 -0.50000499739E+01  0.50000500000E+01  0.51100000000E-03 0. -1.
     100001    1    1    2    0    0  0.18276997583E-01 -0.91075281420E-02  0.91108062490E-02  0.50000500000E+01  0.50000000000E+01 0.  0.
     100001    1    1    2    0    0 -0.18276997583E-01  0.91075281420E-02 -0.91108062490E-02  0.50000500000E+01  0.50000000000E+01 0.  0.
</event>
<event>
 4    1  0.5008549E-001  0.5000050E+01  0.7818608E-02  0.2136455E+00
        -11   -1    0    0    0    0  0.00000000000E+00  0.00000000000E+00  0.50000499739E+01  0.50000500000E+01  0.51100000000E-03 0.  1.
         11   -1    0    0    0    0 -0.00000000000E+00 -0.00000000000E+00 -0.50000499739E+01  0.50000500000E+01  0.51100000000E-03 0. -1.
     100001    1    1    2    0    0 -0.10503940250E-01 -0.94629279611E-02  0.17324050728E-01  0.50000500000E+01  0.50000000000E+01 0.  0.
     100001    1    1    2    0    0  0.10503940250E-01  0.94629279611E-02 -0.17324050728E-01  0.50000500000E+01  0.50000000000E+01 0. -1.
</event>
<event>
 4    1  0.5008549E-001  0.5000050E+01  0.7818608E-02  0.2136455E+00
        -11   -1    0    0    0    0  0.00000000000E+00  0.00000000000E+00  0.50000499739E+01  0.50000500000E+01  0.51100000000E-03 0.  1.
         11   -1    0    0    0    0 -0.00000000000E+00 -0.00000000000E+00 -0.50000499739E+01  0.50000500000E+01  0.51100000000E-03 0. -1.
     100001    1    1    2    0    0 -0.12751368375E-01  0.40725435912E-02 -0.17911434707E-01  0.50000500000E+01  0.50000000000E+01 0. -1.
     100001    1    1    2    0    0  0.12751368375E-01 -0.40725435912E-02  0.17911434707E-01  0.50000500000E+01  0.50000000000E+01 0.  0.
</event>
<event>
 4    1  0.5008549E-001  0.5000050E+01  0.7818608E-02  0.2136455E+00
        -11   -1    0    0    0    0  0.00000000000E+00  0.00000000000E+00  0.50000499739E+01  0.50000500000E+01  0.51100000000E-03 0.  1.
         11   -1    0    0    0    0 -0.00000000000E+00 -0.00000000000E+00 -0.50000499739E+01  0.50000500000E+01  0.51100000000E-03 0. -1.
     100001    1    1    2    0    0  0.67168545651E-02  0.15929177019E-01  0.14182654344E-01  0.50000500000E+01  0.50000000000E+01 0.  0.
     100001    1    1    2    0    0 -0.67168545651E-02 -0.15929177019E-01 -0.14182654344E-01  0.50000500000E+01  0.50000000000E+01 0.  0.
</event>
<event>
 4    1  0.5008549E-001  0.5000050E+01  0.7818608E-02  0.2136455E+00
        -11   -1    0    0    0    0  0.00000000000E+00  0.00000000000E+00  0.50000499739E+01  0.50000500000E+01  0.51100000000E-03 0. -1.
         11   -1    0    0    0    0 -0.00000000000E+00 -0.00000000000E+00 -0.50000499739E+01  0.50000500000E+01  0.51100000000E-03 0.  1.
     100001    1    1    2    0    0 -0.18574658301E-01 -0.98282777708E-02 -0.76413038835E-02  0.50000500000E+01  0.50000000000E+01 0.  1.
     100001    1    1    2    0    0  0.18574658301E-01  0.98282777708E-02  0.76413038835E-02  0.50000500000E+01  0.50000000000E+01 0.  1.
</event>
<event>
 4    1  0.1781186E+000  0.5000050E+01  0.7818608E-02  0.2136455E+00
        -11   -1    0    0    0    0  0.00000000000E+00  0.00000000000E+00  0.50000499739E+01  0.50000500000E+01  0.51100000000E-03 0.  1.
         11   -1    0    0    0    0 -0.00000000000E+00 -0.00000000000E+00 -0.50000499739E+01  0.50000500000E+01  0.51100000000E-03 0. -1.
     100001    1    1    2    0    0 -0.23927572776E-02 -0.94992944218E-03  0.22212042830E-01  0.50000500000E+01  0.50000000000E+01 0.  1.
     100001    1    1    2    0    0  0.23927572776E-02  0.94992944218E-03 -0.22212042830E-01  0.50000500000E+01  0.50000000000E+01 0.  0.
</event>
<event>
 4    1  0.5008549E-001  0.5000050E+01  0.7818608E-02  0.2136455E+00
        -11   -1    0    0    0    0  0.00000000000E+00  0.00000000000E+00  0.50000499739E+01  0.50000500000E+01  0.51100000000E-03 0. -1.
         11   -1    0    0    0    0 -0.00000000000E+00 -0.00000000000E+00 -0.50000499739E+01  0.50000500000E+01  0.51100000000E-03 0.  1.
     100001    1    1    2    0    0  0.65626307688E-02 -0.11509152618E-01  0.18013155843E-01  0.50000500000E+01  0.50000000000E+01 0.  0.
     100001    1    1    2    0    0 -0.65626307688E-02  0.11509152618E-01 -0.18013155843E-01  0.50000500000E+01  0.50000000000E+01 0.  0.
</event>
<event>
 4    1  0.5008549E-001  0.5000050E+01  0.7818608E-02  0.2136455E+00
        -11   -1    0    0    0    0  0.00000000000E+00  0.00000000000E+00  0.50000499739E+01  0.50000500000E+01  0.51100000000E-03 0. -1.
         11   -1    0    0    0    0 -0.00000000000E+00 -0.00000000000E+00 -0.50000499739E+01  0.50000500000E+01  0.51100000000E-03 0.  1.
     100001    1    1    2    0    0  0.11470238015E-01  0.57197167582E-02 -0.18322690307E-01  0.50000500000E+01  0.50000000000E+01 0.  0.
     100001    1    1    2    0    0 -0.11470238015E-01 -0.57197167582E-02  0.18322690307E-01  0.50000500000E+01  0.50000000000E+01 0.  0.
</event>
<event>
 4    1  0.5008549E-001  0.5000050E+01  0.7818608E-02  0.2136455E+00
        -11   -1    0    0    0    0  0.00000000000E+00  0.00000000000E+00  0.50000499739E+01  0.50000500000E+01  0.51100000000E-03 0. -1.
         11   -1    0    0    0    0 -0.00000000000E+00 -0.00000000000E+00 -0.50000499739E+01  0.50000500000E+01  0.51100000000E-03 0.  1.
     100001    1    1    2    0    0  0.89547435985E-02 -0.17733272290E-01  0.10263825844E-01  0.50000500000E+01  0.50000000000E+01 0.  1.
     100001    1    1    2    0    0 -0.89547435985E-02  0.17733272290E-01 -0.10263825844E-01  0.50000500000E+01  0.50000000000E+01 0.  1.
</event>
<event>
 4    1  0.5008549E-001  0.5000050E+01  0.7818608E-02  0.2136455E+00
        -11   -1    0    0    0    0  0.00000000000E+00  0.00000000000E+00  0.50000499739E+01  0.50000500000E+01  0.51100000000E-03 0. -1.
         11   -1    0    0    0    0 -0.00000000000E+00 -0.00000000000E+00 -0.50000499739E+01  0.50000500000E+01  0.51100000000E-03 0.  1.
     100001    1    1    2    0    0  0.15847052574E-01 -0.18489142083E-02  0.15667001658E-01  0.50000500000E+01  0.50000000000E+01 0. -1.
     100001    1    1    2    0    0 -0.15847052574E-01  0.18489142083E-02 -0.15667001658E-01  0.50000500000E+01  0.50000000000E+01 0.  1.
</event>
<event>
 4    1  0.5008549E-001  0.5000050E+01  0.7818608E-02  0.2136455E+00
        -11   -1    0    0    0    0  0.00000000000E+00  0.00000000000E+00  0.50000499739E+01  0.50000500000E+01  0.51100000000E-03 0. -1.
         11   -1    0    0    0    0 -0.00000000000E+00 -0.00000000000E+00 -0.50000499739E+01  0.50000500000E+01  0.51100000000E-03 0.  1.
     100001    1    1    2    0    0  0.56282981227E-02  0.18580172580E-01 -0.11095131687E-01  0.50000500000E+01  0.50000000000E+01 0. -1.
     100001    1    1    2    0    0 -0.56282981227E-02 -0.18580172580E-01  0.11095131687E-01  0.50000500000E+01  0.50000000000E+01 0. -1.
</event>
<event>
 4    1  0.5008549E-001  0.5000050E+01  0.7818608E-02  0.2136455E+00
        -11   -1    0    0    0    0  0.00000000000E+00  0.00000000000E+00  0.50000499739E+01  0.50000500000E+01  0.51100000000E-03 0.  1.
         11   -1    0    0    0    0 -0.00000000000E+00 -0.00000000000E+00 -0.50000499739E+01  0.50000500000E+01  0.51100000000E-03 0. -1.
     100001    1    1    2    0    0 -0.14591721563E-01 -0.61106044752E-02  0.15803312145E-01  0.50000500000E+01  0.50000000000E+01 0.  1.
     100001    1    1    2    0    0  0.14591721563E-01  0.61106044752E-02 -0.15803312145E-01  0.50000500000E+01  0.50000000000E+01 0. -1.
</event>
<event>
 4    1  0.5008549E-001  0.5000050E+01  0.7818608E-02  0.2136455E+00
        -11   -1    0    0    0    0  0.00000000000E+00  0.00000000000E+00  0.50000499739E+01  0.50000500000E+01  0.51100000000E-03 0. -1.
         11   -1    0    0    0    0 -0.00000000000E+00 -0.00000000000E+00 -0.50000499739E+01  0.50000500000E+01  0.51100000000E-03 0.  1.
     100001    1    1    2    0    0  0.89063690265E-02  0.19001678975E-01 -0.77210936336E-02  0.50000500000E+01  0.50000000000E+01 0.  1.
     100001    1    1    2    0    0 -0.89063690265E-02 -0.19001678975E-01  0.77210936336E-02  0.50000500000E+01  0.50000000000E+01 0.  1.
</event>
<event>
 4    1  0.5008549E-001  0.5000050E+01  0.7818608E-02  0.2136455E+00
        -11   -1    0    0    0    0  0.00000000000E+00  0.00000000000E+00  0.50000499739E+01  0.50000500000E+01  0.51100000000E-03 0. -1.
         11   -1    0    0    0    0 -0.00000000000E+00 -0.00000000000E+00 -0.50000499739E+01  0.50000500000E+01  0.51100000000E-03 0.  1.
     100001    1    1    2    0    0 -0.15872845077E-01  0.14080766770E-01  0.70560113614E-02  0.50000500000E+01  0.50000000000E+01 0. -1.
     100001    1    1    2    0    0  0.15872845077E-01 -0.14080766770E-01 -0.70560113614E-02  0.50000500000E+01  0.50000000000E+01 0.  1.
</event>
<event>
 4    1  0.5008549E-001  0.5000050E+01  0.7818608E-02  0.2136455E+00
        -11   -1    0    0    0    0  0.00000000000E+00  0.00000000000E+00  0.50000499739E+01  0.50000500000E+01  0.51100000000E-03 0.  1.
         11   -1    0    0    0    0 -0.00000000000E+00 -0.00000000000E+00 -0.50000499739E+01  0.50000500000E+01  0.51100000000E-03 0. -1.
     100001    1    1    2    0    0  0.11609847541E-01 -0.16289283222E-01 -0.99936575987E-02  0.50000500000E+01  0.50000000000E+01 0. -1.
     100001    1    1    2    0    0 -0.11609847541E-01  0.16289283222E-01  0.99936575987E-02  0.50000500000E+01  0.50000000000E+01 0.  1.
</event>
<event>
 4    1  0.5008549E-001  0.5000050E+01  0.7818608E-02  0.2136455E+00
        -11   -1    0    0    0    0  0.00000000000E+00  0.00000000000E+00  0.50000499739E+01  0.50000500000E+01  0.51100000000E-03 0. -1.
         11   -1    0    0    0    0 -0.00000000000E+00 -0.00000000000E+00 -0.50000499739E+01  0.50000500000E+01  0.51100000000E-03 0.  1.
     100001    1    1    2    0    0  0.18351834865E-01 -0.12617098144E-01 -0.20053656812E-02  0.50000500000E+01  0.50000000000E+01 0. -1.
     100001    1    1    2    0    0 -0.18351834865E-01  0.12617098144E-01  0.20053656812E-02  0.50000500000E+01  0.50000000000E+01 0.  0.
</event>
<event>
 4    1  0.5008549E-001  0.5000050E+01  0.7818608E-02  0.2136455E+00
        -11   -1    0    0    0    0  0.00000000000E+00  0.00000000000E+00  0.50000499739E+01  0.50000500000E+01  0.51100000000E-03 0.  1.
         11   -1    0    0    0    0 -0.00000000000E+00 -0.00000000000E+00 -0.50000499739E+01  0.50000500000E+01  0.51100000000E-03 0. -1.
     100001    1    1    2    0    0 -0.21906676300E-01  0.56869137776E-03  0.44470915891E-02  0.50000500000E+01  0.50000000000E+01 0. -1.
     100001    1    1    2    0    0  0.21906676300E-01 -0.56869137776E-03 -0.44470915891E-02  0.50000500000E+01  0.50000000000E+01 0.  1.
</event>
<event>
 4    1  0.5008549E-001  0.5000050E+01  0.7818608E-02  0.2136455E+00
        -11   -1    0    0    0    0  0.00000000000E+00  0.00000000000E+00  0.50000499739E+01  0.50000500000E+01  0.51100000000E-03 0.  1.
         11   -1    0    0    0    0 -0.00000000000E+00 -0.00000000000E+00 -0.50000499739E+01  0.50000500000E+01  0.51100000000E-03 0. -1.
     100001    1    1    2    0    0 -0.15636398871E-01  0.15889151975E-01 -0.17436685051E-02  0.50000500000E+01  0.50000000000E+01 0. -1.
     100001    1    1    2    0    0  0.15636398871E-01 -0.15889151975E-01  0.17436685051E-02  0.50000500000E+01  0.50000000000E+01 0.  0.
</event>
<event>
 4    1  0.5008549E-001  0.5000050E+01  0.7818608E-02  0.2136455E+00
        -11   -1    0    0    0    0  0.00000000000E+00  0.00000000000E+00  0.50000499739E+01  0.50000500000E+01  0.51100000000E-03 0. -1.
         11   -1    0    0    0    0 -0.00000000000E+00 -0.00000000000E+00 -0.50000499739E+01  0.50000500000E+01  0.51100000000E-03 0.  1.
     100001    1    1    2    0    0  0.12625242271E-03 -0.17679768698E-01  0.13689862640E-01  0.50000500000E+01  0.50000000000E+01 0.  0.
     100001    1    1    2    0    0 -0.12625242271E-03  0.17679768698E-01 -0.13689862640E-01  0.50000500000E+01  0.50000000000E+01 0.  0.
</event>
<event>
 4    1  0.5008549E-001  0.5000050E+01  0.7818608E-02  0.2136455E+00
        -11   -1    0    0    0    0  0.00000000000E+00  0.00000000000E+00  0.50000499739E+01  0.50000500000E+01  0.51100000000E-03 0.  1.
         11   -1    0    0    0    0 -0.00000000000E+00 -0.00000000000E+00 -0.50000499739E+01  0.50000500000E+01  0.51100000000E-03 0. -1.
     100001    1    1    2    0    0  0.16314433840E-01 -0.33231350673E-02  0.14926437009E-01  0.50000500000E+01  0.50000000000E+01 0.  1.
     100001    1    1    2    0    0 -0.16314433840E-01  0.33231350673E-02 -0.14926437009E-01  0.50000500000E+01  0.50000000000E+01 0. -1.
</event>
<event>
 4    1  0.5008549E-001  0.5000050E+01  0.7818608E-02  0.2136455E+00
        -11   -1    0    0    0    0  0.00000000000E+00  0.00000000000E+00  0.50000499739E+01  0.50000500000E+01  0.51100000000E-03 0.  1.
         11   -1    0    0    0    0 -0.00000000000E+00 -0.00000000000E+00 -0.50000499739E+01  0.50000500000E+01  0.51100000000E-03 0. -1.
     100001    1    1    2    0    0  0.14156207670E-02 -0.21631105829E-01  0.54857796587E-02  0.50000500000E+01  0.50000000000E+01 0.  1.
     100001    1    1    2    0    0 -0.14156207670E-02  0.21631105829E-01 -0.54857796587E-02  0.50000500000E+01  0.50000000000E+01 0. -1.
</event>
<event>
 4    1  0.5008549E-001  0.5000050E+01  0.7818608E-02  0.2136455E+00
        -11   -1    0    0    0    0  0.00000000000E+00  0.00000000000E+00  0.50000499739E+01  0.50000500000E+01  0.51100000000E-03 0.  1.
         11   -1    0    0    0    0 -0.00000000000E+00 -0.00000000000E+00 -0.50000499739E+01  0.50000500000E+01  0.51100000000E-03 0. -1.
     100001    1    1    2    0    0  0.15852277466E-01 -0.46344244241E-02  0.15074147053E-01  0.50000500000E+01  0.50000000000E+01 0.  1.
     100001    1    1    2    0    0 -0.15852277466E-01  0.46344244241E-02 -0.15074147053E-01  0.50000500000E+01  0.50000000000E+01 0. -1.
</event>
<event>
 4    1  0.5008549E-001  0.5000050E+01  0.7818608E-02  0.2136455E+00
        -11   -1    0    0    0    0  0.00000000000E+00  0.00000000000E+00  0.50000499739E+01  0.50000500000E+01  0.51100000000E-03 0. -1.
         11   -1    0    0    0    0 -0.00000000000E+00 -0.00000000000E+00 -0.50000499739E+01  0.50000500000E+01  0.51100000000E-03 0.  1.
     100001    1    1    2    0    0 -0.19315916944E-01  0.90549716141E-02 -0.67011448029E-02  0.50000500000E+01  0.50000000000E+01 0.  1.
     100001    1    1    2    0    0  0.19315916944E-01 -0.90549716141E-02  0.67011448029E-02  0.50000500000E+01  0.50000000000E+01 0. -1.
</event>
<event>
 4    1  0.5008549E-001  0.5000050E+01  0.7818608E-02  0.2136455E+00
        -11   -1    0    0    0    0  0.00000000000E+00  0.00000000000E+00  0.50000499739E+01  0.50000500000E+01  0.51100000000E-03 0.  1.
         11   -1    0    0    0    0 -0.00000000000E+00 -0.00000000000E+00 -0.50000499739E+01  0.50000500000E+01  0.51100000000E-03 0. -1.
     100001    1    1    2    0    0 -0.10367183462E-01  0.35905288620E-02  0.19484150214E-01  0.50000500000E+01  0.50000000000E+01 0.  1.
     100001    1    1    2    0    0  0.10367183462E-01 -0.35905288620E-02 -0.19484150214E-01  0.50000500000E+01  0.50000000000E+01 0.  0.
</event>
<event>
 4    1  0.5008549E-001  0.5000050E+01  0.7818608E-02  0.2136455E+00
        -11   -1    0    0    0    0  0.00000000000E+00  0.00000000000E+00  0.50000499739E+01  0.50000500000E+01  0.51100000000E-03 0.  1.
         11   -1    0    0    0    0 -0.00000000000E+00 -0.00000000000E+00 -0.50000499739E+01  0.50000500000E+01  0.51100000000E-03 0. -1.
     100001    1    1    2    0    0 -0.46699530282E-02 -0.14770122656E-01  0.16125678759E-01  0.50000500000E+01  0.50000000000E+01 0.  0.
     100001    1    1    2    0    0  0.46699530282E-02  0.14770122656E-01 -0.16125678759E-01  0.50000500000E+01  0.50000000000E+01 0.  0.
</event>
<event>
 4    1  0.5008549E-001  0.5000050E+01  0.7818608E-02  0.2136455E+00
        -11   -1    0    0    0    0  0.00000000000E+00  0.00000000000E+00  0.50000499739E+01  0.50000500000E+01  0.51100000000E-03 0.  1.
         11   -1    0    0    0    0 -0.00000000000E+00 -0.00000000000E+00 -0.50000499739E+01  0.50000500000E+01  0.51100000000E-03 0. -1.
     100001    1    1    2    0    0 -0.77287473924E-02 -0.19588358579E-01  0.75209821122E-02  0.50000500000E+01  0.50000000000E+01 0.  1.
     100001    1    1    2    0    0  0.77287473924E-02  0.19588358579E-01 -0.75209821122E-02  0.50000500000E+01  0.50000000000E+01 0.  0.
</event>
<event>
 4    1  0.5008549E-001  0.5000050E+01  0.7818608E-02  0.2136455E+00
        -11   -1    0    0    0    0  0.00000000000E+00  0.00000000000E+00  0.50000499739E+01  0.50000500000E+01  0.51100000000E-03 0. -1.
         11   -1    0    0    0    0 -0.00000000000E+00 -0.00000000000E+00 -0.50000499739E+01  0.50000500000E+01  0.51100000000E-03 0.  1.
     100001    1    1    2    0    0  0.11052056238E-01  0.15940939793E-01 -0.11123892818E-01  0.50000500000E+01  0.50000000000E+01 0.  1.
     100001    1    1    2    0    0 -0.11052056238E-01 -0.15940939793E-01  0.11123892818E-01  0.50000500000E+01  0.50000000000E+01 0. -1.
</event>
<event>
 4    1  0.5008549E-001  0.5000050E+01  0.7818608E-02  0.2136455E+00
        -11   -1    0    0    0    0  0.00000000000E+00  0.00000000000E+00  0.50000499739E+01  0.50000500000E+01  0.51100000000E-03 0. -1.
         11   -1    0    0    0    0 -0.00000000000E+00 -0.00000000000E+00 -0.50000499739E+01  0.50000500000E+01  0.51100000000E-03 0.  1.
     100001    1    1    2    0    0 -0.41631365085E-02  0.11439812428E-01  0.18756371878E-01  0.50000500000E+01  0.50000000000E+01 0.  0.
     100001    1    1    2    0    0  0.41631365085E-02 -0.11439812428E-01 -0.18756371878E-01  0.50000500000E+01  0.50000000000E+01 0.  0.
</event>
<event>
 4    1  0.5008549E-001  0.5000050E+01  0.7818608E-02  0.2136455E+00
        -11   -1    0    0    0    0  0.00000000000E+00  0.00000000000E+00  0.50000499739E+01  0.50000500000E+01  0.51100000000E-03 0.  1.
         11   -1    0    0    0    0 -0.00000000000E+00 -0.00000000000E+00 -0.50000499739E+01  0.50000500000E+01  0.51100000000E-03 0. -1.
     100001    1    1    2    0    0  0.17897668597E-01  0.13391260085E-01  0.59170271045E-03  0.50000500000E+01  0.50000000000E+01 0. -1.
     100001    1    1    2    0    0 -0.17897668597E-01 -0.13391260085E-01 -0.59170271045E-03  0.50000500000E+01  0.50000000000E+01 0.  1.
</event>
<event>
 4    1  0.5008549E-001  0.5000050E+01  0.7818608E-02  0.2136455E+00
        -11   -1    0    0    0    0  0.00000000000E+00  0.00000000000E+00  0.50000499739E+01  0.50000500000E+01  0.51100000000E-03 0. -1.
         11   -1    0    0    0    0 -0.00000000000E+00 -0.00000000000E+00 -0.50000499739E+01  0.50000500000E+01  0.51100000000E-03 0.  1.
     100001    1    1    2    0    0  0.81564451843E-02 -0.79367213084E-02  0.19247944223E-01  0.50000500000E+01  0.50000000000E+01 0.  0.
     100001    1    1    2    0    0 -0.81564451843E-02  0.79367213084E-02 -0.19247944223E-01  0.50000500000E+01  0.50000000000E+01 0.  1.
</event>
<event>
 4    1  0.5008549E-001  0.5000050E+01  0.7818608E-02  0.2136455E+00
        -11   -1    0    0    0    0  0.00000000000E+00  0.00000000000E+00  0.50000499739E+01  0.50000500000E+01  0.51100000000E-03 0. -1.
         11   -1    0    0    0    0 -0.00000000000E+00 -0.00000000000E+00 -0.50000499739E+01  0.50000500000E+01  0.51100000000E-03 0.  1.
     100001    1    1    2    0    0 -0.16901953339E-01  0.87297357263E-02  0.11752369441E-01  0.50000500000E+01  0.50000000000E+01 0. -1.
     100001    1    1    2    0    0  0.16901953339E-01 -0.87297357263E-02 -0.11752369441E-01  0.50000500000E+01  0.50000000000E+01 0.  1.
</event>
<event>
 4    1  0.5008549E-001  0.5000050E+01  0.7818608E-02  0.2136455E+00
        -11   -1    0    0    0    0  0.00000000000E+00  0.00000000000E+00  0.50000499739E+01  0.50000500000E+01  0.51100000000E-03 0. -1.
         11   -1    0    0    0    0 -0.00000000000E+00 -0.00000000000E+00 -0.50000499739E+01  0.50000500000E+01  0.51100000000E-03 0.  1.
     100001    1    1    2    0    0 -0.14788693123E-01  0.89533314709E-03 -0.16747997918E-01  0.50000500000E+01  0.50000000000E+01 0.  0.
     100001    1    1    2    0    0  0.14788693123E-01 -0.89533314709E-03  0.16747997918E-01  0.50000500000E+01  0.50000000000E+01 0.  0.
</event>
<event>
 4    1  0.5008549E-001  0.5000050E+01  0.7818608E-02  0.2136455E+00
        -11   -1    0    0    0    0  0.00000000000E+00  0.00000000000E+00  0.50000499739E+01  0.50000500000E+01  0.51100000000E-03 0.  1.
         11   -1    0    0    0    0 -0.00000000000E+00 -0.00000000000E+00 -0.50000499739E+01  0.50000500000E+01  0.51100000000E-03 0. -1.
     100001    1    1    2    0    0  0.12808439410E-01 -0.11197641600E-01  0.14510658237E-01  0.50000500000E+01  0.50000000000E+01 0.  1.
     100001    1    1    2    0    0 -0.12808439410E-01  0.11197641600E-01 -0.14510658237E-01  0.50000500000E+01  0.50000000000E+01 0. -1.
</event>
<event>
 4    1  0.5008549E-001  0.5000050E+01  0.7818608E-02  0.2136455E+00
        -11   -1    0    0    0    0  0.00000000000E+00  0.00000000000E+00  0.50000499739E+01  0.50000500000E+01  0.51100000000E-03 0. -1.
         11   -1    0    0    0    0 -0.00000000000E+00 -0.00000000000E+00 -0.50000499739E+01  0.50000500000E+01  0.51100000000E-03 0.  1.
     100001    1    1    2    0    0  0.36708232748E-02 -0.50454615960E-02  0.21472560950E-01  0.50000500000E+01  0.50000000000E+01 0. -1.
     100001    1    1    2    0    0 -0.36708232748E-02  0.50454615960E-02 -0.21472560950E-01  0.50000500000E+01  0.50000000000E+01 0.  0.
</event>
<event>
 4    1  0.5008549E-001  0.5000050E+01  0.7818608E-02  0.2136455E+00
        -11   -1    0    0    0    0  0.00000000000E+00  0.00000000000E+00  0.50000499739E+01  0.50000500000E+01  0.51100000000E-03 0.  1.
         11   -1    0    0    0    0 -0.00000000000E+00 -0.00000000000E+00 -0.50000499739E+01  0.50000500000E+01  0.51100000000E-03 0. -1.
     100001    1    1    2    0    0 -0.19994806232E-01  0.99483221061E-02 -0.11140516172E-02  0.50000500000E+01  0.50000000000E+01 0.  0.
     100001    1    1    2    0    0  0.19994806232E-01 -0.99483221061E-02  0.11140516172E-02  0.50000500000E+01  0.50000000000E+01 0.  1.
</event>
<event>
 4    1  0.5008549E-001  0.5000050E+01  0.7818608E-02  0.2136455E+00
        -11   -1    0    0    0    0  0.00000000000E+00  0.00000000000E+00  0.50000499739E+01  0.50000500000E+01  0.51100000000E-03 0. -1.
         11   -1    0    0    0    0 -0.00000000000E+00 -0.00000000000E+00 -0.50000499739E+01  0.50000500000E+01  0.51100000000E-03 0.  1.
     100001    1    1    2    0    0 -0.20723702817E-01 -0.65126926299E-02 -0.53024028769E-02  0.50000500000E+01  0.50000000000E+01 0.  0.
     100001    1    1    2    0    0  0.20723702817E-01  0.65126926299E-02  0.53024028769E-02  0.50000500000E+01  0.50000000000E+01 0.  1.
</event>
<event>
 4    1  0.5008549E-001  0.5000050E+01  0.7818608E-02  0.2136455E+00
        -11   -1    0    0    0    0  0.00000000000E+00  0.00000000000E+00  0.50000499739E+01  0.50000500000E+01  0.51100000000E-03 0. -1.
         11   -1    0    0    0    0 -0.00000000000E+00 -0.00000000000E+00 -0.50000499739E+01  0.50000500000E+01  0.51100000000E-03 0.  1.
     100001    1    1    2    0    0 -0.18601787476E-01 -0.98210612746E-02 -0.75843759228E-02  0.50000500000E+01  0.50000000000E+01 0.  1.
     100001    1    1    2    0    0  0.18601787476E-01  0.98210612746E-02  0.75843759228E-02  0.50000500000E+01  0.50000000000E+01 0. -1.
</event>
<event>
 4    1  0.5008549E-001  0.5000050E+01  0.7818608E-02  0.2136455E+00
        -11   -1    0    0    0    0  0.00000000000E+00  0.00000000000E+00  0.50000499739E+01  0.50000500000E+01  0.51100000000E-03 0.  1.
         11   -1    0    0    0    0 -0.00000000000E+00 -0.00000000000E+00 -0.50000499739E+01  0.50000500000E+01  0.51100000000E-03 0. -1.
     100001    1    1    2    0    0 -0.18776759402E-01 -0.96200138558E-03  0.12104146385E-01  0.50000500000E+01  0.50000000000E+01 0.  1.
     100001    1    1    2    0    0  0.18776759402E-01  0.96200138558E-03 -0.12104146385E-01  0.50000500000E+01  0.50000000000E+01 0.  1.
</event>
<event>
 4    1  0.5008549E-001  0.5000050E+01  0.7818608E-02  0.2136455E+00
        -11   -1    0    0    0    0  0.00000000000E+00  0.00000000000E+00  0.50000499739E+01  0.50000500000E+01  0.51100000000E-03 0.  1.
         11   -1    0    0    0    0 -0.00000000000E+00 -0.00000000000E+00 -0.50000499739E+01  0.50000500000E+01  0.51100000000E-03 0. -1.
     100001    1    1    2    0    0 -0.19908177087E-01  0.29880950831E-02 -0.97333587653E-02  0.50000500000E+01  0.50000000000E+01 0. -1.
     100001    1    1    2    0    0  0.19908177087E-01 -0.29880950831E-02  0.97333587653E-02  0.50000500000E+01  0.50000000000E+01 0.  1.
</event>
<event>
 4    1  0.5008549E-001  0.5000050E+01  0.7818608E-02  0.2136455E+00
        -11   -1    0    0    0    0  0.00000000000E+00  0.00000000000E+00  0.50000499739E+01  0.50000500000E+01  0.51100000000E-03 0.  1.
         11   -1    0    0    0    0 -0.00000000000E+00 -0.00000000000E+00 -0.50000499739E+01  0.50000500000E+01  0.51100000000E-03 0. -1.
     100001    1    1    2    0    0  0.43350575747E-02 -0.21347366987E-01 -0.50497226224E-02  0.50000500000E+01  0.50000000000E+01 0. -1.
     100001    1    1    2    0    0 -0.43350575747E-02  0.21347366987E-01  0.50497226224E-02  0.50000500000E+01  0.50000000000E+01 0.  1.
</event>
<event>
 4    1  0.5008549E-001  0.5000050E+01  0.7818608E-02  0.2136455E+00
        -11   -1    0    0    0    0  0.00000000000E+00  0.00000000000E+00  0.50000499739E+01  0.50000500000E+01  0.51100000000E-03 0.  1.
         11   -1    0    0    0    0 -0.00000000000E+00 -0.00000000000E+00 -0.50000499739E+01  0.50000500000E+01  0.51100000000E-03 0. -1.
     100001    1    1    2    0    0  0.89709894834E-02 -0.18389612849E-01  0.90192010161E-02  0.50000500000E+01  0.50000000000E+01 0. -1.
     100001    1    1    2    0    0 -0.89709894834E-02  0.18389612849E-01 -0.90192010161E-02  0.50000500000E+01  0.50000000000E+01 0.  0.
</event>
<event>
 4    1  0.5008549E-001  0.5000050E+01  0.7818608E-02  0.2136455E+00
        -11   -1    0    0    0    0  0.00000000000E+00  0.00000000000E+00  0.50000499739E+01  0.50000500000E+01  0.51100000000E-03 0.  1.
         11   -1    0    0    0    0 -0.00000000000E+00 -0.00000000000E+00 -0.50000499739E+01  0.50000500000E+01  0.51100000000E-03 0. -1.
     100001    1    1    2    0    0 -0.42235601044E-02 -0.26170572842E-02 -0.21801721290E-01  0.50000500000E+01  0.50000000000E+01 0.  0.
     100001    1    1    2    0    0  0.42235601044E-02  0.26170572842E-02  0.21801721290E-01  0.50000500000E+01  0.50000000000E+01 0.  1.
</event>
<event>
 4    1  0.5008549E-001  0.5000050E+01  0.7818608E-02  0.2136455E+00
        -11   -1    0    0    0    0  0.00000000000E+00  0.00000000000E+00  0.50000499739E+01  0.50000500000E+01  0.51100000000E-03 0. -1.
         11   -1    0    0    0    0 -0.00000000000E+00 -0.00000000000E+00 -0.50000499739E+01  0.50000500000E+01  0.51100000000E-03 0.  1.
     100001    1    1    2    0    0  0.12674573341E-01 -0.83893952929E-02  0.16400479787E-01  0.50000500000E+01  0.50000000000E+01 0.  0.
     100001    1    1    2    0    0 -0.12674573341E-01  0.83893952929E-02 -0.16400479787E-01  0.50000500000E+01  0.50000000000E+01 0. -1.
</event>
<event>
 4    1  0.5008549E-001  0.5000050E+01  0.7818608E-02  0.2136455E+00
        -11   -1    0    0    0    0  0.00000000000E+00  0.00000000000E+00  0.50000499739E+01  0.50000500000E+01  0.51100000000E-03 0. -1.
         11   -1    0    0    0    0 -0.00000000000E+00 -0.00000000000E+00 -0.50000499739E+01  0.50000500000E+01  0.51100000000E-03 0.  1.
     100001    1    1    2    0    0  0.11824548288E-01  0.11608657351E-01 -0.15014047832E-01  0.50000500000E+01  0.50000000000E+01 0.  1.
     100001    1    1    2    0    0 -0.11824548288E-01 -0.11608657351E-01  0.15014047832E-01  0.50000500000E+01  0.50000000000E+01 0. -1.
</event>
<event>
 4    1  0.5008549E-001  0.5000050E+01  0.7818608E-02  0.2136455E+00
        -11   -1    0    0    0    0  0.00000000000E+00  0.00000000000E+00  0.50000499739E+01  0.50000500000E+01  0.51100000000E-03 0. -1.
         11   -1    0    0    0    0 -0.00000000000E+00 -0.00000000000E+00 -0.50000499739E+01  0.50000500000E+01  0.51100000000E-03 0.  1.
     100001    1    1    2    0    0 -0.38299729802E-02  0.21922594147E-01  0.21757005404E-02  0.50000500000E+01  0.50000000000E+01 0. -1.
     100001    1    1    2    0    0  0.38299729802E-02 -0.21922594147E-01 -0.21757005404E-02  0.50000500000E+01  0.50000000000E+01 0.  1.
</event>
<event>
 4    1  0.5008549E-001  0.5000050E+01  0.7818608E-02  0.2136455E+00
        -11   -1    0    0    0    0  0.00000000000E+00  0.00000000000E+00  0.50000499739E+01  0.50000500000E+01  0.51100000000E-03 0. -1.
         11   -1    0    0    0    0 -0.00000000000E+00 -0.00000000000E+00 -0.50000499739E+01  0.50000500000E+01  0.51100000000E-03 0.  1.
     100001    1    1    2    0    0  0.14226095754E-02 -0.58877367602E-02  0.21524712259E-01  0.50000500000E+01  0.50000000000E+01 0. -1.
     100001    1    1    2    0    0 -0.14226095754E-02  0.58877367602E-02 -0.21524712259E-01  0.50000500000E+01  0.50000000000E+01 0.  0.
</event>
<event>
 4    1  0.5008549E-001  0.5000050E+01  0.7818608E-02  0.2136455E+00
        -11   -1    0    0    0    0  0.00000000000E+00  0.00000000000E+00  0.50000499739E+01  0.50000500000E+01  0.51100000000E-03 0.  1.
         11   -1    0    0    0    0 -0.00000000000E+00 -0.00000000000E+00 -0.50000499739E+01  0.50000500000E+01  0.51100000000E-03 0. -1.
     100001    1    1    2    0    0  0.38473772491E-03  0.18585274867E-01 -0.12427470981E-01  0.50000500000E+01  0.50000000000E+01 0. -1.
     100001    1    1    2    0    0 -0.38473772491E-03 -0.18585274867E-01  0.12427470981E-01  0.50000500000E+01  0.50000000000E+01 0. -1.
</event>
<event>
 4    1  0.5008549E-001  0.5000050E+01  0.7818608E-02  0.2136455E+00
        -11   -1    0    0    0    0  0.00000000000E+00  0.00000000000E+00  0.50000499739E+01  0.50000500000E+01  0.51100000000E-03 0. -1.
         11   -1    0    0    0    0 -0.00000000000E+00 -0.00000000000E+00 -0.50000499739E+01  0.50000500000E+01  0.51100000000E-03 0.  1.
     100001    1    1    2    0    0  0.10857711176E-01  0.15389955745E-01 -0.12052463240E-01  0.50000500000E+01  0.50000000000E+01 0.  0.
     100001    1    1    2    0    0 -0.10857711176E-01 -0.15389955745E-01  0.12052463240E-01  0.50000500000E+01  0.50000000000E+01 0.  1.
</event>
<event>
 4    1  0.5008549E-001  0.5000050E+01  0.7818608E-02  0.2136455E+00
        -11   -1    0    0    0    0  0.00000000000E+00  0.00000000000E+00  0.50000499739E+01  0.50000500000E+01  0.51100000000E-03 0.  1.
         11   -1    0    0    0    0 -0.00000000000E+00 -0.00000000000E+00 -0.50000499739E+01  0.50000500000E+01  0.51100000000E-03 0. -1.
     100001    1    1    2    0    0  0.65423955007E-03 -0.19969895311E-01  0.10038812274E-01  0.50000500000E+01  0.50000000000E+01 0.  0.
     100001    1    1    2    0    0 -0.65423955007E-03  0.19969895311E-01 -0.10038812274E-01  0.50000500000E+01  0.50000000000E+01 0.  0.
</event>
<event>
 4    1  0.5008549E-001  0.5000050E+01  0.7818608E-02  0.2136455E+00
        -11   -1    0    0    0    0  0.00000000000E+00  0.00000000000E+00  0.50000499739E+01  0.50000500000E+01  0.51100000000E-03 0.  1.
         11   -1    0    0    0    0 -0.00000000000E+00 -0.00000000000E+00 -0.50000499739E+01  0.50000500000E+01  0.51100000000E-03 0. -1.
     100001    1    1    2    0    0 -0.11072213632E-01 -0.10867144065E-01  0.16103222198E-01  0.50000500000E+01  0.50000000000E+01 0.  1.
     100001    1    1    2    0    0  0.11072213632E-01  0.10867144065E-01 -0.16103222198E-01  0.50000500000E+01  0.50000000000E+01 0. -1.
</event>
<event>
 4    1  0.5008549E-001  0.5000050E+01  0.7818608E-02  0.2136455E+00
        -11   -1    0    0    0    0  0.00000000000E+00  0.00000000000E+00  0.50000499739E+01  0.50000500000E+01  0.51100000000E-03 0. -1.
         11   -1    0    0    0    0 -0.00000000000E+00 -0.00000000000E+00 -0.50000499739E+01  0.50000500000E+01  0.51100000000E-03 0.  1.
     100001    1    1    2    0    0 -0.67178996569E-02 -0.46400236637E-02 -0.20816880280E-01  0.50000500000E+01  0.50000000000E+01 0.  1.
     100001    1    1    2    0    0  0.67178996569E-02  0.46400236637E-02  0.20816880280E-01  0.50000500000E+01  0.50000000000E+01 0. -1.
</event>
<event>
 4    1  0.5008549E-001  0.5000050E+01  0.7818608E-02  0.2136455E+00
        -11   -1    0    0    0    0  0.00000000000E+00  0.00000000000E+00  0.50000499739E+01  0.50000500000E+01  0.51100000000E-03 0. -1.
         11   -1    0    0    0    0 -0.00000000000E+00 -0.00000000000E+00 -0.50000499739E+01  0.50000500000E+01  0.51100000000E-03 0.  1.
     100001    1    1    2    0    0  0.14350737440E-01  0.16990207969E-01  0.23219965701E-02  0.50000500000E+01  0.50000000000E+01 0. -1.
     100001    1    1    2    0    0 -0.14350737440E-01 -0.16990207969E-01 -0.23219965701E-02  0.50000500000E+01  0.50000000000E+01 0.  1.
</event>
<event>
 4    1  0.5008549E-001  0.5000050E+01  0.7818608E-02  0.2136455E+00
        -11   -1    0    0    0    0  0.00000000000E+00  0.00000000000E+00  0.50000499739E+01  0.50000500000E+01  0.51100000000E-03 0.  1.
         11   -1    0    0    0    0 -0.00000000000E+00 -0.00000000000E+00 -0.50000499739E+01  0.50000500000E+01  0.51100000000E-03 0. -1.
     100001    1    1    2    0    0  0.57285818066E-02 -0.16098532630E-01 -0.14423005846E-01  0.50000500000E+01  0.50000000000E+01 0.  0.
     100001    1    1    2    0    0 -0.57285818066E-02  0.16098532630E-01  0.14423005846E-01  0.50000500000E+01  0.50000000000E+01 0.  0.
</event>
<event>
 4    1  0.5008549E-001  0.5000050E+01  0.7818608E-02  0.2136455E+00
        -11   -1    0    0    0    0  0.00000000000E+00  0.00000000000E+00  0.50000499739E+01  0.50000500000E+01  0.51100000000E-03 0.  1.
         11   -1    0    0    0    0 -0.00000000000E+00 -0.00000000000E+00 -0.50000499739E+01  0.50000500000E+01  0.51100000000E-03 0. -1.
     100001    1    1    2    0    0  0.39025103428E-02  0.21967690186E-01 -0.14810472371E-02  0.50000500000E+01  0.50000000000E+01 0. -1.
     100001    1    1    2    0    0 -0.39025103428E-02 -0.21967690186E-01  0.14810472371E-02  0.50000500000E+01  0.50000000000E+01 0.  1.
</event>
<event>
 4    1  0.5008549E-001  0.5000050E+01  0.7818608E-02  0.2136455E+00
        -11   -1    0    0    0    0  0.00000000000E+00  0.00000000000E+00  0.50000499739E+01  0.50000500000E+01  0.51100000000E-03 0. -1.
         11   -1    0    0    0    0 -0.00000000000E+00 -0.00000000000E+00 -0.50000499739E+01  0.50000500000E+01  0.51100000000E-03 0.  1.
     100001    1    1    2    0    0 -0.81206093660E-02  0.11863191112E-01 -0.17126672186E-01  0.50000500000E+01  0.50000000000E+01 0. -1.
     100001    1    1    2    0    0  0.81206093660E-02 -0.11863191112E-01  0.17126672186E-01  0.50000500000E+01  0.50000000000E+01 0.  0.
</event>
<event>
 4    1  0.5008549E-001  0.5000050E+01  0.7818608E-02  0.2136455E+00
        -11   -1    0    0    0    0  0.00000000000E+00  0.00000000000E+00  0.50000499739E+01  0.50000500000E+01  0.51100000000E-03 0. -1.
         11   -1    0    0    0    0 -0.00000000000E+00 -0.00000000000E+00 -0.50000499739E+01  0.50000500000E+01  0.51100000000E-03 0.  1.
     100001    1    1    2    0    0  0.20621041475E-01 -0.64368371532E-02  0.57742770945E-02  0.50000500000E+01  0.50000000000E+01 0. -1.
     100001    1    1    2    0    0 -0.20621041475E-01  0.64368371532E-02 -0.57742770945E-02  0.50000500000E+01  0.50000000000E+01 0. -1.
</event>
<event>
 4    1  0.5008549E-001  0.5000050E+01  0.7818608E-02  0.2136455E+00
        -11   -1    0    0    0    0  0.00000000000E+00  0.00000000000E+00  0.50000499739E+01  0.50000500000E+01  0.51100000000E-03 0. -1.
         11   -1    0    0    0    0 -0.00000000000E+00 -0.00000000000E+00 -0.50000499739E+01  0.50000500000E+01  0.51100000000E-03 0.  1.
     100001    1    1    2    0    0 -0.20800323126E-01  0.64030770158E-02 -0.51331922405E-02  0.50000500000E+01  0.50000000000E+01 0. -1.
     100001    1    1    2    0    0  0.20800323126E-01 -0.64030770158E-02  0.51331922405E-02  0.50000500000E+01  0.50000000000E+01 0.  1.
</event>
<event>
 4    1  0.5008549E-001  0.5000050E+01  0.7818608E-02  0.2136455E+00
        -11   -1    0    0    0    0  0.00000000000E+00  0.00000000000E+00  0.50000499739E+01  0.50000500000E+01  0.51100000000E-03 0. -1.
         11   -1    0    0    0    0 -0.00000000000E+00 -0.00000000000E+00 -0.50000499739E+01  0.50000500000E+01  0.51100000000E-03 0.  1.
     100001    1    1    2    0    0 -0.11240448372E-01  0.17432192285E-01 -0.83530528861E-02  0.50000500000E+01  0.50000000000E+01 0. -1.
     100001    1    1    2    0    0  0.11240448372E-01 -0.17432192285E-01  0.83530528861E-02  0.50000500000E+01  0.50000000000E+01 0.  0.
</event>
<event>
 4    1  0.5008549E-001  0.5000050E+01  0.7818608E-02  0.2136455E+00
        -11   -1    0    0    0    0  0.00000000000E+00  0.00000000000E+00  0.50000499739E+01  0.50000500000E+01  0.51100000000E-03 0. -1.
         11   -1    0    0    0    0 -0.00000000000E+00 -0.00000000000E+00 -0.50000499739E+01  0.50000500000E+01  0.51100000000E-03 0.  1.
     100001    1    1    2    0    0  0.19389770748E-01  0.11134472592E-01 -0.25062009101E-03  0.50000500000E+01  0.50000000000E+01 0.  1.
     100001    1    1    2    0    0 -0.19389770748E-01 -0.11134472592E-01  0.25062009101E-03  0.50000500000E+01  0.50000000000E+01 0. -1.
</event>
<event>
 4    1  0.5008549E-001  0.5000050E+01  0.7818608E-02  0.2136455E+00
        -11   -1    0    0    0    0  0.00000000000E+00  0.00000000000E+00  0.50000499739E+01  0.50000500000E+01  0.51100000000E-03 0.  1.
         11   -1    0    0    0    0 -0.00000000000E+00 -0.00000000000E+00 -0.50000499739E+01  0.50000500000E+01  0.51100000000E-03 0. -1.
     100001    1    1    2    0    0  0.88706296505E-02  0.10257897938E-01 -0.17778918963E-01  0.50000500000E+01  0.50000000000E+01 0.  1.
     100001    1    1    2    0    0 -0.88706296505E-02 -0.10257897938E-01  0.17778918963E-01  0.50000500000E+01  0.50000000000E+01 0. -1.
</event>
<event>
 4    1  0.5008549E-001  0.5000050E+01  0.7818608E-02  0.2136455E+00
        -11   -1    0    0    0    0  0.00000000000E+00  0.00000000000E+00  0.50000499739E+01  0.50000500000E+01  0.51100000000E-03 0.  1.
         11   -1    0    0    0    0 -0.00000000000E+00 -0.00000000000E+00 -0.50000499739E+01  0.50000500000E+01  0.51100000000E-03 0. -1.
     100001    1    1    2    0    0  0.74598418359E-03  0.79429535652E-02 -0.20889123875E-01  0.50000500000E+01  0.50000000000E+01 0. -1.
     100001    1    1    2    0    0 -0.74598418359E-03 -0.79429535652E-02  0.20889123875E-01  0.50000500000E+01  0.50000000000E+01 0.  0.
</event>
<event>
 4    1  0.5008549E-001  0.5000050E+01  0.7818608E-02  0.2136455E+00
        -11   -1    0    0    0    0  0.00000000000E+00  0.00000000000E+00  0.50000499739E+01  0.50000500000E+01  0.51100000000E-03 0. -1.
         11   -1    0    0    0    0 -0.00000000000E+00 -0.00000000000E+00 -0.50000499739E+01  0.50000500000E+01  0.51100000000E-03 0.  1.
     100001    1    1    2    0    0  0.17518299955E-01 -0.54209873794E-02  0.12795489928E-01  0.50000500000E+01  0.50000000000E+01 0.  0.
     100001    1    1    2    0    0 -0.17518299955E-01  0.54209873794E-02 -0.12795489928E-01  0.50000500000E+01  0.50000000000E+01 0.  0.
</event>
<event>
 4    1  0.5008549E-001  0.5000050E+01  0.7818608E-02  0.2136455E+00
        -11   -1    0    0    0    0  0.00000000000E+00  0.00000000000E+00  0.50000499739E+01  0.50000500000E+01  0.51100000000E-03 0.  1.
         11   -1    0    0    0    0 -0.00000000000E+00 -0.00000000000E+00 -0.50000499739E+01  0.50000500000E+01  0.51100000000E-03 0. -1.
     100001    1    1    2    0    0  0.10390081169E-01  0.89268621759E-02  0.17673704903E-01  0.50000500000E+01  0.50000000000E+01 0.  1.
     100001    1    1    2    0    0 -0.10390081169E-01 -0.89268621759E-02 -0.17673704903E-01  0.50000500000E+01  0.50000000000E+01 0. -1.
</event>
<event>
 4    1  0.5008549E-001  0.5000050E+01  0.7818608E-02  0.2136455E+00
        -11   -1    0    0    0    0  0.00000000000E+00  0.00000000000E+00  0.50000499739E+01  0.50000500000E+01  0.51100000000E-03 0.  1.
         11   -1    0    0    0    0 -0.00000000000E+00 -0.00000000000E+00 -0.50000499739E+01  0.50000500000E+01  0.51100000000E-03 0. -1.
     100001    1    1    2    0    0  0.25179353164E-02 -0.10430006817E-01 -0.19618294002E-01  0.50000500000E+01  0.50000000000E+01 0. -1.
     100001    1    1    2    0    0 -0.25179353164E-02  0.10430006817E-01  0.19618294002E-01  0.50000500000E+01  0.50000000000E+01 0.  0.
</event>
<event>
 4    1  0.5008549E-001  0.5000050E+01  0.7818608E-02  0.2136455E+00
        -11   -1    0    0    0    0  0.00000000000E+00  0.00000000000E+00  0.50000499739E+01  0.50000500000E+01  0.51100000000E-03 0. -1.
         11   -1    0    0    0    0 -0.00000000000E+00 -0.00000000000E+00 -0.50000499739E+01  0.50000500000E+01  0.51100000000E-03 0.  1.
     100001    1    1    2    0    0  0.45794137339E-02  0.21528357953E-01 -0.39447780312E-02  0.50000500000E+01  0.50000000000E+01 0.  1.
     100001    1    1    2    0    0 -0.45794137339E-02 -0.21528357953E-01  0.39447780312E-02  0.50000500000E+01  0.50000000000E+01 0. -1.
</event>
<event>
 4    1  0.5008549E-001  0.5000050E+01  0.7818608E-02  0.2136455E+00
        -11   -1    0    0    0    0  0.00000000000E+00  0.00000000000E+00  0.50000499739E+01  0.50000500000E+01  0.51100000000E-03 0.  1.
         11   -1    0    0    0    0 -0.00000000000E+00 -0.00000000000E+00 -0.50000499739E+01  0.50000500000E+01  0.51100000000E-03 0. -1.
     100001    1    1    2    0    0  0.18397386990E-01 -0.94963736910E-02 -0.84473391469E-02  0.50000500000E+01  0.50000000000E+01 0. -1.
     100001    1    1    2    0    0 -0.18397386990E-01  0.94963736910E-02  0.84473391469E-02  0.50000500000E+01  0.50000000000E+01 0.  1.
</event>
<event>
 4    1  0.5008549E-001  0.5000050E+01  0.7818608E-02  0.2136455E+00
        -11   -1    0    0    0    0  0.00000000000E+00  0.00000000000E+00  0.50000499739E+01  0.50000500000E+01  0.51100000000E-03 0.  1.
         11   -1    0    0    0    0 -0.00000000000E+00 -0.00000000000E+00 -0.50000499739E+01  0.50000500000E+01  0.51100000000E-03 0. -1.
     100001    1    1    2    0    0 -0.14429784069E-01 -0.16016120223E-01  0.59386635482E-02  0.50000500000E+01  0.50000000000E+01 0.  0.
     100001    1    1    2    0    0  0.14429784069E-01  0.16016120223E-01 -0.59386635482E-02  0.50000500000E+01  0.50000000000E+01 0.  0.
</event>
<event>
 4    1  0.5008549E-001  0.5000050E+01  0.7818608E-02  0.2136455E+00
        -11   -1    0    0    0    0  0.00000000000E+00  0.00000000000E+00  0.50000499739E+01  0.50000500000E+01  0.51100000000E-03 0.  1.
         11   -1    0    0    0    0 -0.00000000000E+00 -0.00000000000E+00 -0.50000499739E+01  0.50000500000E+01  0.51100000000E-03 0. -1.
     100001    1    1    2    0    0 -0.14722494705E-01  0.65797993767E-02 -0.15490541947E-01  0.50000500000E+01  0.50000000000E+01 0.  0.
     100001    1    1    2    0    0  0.14722494705E-01 -0.65797993767E-02  0.15490541947E-01  0.50000500000E+01  0.50000000000E+01 0.  0.
</event>
<event>
 4    1  0.5008549E-001  0.5000050E+01  0.7818608E-02  0.2136455E+00
        -11   -1    0    0    0    0  0.00000000000E+00  0.00000000000E+00  0.50000499739E+01  0.50000500000E+01  0.51100000000E-03 0. -1.
         11   -1    0    0    0    0 -0.00000000000E+00 -0.00000000000E+00 -0.50000499739E+01  0.50000500000E+01  0.51100000000E-03 0.  1.
     100001    1    1    2    0    0  0.66002033688E-02  0.13715568317E-01  0.16380567793E-01  0.50000500000E+01  0.50000000000E+01 0.  0.
     100001    1    1    2    0    0 -0.66002033688E-02 -0.13715568317E-01 -0.16380567793E-01  0.50000500000E+01  0.50000000000E+01 0.  0.
</event>
<event>
 4    1  0.5008549E-001  0.5000050E+01  0.7818608E-02  0.2136455E+00
        -11   -1    0    0    0    0  0.00000000000E+00  0.00000000000E+00  0.50000499739E+01  0.50000500000E+01  0.51100000000E-03 0.  1.
         11   -1    0    0    0    0 -0.00000000000E+00 -0.00000000000E+00 -0.50000499739E+01  0.50000500000E+01  0.51100000000E-03 0. -1.
     100001    1    1    2    0    0 -0.18909425943E-02  0.16900740481E-01  0.14518670989E-01  0.50000500000E+01  0.50000000000E+01 0.  1.
     100001    1    1    2    0    0  0.18909425943E-02 -0.16900740481E-01 -0.14518670989E-01  0.50000500000E+01  0.50000000000E+01 0. -1.
</event>
<event>
 4    1  0.5008549E-001  0.5000050E+01  0.7818608E-02  0.2136455E+00
        -11   -1    0    0    0    0  0.00000000000E+00  0.00000000000E+00  0.50000499739E+01  0.50000500000E+01  0.51100000000E-03 0. -1.
         11   -1    0    0    0    0 -0.00000000000E+00 -0.00000000000E+00 -0.50000499739E+01  0.50000500000E+01  0.51100000000E-03 0.  1.
     100001    1    1    2    0    0  0.18581663336E-01 -0.12207315074E-01  0.23886704130E-02  0.50000500000E+01  0.50000000000E+01 0. -1.
     100001    1    1    2    0    0 -0.18581663336E-01  0.12207315074E-01 -0.23886704130E-02  0.50000500000E+01  0.50000000000E+01 0.  1.
</event>
<event>
 4    1  0.5008549E-001  0.5000050E+01  0.7818608E-02  0.2136455E+00
        -11   -1    0    0    0    0  0.00000000000E+00  0.00000000000E+00  0.50000499739E+01  0.50000500000E+01  0.51100000000E-03 0. -1.
         11   -1    0    0    0    0 -0.00000000000E+00 -0.00000000000E+00 -0.50000499739E+01  0.50000500000E+01  0.51100000000E-03 0.  1.
     100001    1    1    2    0    0 -0.12466699127E-01 -0.18462431687E-01  0.19293856719E-02  0.50000500000E+01  0.50000000000E+01 0. -1.
     100001    1    1    2    0    0  0.12466699127E-01  0.18462431687E-01 -0.19293856719E-02  0.50000500000E+01  0.50000000000E+01 0.  0.
</event>
<event>
 4    1  0.5008549E-001  0.5000050E+01  0.7818608E-02  0.2136455E+00
        -11   -1    0    0    0    0  0.00000000000E+00  0.00000000000E+00  0.50000499739E+01  0.50000500000E+01  0.51100000000E-03 0.  1.
         11   -1    0    0    0    0 -0.00000000000E+00 -0.00000000000E+00 -0.50000499739E+01  0.50000500000E+01  0.51100000000E-03 0. -1.
     100001    1    1    2    0    0  0.10499907913E-01  0.18608751063E-01 -0.65930886305E-02  0.50000500000E+01  0.50000000000E+01 0.  0.
     100001    1    1    2    0    0 -0.10499907913E-01 -0.18608751063E-01  0.65930886305E-02  0.50000500000E+01  0.50000000000E+01 0.  1.
</event>
<event>
 4    1  0.5008549E-001  0.5000050E+01  0.7818608E-02  0.2136455E+00
        -11   -1    0    0    0    0  0.00000000000E+00  0.00000000000E+00  0.50000499739E+01  0.50000500000E+01  0.51100000000E-03 0.  1.
         11   -1    0    0    0    0 -0.00000000000E+00 -0.00000000000E+00 -0.50000499739E+01  0.50000500000E+01  0.51100000000E-03 0. -1.
     100001    1    1    2    0    0  0.63787026496E-02 -0.17011533929E-01 -0.13035427338E-01  0.50000500000E+01  0.50000000000E+01 0. -1.
     100001    1    1    2    0    0 -0.63787026496E-02  0.17011533929E-01  0.13035427338E-01  0.50000500000E+01  0.50000000000E+01 0.  1.
</event>
<event>
 4    1  0.5008549E-001  0.5000050E+01  0.7818608E-02  0.2136455E+00
        -11   -1    0    0    0    0  0.00000000000E+00  0.00000000000E+00  0.50000499739E+01  0.50000500000E+01  0.51100000000E-03 0.  1.
         11   -1    0    0    0    0 -0.00000000000E+00 -0.00000000000E+00 -0.50000499739E+01  0.50000500000E+01  0.51100000000E-03 0. -1.
     100001    1    1    2    0    0  0.20545713609E-01  0.76448448151E-02 -0.44082309438E-02  0.50000500000E+01  0.50000000000E+01 0. -1.
     100001    1    1    2    0    0 -0.20545713609E-01 -0.76448448151E-02  0.44082309438E-02  0.50000500000E+01  0.50000000000E+01 0.  1.
</event>
<event>
 4    1  0.5008549E-001  0.5000050E+01  0.7818608E-02  0.2136455E+00
        -11   -1    0    0    0    0  0.00000000000E+00  0.00000000000E+00  0.50000499739E+01  0.50000500000E+01  0.51100000000E-03 0.  1.
         11   -1    0    0    0    0 -0.00000000000E+00 -0.00000000000E+00 -0.50000499739E+01  0.50000500000E+01  0.51100000000E-03 0. -1.
     100001    1    1    2    0    0 -0.77296512832E-02  0.20564362691E-01 -0.41667707089E-02  0.50000500000E+01  0.50000000000E+01 0. -1.
     100001    1    1    2    0    0  0.77296512832E-02 -0.20564362691E-01  0.41667707089E-02  0.50000500000E+01  0.50000000000E+01 0.  1.
</event>
<event>
 4    1  0.5008549E-001  0.5000050E+01  0.7818608E-02  0.2136455E+00
        -11   -1    0    0    0    0  0.00000000000E+00  0.00000000000E+00  0.50000499739E+01  0.50000500000E+01  0.51100000000E-03 0.  1.
         11   -1    0    0    0    0 -0.00000000000E+00 -0.00000000000E+00 -0.50000499739E+01  0.50000500000E+01  0.51100000000E-03 0. -1.
     100001    1    1    2    0    0  0.13499629055E-01  0.16636600460E-02  0.17748091465E-01  0.50000500000E+01  0.50000000000E+01 0.  1.
     100001    1    1    2    0    0 -0.13499629055E-01 -0.16636600460E-02 -0.17748091465E-01  0.50000500000E+01  0.50000000000E+01 0.  1.
</event>
<event>
 4    1  0.5008549E-001  0.5000050E+01  0.7818608E-02  0.2136455E+00
        -11   -1    0    0    0    0  0.00000000000E+00  0.00000000000E+00  0.50000499739E+01  0.50000500000E+01  0.51100000000E-03 0. -1.
         11   -1    0    0    0    0 -0.00000000000E+00 -0.00000000000E+00 -0.50000499739E+01  0.50000500000E+01  0.51100000000E-03 0.  1.
     100001    1    1    2    0    0  0.84944215969E-02  0.89606532457E-02 -0.18642800089E-01  0.50000500000E+01  0.50000000000E+01 0.  0.
     100001    1    1    2    0    0 -0.84944215969E-02 -0.89606532457E-02  0.18642800089E-01  0.50000500000E+01  0.50000000000E+01 0. -1.
</event>
<event>
 4    1  0.5008549E-001  0.5000050E+01  0.7818608E-02  0.2136455E+00
        -11   -1    0    0    0    0  0.00000000000E+00  0.00000000000E+00  0.50000499739E+01  0.50000500000E+01  0.51100000000E-03 0. -1.
         11   -1    0    0    0    0 -0.00000000000E+00 -0.00000000000E+00 -0.50000499739E+01  0.50000500000E+01  0.51100000000E-03 0.  1.
     100001    1    1    2    0    0 -0.78478045055E-02  0.15089962319E-02  0.20883902768E-01  0.50000500000E+01  0.50000000000E+01 0.  0.
     100001    1    1    2    0    0  0.78478045055E-02 -0.15089962319E-02 -0.20883902768E-01  0.50000500000E+01  0.50000000000E+01 0.  1.
</event>
<event>
 4    1  0.5008549E-001  0.5000050E+01  0.7818608E-02  0.2136455E+00
        -11   -1    0    0    0    0  0.00000000000E+00  0.00000000000E+00  0.50000499739E+01  0.50000500000E+01  0.51100000000E-03 0. -1.
         11   -1    0    0    0    0 -0.00000000000E+00 -0.00000000000E+00 -0.50000499739E+01  0.50000500000E+01  0.51100000000E-03 0.  1.
     100001    1    1    2    0    0  0.83434141559E-02 -0.12992945794E-01  0.16173227872E-01  0.50000500000E+01  0.50000000000E+01 0.  0.
     100001    1    1    2    0    0 -0.83434141559E-02  0.12992945794E-01 -0.16173227872E-01  0.50000500000E+01  0.50000000000E+01 0.  0.
</event>
<event>
 4    1  0.5008549E-001  0.5000050E+01  0.7818608E-02  0.2136455E+00
        -11   -1    0    0    0    0  0.00000000000E+00  0.00000000000E+00  0.50000499739E+01  0.50000500000E+01  0.51100000000E-03 0.  1.
         11   -1    0    0    0    0 -0.00000000000E+00 -0.00000000000E+00 -0.50000499739E+01  0.50000500000E+01  0.51100000000E-03 0. -1.
     100001    1    1    2    0    0 -0.85881077743E-02 -0.18472356440E-01 -0.92205722384E-02  0.50000500000E+01  0.50000000000E+01 0.  0.
     100001    1    1    2    0    0  0.85881077743E-02  0.18472356440E-01  0.92205722384E-02  0.50000500000E+01  0.50000000000E+01 0.  0.
</event>
<event>
 4    1  0.5008549E-001  0.5000050E+01  0.7818608E-02  0.2136455E+00
        -11   -1    0    0    0    0  0.00000000000E+00  0.00000000000E+00  0.50000499739E+01  0.50000500000E+01  0.51100000000E-03 0. -1.
         11   -1    0    0    0    0 -0.00000000000E+00 -0.00000000000E+00 -0.50000499739E+01  0.50000500000E+01  0.51100000000E-03 0.  1.
     100001    1    1    2    0    0  0.94819334602E-03 -0.21824409898E-01  0.47747839718E-02  0.50000500000E+01  0.50000000000E+01 0.  1.
     100001    1    1    2    0    0 -0.94819334602E-03  0.21824409898E-01 -0.47747839718E-02  0.50000500000E+01  0.50000000000E+01 0.  0.
</event>
<event>
 4    1  0.5008549E-001  0.5000050E+01  0.7818608E-02  0.2136455E+00
        -11   -1    0    0    0    0  0.00000000000E+00  0.00000000000E+00  0.50000499739E+01  0.50000500000E+01  0.51100000000E-03 0. -1.
         11   -1    0    0    0    0 -0.00000000000E+00 -0.00000000000E+00 -0.50000499739E+01  0.50000500000E+01  0.51100000000E-03 0.  1.
     100001    1    1    2    0    0 -0.13279452435E-02  0.82772068178E-03  0.22305917150E-01  0.50000500000E+01  0.50000000000E+01 0. -1.
     100001    1    1    2    0    0  0.13279452435E-02 -0.82772068178E-03 -0.22305917150E-01  0.50000500000E+01  0.50000000000E+01 0.  0.
</event>
<event>
 4    1  0.5008549E-001  0.5000050E+01  0.7818608E-02  0.2136455E+00
        -11   -1    0    0    0    0  0.00000000000E+00  0.00000000000E+00  0.50000499739E+01  0.50000500000E+01  0.51100000000E-03 0.  1.
         11   -1    0    0    0    0 -0.00000000000E+00 -0.00000000000E+00 -0.50000499739E+01  0.50000500000E+01  0.51100000000E-03 0. -1.
     100001    1    1    2    0    0  0.18965803431E-01  0.11357622751E-01 -0.33623214653E-02  0.50000500000E+01  0.50000000000E+01 0.  1.
     100001    1    1    2    0    0 -0.18965803431E-01 -0.11357622751E-01  0.33623214653E-02  0.50000500000E+01  0.50000000000E+01 0.  0.
</event>
<event>
 4    1  0.5008549E-001  0.5000050E+01  0.7818608E-02  0.2136455E+00
        -11   -1    0    0    0    0  0.00000000000E+00  0.00000000000E+00  0.50000499739E+01  0.50000500000E+01  0.51100000000E-03 0. -1.
         11   -1    0    0    0    0 -0.00000000000E+00 -0.00000000000E+00 -0.50000499739E+01  0.50000500000E+01  0.51100000000E-03 0.  1.
     100001    1    1    2    0    0 -0.16659465697E-01 -0.96115650664E-02 -0.11405372403E-01  0.50000500000E+01  0.50000000000E+01 0.  1.
     100001    1    1    2    0    0  0.16659465697E-01  0.96115650664E-02  0.11405372403E-01  0.50000500000E+01  0.50000000000E+01 0. -1.
</event>
<event>
 4    1  0.5008549E-001  0.5000050E+01  0.7818608E-02  0.2136455E+00
        -11   -1    0    0    0    0  0.00000000000E+00  0.00000000000E+00  0.50000499739E+01  0.50000500000E+01  0.51100000000E-03 0. -1.
         11   -1    0    0    0    0 -0.00000000000E+00 -0.00000000000E+00 -0.50000499739E+01  0.50000500000E+01  0.51100000000E-03 0.  1.
     100001    1    1    2    0    0 -0.90366886492E-02 -0.19943790484E-02  0.20355913403E-01  0.50000500000E+01  0.50000000000E+01 0.  0.
     100001    1    1    2    0    0  0.90366886492E-02  0.19943790484E-02 -0.20355913403E-01  0.50000500000E+01  0.50000000000E+01 0.  0.
</event>
<event>
 4    1  0.5008549E-001  0.5000050E+01  0.7818608E-02  0.2136455E+00
        -11   -1    0    0    0    0  0.00000000000E+00  0.00000000000E+00  0.50000499739E+01  0.50000500000E+01  0.51100000000E-03 0.  1.
         11   -1    0    0    0    0 -0.00000000000E+00 -0.00000000000E+00 -0.50000499739E+01  0.50000500000E+01  0.51100000000E-03 0. -1.
     100001    1    1    2    0    0 -0.21958653845E-02  0.11834240914E-01  0.18844930809E-01  0.50000500000E+01  0.50000000000E+01 0.  1.
     100001    1    1    2    0    0  0.21958653845E-02 -0.11834240914E-01 -0.18844930809E-01  0.50000500000E+01  0.50000000000E+01 0.  0.
</event>
<event>
 4    1  0.5008549E-001  0.5000050E+01  0.7818608E-02  0.2136455E+00
        -11   -1    0    0    0    0  0.00000000000E+00  0.00000000000E+00  0.50000499739E+01  0.50000500000E+01  0.51100000000E-03 0. -1.
         11   -1    0    0    0    0 -0.00000000000E+00 -0.00000000000E+00 -0.50000499739E+01  0.50000500000E+01  0.51100000000E-03 0.  1.
     100001    1    1    2    0    0 -0.20642769936E-01  0.41964807644E-02 -0.75012064726E-02  0.50000500000E+01  0.50000000000E+01 0.  0.
     100001    1    1    2    0    0  0.20642769936E-01 -0.41964807644E-02  0.75012064726E-02  0.50000500000E+01  0.50000000000E+01 0.  1.
</event>
<event>
 4    1  0.5008549E-001  0.5000050E+01  0.7818608E-02  0.2136455E+00
        -11   -1    0    0    0    0  0.00000000000E+00  0.00000000000E+00  0.50000499739E+01  0.50000500000E+01  0.51100000000E-03 0. -1.
         11   -1    0    0    0    0 -0.00000000000E+00 -0.00000000000E+00 -0.50000499739E+01  0.50000500000E+01  0.51100000000E-03 0.  1.
     100001    1    1    2    0    0 -0.17732940344E-01  0.76746438218E-02  0.11253673576E-01  0.50000500000E+01  0.50000000000E+01 0. -1.
     100001    1    1    2    0    0  0.17732940344E-01 -0.76746438218E-02 -0.11253673576E-01  0.50000500000E+01  0.50000000000E+01 0.  1.
</event>
<event>
 4    1  0.5008549E-001  0.5000050E+01  0.7818608E-02  0.2136455E+00
        -11   -1    0    0    0    0  0.00000000000E+00  0.00000000000E+00  0.50000499739E+01  0.50000500000E+01  0.51100000000E-03 0.  1.
         11   -1    0    0    0    0 -0.00000000000E+00 -0.00000000000E+00 -0.50000499739E+01  0.50000500000E+01  0.51100000000E-03 0. -1.
     100001    1    1    2    0    0 -0.65573979475E-02 -0.89405601106E-02  0.19418275337E-01  0.50000500000E+01  0.50000000000E+01 0.  1.
     100001    1    1    2    0    0  0.65573979475E-02  0.89405601106E-02 -0.19418275337E-01  0.50000500000E+01  0.50000000000E+01 0.  1.
</event>
<event>
 4    1  0.5008549E-001  0.5000050E+01  0.7818608E-02  0.2136455E+00
        -11   -1    0    0    0    0  0.00000000000E+00  0.00000000000E+00  0.50000499739E+01  0.50000500000E+01  0.51100000000E-03 0.  1.
         11   -1    0    0    0    0 -0.00000000000E+00 -0.00000000000E+00 -0.50000499739E+01  0.50000500000E+01  0.51100000000E-03 0. -1.
     100001    1    1    2    0    0 -0.63880174361E-02 -0.13843960724E-01  0.16356664841E-01  0.50000500000E+01  0.50000000000E+01 0.  1.
     100001    1    1    2    0    0  0.63880174361E-02  0.13843960724E-01 -0.16356664841E-01  0.50000500000E+01  0.50000000000E+01 0. -1.
</event>
<event>
 4    1  0.5008549E-001  0.5000050E+01  0.7818608E-02  0.2136455E+00
        -11   -1    0    0    0    0  0.00000000000E+00  0.00000000000E+00  0.50000499739E+01  0.50000500000E+01  0.51100000000E-03 0. -1.
         11   -1    0    0    0    0 -0.00000000000E+00 -0.00000000000E+00 -0.50000499739E+01  0.50000500000E+01  0.51100000000E-03 0.  1.
     100001    1    1    2    0    0  0.20487680381E-01 -0.26719387434E-02 -0.85509178431E-02  0.50000500000E+01  0.50000000000E+01 0.  1.
     100001    1    1    2    0    0 -0.20487680381E-01  0.26719387434E-02  0.85509178431E-02  0.50000500000E+01  0.50000000000E+01 0. -1.
</event>
<event>
 4    1  0.5008549E-001  0.5000050E+01  0.7818608E-02  0.2136455E+00
        -11   -1    0    0    0    0  0.00000000000E+00  0.00000000000E+00  0.50000499739E+01  0.50000500000E+01  0.51100000000E-03 0. -1.
         11   -1    0    0    0    0 -0.00000000000E+00 -0.00000000000E+00 -0.50000499739E+01  0.50000500000E+01  0.51100000000E-03 0.  1.
     100001    1    1    2    0    0  0.10351618409E-02 -0.73098911369E-03  0.22324797757E-01  0.50000500000E+01  0.50000000000E+01 0.  0.
     100001    1    1    2    0    0 -0.10351618409E-02  0.73098911369E-03 -0.22324797757E-01  0.50000500000E+01  0.50000000000E+01 0.  1.
</event>
<event>
 4    1  0.5008549E-001  0.5000050E+01  0.7818608E-02  0.2136455E+00
        -11   -1    0    0    0    0  0.00000000000E+00  0.00000000000E+00  0.50000499739E+01  0.50000500000E+01  0.51100000000E-03 0.  1.
         11   -1    0    0    0    0 -0.00000000000E+00 -0.00000000000E+00 -0.50000499739E+01  0.50000500000E+01  0.51100000000E-03 0. -1.
     100001    1    1    2    0    0  0.10694399509E-02 -0.98644601042E-02  0.20038743100E-01  0.50000500000E+01  0.50000000000E+01 0.  0.
     100001    1    1    2    0    0 -0.10694399509E-02  0.98644601042E-02 -0.20038743100E-01  0.50000500000E+01  0.50000000000E+01 0. -1.
</event>
<event>
 4    1  0.5008549E-001  0.5000050E+01  0.7818608E-02  0.2136455E+00
        -11   -1    0    0    0    0  0.00000000000E+00  0.00000000000E+00  0.50000499739E+01  0.50000500000E+01  0.51100000000E-03 0.  1.
         11   -1    0    0    0    0 -0.00000000000E+00 -0.00000000000E+00 -0.50000499739E+01  0.50000500000E+01  0.51100000000E-03 0. -1.
     100001    1    1    2    0    0 -0.13700993221E-01 -0.15103999769E-02  0.17606929791E-01  0.50000500000E+01  0.50000000000E+01 0.  0.
     100001    1    1    2    0    0  0.13700993221E-01  0.15103999769E-02 -0.17606929791E-01  0.50000500000E+01  0.50000000000E+01 0. -1.
</event>
<event>
 4    1  0.5008549E-001  0.5000050E+01  0.7818608E-02  0.2136455E+00
        -11   -1    0    0    0    0  0.00000000000E+00  0.00000000000E+00  0.50000499739E+01  0.50000500000E+01  0.51100000000E-03 0.  1.
         11   -1    0    0    0    0 -0.00000000000E+00 -0.00000000000E+00 -0.50000499739E+01  0.50000500000E+01  0.51100000000E-03 0. -1.
     100001    1    1    2    0    0 -0.13649466003E-01  0.90002593289E-02  0.15254176800E-01  0.50000500000E+01  0.50000000000E+01 0.  0.
     100001    1    1    2    0    0  0.13649466003E-01 -0.90002593289E-02 -0.15254176800E-01  0.50000500000E+01  0.50000000000E+01 0.  0.
</event>
<event>
 4    1  0.5008549E-001  0.5000050E+01  0.7818608E-02  0.2136455E+00
        -11   -1    0    0    0    0  0.00000000000E+00  0.00000000000E+00  0.50000499739E+01  0.50000500000E+01  0.51100000000E-03 0. -1.
         11   -1    0    0    0    0 -0.00000000000E+00 -0.00000000000E+00 -0.50000499739E+01  0.50000500000E+01  0.51100000000E-03 0.  1.
     100001    1    1    2    0    0  0.11993812700E-01 -0.10428319998E-01 -0.15728989126E-01  0.50000500000E+01  0.50000000000E+01 0.  1.
     100001    1    1    2    0    0 -0.11993812700E-01  0.10428319998E-01  0.15728989126E-01  0.50000500000E+01  0.50000000000E+01 0. -1.
</event>
<event>
 4    1  0.5008549E-001  0.5000050E+01  0.7818608E-02  0.2136455E+00
        -11   -1    0    0    0    0  0.00000000000E+00  0.00000000000E+00  0.50000499739E+01  0.50000500000E+01  0.51100000000E-03 0. -1.
         11   -1    0    0    0    0 -0.00000000000E+00 -0.00000000000E+00 -0.50000499739E+01  0.50000500000E+01  0.51100000000E-03 0.  1.
     100001    1    1    2    0    0 -0.94741365855E-02 -0.67971789312E-02  0.19079874070E-01  0.50000500000E+01  0.50000000000E+01 0.  1.
     100001    1    1    2    0    0  0.94741365855E-02  0.67971789312E-02 -0.19079874070E-01  0.50000500000E+01  0.50000000000E+01 0.  1.
</event>
<event>
 4    1  0.5008549E-001  0.5000050E+01  0.7818608E-02  0.2136455E+00
        -11   -1    0    0    0    0  0.00000000000E+00  0.00000000000E+00  0.50000499739E+01  0.50000500000E+01  0.51100000000E-03 0. -1.
         11   -1    0    0    0    0 -0.00000000000E+00 -0.00000000000E+00 -0.50000499739E+01  0.50000500000E+01  0.51100000000E-03 0.  1.
     100001    1    1    2    0    0  0.10692069418E-01 -0.14537172308E-01 -0.13204271008E-01  0.50000500000E+01  0.50000000000E+01 0.  1.
     100001    1    1    2    0    0 -0.10692069418E-01  0.14537172308E-01  0.13204271008E-01  0.50000500000E+01  0.50000000000E+01 0. -1.
</event>
<event>
 4    1  0.5008549E-001  0.5000050E+01  0.7818608E-02  0.2136455E+00
        -11   -1    0    0    0    0  0.00000000000E+00  0.00000000000E+00  0.50000499739E+01  0.50000500000E+01  0.51100000000E-03 0. -1.
         11   -1    0    0    0    0 -0.00000000000E+00 -0.00000000000E+00 -0.50000499739E+01  0.50000500000E+01  0.51100000000E-03 0.  1.
     100001    1    1    2    0    0 -0.14782093559E-01 -0.75523110463E-02  0.14981815907E-01  0.50000500000E+01  0.50000000000E+01 0. -1.
     100001    1    1    2    0    0  0.14782093559E-01  0.75523110463E-02 -0.14981815907E-01  0.50000500000E+01  0.50000000000E+01 0.  1.
</event>
<event>
 4    1  0.5008549E-001  0.5000050E+01  0.7818608E-02  0.2136455E+00
        -11   -1    0    0    0    0  0.00000000000E+00  0.00000000000E+00  0.50000499739E+01  0.50000500000E+01  0.51100000000E-03 0. -1.
         11   -1    0    0    0    0 -0.00000000000E+00 -0.00000000000E+00 -0.50000499739E+01  0.50000500000E+01  0.51100000000E-03 0.  1.
     100001    1    1    2    0    0  0.16350115138E-01 -0.62920106921E-02 -0.13895568949E-01  0.50000500000E+01  0.50000000000E+01 0. -1.
     100001    1    1    2    0    0 -0.16350115138E-01  0.62920106921E-02  0.13895568949E-01  0.50000500000E+01  0.50000000000E+01 0. -1.
</event>
<event>
 4    1  0.5008549E-001  0.5000050E+01  0.7818608E-02  0.2136455E+00
        -11   -1    0    0    0    0  0.00000000000E+00  0.00000000000E+00  0.50000499739E+01  0.50000500000E+01  0.51100000000E-03 0. -1.
         11   -1    0    0    0    0 -0.00000000000E+00 -0.00000000000E+00 -0.50000499739E+01  0.50000500000E+01  0.51100000000E-03 0.  1.
     100001    1    1    2    0    0 -0.88739463550E-02  0.42680951571E-02  0.20075829742E-01  0.50000500000E+01  0.50000000000E+01 0. -1.
     100001    1    1    2    0    0  0.88739463550E-02 -0.42680951571E-02 -0.20075829742E-01  0.50000500000E+01  0.50000000000E+01 0.  0.
</event>
<event>
 4    1  0.5008549E-001  0.5000050E+01  0.7818608E-02  0.2136455E+00
        -11   -1    0    0    0    0  0.00000000000E+00  0.00000000000E+00  0.50000499739E+01  0.50000500000E+01  0.51100000000E-03 0.  1.
         11   -1    0    0    0    0 -0.00000000000E+00 -0.00000000000E+00 -0.50000499739E+01  0.50000500000E+01  0.51100000000E-03 0. -1.
     100001    1    1    2    0    0 -0.39906406065E-02  0.20176905554E-01  0.87732416936E-02  0.50000500000E+01  0.50000000000E+01 0. -1.
     100001    1    1    2    0    0  0.39906406065E-02 -0.20176905554E-01 -0.87732416936E-02  0.50000500000E+01  0.50000000000E+01 0.  0.
</event>
<event>
 4    1  0.5008549E-001  0.5000050E+01  0.7818608E-02  0.2136455E+00
        -11   -1    0    0    0    0  0.00000000000E+00  0.00000000000E+00  0.50000499739E+01  0.50000500000E+01  0.51100000000E-03 0.  1.
         11   -1    0    0    0    0 -0.00000000000E+00 -0.00000000000E+00 -0.50000499739E+01  0.50000500000E+01  0.51100000000E-03 0. -1.
     100001    1    1    2    0    0  0.18630726546E-01  0.20049340451E-02  0.12201588742E-01  0.50000500000E+01  0.50000000000E+01 0. -1.
     100001    1    1    2    0    0 -0.18630726546E-01 -0.20049340451E-02 -0.12201588742E-01  0.50000500000E+01  0.50000000000E+01 0.  0.
</event>
<event>
 4    1  0.5008549E-001  0.5000050E+01  0.7818608E-02  0.2136455E+00
        -11   -1    0    0    0    0  0.00000000000E+00  0.00000000000E+00  0.50000499739E+01  0.50000500000E+01  0.51100000000E-03 0.  1.
         11   -1    0    0    0    0 -0.00000000000E+00 -0.00000000000E+00 -0.50000499739E+01  0.50000500000E+01  0.51100000000E-03 0. -1.
     100001    1    1    2    0    0 -0.13208745307E-01 -0.55889850730E-02 -0.17155022392E-01  0.50000500000E+01  0.50000000000E+01 0. -1.
     100001    1    1    2    0    0  0.13208745307E-01  0.55889850730E-02  0.17155022392E-01  0.50000500000E+01  0.50000000000E+01 0.  0.
</event>
<event>
 4    1  0.5008549E-001  0.5000050E+01  0.7818608E-02  0.2136455E+00
        -11   -1    0    0    0    0  0.00000000000E+00  0.00000000000E+00  0.50000499739E+01  0.50000500000E+01  0.51100000000E-03 0.  1.
         11   -1    0    0    0    0 -0.00000000000E+00 -0.00000000000E+00 -0.50000499739E+01  0.50000500000E+01  0.51100000000E-03 0. -1.
     100001    1    1    2    0    0  0.35745221140E-02  0.20307620801E-01  0.86501924293E-02  0.50000500000E+01  0.50000000000E+01 0.  1.
     100001    1    1    2    0    0 -0.35745221140E-02 -0.20307620801E-01 -0.86501924293E-02  0.50000500000E+01  0.50000000000E+01 0. -1.
</event>
<event>
 4    1  0.5008549E-001  0.5000050E+01  0.7818608E-02  0.2136455E+00
        -11   -1    0    0    0    0  0.00000000000E+00  0.00000000000E+00  0.50000499739E+01  0.50000500000E+01  0.51100000000E-03 0. -1.
         11   -1    0    0    0    0 -0.00000000000E+00 -0.00000000000E+00 -0.50000499739E+01  0.50000500000E+01  0.51100000000E-03 0.  1.
     100001    1    1    2    0    0 -0.17643767711E-01  0.10472089708E-01 -0.88901798684E-02  0.50000500000E+01  0.50000000000E+01 0.  0.
     100001    1    1    2    0    0  0.17643767711E-01 -0.10472089708E-01  0.88901798684E-02  0.50000500000E+01  0.50000000000E+01 0.  1.
</event>
<event>
 4    1  0.5008549E-001  0.5000050E+01  0.7818608E-02  0.2136455E+00
        -11   -1    0    0    0    0  0.00000000000E+00  0.00000000000E+00  0.50000499739E+01  0.50000500000E+01  0.51100000000E-03 0. -1.
         11   -1    0    0    0    0 -0.00000000000E+00 -0.00000000000E+00 -0.50000499739E+01  0.50000500000E+01  0.51100000000E-03 0.  1.
     100001    1    1    2    0    0 -0.56148886368E-02  0.14834528146E-02 -0.21593399300E-01  0.50000500000E+01  0.50000000000E+01 0.  1.
     100001    1    1    2    0    0  0.56148886368E-02 -0.14834528146E-02  0.21593399300E-01  0.50000500000E+01  0.50000000000E+01 0.  0.
</event>
<event>
 4    1  0.5008549E-001  0.5000050E+01  0.7818608E-02  0.2136455E+00
        -11   -1    0    0    0    0  0.00000000000E+00  0.00000000000E+00  0.50000499739E+01  0.50000500000E+01  0.51100000000E-03 0. -1.
         11   -1    0    0    0    0 -0.00000000000E+00 -0.00000000000E+00 -0.50000499739E+01  0.50000500000E+01  0.51100000000E-03 0.  1.
     100001    1    1    2    0    0 -0.18336085153E-01 -0.43256929825E-02  0.12044868678E-01  0.50000500000E+01  0.50000000000E+01 0. -1.
     100001    1    1    2    0    0  0.18336085153E-01  0.43256929825E-02 -0.12044868678E-01  0.50000500000E+01  0.50000000000E+01 0.  1.
</event>
<event>
 4    1  0.5008549E-001  0.5000050E+01  0.7818608E-02  0.2136455E+00
        -11   -1    0    0    0    0  0.00000000000E+00  0.00000000000E+00  0.50000499739E+01  0.50000500000E+01  0.51100000000E-03 0. -1.
         11   -1    0    0    0    0 -0.00000000000E+00 -0.00000000000E+00 -0.50000499739E+01  0.50000500000E+01  0.51100000000E-03 0.  1.
     100001    1    1    2    0    0 -0.10330890152E-01 -0.82475951473E-02  0.18034754863E-01  0.50000500000E+01  0.50000000000E+01 0.  0.
     100001    1    1    2    0    0  0.10330890152E-01  0.82475951473E-02 -0.18034754863E-01  0.50000500000E+01  0.50000000000E+01 0.  1.
</event>
<event>
 4    1  0.5008549E-001  0.5000050E+01  0.7818608E-02  0.2136455E+00
        -11   -1    0    0    0    0  0.00000000000E+00  0.00000000000E+00  0.50000499739E+01  0.50000500000E+01  0.51100000000E-03 0. -1.
         11   -1    0    0    0    0 -0.00000000000E+00 -0.00000000000E+00 -0.50000499739E+01  0.50000500000E+01  0.51100000000E-03 0.  1.
     100001    1    1    2    0    0 -0.74324397074E-02  0.16094840871E-01  0.13627818510E-01  0.50000500000E+01  0.50000000000E+01 0.  0.
     100001    1    1    2    0    0  0.74324397074E-02 -0.16094840871E-01 -0.13627818510E-01  0.50000500000E+01  0.50000000000E+01 0.  0.
</event>
<event>
 4    1  0.5008549E-001  0.5000050E+01  0.7818608E-02  0.2136455E+00
        -11   -1    0    0    0    0  0.00000000000E+00  0.00000000000E+00  0.50000499739E+01  0.50000500000E+01  0.51100000000E-03 0. -1.
         11   -1    0    0    0    0 -0.00000000000E+00 -0.00000000000E+00 -0.50000499739E+01  0.50000500000E+01  0.51100000000E-03 0.  1.
     100001    1    1    2    0    0 -0.21364060190E-01  0.39039335820E-02  0.53234138273E-02  0.50000500000E+01  0.50000000000E+01 0.  0.
     100001    1    1    2    0    0  0.21364060190E-01 -0.39039335820E-02 -0.53234138273E-02  0.50000500000E+01  0.50000000000E+01 0. -1.
</event>
<event>
 4    1  0.5008549E-001  0.5000050E+01  0.7818608E-02  0.2136455E+00
        -11   -1    0    0    0    0  0.00000000000E+00  0.00000000000E+00  0.50000499739E+01  0.50000500000E+01  0.51100000000E-03 0. -1.
         11   -1    0    0    0    0 -0.00000000000E+00 -0.00000000000E+00 -0.50000499739E+01  0.50000500000E+01  0.51100000000E-03 0.  1.
     100001    1    1    2    0    0  0.40168523139E-02 -0.20502985853E-01  0.79683730213E-02  0.50000500000E+01  0.50000000000E+01 0. -1.
     100001    1    1    2    0    0 -0.40168523139E-02  0.20502985853E-01 -0.79683730213E-02  0.50000500000E+01  0.50000000000E+01 0.  1.
</event>
<event>
 4    1  0.5008549E-001  0.5000050E+01  0.7818608E-02  0.2136455E+00
        -11   -1    0    0    0    0  0.00000000000E+00  0.00000000000E+00  0.50000499739E+01  0.50000500000E+01  0.51100000000E-03 0.  1.
         11   -1    0    0    0    0 -0.00000000000E+00 -0.00000000000E+00 -0.50000499739E+01  0.50000500000E+01  0.51100000000E-03 0. -1.
     100001    1    1    2    0    0  0.21325852191E-01 -0.65420560934E-02 -0.15530712737E-02  0.50000500000E+01  0.50000000000E+01 0.  1.
     100001    1    1    2    0    0 -0.21325852191E-01  0.65420560934E-02  0.15530712737E-02  0.50000500000E+01  0.50000000000E+01 0.  0.
</event>
<event>
 4    1  0.5008549E-001  0.5000050E+01  0.7818608E-02  0.2136455E+00
        -11   -1    0    0    0    0  0.00000000000E+00  0.00000000000E+00  0.50000499739E+01  0.50000500000E+01  0.51100000000E-03 0.  1.
         11   -1    0    0    0    0 -0.00000000000E+00 -0.00000000000E+00 -0.50000499739E+01  0.50000500000E+01  0.51100000000E-03 0. -1.
     100001    1    1    2    0    0 -0.52228651429E-02 -0.14582937870E-01 -0.16126441107E-01  0.50000500000E+01  0.50000000000E+01 0. -1.
     100001    1    1    2    0    0  0.52228651429E-02  0.14582937870E-01  0.16126441107E-01  0.50000500000E+01  0.50000000000E+01 0. -1.
</event>
<event>
 4    1  0.5008549E-001  0.5000050E+01  0.7818608E-02  0.2136455E+00
        -11   -1    0    0    0    0  0.00000000000E+00  0.00000000000E+00  0.50000499739E+01  0.50000500000E+01  0.51100000000E-03 0. -1.
         11   -1    0    0    0    0 -0.00000000000E+00 -0.00000000000E+00 -0.50000499739E+01  0.50000500000E+01  0.51100000000E-03 0.  1.
     100001    1    1    2    0    0  0.29820103128E-02 -0.22094450407E-01  0.17162096947E-02  0.50000500000E+01  0.50000000000E+01 0. -1.
     100001    1    1    2    0    0 -0.29820103128E-02  0.22094450407E-01 -0.17162096947E-02  0.50000500000E+01  0.50000000000E+01 0.  1.
</event>
<event>
 4    1  0.5008549E-001  0.5000050E+01  0.7818608E-02  0.2136455E+00
        -11   -1    0    0    0    0  0.00000000000E+00  0.00000000000E+00  0.50000499739E+01  0.50000500000E+01  0.51100000000E-03 0.  1.
         11   -1    0    0    0    0 -0.00000000000E+00 -0.00000000000E+00 -0.50000499739E+01  0.50000500000E+01  0.51100000000E-03 0. -1.
     100001    1    1    2    0    0 -0.13873523204E-01  0.10243522273E-02  0.17506528966E-01  0.50000500000E+01  0.50000000000E+01 0.  1.
     100001    1    1    2    0    0  0.13873523204E-01 -0.10243522273E-02 -0.17506528966E-01  0.50000500000E+01  0.50000000000E+01 0. -1.
</event>
<event>
 4    1  0.5008549E-001  0.5000050E+01  0.7818608E-02  0.2136455E+00
        -11   -1    0    0    0    0  0.00000000000E+00  0.00000000000E+00  0.50000499739E+01  0.50000500000E+01  0.51100000000E-03 0. -1.
         11   -1    0    0    0    0 -0.00000000000E+00 -0.00000000000E+00 -0.50000499739E+01  0.50000500000E+01  0.51100000000E-03 0.  1.
     100001    1    1    2    0    0  0.45700387933E-02 -0.21200021518E-01  0.54475988333E-02  0.50000500000E+01  0.50000000000E+01 0.  1.
     100001    1    1    2    0    0 -0.45700387933E-02  0.21200021518E-01 -0.54475988333E-02  0.50000500000E+01  0.50000000000E+01 0.  0.
</event>
<event>
 4    1  0.5008549E-001  0.5000050E+01  0.7818608E-02  0.2136455E+00
        -11   -1    0    0    0    0  0.00000000000E+00  0.00000000000E+00  0.50000499739E+01  0.50000500000E+01  0.51100000000E-03 0. -1.
         11   -1    0    0    0    0 -0.00000000000E+00 -0.00000000000E+00 -0.50000499739E+01  0.50000500000E+01  0.51100000000E-03 0.  1.
     100001    1    1    2    0    0  0.13806295622E-01  0.11313321967E-01 -0.13468386959E-01  0.50000500000E+01  0.50000000000E+01 0.  0.
     100001    1    1    2    0    0 -0.13806295622E-01 -0.11313321967E-01  0.13468386959E-01  0.50000500000E+01  0.50000000000E+01 0.  0.
</event>
<event>
 4    1  0.5008549E-001  0.5000050E+01  0.7818608E-02  0.2136455E+00
        -11   -1    0    0    0    0  0.00000000000E+00  0.00000000000E+00  0.50000499739E+01  0.50000500000E+01  0.51100000000E-03 0. -1.
         11   -1    0    0    0    0 -0.00000000000E+00 -0.00000000000E+00 -0.50000499739E+01  0.50000500000E+01  0.51100000000E-03 0.  1.
     100001    1    1    2    0    0 -0.10537593783E-02  0.16421686512E-01 -0.15140023226E-01  0.50000500000E+01  0.50000000000E+01 0.  1.
     100001    1    1    2    0    0  0.10537593783E-02 -0.16421686512E-01  0.15140023226E-01  0.50000500000E+01  0.50000000000E+01 0.  1.
</event>
<event>
 4    1  0.5008549E-001  0.5000050E+01  0.7818608E-02  0.2136455E+00
        -11   -1    0    0    0    0  0.00000000000E+00  0.00000000000E+00  0.50000499739E+01  0.50000500000E+01  0.51100000000E-03 0. -1.
         11   -1    0    0    0    0 -0.00000000000E+00 -0.00000000000E+00 -0.50000499739E+01  0.50000500000E+01  0.51100000000E-03 0.  1.
     100001    1    1    2    0    0  0.17186277938E-01 -0.14235908281E-01 -0.14047298839E-02  0.50000500000E+01  0.50000000000E+01 0. -1.
     100001    1    1    2    0    0 -0.17186277938E-01  0.14235908281E-01  0.14047298839E-02  0.50000500000E+01  0.50000000000E+01 0.  0.
</event>
<event>
 4    1  0.5008549E-001  0.5000050E+01  0.7818608E-02  0.2136455E+00
        -11   -1    0    0    0    0  0.00000000000E+00  0.00000000000E+00  0.50000499739E+01  0.50000500000E+01  0.51100000000E-03 0.  1.
         11   -1    0    0    0    0 -0.00000000000E+00 -0.00000000000E+00 -0.50000499739E+01  0.50000500000E+01  0.51100000000E-03 0. -1.
     100001    1    1    2    0    0  0.17239027878E-01 -0.37425901131E-02  0.13740867406E-01  0.50000500000E+01  0.50000000000E+01 0.  1.
     100001    1    1    2    0    0 -0.17239027878E-01  0.37425901131E-02 -0.13740867406E-01  0.50000500000E+01  0.50000000000E+01 0. -1.
</event>
<event>
 4    1  0.5008549E-001  0.5000050E+01  0.7818608E-02  0.2136455E+00
        -11   -1    0    0    0    0  0.00000000000E+00  0.00000000000E+00  0.50000499739E+01  0.50000500000E+01  0.51100000000E-03 0. -1.
         11   -1    0    0    0    0 -0.00000000000E+00 -0.00000000000E+00 -0.50000499739E+01  0.50000500000E+01  0.51100000000E-03 0.  1.
     100001    1    1    2    0    0  0.45707837672E-03  0.21187246052E-01  0.71340159861E-02  0.50000500000E+01  0.50000000000E+01 0.  0.
     100001    1    1    2    0    0 -0.45707837672E-03 -0.21187246052E-01 -0.71340159861E-02  0.50000500000E+01  0.50000000000E+01 0.  0.
</event>
<event>
 4    1  0.5008549E-001  0.5000050E+01  0.7818608E-02  0.2136455E+00
        -11   -1    0    0    0    0  0.00000000000E+00  0.00000000000E+00  0.50000499739E+01  0.50000500000E+01  0.51100000000E-03 0. -1.
         11   -1    0    0    0    0 -0.00000000000E+00 -0.00000000000E+00 -0.50000499739E+01  0.50000500000E+01  0.51100000000E-03 0.  1.
     100001    1    1    2    0    0 -0.58937278520E-02  0.29731956380E-02 -0.21364142382E-01  0.50000500000E+01  0.50000000000E+01 0.  1.
     100001    1    1    2    0    0  0.58937278520E-02 -0.29731956380E-02  0.21364142382E-01  0.50000500000E+01  0.50000000000E+01 0.  0.
</event>
<event>
 4    1  0.5008549E-001  0.5000050E+01  0.7818608E-02  0.2136455E+00
        -11   -1    0    0    0    0  0.00000000000E+00  0.00000000000E+00  0.50000499739E+01  0.50000500000E+01  0.51100000000E-03 0. -1.
         11   -1    0    0    0    0 -0.00000000000E+00 -0.00000000000E+00 -0.50000499739E+01  0.50000500000E+01  0.51100000000E-03 0.  1.
     100001    1    1    2    0    0 -0.72962850894E-02 -0.38473539404E-02  0.20783757878E-01  0.50000500000E+01  0.50000000000E+01 0.  0.
     100001    1    1    2    0    0  0.72962850894E-02  0.38473539404E-02 -0.20783757878E-01  0.50000500000E+01  0.50000000000E+01 0.  1.
</event>
<event>
 4    1  0.5008549E-001  0.5000050E+01  0.7818608E-02  0.2136455E+00
        -11   -1    0    0    0    0  0.00000000000E+00  0.00000000000E+00  0.50000499739E+01  0.50000500000E+01  0.51100000000E-03 0. -1.
         11   -1    0    0    0    0 -0.00000000000E+00 -0.00000000000E+00 -0.50000499739E+01  0.50000500000E+01  0.51100000000E-03 0.  1.
     100001    1    1    2    0    0 -0.87290907031E-02  0.20585267169E-01 -0.22858493582E-03  0.50000500000E+01  0.50000000000E+01 0.  1.
     100001    1    1    2    0    0  0.87290907031E-02 -0.20585267169E-01  0.22858493582E-03  0.50000500000E+01  0.50000000000E+01 0. -1.
</event>
<event>
 4    1  0.5008549E-001  0.5000050E+01  0.7818608E-02  0.2136455E+00
        -11   -1    0    0    0    0  0.00000000000E+00  0.00000000000E+00  0.50000499739E+01  0.50000500000E+01  0.51100000000E-03 0.  1.
         11   -1    0    0    0    0 -0.00000000000E+00 -0.00000000000E+00 -0.50000499739E+01  0.50000500000E+01  0.51100000000E-03 0. -1.
     100001    1    1    2    0    0  0.14187600394E-01 -0.17259071928E-01  0.91593188583E-03  0.50000500000E+01  0.50000000000E+01 0.  1.
     100001    1    1    2    0    0 -0.14187600394E-01  0.17259071928E-01 -0.91593188583E-03  0.50000500000E+01  0.50000000000E+01 0. -1.
</event>
<event>
 4    1  0.5008549E-001  0.5000050E+01  0.7818608E-02  0.2136455E+00
        -11   -1    0    0    0    0  0.00000000000E+00  0.00000000000E+00  0.50000499739E+01  0.50000500000E+01  0.51100000000E-03 0.  1.
         11   -1    0    0    0    0 -0.00000000000E+00 -0.00000000000E+00 -0.50000499739E+01  0.50000500000E+01  0.51100000000E-03 0. -1.
     100001    1    1    2    0    0 -0.44579384698E-02 -0.21906147069E-01  0.50000520079E-03  0.50000500000E+01  0.50000000000E+01 0.  0.
     100001    1    1    2    0    0  0.44579384698E-02  0.21906147069E-01 -0.50000520079E-03  0.50000500000E+01  0.50000000000E+01 0.  1.
</event>
<event>
 4    1  0.5008549E-001  0.5000050E+01  0.7818608E-02  0.2136455E+00
        -11   -1    0    0    0    0  0.00000000000E+00  0.00000000000E+00  0.50000499739E+01  0.50000500000E+01  0.51100000000E-03 0.  1.
         11   -1    0    0    0    0 -0.00000000000E+00 -0.00000000000E+00 -0.50000499739E+01  0.50000500000E+01  0.51100000000E-03 0. -1.
     100001    1    1    2    0    0  0.19921506194E-01 -0.56239850033E-03 -0.10140009808E-01  0.50000500000E+01  0.50000000000E+01 0. -1.
     100001    1    1    2    0    0 -0.19921506194E-01  0.56239850033E-03  0.10140009808E-01  0.50000500000E+01  0.50000000000E+01 0. -1.
</event>
<event>
 4    1  0.5008549E-001  0.5000050E+01  0.7818608E-02  0.2136455E+00
        -11   -1    0    0    0    0  0.00000000000E+00  0.00000000000E+00  0.50000499739E+01  0.50000500000E+01  0.51100000000E-03 0.  1.
         11   -1    0    0    0    0 -0.00000000000E+00 -0.00000000000E+00 -0.50000499739E+01  0.50000500000E+01  0.51100000000E-03 0. -1.
     100001    1    1    2    0    0 -0.16487926975E-01 -0.15056512435E-01 -0.12050715103E-02  0.50000500000E+01  0.50000000000E+01 0. -1.
     100001    1    1    2    0    0  0.16487926975E-01  0.15056512435E-01  0.12050715103E-02  0.50000500000E+01  0.50000000000E+01 0.  1.
</event>
<event>
 4    1  0.5008549E-001  0.5000050E+01  0.7818608E-02  0.2136455E+00
        -11   -1    0    0    0    0  0.00000000000E+00  0.00000000000E+00  0.50000499739E+01  0.50000500000E+01  0.51100000000E-03 0.  1.
         11   -1    0    0    0    0 -0.00000000000E+00 -0.00000000000E+00 -0.50000499739E+01  0.50000500000E+01  0.51100000000E-03 0. -1.
     100001    1    1    2    0    0 -0.10380324889E-01  0.10708362528E-01 -0.16660802117E-01  0.50000500000E+01  0.50000000000E+01 0. -1.
     100001    1    1    2    0    0  0.10380324889E-01 -0.10708362528E-01  0.16660802117E-01  0.50000500000E+01  0.50000000000E+01 0.  1.
</event>
<event>
 4    1  0.5008549E-001  0.5000050E+01  0.7818608E-02  0.2136455E+00
        -11   -1    0    0    0    0  0.00000000000E+00  0.00000000000E+00  0.50000499739E+01  0.50000500000E+01  0.51100000000E-03 0.  1.
         11   -1    0    0    0    0 -0.00000000000E+00 -0.00000000000E+00 -0.50000499739E+01  0.50000500000E+01  0.51100000000E-03 0. -1.
     100001    1    1    2    0    0  0.41548370712E-02  0.11973815616E-01  0.18421931726E-01  0.50000500000E+01  0.50000000000E+01 0.  1.
     100001    1    1    2    0    0 -0.41548370712E-02 -0.11973815616E-01 -0.18421931726E-01  0.50000500000E+01  0.50000000000E+01 0.  0.
</event>
<event>
 4    1  0.5008549E-001  0.5000050E+01  0.7818608E-02  0.2136455E+00
        -11   -1    0    0    0    0  0.00000000000E+00  0.00000000000E+00  0.50000499739E+01  0.50000500000E+01  0.51100000000E-03 0.  1.
         11   -1    0    0    0    0 -0.00000000000E+00 -0.00000000000E+00 -0.50000499739E+01  0.50000500000E+01  0.51100000000E-03 0. -1.
     100001    1    1    2    0    0 -0.12491966558E-01  0.29015186122E-02 -0.18317599768E-01  0.50000500000E+01  0.50000000000E+01 0.  0.
     100001    1    1    2    0    0  0.12491966558E-01 -0.29015186122E-02  0.18317599768E-01  0.50000500000E+01  0.50000000000E+01 0.  1.
</event>
<event>
 4    1  0.5008549E-001  0.5000050E+01  0.7818608E-02  0.2136455E+00
        -11   -1    0    0    0    0  0.00000000000E+00  0.00000000000E+00  0.50000499739E+01  0.50000500000E+01  0.51100000000E-03 0. -1.
         11   -1    0    0    0    0 -0.00000000000E+00 -0.00000000000E+00 -0.50000499739E+01  0.50000500000E+01  0.51100000000E-03 0.  1.
     100001    1    1    2    0    0 -0.19222069004E-01  0.92500054686E-02  0.67046224381E-02  0.50000500000E+01  0.50000000000E+01 0. -1.
     100001    1    1    2    0    0  0.19222069004E-01 -0.92500054686E-02 -0.67046224381E-02  0.50000500000E+01  0.50000000000E+01 0.  1.
</event>
<event>
 4    1  0.5008549E-001  0.5000050E+01  0.7818608E-02  0.2136455E+00
        -11   -1    0    0    0    0  0.00000000000E+00  0.00000000000E+00  0.50000499739E+01  0.50000500000E+01  0.51100000000E-03 0.  1.
         11   -1    0    0    0    0 -0.00000000000E+00 -0.00000000000E+00 -0.50000499739E+01  0.50000500000E+01  0.51100000000E-03 0. -1.
     100001    1    1    2    0    0 -0.21424912859E-01 -0.21064824600E-02 -0.60446952454E-02  0.50000500000E+01  0.50000000000E+01 0. -1.
     100001    1    1    2    0    0  0.21424912859E-01  0.21064824600E-02  0.60446952454E-02  0.50000500000E+01  0.50000000000E+01 0.  0.
</event>
<event>
 4    1  0.5008549E-001  0.5000050E+01  0.7818608E-02  0.2136455E+00
        -11   -1    0    0    0    0  0.00000000000E+00  0.00000000000E+00  0.50000499739E+01  0.50000500000E+01  0.51100000000E-03 0.  1.
         11   -1    0    0    0    0 -0.00000000000E+00 -0.00000000000E+00 -0.50000499739E+01  0.50000500000E+01  0.51100000000E-03 0. -1.
     100001    1    1    2    0    0  0.12163412697E-01  0.18749123017E-01 -0.72407019257E-03  0.50000500000E+01  0.50000000000E+01 0.  0.
     100001    1    1    2    0    0 -0.12163412697E-01 -0.18749123017E-01  0.72407019257E-03  0.50000500000E+01  0.50000000000E+01 0. -1.
</event>
<event>
 4    1  0.5008549E-001  0.5000050E+01  0.7818608E-02  0.2136455E+00
        -11   -1    0    0    0    0  0.00000000000E+00  0.00000000000E+00  0.50000499739E+01  0.50000500000E+01  0.51100000000E-03 0.  1.
         11   -1    0    0    0    0 -0.00000000000E+00 -0.00000000000E+00 -0.50000499739E+01  0.50000500000E+01  0.51100000000E-03 0. -1.
     100001    1    1    2    0    0  0.17204192066E-01 -0.14248780380E-01 -0.99525527094E-03  0.50000500000E+01  0.50000000000E+01 0. -1.
     100001    1    1    2    0    0 -0.17204192066E-01  0.14248780380E-01  0.99525527094E-03  0.50000500000E+01  0.50000000000E+01 0.  1.
</event>
<event>
 4    1  0.5008549E-001  0.5000050E+01  0.7818608E-02  0.2136455E+00
        -11   -1    0    0    0    0  0.00000000000E+00  0.00000000000E+00  0.50000499739E+01  0.50000500000E+01  0.51100000000E-03 0.  1.
         11   -1    0    0    0    0 -0.00000000000E+00 -0.00000000000E+00 -0.50000499739E+01  0.50000500000E+01  0.51100000000E-03 0. -1.
     100001    1    1    2    0    0  0.43926583832E-02  0.16155667565E-01  0.14822329705E-01  0.50000500000E+01  0.50000000000E+01 0.  1.
     100001    1    1    2    0    0 -0.43926583832E-02 -0.16155667565E-01 -0.14822329705E-01  0.50000500000E+01  0.50000000000E+01 0. -1.
</event>
<event>
 4    1  0.5008549E-001  0.5000050E+01  0.7818608E-02  0.2136455E+00
        -11   -1    0    0    0    0  0.00000000000E+00  0.00000000000E+00  0.50000499739E+01  0.50000500000E+01  0.51100000000E-03 0. -1.
         11   -1    0    0    0    0 -0.00000000000E+00 -0.00000000000E+00 -0.50000499739E+01  0.50000500000E+01  0.51100000000E-03 0.  1.
     100001    1    1    2    0    0  0.12741205642E-01 -0.18251239520E-01 -0.21345807041E-02  0.50000500000E+01  0.50000000000E+01 0. -1.
     100001    1    1    2    0    0 -0.12741205642E-01  0.18251239520E-01  0.21345807041E-02  0.50000500000E+01  0.50000000000E+01 0.  0.
</event>
<event>
 4    1  0.5008549E-001  0.5000050E+01  0.7818608E-02  0.2136455E+00
        -11   -1    0    0    0    0  0.00000000000E+00  0.00000000000E+00  0.50000499739E+01  0.50000500000E+01  0.51100000000E-03 0. -1.
         11   -1    0    0    0    0 -0.00000000000E+00 -0.00000000000E+00 -0.50000499739E+01  0.50000500000E+01  0.51100000000E-03 0.  1.
     100001    1    1    2    0    0 -0.21480323697E-01 -0.31720786715E-02  0.53419201404E-02  0.50000500000E+01  0.50000000000E+01 0. -1.
     100001    1    1    2    0    0  0.21480323697E-01  0.31720786715E-02 -0.53419201404E-02  0.50000500000E+01  0.50000000000E+01 0.  1.
</event>
<event>
 4    1  0.5008549E-001  0.5000050E+01  0.7818608E-02  0.2136455E+00
        -11   -1    0    0    0    0  0.00000000000E+00  0.00000000000E+00  0.50000499739E+01  0.50000500000E+01  0.51100000000E-03 0.  1.
         11   -1    0    0    0    0 -0.00000000000E+00 -0.00000000000E+00 -0.50000499739E+01  0.50000500000E+01  0.51100000000E-03 0. -1.
     100001    1    1    2    0    0 -0.13513331748E-01 -0.40101699680E-02  0.17358309304E-01  0.50000500000E+01  0.50000000000E+01 0.  0.
     100001    1    1    2    0    0  0.13513331748E-01  0.40101699680E-02 -0.17358309304E-01  0.50000500000E+01  0.50000000000E+01 0.  0.
</event>
<event>
 4    1  0.5008549E-001  0.5000050E+01  0.7818608E-02  0.2136455E+00
        -11   -1    0    0    0    0  0.00000000000E+00  0.00000000000E+00  0.50000499739E+01  0.50000500000E+01  0.51100000000E-03 0.  1.
         11   -1    0    0    0    0 -0.00000000000E+00 -0.00000000000E+00 -0.50000499739E+01  0.50000500000E+01  0.51100000000E-03 0. -1.
     100001    1    1    2    0    0 -0.14012957743E-01  0.13943617726E-01 -0.10450599984E-01  0.50000500000E+01  0.50000000000E+01 0. -1.
     100001    1    1    2    0    0  0.14012957743E-01 -0.13943617726E-01  0.10450599984E-01  0.50000500000E+01  0.50000000000E+01 0.  1.
</event>
<event>
 4    1  0.5008549E-001  0.5000050E+01  0.7818608E-02  0.2136455E+00
        -11   -1    0    0    0    0  0.00000000000E+00  0.00000000000E+00  0.50000499739E+01  0.50000500000E+01  0.51100000000E-03 0. -1.
         11   -1    0    0    0    0 -0.00000000000E+00 -0.00000000000E+00 -0.50000499739E+01  0.50000500000E+01  0.51100000000E-03 0.  1.
     100001    1    1    2    0    0 -0.19984870139E-01 -0.81686025073E-02 -0.58207730253E-02  0.50000500000E+01  0.50000000000E+01 0.  0.
     100001    1    1    2    0    0  0.19984870139E-01  0.81686025073E-02  0.58207730253E-02  0.50000500000E+01  0.50000000000E+01 0.  0.
</event>
<event>
 4    1  0.5008549E-001  0.5000050E+01  0.7818608E-02  0.2136455E+00
        -11   -1    0    0    0    0  0.00000000000E+00  0.00000000000E+00  0.50000499739E+01  0.50000500000E+01  0.51100000000E-03 0. -1.
         11   -1    0    0    0    0 -0.00000000000E+00 -0.00000000000E+00 -0.50000499739E+01  0.50000500000E+01  0.51100000000E-03 0.  1.
     100001    1    1    2    0    0  0.21468514795E-01  0.60955249957E-02 -0.13964052165E-02  0.50000500000E+01  0.50000000000E+01 0.  1.
     100001    1    1    2    0    0 -0.21468514795E-01 -0.60955249957E-02  0.13964052165E-02  0.50000500000E+01  0.50000000000E+01 0. -1.
</event>
<event>
 4    1  0.5008549E-001  0.5000050E+01  0.7818608E-02  0.2136455E+00
        -11   -1    0    0    0    0  0.00000000000E+00  0.00000000000E+00  0.50000499739E+01  0.50000500000E+01  0.51100000000E-03 0. -1.
         11   -1    0    0    0    0 -0.00000000000E+00 -0.00000000000E+00 -0.50000499739E+01  0.50000500000E+01  0.51100000000E-03 0.  1.
     100001    1    1    2    0    0  0.11932676177E-01  0.52104055349E-02 -0.18178707694E-01  0.50000500000E+01  0.50000000000E+01 0.  0.
     100001    1    1    2    0    0 -0.11932676177E-01 -0.52104055349E-02  0.18178707694E-01  0.50000500000E+01  0.50000000000E+01 0. -1.
</event>
<event>
 4    1  0.5008549E-001  0.5000050E+01  0.7818608E-02  0.2136455E+00
        -11   -1    0    0    0    0  0.00000000000E+00  0.00000000000E+00  0.50000499739E+01  0.50000500000E+01  0.51100000000E-03 0.  1.
         11   -1    0    0    0    0 -0.00000000000E+00 -0.00000000000E+00 -0.50000499739E+01  0.50000500000E+01  0.51100000000E-03 0. -1.
     100001    1    1    2    0    0  0.10818977424E-02  0.18710722344E-01 -0.12195936481E-01  0.50000500000E+01  0.50000000000E+01 0.  0.
     100001    1    1    2    0    0 -0.10818977424E-02 -0.18710722344E-01  0.12195936481E-01  0.50000500000E+01  0.50000000000E+01 0.  0.
</event>
<event>
 4    1  0.5008549E-001  0.5000050E+01  0.7818608E-02  0.2136455E+00
        -11   -1    0    0    0    0  0.00000000000E+00  0.00000000000E+00  0.50000499739E+01  0.50000500000E+01  0.51100000000E-03 0. -1.
         11   -1    0    0    0    0 -0.00000000000E+00 -0.00000000000E+00 -0.50000499739E+01  0.50000500000E+01  0.51100000000E-03 0.  1.
     100001    1    1    2    0    0 -0.28659826457E-02  0.20854111720E-01 -0.75428554171E-02  0.50000500000E+01  0.50000000000E+01 0.  1.
     100001    1    1    2    0    0  0.28659826457E-02 -0.20854111720E-01  0.75428554171E-02  0.50000500000E+01  0.50000000000E+01 0. -1.
</event>
<event>
 4    1  0.5008549E-001  0.5000050E+01  0.7818608E-02  0.2136455E+00
        -11   -1    0    0    0    0  0.00000000000E+00  0.00000000000E+00  0.50000499739E+01  0.50000500000E+01  0.51100000000E-03 0.  1.
         11   -1    0    0    0    0 -0.00000000000E+00 -0.00000000000E+00 -0.50000499739E+01  0.50000500000E+01  0.51100000000E-03 0. -1.
     100001    1    1    2    0    0 -0.18071207076E-02  0.12941859277E-01 -0.18145112102E-01  0.50000500000E+01  0.50000000000E+01 0. -1.
     100001    1    1    2    0    0  0.18071207076E-02 -0.12941859277E-01  0.18145112102E-01  0.50000500000E+01  0.50000000000E+01 0.  0.
</event>
<event>
 4    1  0.5008549E-001  0.5000050E+01  0.7818608E-02  0.2136455E+00
        -11   -1    0    0    0    0  0.00000000000E+00  0.00000000000E+00  0.50000499739E+01  0.50000500000E+01  0.51100000000E-03 0.  1.
         11   -1    0    0    0    0 -0.00000000000E+00 -0.00000000000E+00 -0.50000499739E+01  0.50000500000E+01  0.51100000000E-03 0. -1.
     100001    1    1    2    0    0  0.21503568285E-01 -0.60094545677E-02 -0.12188136955E-02  0.50000500000E+01  0.50000000000E+01 0.  1.
     100001    1    1    2    0    0 -0.21503568285E-01  0.60094545677E-02  0.12188136955E-02  0.50000500000E+01  0.50000000000E+01 0. -1.
</event>
<event>
 4    1  0.5008549E-001  0.5000050E+01  0.7818608E-02  0.2136455E+00
        -11   -1    0    0    0    0  0.00000000000E+00  0.00000000000E+00  0.50000499739E+01  0.50000500000E+01  0.51100000000E-03 0. -1.
         11   -1    0    0    0    0 -0.00000000000E+00 -0.00000000000E+00 -0.50000499739E+01  0.50000500000E+01  0.51100000000E-03 0.  1.
     100001    1    1    2    0    0  0.69770880317E-02 -0.21102965282E-01  0.24469570734E-02  0.50000500000E+01  0.50000000000E+01 0. -1.
     100001    1    1    2    0    0 -0.69770880317E-02  0.21102965282E-01 -0.24469570734E-02  0.50000500000E+01  0.50000000000E+01 0.  1.
</event>
<event>
 4    1  0.5008549E-001  0.5000050E+01  0.7818608E-02  0.2136455E+00
        -11   -1    0    0    0    0  0.00000000000E+00  0.00000000000E+00  0.50000499739E+01  0.50000500000E+01  0.51100000000E-03 0.  1.
         11   -1    0    0    0    0 -0.00000000000E+00 -0.00000000000E+00 -0.50000499739E+01  0.50000500000E+01  0.51100000000E-03 0. -1.
     100001    1    1    2    0    0  0.16382643887E-01 -0.65951950055E-02  0.13715497880E-01  0.50000500000E+01  0.50000000000E+01 0. -1.
     100001    1    1    2    0    0 -0.16382643887E-01  0.65951950055E-02 -0.13715497880E-01  0.50000500000E+01  0.50000000000E+01 0.  0.
</event>
<event>
 4    1  0.5008549E-001  0.5000050E+01  0.7818608E-02  0.2136455E+00
        -11   -1    0    0    0    0  0.00000000000E+00  0.00000000000E+00  0.50000499739E+01  0.50000500000E+01  0.51100000000E-03 0.  1.
         11   -1    0    0    0    0 -0.00000000000E+00 -0.00000000000E+00 -0.50000499739E+01  0.50000500000E+01  0.51100000000E-03 0. -1.
     100001    1    1    2    0    0 -0.51858200425E-02  0.12916223963E-01  0.17500883664E-01  0.50000500000E+01  0.50000000000E+01 0.  1.
     100001    1    1    2    0    0  0.51858200425E-02 -0.12916223963E-01 -0.17500883664E-01  0.50000500000E+01  0.50000000000E+01 0. -1.
</event>
<event>
 4    1  0.5008549E-001  0.5000050E+01  0.7818608E-02  0.2136455E+00
        -11   -1    0    0    0    0  0.00000000000E+00  0.00000000000E+00  0.50000499739E+01  0.50000500000E+01  0.51100000000E-03 0. -1.
         11   -1    0    0    0    0 -0.00000000000E+00 -0.00000000000E+00 -0.50000499739E+01  0.50000500000E+01  0.51100000000E-03 0.  1.
     100001    1    1    2    0    0 -0.13806829813E-01  0.16382532382E-01  0.64020764805E-02  0.50000500000E+01  0.50000000000E+01 0.  1.
     100001    1    1    2    0    0  0.13806829813E-01 -0.16382532382E-01 -0.64020764805E-02  0.50000500000E+01  0.50000000000E+01 0.  0.
</event>
<event>
 4    1  0.5008549E-001  0.5000050E+01  0.7818608E-02  0.2136455E+00
        -11   -1    0    0    0    0  0.00000000000E+00  0.00000000000E+00  0.50000499739E+01  0.50000500000E+01  0.51100000000E-03 0. -1.
         11   -1    0    0    0    0 -0.00000000000E+00 -0.00000000000E+00 -0.50000499739E+01  0.50000500000E+01  0.51100000000E-03 0.  1.
     100001    1    1    2    0    0 -0.14539566686E-01  0.14203442941E-01 -0.93201775311E-02  0.50000500000E+01  0.50000000000E+01 0.  1.
     100001    1    1    2    0    0  0.14539566686E-01 -0.14203442941E-01  0.93201775311E-02  0.50000500000E+01  0.50000000000E+01 0. -1.
</event>
<event>
 4    1  0.5008549E-001  0.5000050E+01  0.7818608E-02  0.2136455E+00
        -11   -1    0    0    0    0  0.00000000000E+00  0.00000000000E+00  0.50000499739E+01  0.50000500000E+01  0.51100000000E-03 0. -1.
         11   -1    0    0    0    0 -0.00000000000E+00 -0.00000000000E+00 -0.50000499739E+01  0.50000500000E+01  0.51100000000E-03 0.  1.
     100001    1    1    2    0    0  0.15975903155E-01  0.15471723084E-01  0.23235324761E-02  0.50000500000E+01  0.50000000000E+01 0. -1.
     100001    1    1    2    0    0 -0.15975903155E-01 -0.15471723084E-01 -0.23235324761E-02  0.50000500000E+01  0.50000000000E+01 0.  0.
</event>
<event>
 4    1  0.5008549E-001  0.5000050E+01  0.7818608E-02  0.2136455E+00
        -11   -1    0    0    0    0  0.00000000000E+00  0.00000000000E+00  0.50000499739E+01  0.50000500000E+01  0.51100000000E-03 0.  1.
         11   -1    0    0    0    0 -0.00000000000E+00 -0.00000000000E+00 -0.50000499739E+01  0.50000500000E+01  0.51100000000E-03 0. -1.
     100001    1    1    2    0    0  0.11816739793E-01 -0.18978525073E-01 -0.42748886231E-03  0.50000500000E+01  0.50000000000E+01 0.  1.
     100001    1    1    2    0    0 -0.11816739793E-01  0.18978525073E-01  0.42748886231E-03  0.50000500000E+01  0.50000000000E+01 0. -1.
</event>
<event>
 4    1  0.5008549E-001  0.5000050E+01  0.7818608E-02  0.2136455E+00
        -11   -1    0    0    0    0  0.00000000000E+00  0.00000000000E+00  0.50000499739E+01  0.50000500000E+01  0.51100000000E-03 0.  1.
         11   -1    0    0    0    0 -0.00000000000E+00 -0.00000000000E+00 -0.50000499739E+01  0.50000500000E+01  0.51100000000E-03 0. -1.
     100001    1    1    2    0    0 -0.11246623251E-01  0.18992779931E-01  0.35763495281E-02  0.50000500000E+01  0.50000000000E+01 0.  1.
     100001    1    1    2    0    0  0.11246623251E-01 -0.18992779931E-01 -0.35763495281E-02  0.50000500000E+01  0.50000000000E+01 0. -1.
</event>
<event>
 4    1  0.5008549E-001  0.5000050E+01  0.7818608E-02  0.2136455E+00
        -11   -1    0    0    0    0  0.00000000000E+00  0.00000000000E+00  0.50000499739E+01  0.50000500000E+01  0.51100000000E-03 0. -1.
         11   -1    0    0    0    0 -0.00000000000E+00 -0.00000000000E+00 -0.50000499739E+01  0.50000500000E+01  0.51100000000E-03 0.  1.
     100001    1    1    2    0    0 -0.14829339566E-01  0.15052585945E-01 -0.73152473919E-02  0.50000500000E+01  0.50000000000E+01 0.  1.
     100001    1    1    2    0    0  0.14829339566E-01 -0.15052585945E-01  0.73152473919E-02  0.50000500000E+01  0.50000000000E+01 0. -1.
</event>
<event>
 4    1  0.5008549E-001  0.5000050E+01  0.7818608E-02  0.2136455E+00
        -11   -1    0    0    0    0  0.00000000000E+00  0.00000000000E+00  0.50000499739E+01  0.50000500000E+01  0.51100000000E-03 0.  1.
         11   -1    0    0    0    0 -0.00000000000E+00 -0.00000000000E+00 -0.50000499739E+01  0.50000500000E+01  0.51100000000E-03 0. -1.
     100001    1    1    2    0    0  0.32858913888E-02 -0.36817613039E-02  0.21809402823E-01  0.50000500000E+01  0.50000000000E+01 0.  0.
     100001    1    1    2    0    0 -0.32858913888E-02  0.36817613039E-02 -0.21809402823E-01  0.50000500000E+01  0.50000000000E+01 0. -1.
</event>
<event>
 4    1  0.5008549E-001  0.5000050E+01  0.7818608E-02  0.2136455E+00
        -11   -1    0    0    0    0  0.00000000000E+00  0.00000000000E+00  0.50000499739E+01  0.50000500000E+01  0.51100000000E-03 0. -1.
         11   -1    0    0    0    0 -0.00000000000E+00 -0.00000000000E+00 -0.50000499739E+01  0.50000500000E+01  0.51100000000E-03 0.  1.
     100001    1    1    2    0    0 -0.17976561236E-01  0.13672447766E-02  0.13227864070E-01  0.50000500000E+01  0.50000000000E+01 0.  0.
     100001    1    1    2    0    0  0.17976561236E-01 -0.13672447766E-02 -0.13227864070E-01  0.50000500000E+01  0.50000000000E+01 0.  0.
</event>
<event>
 4    1  0.5008549E-001  0.5000050E+01  0.7818608E-02  0.2136455E+00
        -11   -1    0    0    0    0  0.00000000000E+00  0.00000000000E+00  0.50000499739E+01  0.50000500000E+01  0.51100000000E-03 0. -1.
         11   -1    0    0    0    0 -0.00000000000E+00 -0.00000000000E+00 -0.50000499739E+01  0.50000500000E+01  0.51100000000E-03 0.  1.
     100001    1    1    2    0    0 -0.42114322453E-02  0.20088420819E-01  0.88725243000E-02  0.50000500000E+01  0.50000000000E+01 0.  1.
     100001    1    1    2    0    0  0.42114322453E-02 -0.20088420819E-01 -0.88725243000E-02  0.50000500000E+01  0.50000000000E+01 0.  1.
</event>
<event>
 4    1  0.5008549E-001  0.5000050E+01  0.7818608E-02  0.2136455E+00
        -11   -1    0    0    0    0  0.00000000000E+00  0.00000000000E+00  0.50000499739E+01  0.50000500000E+01  0.51100000000E-03 0. -1.
         11   -1    0    0    0    0 -0.00000000000E+00 -0.00000000000E+00 -0.50000499739E+01  0.50000500000E+01  0.51100000000E-03 0.  1.
     100001    1    1    2    0    0  0.18836289394E-01 -0.18894946498E-02 -0.11900693755E-01  0.50000500000E+01  0.50000000000E+01 0.  1.
     100001    1    1    2    0    0 -0.18836289394E-01  0.18894946498E-02  0.11900693755E-01  0.50000500000E+01  0.50000000000E+01 0. -1.
</event>
<event>
 4    1  0.5008549E-001  0.5000050E+01  0.7818608E-02  0.2136455E+00
        -11   -1    0    0    0    0  0.00000000000E+00  0.00000000000E+00  0.50000499739E+01  0.50000500000E+01  0.51100000000E-03 0. -1.
         11   -1    0    0    0    0 -0.00000000000E+00 -0.00000000000E+00 -0.50000499739E+01  0.50000500000E+01  0.51100000000E-03 0.  1.
     100001    1    1    2    0    0 -0.36827669164E-02 -0.25090403174E-02 -0.21912198532E-01  0.50000500000E+01  0.50000000000E+01 0.  0.
     100001    1    1    2    0    0  0.36827669164E-02  0.25090403174E-02  0.21912198532E-01  0.50000500000E+01  0.50000000000E+01 0. -1.
</event>
<event>
 4    1  0.5008549E-001  0.5000050E+01  0.7818608E-02  0.2136455E+00
        -11   -1    0    0    0    0  0.00000000000E+00  0.00000000000E+00  0.50000499739E+01  0.50000500000E+01  0.51100000000E-03 0. -1.
         11   -1    0    0    0    0 -0.00000000000E+00 -0.00000000000E+00 -0.50000499739E+01  0.50000500000E+01  0.51100000000E-03 0.  1.
     100001    1    1    2    0    0  0.86267423641E-02 -0.20120856409E-01  0.45533453124E-02  0.50000500000E+01  0.50000000000E+01 0.  0.
     100001    1    1    2    0    0 -0.86267423641E-02  0.20120856409E-01 -0.45533453124E-02  0.50000500000E+01  0.50000000000E+01 0.  0.
</event>
<event>
 4    1  0.5008549E-001  0.5000050E+01  0.7818608E-02  0.2136455E+00
        -11   -1    0    0    0    0  0.00000000000E+00  0.00000000000E+00  0.50000499739E+01  0.50000500000E+01  0.51100000000E-03 0.  1.
         11   -1    0    0    0    0 -0.00000000000E+00 -0.00000000000E+00 -0.50000499739E+01  0.50000500000E+01  0.51100000000E-03 0. -1.
     100001    1    1    2    0    0 -0.98004009546E-02 -0.25652995827E-02 -0.19934238866E-01  0.50000500000E+01  0.50000000000E+01 0.  0.
     100001    1    1    2    0    0  0.98004009546E-02  0.25652995827E-02  0.19934238866E-01  0.50000500000E+01  0.50000000000E+01 0.  1.
</event>
<event>
 4    1  0.5008549E-001  0.5000050E+01  0.7818608E-02  0.2136455E+00
        -11   -1    0    0    0    0  0.00000000000E+00  0.00000000000E+00  0.50000499739E+01  0.50000500000E+01  0.51100000000E-03 0.  1.
         11   -1    0    0    0    0 -0.00000000000E+00 -0.00000000000E+00 -0.50000499739E+01  0.50000500000E+01  0.51100000000E-03 0. -1.
     100001    1    1    2    0    0  0.18170864152E-01 -0.12899523797E-01 -0.18505355338E-02  0.50000500000E+01  0.50000000000E+01 0.  0.
     100001    1    1    2    0    0 -0.18170864152E-01  0.12899523797E-01  0.18505355338E-02  0.50000500000E+01  0.50000000000E+01 0.  1.
</event>
<event>
 4    1  0.5008549E-001  0.5000050E+01  0.7818608E-02  0.2136455E+00
        -11   -1    0    0    0    0  0.00000000000E+00  0.00000000000E+00  0.50000499739E+01  0.50000500000E+01  0.51100000000E-03 0.  1.
         11   -1    0    0    0    0 -0.00000000000E+00 -0.00000000000E+00 -0.50000499739E+01  0.50000500000E+01  0.51100000000E-03 0. -1.
     100001    1    1    2    0    0  0.99297720959E-02  0.23657302518E-02  0.19894859801E-01  0.50000500000E+01  0.50000000000E+01 0.  0.
     100001    1    1    2    0    0 -0.99297720959E-02 -0.23657302518E-02 -0.19894859801E-01  0.50000500000E+01  0.50000000000E+01 0. -1.
</event>
<event>
 4    1  0.5008549E-001  0.5000050E+01  0.7818608E-02  0.2136455E+00
        -11   -1    0    0    0    0  0.00000000000E+00  0.00000000000E+00  0.50000499739E+01  0.50000500000E+01  0.51100000000E-03 0.  1.
         11   -1    0    0    0    0 -0.00000000000E+00 -0.00000000000E+00 -0.50000499739E+01  0.50000500000E+01  0.51100000000E-03 0. -1.
     100001    1    1    2    0    0  0.18923815669E-01 -0.69880520272E-02  0.96467004408E-02  0.50000500000E+01  0.50000000000E+01 0. -1.
     100001    1    1    2    0    0 -0.18923815669E-01  0.69880520272E-02 -0.96467004408E-02  0.50000500000E+01  0.50000000000E+01 0.  0.
</event>
<event>
 4    1  0.5008549E-001  0.5000050E+01  0.7818608E-02  0.2136455E+00
        -11   -1    0    0    0    0  0.00000000000E+00  0.00000000000E+00  0.50000499739E+01  0.50000500000E+01  0.51100000000E-03 0. -1.
         11   -1    0    0    0    0 -0.00000000000E+00 -0.00000000000E+00 -0.50000499739E+01  0.50000500000E+01  0.51100000000E-03 0.  1.
     100001    1    1    2    0    0  0.29089585135E-02  0.20689673200E-02 -0.22073962820E-01  0.50000500000E+01  0.50000000000E+01 0.  1.
     100001    1    1    2    0    0 -0.29089585135E-02 -0.20689673200E-02  0.22073962820E-01  0.50000500000E+01  0.50000000000E+01 0.  0.
</event>
<event>
 4    1  0.5008549E-001  0.5000050E+01  0.7818608E-02  0.2136455E+00
        -11   -1    0    0    0    0  0.00000000000E+00  0.00000000000E+00  0.50000499739E+01  0.50000500000E+01  0.51100000000E-03 0. -1.
         11   -1    0    0    0    0 -0.00000000000E+00 -0.00000000000E+00 -0.50000499739E+01  0.50000500000E+01  0.51100000000E-03 0.  1.
     100001    1    1    2    0    0 -0.98692399579E-02 -0.53829519241E-02 -0.19329367068E-01  0.50000500000E+01  0.50000000000E+01 0.  1.
     100001    1    1    2    0    0  0.98692399579E-02  0.53829519241E-02  0.19329367068E-01  0.50000500000E+01  0.50000000000E+01 0. -1.
</event>
<event>
 4    1  0.5008549E-001  0.5000050E+01  0.7818608E-02  0.2136455E+00
        -11   -1    0    0    0    0  0.00000000000E+00  0.00000000000E+00  0.50000499739E+01  0.50000500000E+01  0.51100000000E-03 0.  1.
         11   -1    0    0    0    0 -0.00000000000E+00 -0.00000000000E+00 -0.50000499739E+01  0.50000500000E+01  0.51100000000E-03 0. -1.
     100001    1    1    2    0    0 -0.14677662480E-02 -0.19892448205E-01 -0.10106367628E-01  0.50000500000E+01  0.50000000000E+01 0. -1.
     100001    1    1    2    0    0  0.14677662480E-02  0.19892448205E-01  0.10106367628E-01  0.50000500000E+01  0.50000000000E+01 0.  1.
</event>
<event>
 4    1  0.5008549E-001  0.5000050E+01  0.7818608E-02  0.2136455E+00
        -11   -1    0    0    0    0  0.00000000000E+00  0.00000000000E+00  0.50000499739E+01  0.50000500000E+01  0.51100000000E-03 0.  1.
         11   -1    0    0    0    0 -0.00000000000E+00 -0.00000000000E+00 -0.50000499739E+01  0.50000500000E+01  0.51100000000E-03 0. -1.
     100001    1    1    2    0    0 -0.61334086918E-02 -0.21416283202E-01  0.19304433814E-02  0.50000500000E+01  0.50000000000E+01 0.  0.
     100001    1    1    2    0    0  0.61334086918E-02  0.21416283202E-01 -0.19304433814E-02  0.50000500000E+01  0.50000000000E+01 0.  0.
</event>
<event>
 4    1  0.5008549E-001  0.5000050E+01  0.7818608E-02  0.2136455E+00
        -11   -1    0    0    0    0  0.00000000000E+00  0.00000000000E+00  0.50000499739E+01  0.50000500000E+01  0.51100000000E-03 0. -1.
         11   -1    0    0    0    0 -0.00000000000E+00 -0.00000000000E+00 -0.50000499739E+01  0.50000500000E+01  0.51100000000E-03 0.  1.
     100001    1    1    2    0    0 -0.27647112058E-02  0.21447836252E-01 -0.56876350122E-02  0.50000500000E+01  0.50000000000E+01 0.  0.
     100001    1    1    2    0    0  0.27647112058E-02 -0.21447836252E-01  0.56876350122E-02  0.50000500000E+01  0.50000000000E+01 0.  0.
</event>
<event>
 4    1  0.5008549E-001  0.5000050E+01  0.7818608E-02  0.2136455E+00
        -11   -1    0    0    0    0  0.00000000000E+00  0.00000000000E+00  0.50000499739E+01  0.50000500000E+01  0.51100000000E-03 0.  1.
         11   -1    0    0    0    0 -0.00000000000E+00 -0.00000000000E+00 -0.50000499739E+01  0.50000500000E+01  0.51100000000E-03 0. -1.
     100001    1    1    2    0    0 -0.18541507629E-01  0.20100705138E-02  0.12335907400E-01  0.50000500000E+01  0.50000000000E+01 0.  0.
     100001    1    1    2    0    0  0.18541507629E-01 -0.20100705138E-02 -0.12335907400E-01  0.50000500000E+01  0.50000000000E+01 0.  1.
</event>
<event>
 4    1  0.5008549E-001  0.5000050E+01  0.7818608E-02  0.2136455E+00
        -11   -1    0    0    0    0  0.00000000000E+00  0.00000000000E+00  0.50000499739E+01  0.50000500000E+01  0.51100000000E-03 0.  1.
         11   -1    0    0    0    0 -0.00000000000E+00 -0.00000000000E+00 -0.50000499739E+01  0.50000500000E+01  0.51100000000E-03 0. -1.
     100001    1    1    2    0    0 -0.85816984300E-02  0.33994212005E-02  0.20366661178E-01  0.50000500000E+01  0.50000000000E+01 0.  1.
     100001    1    1    2    0    0  0.85816984300E-02 -0.33994212005E-02 -0.20366661178E-01  0.50000500000E+01  0.50000000000E+01 0.  0.
</event>
<event>
 4    1  0.5008549E-001  0.5000050E+01  0.7818608E-02  0.2136455E+00
        -11   -1    0    0    0    0  0.00000000000E+00  0.00000000000E+00  0.50000499739E+01  0.50000500000E+01  0.51100000000E-03 0.  1.
         11   -1    0    0    0    0 -0.00000000000E+00 -0.00000000000E+00 -0.50000499739E+01  0.50000500000E+01  0.51100000000E-03 0. -1.
     100001    1    1    2    0    0  0.62150515020E-02 -0.19144116718E-01  0.97405559342E-02  0.50000500000E+01  0.50000000000E+01 0. -1.
     100001    1    1    2    0    0 -0.62150515020E-02  0.19144116718E-01 -0.97405559342E-02  0.50000500000E+01  0.50000000000E+01 0.  0.
</event>
<event>
 4    1  0.5008549E-001  0.5000050E+01  0.7818608E-02  0.2136455E+00
        -11   -1    0    0    0    0  0.00000000000E+00  0.00000000000E+00  0.50000499739E+01  0.50000500000E+01  0.51100000000E-03 0. -1.
         11   -1    0    0    0    0 -0.00000000000E+00 -0.00000000000E+00 -0.50000499739E+01  0.50000500000E+01  0.51100000000E-03 0.  1.
     100001    1    1    2    0    0  0.12112744589E-01  0.17752328544E-01  0.61756578437E-02  0.50000500000E+01  0.50000000000E+01 0.  0.
     100001    1    1    2    0    0 -0.12112744589E-01 -0.17752328544E-01 -0.61756578437E-02  0.50000500000E+01  0.50000000000E+01 0. -1.
</event>
<event>
 4    1  0.5008549E-001  0.5000050E+01  0.7818608E-02  0.2136455E+00
        -11   -1    0    0    0    0  0.00000000000E+00  0.00000000000E+00  0.50000499739E+01  0.50000500000E+01  0.51100000000E-03 0. -1.
         11   -1    0    0    0    0 -0.00000000000E+00 -0.00000000000E+00 -0.50000499739E+01  0.50000500000E+01  0.51100000000E-03 0.  1.
     100001    1    1    2    0    0  0.15090426956E-01 -0.16321142248E-01  0.24293682372E-02  0.50000500000E+01  0.50000000000E+01 0.  0.
     100001    1    1    2    0    0 -0.15090426956E-01  0.16321142248E-01 -0.24293682372E-02  0.50000500000E+01  0.50000000000E+01 0.  0.
</event>
<event>
 4    1  0.5008549E-001  0.5000050E+01  0.7818608E-02  0.2136455E+00
        -11   -1    0    0    0    0  0.00000000000E+00  0.00000000000E+00  0.50000499739E+01  0.50000500000E+01  0.51100000000E-03 0. -1.
         11   -1    0    0    0    0 -0.00000000000E+00 -0.00000000000E+00 -0.50000499739E+01  0.50000500000E+01  0.51100000000E-03 0.  1.
     100001    1    1    2    0    0  0.18653719448E-01 -0.94015511210E-02 -0.79782258215E-02  0.50000500000E+01  0.50000000000E+01 0.  0.
     100001    1    1    2    0    0 -0.18653719448E-01  0.94015511210E-02  0.79782258215E-02  0.50000500000E+01  0.50000000000E+01 0.  0.
</event>
<event>
 4    1  0.5008549E-001  0.5000050E+01  0.7818608E-02  0.2136455E+00
        -11   -1    0    0    0    0  0.00000000000E+00  0.00000000000E+00  0.50000499739E+01  0.50000500000E+01  0.51100000000E-03 0.  1.
         11   -1    0    0    0    0 -0.00000000000E+00 -0.00000000000E+00 -0.50000499739E+01  0.50000500000E+01  0.51100000000E-03 0. -1.
     100001    1    1    2    0    0 -0.19905452509E-01 -0.93119709820E-02 -0.41306968934E-02  0.50000500000E+01  0.50000000000E+01 0. -1.
     100001    1    1    2    0    0  0.19905452509E-01  0.93119709820E-02  0.41306968934E-02  0.50000500000E+01  0.50000000000E+01 0.  1.
</event>
<event>
 4    1  0.5008549E-001  0.5000050E+01  0.7818608E-02  0.2136455E+00
        -11   -1    0    0    0    0  0.00000000000E+00  0.00000000000E+00  0.50000499739E+01  0.50000500000E+01  0.51100000000E-03 0. -1.
         11   -1    0    0    0    0 -0.00000000000E+00 -0.00000000000E+00 -0.50000499739E+01  0.50000500000E+01  0.51100000000E-03 0.  1.
     100001    1    1    2    0    0 -0.76834722485E-02  0.21779295446E-02  0.20885961244E-01  0.50000500000E+01  0.50000000000E+01 0. -1.
     100001    1    1    2    0    0  0.76834722485E-02 -0.21779295446E-02 -0.20885961244E-01  0.50000500000E+01  0.50000000000E+01 0.  1.
</event>
<event>
 4    1  0.5008549E-001  0.5000050E+01  0.7818608E-02  0.2136455E+00
        -11   -1    0    0    0    0  0.00000000000E+00  0.00000000000E+00  0.50000499739E+01  0.50000500000E+01  0.51100000000E-03 0.  1.
         11   -1    0    0    0    0 -0.00000000000E+00 -0.00000000000E+00 -0.50000499739E+01  0.50000500000E+01  0.51100000000E-03 0. -1.
     100001    1    1    2    0    0 -0.18900850722E-01  0.83891350968E-03 -0.11918748513E-01  0.50000500000E+01  0.50000000000E+01 0. -1.
     100001    1    1    2    0    0  0.18900850722E-01 -0.83891350968E-03  0.11918748513E-01  0.50000500000E+01  0.50000000000E+01 0. -1.
</event>
<event>
 4    1  0.5008549E-001  0.5000050E+01  0.7818608E-02  0.2136455E+00
        -11   -1    0    0    0    0  0.00000000000E+00  0.00000000000E+00  0.50000499739E+01  0.50000500000E+01  0.51100000000E-03 0.  1.
         11   -1    0    0    0    0 -0.00000000000E+00 -0.00000000000E+00 -0.50000499739E+01  0.50000500000E+01  0.51100000000E-03 0. -1.
     100001    1    1    2    0    0  0.73746732530E-03  0.10321529619E-01  0.19822327519E-01  0.50000500000E+01  0.50000000000E+01 0.  0.
     100001    1    1    2    0    0 -0.73746732530E-03 -0.10321529619E-01 -0.19822327519E-01  0.50000500000E+01  0.50000000000E+01 0.  0.
</event>
<event>
 4    1  0.5008549E-001  0.5000050E+01  0.7818608E-02  0.2136455E+00
        -11   -1    0    0    0    0  0.00000000000E+00  0.00000000000E+00  0.50000499739E+01  0.50000500000E+01  0.51100000000E-03 0.  1.
         11   -1    0    0    0    0 -0.00000000000E+00 -0.00000000000E+00 -0.50000499739E+01  0.50000500000E+01  0.51100000000E-03 0. -1.
     100001    1    1    2    0    0 -0.64565603024E-02  0.90519530455E-02 -0.19400450385E-01  0.50000500000E+01  0.50000000000E+01 0. -1.
     100001    1    1    2    0    0  0.64565603024E-02 -0.90519530455E-02  0.19400450385E-01  0.50000500000E+01  0.50000000000E+01 0.  1.
</event>
<event>
 4    1  0.5008549E-001  0.5000050E+01  0.7818608E-02  0.2136455E+00
        -11   -1    0    0    0    0  0.00000000000E+00  0.00000000000E+00  0.50000499739E+01  0.50000500000E+01  0.51100000000E-03 0. -1.
         11   -1    0    0    0    0 -0.00000000000E+00 -0.00000000000E+00 -0.50000499739E+01  0.50000500000E+01  0.51100000000E-03 0.  1.
     100001    1    1    2    0    0  0.15310541597E-02  0.67992238217E-02 -0.21246856911E-01  0.50000500000E+01  0.50000000000E+01 0.  0.
     100001    1    1    2    0    0 -0.15310541597E-02 -0.67992238217E-02  0.21246856911E-01  0.50000500000E+01  0.50000000000E+01 0. -1.
</event>
<event>
 4    1  0.5008549E-001  0.5000050E+01  0.7818608E-02  0.2136455E+00
        -11   -1    0    0    0    0  0.00000000000E+00  0.00000000000E+00  0.50000499739E+01  0.50000500000E+01  0.51100000000E-03 0.  1.
         11   -1    0    0    0    0 -0.00000000000E+00 -0.00000000000E+00 -0.50000499739E+01  0.50000500000E+01  0.51100000000E-03 0. -1.
     100001    1    1    2    0    0 -0.18576314867E-01 -0.45671122310E-02  0.11578623054E-01  0.50000500000E+01  0.50000000000E+01 0.  1.
     100001    1    1    2    0    0  0.18576314867E-01  0.45671122310E-02 -0.11578623054E-01  0.50000500000E+01  0.50000000000E+01 0.  1.
</event>
<event>
 4    1  0.5008549E-001  0.5000050E+01  0.7818608E-02  0.2136455E+00
        -11   -1    0    0    0    0  0.00000000000E+00  0.00000000000E+00  0.50000499739E+01  0.50000500000E+01  0.51100000000E-03 0. -1.
         11   -1    0    0    0    0 -0.00000000000E+00 -0.00000000000E+00 -0.50000499739E+01  0.50000500000E+01  0.51100000000E-03 0.  1.
     100001    1    1    2    0    0  0.44570821618E-02  0.14358124388E-01  0.16552376949E-01  0.50000500000E+01  0.50000000000E+01 0.  0.
     100001    1    1    2    0    0 -0.44570821618E-02 -0.14358124388E-01 -0.16552376949E-01  0.50000500000E+01  0.50000000000E+01 0.  0.
</event>
<event>
 4    1  0.5008549E-001  0.5000050E+01  0.7818608E-02  0.2136455E+00
        -11   -1    0    0    0    0  0.00000000000E+00  0.00000000000E+00  0.50000499739E+01  0.50000500000E+01  0.51100000000E-03 0.  1.
         11   -1    0    0    0    0 -0.00000000000E+00 -0.00000000000E+00 -0.50000499739E+01  0.50000500000E+01  0.51100000000E-03 0. -1.
     100001    1    1    2    0    0  0.15726928848E-01 -0.67571106484E-02  0.14387760934E-01  0.50000500000E+01  0.50000000000E+01 0.  0.
     100001    1    1    2    0    0 -0.15726928848E-01  0.67571106484E-02 -0.14387760934E-01  0.50000500000E+01  0.50000000000E+01 0.  0.
</event>
<event>
 4    1  0.5008549E-001  0.5000050E+01  0.7818608E-02  0.2136455E+00
        -11   -1    0    0    0    0  0.00000000000E+00  0.00000000000E+00  0.50000499739E+01  0.50000500000E+01  0.51100000000E-03 0. -1.
         11   -1    0    0    0    0 -0.00000000000E+00 -0.00000000000E+00 -0.50000499739E+01  0.50000500000E+01  0.51100000000E-03 0.  1.
     100001    1    1    2    0    0  0.21204467355E-01 -0.15044099305E-02 -0.69361239138E-02  0.50000500000E+01  0.50000000000E+01 0. -1.
     100001    1    1    2    0    0 -0.21204467355E-01  0.15044099305E-02  0.69361239138E-02  0.50000500000E+01  0.50000000000E+01 0.  1.
</event>
<event>
 4    1  0.5008549E-001  0.5000050E+01  0.7818608E-02  0.2136455E+00
        -11   -1    0    0    0    0  0.00000000000E+00  0.00000000000E+00  0.50000499739E+01  0.50000500000E+01  0.51100000000E-03 0. -1.
         11   -1    0    0    0    0 -0.00000000000E+00 -0.00000000000E+00 -0.50000499739E+01  0.50000500000E+01  0.51100000000E-03 0.  1.
     100001    1    1    2    0    0  0.41171400883E-02 -0.21952122302E-01 -0.10751669275E-02  0.50000500000E+01  0.50000000000E+01 0. -1.
     100001    1    1    2    0    0 -0.41171400883E-02  0.21952122302E-01  0.10751669275E-02  0.50000500000E+01  0.50000000000E+01 0.  1.
</event>
<event>
 4    1  0.5008549E-001  0.5000050E+01  0.7818608E-02  0.2136455E+00
        -11   -1    0    0    0    0  0.00000000000E+00  0.00000000000E+00  0.50000499739E+01  0.50000500000E+01  0.51100000000E-03 0. -1.
         11   -1    0    0    0    0 -0.00000000000E+00 -0.00000000000E+00 -0.50000499739E+01  0.50000500000E+01  0.51100000000E-03 0.  1.
     100001    1    1    2    0    0  0.88139255323E-02  0.19396958420E-01  0.67878730656E-02  0.50000500000E+01  0.50000000000E+01 0. -1.
     100001    1    1    2    0    0 -0.88139255323E-02 -0.19396958420E-01 -0.67878730656E-02  0.50000500000E+01  0.50000000000E+01 0.  1.
</event>
<event>
 4    1  0.5008549E-001  0.5000050E+01  0.7818608E-02  0.2136455E+00
        -11   -1    0    0    0    0  0.00000000000E+00  0.00000000000E+00  0.50000499739E+01  0.50000500000E+01  0.51100000000E-03 0. -1.
         11   -1    0    0    0    0 -0.00000000000E+00 -0.00000000000E+00 -0.50000499739E+01  0.50000500000E+01  0.51100000000E-03 0.  1.
     100001    1    1    2    0    0 -0.44080399264E-02  0.21920786398E-01 -0.22540562504E-03  0.50000500000E+01  0.50000000000E+01 0.  1.
     100001    1    1    2    0    0  0.44080399264E-02 -0.21920786398E-01  0.22540562504E-03  0.50000500000E+01  0.50000000000E+01 0.  0.
</event>
<event>
 4    1  0.5008549E-001  0.5000050E+01  0.7818608E-02  0.2136455E+00
        -11   -1    0    0    0    0  0.00000000000E+00  0.00000000000E+00  0.50000499739E+01  0.50000500000E+01  0.51100000000E-03 0. -1.
         11   -1    0    0    0    0 -0.00000000000E+00 -0.00000000000E+00 -0.50000499739E+01  0.50000500000E+01  0.51100000000E-03 0.  1.
     100001    1    1    2    0    0  0.20900548014E-01  0.79339578842E-02  0.47106792480E-03  0.50000500000E+01  0.50000000000E+01 0. -1.
     100001    1    1    2    0    0 -0.20900548014E-01 -0.79339578842E-02 -0.47106792480E-03  0.50000500000E+01  0.50000000000E+01 0.  1.
</event>
<event>
 4    1  0.5008549E-001  0.5000050E+01  0.7818608E-02  0.2136455E+00
        -11   -1    0    0    0    0  0.00000000000E+00  0.00000000000E+00  0.50000499739E+01  0.50000500000E+01  0.51100000000E-03 0.  1.
         11   -1    0    0    0    0 -0.00000000000E+00 -0.00000000000E+00 -0.50000499739E+01  0.50000500000E+01  0.51100000000E-03 0. -1.
     100001    1    1    2    0    0  0.49409509561E-02  0.19749690201E-01 -0.92487426494E-02  0.50000500000E+01  0.50000000000E+01 0.  0.
     100001    1    1    2    0    0 -0.49409509561E-02 -0.19749690201E-01  0.92487426494E-02  0.50000500000E+01  0.50000000000E+01 0. -1.
</event>
<event>
 4    1  0.5008549E-001  0.5000050E+01  0.7818608E-02  0.2136455E+00
        -11   -1    0    0    0    0  0.00000000000E+00  0.00000000000E+00  0.50000499739E+01  0.50000500000E+01  0.51100000000E-03 0.  1.
         11   -1    0    0    0    0 -0.00000000000E+00 -0.00000000000E+00 -0.50000499739E+01  0.50000500000E+01  0.51100000000E-03 0. -1.
     100001    1    1    2    0    0  0.18757761610E-01  0.11788458187E-01  0.30300384438E-02  0.50000500000E+01  0.50000000000E+01 0.  1.
     100001    1    1    2    0    0 -0.18757761610E-01 -0.11788458187E-01 -0.30300384438E-02  0.50000500000E+01  0.50000000000E+01 0. -1.
</event>
<event>
 4    1  0.5008549E-001  0.5000050E+01  0.7818608E-02  0.2136455E+00
        -11   -1    0    0    0    0  0.00000000000E+00  0.00000000000E+00  0.50000499739E+01  0.50000500000E+01  0.51100000000E-03 0.  1.
         11   -1    0    0    0    0 -0.00000000000E+00 -0.00000000000E+00 -0.50000499739E+01  0.50000500000E+01  0.51100000000E-03 0. -1.
     100001    1    1    2    0    0 -0.17258571496E-02 -0.45199581219E-02  0.21831030568E-01  0.50000500000E+01  0.50000000000E+01 0.  1.
     100001    1    1    2    0    0  0.17258571496E-02  0.45199581219E-02 -0.21831030568E-01  0.50000500000E+01  0.50000000000E+01 0.  0.
</event>
<event>
 4    1  0.5008549E-001  0.5000050E+01  0.7818608E-02  0.2136455E+00
        -11   -1    0    0    0    0  0.00000000000E+00  0.00000000000E+00  0.50000499739E+01  0.50000500000E+01  0.51100000000E-03 0. -1.
         11   -1    0    0    0    0 -0.00000000000E+00 -0.00000000000E+00 -0.50000499739E+01  0.50000500000E+01  0.51100000000E-03 0.  1.
     100001    1    1    2    0    0 -0.16379486547E-01  0.15102209209E-01  0.19074059539E-02  0.50000500000E+01  0.50000000000E+01 0. -1.
     100001    1    1    2    0    0  0.16379486547E-01 -0.15102209209E-01 -0.19074059539E-02  0.50000500000E+01  0.50000000000E+01 0.  1.
</event>
<event>
 4    1  0.5008549E-001  0.5000050E+01  0.7818608E-02  0.2136455E+00
        -11   -1    0    0    0    0  0.00000000000E+00  0.00000000000E+00  0.50000499739E+01  0.50000500000E+01  0.51100000000E-03 0.  1.
         11   -1    0    0    0    0 -0.00000000000E+00 -0.00000000000E+00 -0.50000499739E+01  0.50000500000E+01  0.51100000000E-03 0. -1.
     100001    1    1    2    0    0  0.64623742771E-02 -0.13741042932E-01  0.16414138961E-01  0.50000500000E+01  0.50000000000E+01 0.  1.
     100001    1    1    2    0    0 -0.64623742771E-02  0.13741042932E-01 -0.16414138961E-01  0.50000500000E+01  0.50000000000E+01 0. -1.
</event>
<event>
 4    1  0.5008549E-001  0.5000050E+01  0.7818608E-02  0.2136455E+00
        -11   -1    0    0    0    0  0.00000000000E+00  0.00000000000E+00  0.50000499739E+01  0.50000500000E+01  0.51100000000E-03 0.  1.
         11   -1    0    0    0    0 -0.00000000000E+00 -0.00000000000E+00 -0.50000499739E+01  0.50000500000E+01  0.51100000000E-03 0. -1.
     100001    1    1    2    0    0  0.46543524378E-02 -0.39264708125E-02 -0.21515629908E-01  0.50000500000E+01  0.50000000000E+01 0.  0.
     100001    1    1    2    0    0 -0.46543524378E-02  0.39264708125E-02  0.21515629908E-01  0.50000500000E+01  0.50000000000E+01 0.  1.
</event>
<event>
 4    1  0.5008549E-001  0.5000050E+01  0.7818608E-02  0.2136455E+00
        -11   -1    0    0    0    0  0.00000000000E+00  0.00000000000E+00  0.50000499739E+01  0.50000500000E+01  0.51100000000E-03 0. -1.
         11   -1    0    0    0    0 -0.00000000000E+00 -0.00000000000E+00 -0.50000499739E+01  0.50000500000E+01  0.51100000000E-03 0.  1.
     100001    1    1    2    0    0 -0.19992676658E-01 -0.85092672503E-02  0.52808854276E-02  0.50000500000E+01  0.50000000000E+01 0.  0.
     100001    1    1    2    0    0  0.19992676658E-01  0.85092672503E-02 -0.52808854276E-02  0.50000500000E+01  0.50000000000E+01 0. -1.
</event>
<event>
 4    1  0.5008549E-001  0.5000050E+01  0.7818608E-02  0.2136455E+00
        -11   -1    0    0    0    0  0.00000000000E+00  0.00000000000E+00  0.50000499739E+01  0.50000500000E+01  0.51100000000E-03 0. -1.
         11   -1    0    0    0    0 -0.00000000000E+00 -0.00000000000E+00 -0.50000499739E+01  0.50000500000E+01  0.51100000000E-03 0.  1.
     100001    1    1    2    0    0  0.23009712246E-02  0.16019225465E-01 -0.15430244552E-01  0.50000500000E+01  0.50000000000E+01 0.  0.
     100001    1    1    2    0    0 -0.23009712246E-02 -0.16019225465E-01  0.15430244552E-01  0.50000500000E+01  0.50000000000E+01 0.  1.
</event>
<event>
 4    1  0.5008549E-001  0.5000050E+01  0.7818608E-02  0.2136455E+00
        -11   -1    0    0    0    0  0.00000000000E+00  0.00000000000E+00  0.50000499739E+01  0.50000500000E+01  0.51100000000E-03 0.  1.
         11   -1    0    0    0    0 -0.00000000000E+00 -0.00000000000E+00 -0.50000499739E+01  0.50000500000E+01  0.51100000000E-03 0. -1.
     100001    1    1    2    0    0 -0.19062870850E-01  0.44984665789E-02  0.10787643551E-01  0.50000500000E+01  0.50000000000E+01 0.  1.
     100001    1    1    2    0    0  0.19062870850E-01 -0.44984665789E-02 -0.10787643551E-01  0.50000500000E+01  0.50000000000E+01 0. -1.
</event>
<event>
 4    1  0.5008549E-001  0.5000050E+01  0.7818608E-02  0.2136455E+00
        -11   -1    0    0    0    0  0.00000000000E+00  0.00000000000E+00  0.50000499739E+01  0.50000500000E+01  0.51100000000E-03 0.  1.
         11   -1    0    0    0    0 -0.00000000000E+00 -0.00000000000E+00 -0.50000499739E+01  0.50000500000E+01  0.51100000000E-03 0. -1.
     100001    1    1    2    0    0 -0.21434876413E-01 -0.47560406244E-02  0.42342237473E-02  0.50000500000E+01  0.50000000000E+01 0.  0.
     100001    1    1    2    0    0  0.21434876413E-01  0.47560406244E-02 -0.42342237473E-02  0.50000500000E+01  0.50000000000E+01 0.  0.
</event>
<event>
 4    1  0.5008549E-001  0.5000050E+01  0.7818608E-02  0.2136455E+00
        -11   -1    0    0    0    0  0.00000000000E+00  0.00000000000E+00  0.50000499739E+01  0.50000500000E+01  0.51100000000E-03 0.  1.
         11   -1    0    0    0    0 -0.00000000000E+00 -0.00000000000E+00 -0.50000499739E+01  0.50000500000E+01  0.51100000000E-03 0. -1.
     100001    1    1    2    0    0 -0.16317030734E-01  0.29892351171E-02 -0.14994048201E-01  0.50000500000E+01  0.50000000000E+01 0. -1.
     100001    1    1    2    0    0  0.16317030734E-01 -0.29892351171E-02  0.14994048201E-01  0.50000500000E+01  0.50000000000E+01 0.  1.
</event>
<event>
 4    1  0.5008549E-001  0.5000050E+01  0.7818608E-02  0.2136455E+00
        -11   -1    0    0    0    0  0.00000000000E+00  0.00000000000E+00  0.50000499739E+01  0.50000500000E+01  0.51100000000E-03 0.  1.
         11   -1    0    0    0    0 -0.00000000000E+00 -0.00000000000E+00 -0.50000499739E+01  0.50000500000E+01  0.51100000000E-03 0. -1.
     100001    1    1    2    0    0  0.44052852882E-02 -0.90421423367E-02  0.19970869372E-01  0.50000500000E+01  0.50000000000E+01 0.  1.
     100001    1    1    2    0    0 -0.44052852882E-02  0.90421423367E-02 -0.19970869372E-01  0.50000500000E+01  0.50000000000E+01 0. -1.
</event>
<event>
 4    1  0.5008549E-001  0.5000050E+01  0.7818608E-02  0.2136455E+00
        -11   -1    0    0    0    0  0.00000000000E+00  0.00000000000E+00  0.50000499739E+01  0.50000500000E+01  0.51100000000E-03 0. -1.
         11   -1    0    0    0    0 -0.00000000000E+00 -0.00000000000E+00 -0.50000499739E+01  0.50000500000E+01  0.51100000000E-03 0.  1.
     100001    1    1    2    0    0  0.10518830996E-01  0.24804103598E-02 -0.19575603667E-01  0.50000500000E+01  0.50000000000E+01 0.  1.
     100001    1    1    2    0    0 -0.10518830996E-01 -0.24804103598E-02  0.19575603667E-01  0.50000500000E+01  0.50000000000E+01 0.  0.
</event>
<event>
 4    1  0.5008549E-001  0.5000050E+01  0.7818608E-02  0.2136455E+00
        -11   -1    0    0    0    0  0.00000000000E+00  0.00000000000E+00  0.50000499739E+01  0.50000500000E+01  0.51100000000E-03 0.  1.
         11   -1    0    0    0    0 -0.00000000000E+00 -0.00000000000E+00 -0.50000499739E+01  0.50000500000E+01  0.51100000000E-03 0. -1.
     100001    1    1    2    0    0  0.10731062596E-01 -0.19135818968E-01 -0.43205587582E-02  0.50000500000E+01  0.50000000000E+01 0. -1.
     100001    1    1    2    0    0 -0.10731062596E-01  0.19135818968E-01  0.43205587582E-02  0.50000500000E+01  0.50000000000E+01 0.  1.
</event>
<event>
 4    1  0.5008549E-001  0.5000050E+01  0.7818608E-02  0.2136455E+00
        -11   -1    0    0    0    0  0.00000000000E+00  0.00000000000E+00  0.50000499739E+01  0.50000500000E+01  0.51100000000E-03 0. -1.
         11   -1    0    0    0    0 -0.00000000000E+00 -0.00000000000E+00 -0.50000499739E+01  0.50000500000E+01  0.51100000000E-03 0.  1.
     100001    1    1    2    0    0  0.15213099653E-01 -0.94580776917E-04  0.16387652469E-01  0.50000500000E+01  0.50000000000E+01 0.  0.
     100001    1    1    2    0    0 -0.15213099653E-01  0.94580776917E-04 -0.16387652469E-01  0.50000500000E+01  0.50000000000E+01 0.  0.
</event>
<event>
 4    1  0.5008549E-001  0.5000050E+01  0.7818608E-02  0.2136455E+00
        -11   -1    0    0    0    0  0.00000000000E+00  0.00000000000E+00  0.50000499739E+01  0.50000500000E+01  0.51100000000E-03 0.  1.
         11   -1    0    0    0    0 -0.00000000000E+00 -0.00000000000E+00 -0.50000499739E+01  0.50000500000E+01  0.51100000000E-03 0. -1.
     100001    1    1    2    0    0  0.77418905006E-02  0.14376144553E-01  0.15277175762E-01  0.50000500000E+01  0.50000000000E+01 0.  0.
     100001    1    1    2    0    0 -0.77418905006E-02 -0.14376144553E-01 -0.15277175762E-01  0.50000500000E+01  0.50000000000E+01 0.  0.
</event>
<event>
 4    1  0.5008549E-001  0.5000050E+01  0.7818608E-02  0.2136455E+00
        -11   -1    0    0    0    0  0.00000000000E+00  0.00000000000E+00  0.50000499739E+01  0.50000500000E+01  0.51100000000E-03 0. -1.
         11   -1    0    0    0    0 -0.00000000000E+00 -0.00000000000E+00 -0.50000499739E+01  0.50000500000E+01  0.51100000000E-03 0.  1.
     100001    1    1    2    0    0  0.43438476390E-02  0.20208760553E-01  0.85287446074E-02  0.50000500000E+01  0.50000000000E+01 0. -1.
     100001    1    1    2    0    0 -0.43438476390E-02 -0.20208760553E-01 -0.85287446074E-02  0.50000500000E+01  0.50000000000E+01 0.  1.
</event>
<event>
 4    1  0.5008549E-001  0.5000050E+01  0.7818608E-02  0.2136455E+00
        -11   -1    0    0    0    0  0.00000000000E+00  0.00000000000E+00  0.50000499739E+01  0.50000500000E+01  0.51100000000E-03 0. -1.
         11   -1    0    0    0    0 -0.00000000000E+00 -0.00000000000E+00 -0.50000499739E+01  0.50000500000E+01  0.51100000000E-03 0.  1.
     100001    1    1    2    0    0 -0.10536224226E-01  0.27072235664E-02 -0.19536156726E-01  0.50000500000E+01  0.50000000000E+01 0.  1.
     100001    1    1    2    0    0  0.10536224226E-01 -0.27072235664E-02  0.19536156726E-01  0.50000500000E+01  0.50000000000E+01 0.  0.
</event>
<event>
 4    1  0.5008549E-001  0.5000050E+01  0.7818608E-02  0.2136455E+00
        -11   -1    0    0    0    0  0.00000000000E+00  0.00000000000E+00  0.50000499739E+01  0.50000500000E+01  0.51100000000E-03 0.  1.
         11   -1    0    0    0    0 -0.00000000000E+00 -0.00000000000E+00 -0.50000499739E+01  0.50000500000E+01  0.51100000000E-03 0. -1.
     100001    1    1    2    0    0 -0.64880319597E-02 -0.85029226962E-02 -0.19636910320E-01  0.50000500000E+01  0.50000000000E+01 0. -1.
     100001    1    1    2    0    0  0.64880319597E-02  0.85029226962E-02  0.19636910320E-01  0.50000500000E+01  0.50000000000E+01 0.  0.
</event>
<event>
 4    1  0.5008549E-001  0.5000050E+01  0.7818608E-02  0.2136455E+00
        -11   -1    0    0    0    0  0.00000000000E+00  0.00000000000E+00  0.50000499739E+01  0.50000500000E+01  0.51100000000E-03 0. -1.
         11   -1    0    0    0    0 -0.00000000000E+00 -0.00000000000E+00 -0.50000499739E+01  0.50000500000E+01  0.51100000000E-03 0.  1.
     100001    1    1    2    0    0 -0.64462103785E-02 -0.70054484482E-02 -0.20232957366E-01  0.50000500000E+01  0.50000000000E+01 0.  1.
     100001    1    1    2    0    0  0.64462103785E-02  0.70054484482E-02  0.20232957366E-01  0.50000500000E+01  0.50000000000E+01 0.  1.
</event>
<event>
 4    1  0.5008549E-001  0.5000050E+01  0.7818608E-02  0.2136455E+00
        -11   -1    0    0    0    0  0.00000000000E+00  0.00000000000E+00  0.50000499739E+01  0.50000500000E+01  0.51100000000E-03 0.  1.
         11   -1    0    0    0    0 -0.00000000000E+00 -0.00000000000E+00 -0.50000499739E+01  0.50000500000E+01  0.51100000000E-03 0. -1.
     100001    1    1    2    0    0  0.16130027862E-01 -0.14208549059E-01  0.61596943758E-02  0.50000500000E+01  0.50000000000E+01 0.  1.
     100001    1    1    2    0    0 -0.16130027862E-01  0.14208549059E-01 -0.61596943758E-02  0.50000500000E+01  0.50000000000E+01 0. -1.
</event>
<event>
 4    1  0.5008549E-001  0.5000050E+01  0.7818608E-02  0.2136455E+00
        -11   -1    0    0    0    0  0.00000000000E+00  0.00000000000E+00  0.50000499739E+01  0.50000500000E+01  0.51100000000E-03 0.  1.
         11   -1    0    0    0    0 -0.00000000000E+00 -0.00000000000E+00 -0.50000499739E+01  0.50000500000E+01  0.51100000000E-03 0. -1.
     100001    1    1    2    0    0  0.12753798927E-01 -0.18345471068E-01  0.88701984915E-03  0.50000500000E+01  0.50000000000E+01 0. -1.
     100001    1    1    2    0    0 -0.12753798927E-01  0.18345471068E-01 -0.88701984915E-03  0.50000500000E+01  0.50000000000E+01 0.  0.
</event>
<event>
 4    1  0.5008549E-001  0.5000050E+01  0.7818608E-02  0.2136455E+00
        -11   -1    0    0    0    0  0.00000000000E+00  0.00000000000E+00  0.50000499739E+01  0.50000500000E+01  0.51100000000E-03 0. -1.
         11   -1    0    0    0    0 -0.00000000000E+00 -0.00000000000E+00 -0.50000499739E+01  0.50000500000E+01  0.51100000000E-03 0.  1.
     100001    1    1    2    0    0  0.83196955425E-02 -0.45489791278E-02 -0.20250727270E-01  0.50000500000E+01  0.50000000000E+01 0. -1.
     100001    1    1    2    0    0 -0.83196955425E-02  0.45489791278E-02  0.20250727270E-01  0.50000500000E+01  0.50000000000E+01 0. -1.
</event>
<event>
 4    1  0.5008549E-001  0.5000050E+01  0.7818608E-02  0.2136455E+00
        -11   -1    0    0    0    0  0.00000000000E+00  0.00000000000E+00  0.50000499739E+01  0.50000500000E+01  0.51100000000E-03 0. -1.
         11   -1    0    0    0    0 -0.00000000000E+00 -0.00000000000E+00 -0.50000499739E+01  0.50000500000E+01  0.51100000000E-03 0.  1.
     100001    1    1    2    0    0 -0.34298187749E-02  0.13625251270E-01  0.17395153664E-01  0.50000500000E+01  0.50000000000E+01 0.  0.
     100001    1    1    2    0    0  0.34298187749E-02 -0.13625251270E-01 -0.17395153664E-01  0.50000500000E+01  0.50000000000E+01 0.  0.
</event>
<event>
 4    1  0.5008549E-001  0.5000050E+01  0.7818608E-02  0.2136455E+00
        -11   -1    0    0    0    0  0.00000000000E+00  0.00000000000E+00  0.50000499739E+01  0.50000500000E+01  0.51100000000E-03 0.  1.
         11   -1    0    0    0    0 -0.00000000000E+00 -0.00000000000E+00 -0.50000499739E+01  0.50000500000E+01  0.51100000000E-03 0. -1.
     100001    1    1    2    0    0  0.14559305333E-02  0.18693825935E-01 -0.12182924041E-01  0.50000500000E+01  0.50000000000E+01 0.  1.
     100001    1    1    2    0    0 -0.14559305333E-02 -0.18693825935E-01  0.12182924041E-01  0.50000500000E+01  0.50000000000E+01 0.  0.
</event>
<event>
 4    1  0.5008549E-001  0.5000050E+01  0.7818608E-02  0.2136455E+00
        -11   -1    0    0    0    0  0.00000000000E+00  0.00000000000E+00  0.50000499739E+01  0.50000500000E+01  0.51100000000E-03 0. -1.
         11   -1    0    0    0    0 -0.00000000000E+00 -0.00000000000E+00 -0.50000499739E+01  0.50000500000E+01  0.51100000000E-03 0.  1.
     100001    1    1    2    0    0  0.19357079388E-01  0.10131780694E-01  0.47595165238E-02  0.50000500000E+01  0.50000000000E+01 0. -1.
     100001    1    1    2    0    0 -0.19357079388E-01 -0.10131780694E-01 -0.47595165238E-02  0.50000500000E+01  0.50000000000E+01 0.  1.
</event>
<event>
 4    1  0.5008549E-001  0.5000050E+01  0.7818608E-02  0.2136455E+00
        -11   -1    0    0    0    0  0.00000000000E+00  0.00000000000E+00  0.50000499739E+01  0.50000500000E+01  0.51100000000E-03 0.  1.
         11   -1    0    0    0    0 -0.00000000000E+00 -0.00000000000E+00 -0.50000499739E+01  0.50000500000E+01  0.51100000000E-03 0. -1.
     100001    1    1    2    0    0 -0.11394914624E-02 -0.19775483455E-01  0.10374695819E-01  0.50000500000E+01  0.50000000000E+01 0.  0.
     100001    1    1    2    0    0  0.11394914624E-02  0.19775483455E-01 -0.10374695819E-01  0.50000500000E+01  0.50000000000E+01 0.  1.
</event>
<event>
 4    1  0.5008549E-001  0.5000050E+01  0.7818608E-02  0.2136455E+00
        -11   -1    0    0    0    0  0.00000000000E+00  0.00000000000E+00  0.50000499739E+01  0.50000500000E+01  0.51100000000E-03 0.  1.
         11   -1    0    0    0    0 -0.00000000000E+00 -0.00000000000E+00 -0.50000499739E+01  0.50000500000E+01  0.51100000000E-03 0. -1.
     100001    1    1    2    0    0  0.16969647210E-01  0.14463115236E-01 -0.16887484233E-02  0.50000500000E+01  0.50000000000E+01 0. -1.
     100001    1    1    2    0    0 -0.16969647210E-01 -0.14463115236E-01  0.16887484233E-02  0.50000500000E+01  0.50000000000E+01 0.  1.
</event>
<event>
 4    1  0.5008549E-001  0.5000050E+01  0.7818608E-02  0.2136455E+00
        -11   -1    0    0    0    0  0.00000000000E+00  0.00000000000E+00  0.50000499739E+01  0.50000500000E+01  0.51100000000E-03 0. -1.
         11   -1    0    0    0    0 -0.00000000000E+00 -0.00000000000E+00 -0.50000499739E+01  0.50000500000E+01  0.51100000000E-03 0.  1.
     100001    1    1    2    0    0  0.50163012603E-02 -0.21790257759E-01 -0.15455886441E-03  0.50000500000E+01  0.50000000000E+01 0.  1.
     100001    1    1    2    0    0 -0.50163012603E-02  0.21790257759E-01  0.15455886441E-03  0.50000500000E+01  0.50000000000E+01 0. -1.
</event>
<event>
 4    1  0.5008549E-001  0.5000050E+01  0.7818608E-02  0.2136455E+00
        -11   -1    0    0    0    0  0.00000000000E+00  0.00000000000E+00  0.50000499739E+01  0.50000500000E+01  0.51100000000E-03 0.  1.
         11   -1    0    0    0    0 -0.00000000000E+00 -0.00000000000E+00 -0.50000499739E+01  0.50000500000E+01  0.51100000000E-03 0. -1.
     100001    1    1    2    0    0 -0.19770208556E-01 -0.95250674170E-02 -0.42912054664E-02  0.50000500000E+01  0.50000000000E+01 0.  1.
     100001    1    1    2    0    0  0.19770208556E-01  0.95250674170E-02  0.42912054664E-02  0.50000500000E+01  0.50000000000E+01 0.  1.
</event>
<event>
 4    1  0.5008549E-001  0.5000050E+01  0.7818608E-02  0.2136455E+00
        -11   -1    0    0    0    0  0.00000000000E+00  0.00000000000E+00  0.50000499739E+01  0.50000500000E+01  0.51100000000E-03 0.  1.
         11   -1    0    0    0    0 -0.00000000000E+00 -0.00000000000E+00 -0.50000499739E+01  0.50000500000E+01  0.51100000000E-03 0. -1.
     100001    1    1    2    0    0 -0.36052418274E-02  0.22014597984E-01 -0.15369472882E-02  0.50000500000E+01  0.50000000000E+01 0.  0.
     100001    1    1    2    0    0  0.36052418274E-02 -0.22014597984E-01  0.15369472882E-02  0.50000500000E+01  0.50000000000E+01 0. -1.
</event>
<event>
 4    1  0.5008549E-001  0.5000050E+01  0.7818608E-02  0.2136455E+00
        -11   -1    0    0    0    0  0.00000000000E+00  0.00000000000E+00  0.50000499739E+01  0.50000500000E+01  0.51100000000E-03 0. -1.
         11   -1    0    0    0    0 -0.00000000000E+00 -0.00000000000E+00 -0.50000499739E+01  0.50000500000E+01  0.51100000000E-03 0.  1.
     100001    1    1    2    0    0 -0.26538164983E-03 -0.15708647508E-01  0.15911331373E-01  0.50000500000E+01  0.50000000000E+01 0. -1.
     100001    1    1    2    0    0  0.26538164983E-03  0.15708647508E-01 -0.15911331373E-01  0.50000500000E+01  0.50000000000E+01 0.  1.
</event>
<event>
 4    1  0.5008549E-001  0.5000050E+01  0.7818608E-02  0.2136455E+00
        -11   -1    0    0    0    0  0.00000000000E+00  0.00000000000E+00  0.50000499739E+01  0.50000500000E+01  0.51100000000E-03 0. -1.
         11   -1    0    0    0    0 -0.00000000000E+00 -0.00000000000E+00 -0.50000499739E+01  0.50000500000E+01  0.51100000000E-03 0.  1.
     100001    1    1    2    0    0 -0.10965166215E-02 -0.22310810251E-01 -0.10138526708E-02  0.50000500000E+01  0.50000000000E+01 0.  1.
     100001    1    1    2    0    0  0.10965166215E-02  0.22310810251E-01  0.10138526708E-02  0.50000500000E+01  0.50000000000E+01 0. -1.
</event>
<event>
 4    1  0.5008549E-001  0.5000050E+01  0.7818608E-02  0.2136455E+00
        -11   -1    0    0    0    0  0.00000000000E+00  0.00000000000E+00  0.50000499739E+01  0.50000500000E+01  0.51100000000E-03 0. -1.
         11   -1    0    0    0    0 -0.00000000000E+00 -0.00000000000E+00 -0.50000499739E+01  0.50000500000E+01  0.51100000000E-03 0.  1.
     100001    1    1    2    0    0  0.21746858182E-01  0.52034959750E-02  0.16995865159E-04  0.50000500000E+01  0.50000000000E+01 0. -1.
     100001    1    1    2    0    0 -0.21746858182E-01 -0.52034959750E-02 -0.16995865160E-04  0.50000500000E+01  0.50000000000E+01 0.  1.
</event>
<event>
 4    1  0.5008549E-001  0.5000050E+01  0.7818608E-02  0.2136455E+00
        -11   -1    0    0    0    0  0.00000000000E+00  0.00000000000E+00  0.50000499739E+01  0.50000500000E+01  0.51100000000E-03 0.  1.
         11   -1    0    0    0    0 -0.00000000000E+00 -0.00000000000E+00 -0.50000499739E+01  0.50000500000E+01  0.51100000000E-03 0. -1.
     100001    1    1    2    0    0 -0.20245158970E-01  0.53454718465E-02  0.78461435755E-02  0.50000500000E+01  0.50000000000E+01 0.  1.
     100001    1    1    2    0    0  0.20245158970E-01 -0.53454718465E-02 -0.78461435755E-02  0.50000500000E+01  0.50000000000E+01 0. -1.
</event>
<event>
 4    1  0.5008549E-001  0.5000050E+01  0.7818608E-02  0.2136455E+00
        -11   -1    0    0    0    0  0.00000000000E+00  0.00000000000E+00  0.50000499739E+01  0.50000500000E+01  0.51100000000E-03 0.  1.
         11   -1    0    0    0    0 -0.00000000000E+00 -0.00000000000E+00 -0.50000499739E+01  0.50000500000E+01  0.51100000000E-03 0. -1.
     100001    1    1    2    0    0 -0.85328170893E-02  0.20373536702E-01  0.34803067037E-02  0.50000500000E+01  0.50000000000E+01 0. -1.
     100001    1    1    2    0    0  0.85328170893E-02 -0.20373536702E-01 -0.34803067037E-02  0.50000500000E+01  0.50000000000E+01 0.  1.
</event>
<event>
 4    1  0.5008549E-001  0.5000050E+01  0.7818608E-02  0.2136455E+00
        -11   -1    0    0    0    0  0.00000000000E+00  0.00000000000E+00  0.50000499739E+01  0.50000500000E+01  0.51100000000E-03 0.  1.
         11   -1    0    0    0    0 -0.00000000000E+00 -0.00000000000E+00 -0.50000499739E+01  0.50000500000E+01  0.51100000000E-03 0. -1.
     100001    1    1    2    0    0 -0.24266954994E-03 -0.22358904107E-01 -0.15171889112E-03  0.50000500000E+01  0.50000000000E+01 0. -1.
     100001    1    1    2    0    0  0.24266954994E-03  0.22358904107E-01  0.15171889112E-03  0.50000500000E+01  0.50000000000E+01 0.  1.
</event>
<event>
 4    1  0.5008549E-001  0.5000050E+01  0.7818608E-02  0.2136455E+00
        -11   -1    0    0    0    0  0.00000000000E+00  0.00000000000E+00  0.50000499739E+01  0.50000500000E+01  0.51100000000E-03 0.  1.
         11   -1    0    0    0    0 -0.00000000000E+00 -0.00000000000E+00 -0.50000499739E+01  0.50000500000E+01  0.51100000000E-03 0. -1.
     100001    1    1    2    0    0  0.46378125804E-02  0.13643170587E-01  0.17098452877E-01  0.50000500000E+01  0.50000000000E+01 0.  1.
     100001    1    1    2    0    0 -0.46378125804E-02 -0.13643170587E-01 -0.17098452877E-01  0.50000500000E+01  0.50000000000E+01 0. -1.
</event>
<event>
 4    1  0.5008549E-001  0.5000050E+01  0.7818608E-02  0.2136455E+00
        -11   -1    0    0    0    0  0.00000000000E+00  0.00000000000E+00  0.50000499739E+01  0.50000500000E+01  0.51100000000E-03 0. -1.
         11   -1    0    0    0    0 -0.00000000000E+00 -0.00000000000E+00 -0.50000499739E+01  0.50000500000E+01  0.51100000000E-03 0.  1.
     100001    1    1    2    0    0 -0.19672573319E-01 -0.35466712003E-02 -0.10020652794E-01  0.50000500000E+01  0.50000000000E+01 0.  0.
     100001    1    1    2    0    0  0.19672573319E-01  0.35466712003E-02  0.10020652794E-01  0.50000500000E+01  0.50000000000E+01 0.  1.
</event>
<event>
 4    1  0.5008549E-001  0.5000050E+01  0.7818608E-02  0.2136455E+00
        -11   -1    0    0    0    0  0.00000000000E+00  0.00000000000E+00  0.50000499739E+01  0.50000500000E+01  0.51100000000E-03 0.  1.
         11   -1    0    0    0    0 -0.00000000000E+00 -0.00000000000E+00 -0.50000499739E+01  0.50000500000E+01  0.51100000000E-03 0. -1.
     100001    1    1    2    0    0 -0.12733907382E-01  0.11267147054E-01 -0.14522448143E-01  0.50000500000E+01  0.50000000000E+01 0. -1.
     100001    1    1    2    0    0  0.12733907382E-01 -0.11267147054E-01  0.14522448143E-01  0.50000500000E+01  0.50000000000E+01 0.  1.
</event>
<event>
 4    1  0.5008549E-001  0.5000050E+01  0.7818608E-02  0.2136455E+00
        -11   -1    0    0    0    0  0.00000000000E+00  0.00000000000E+00  0.50000499739E+01  0.50000500000E+01  0.51100000000E-03 0.  1.
         11   -1    0    0    0    0 -0.00000000000E+00 -0.00000000000E+00 -0.50000499739E+01  0.50000500000E+01  0.51100000000E-03 0. -1.
     100001    1    1    2    0    0 -0.36785474538E-03  0.22292202737E-01  0.17102280591E-02  0.50000500000E+01  0.50000000000E+01 0.  1.
     100001    1    1    2    0    0  0.36785474538E-03 -0.22292202737E-01 -0.17102280591E-02  0.50000500000E+01  0.50000000000E+01 0. -1.
</event>
<event>
 4    1  0.5008549E-001  0.5000050E+01  0.7818608E-02  0.2136455E+00
        -11   -1    0    0    0    0  0.00000000000E+00  0.00000000000E+00  0.50000499739E+01  0.50000500000E+01  0.51100000000E-03 0.  1.
         11   -1    0    0    0    0 -0.00000000000E+00 -0.00000000000E+00 -0.50000499739E+01  0.50000500000E+01  0.51100000000E-03 0. -1.
     100001    1    1    2    0    0 -0.22099470334E-01 -0.33676116915E-02  0.52450209712E-03  0.50000500000E+01  0.50000000000E+01 0.  0.
     100001    1    1    2    0    0  0.22099470334E-01  0.33676116915E-02 -0.52450209712E-03  0.50000500000E+01  0.50000000000E+01 0.  1.
</event>
<event>
 4    1  0.5008549E-001  0.5000050E+01  0.7818608E-02  0.2136455E+00
        -11   -1    0    0    0    0  0.00000000000E+00  0.00000000000E+00  0.50000499739E+01  0.50000500000E+01  0.51100000000E-03 0. -1.
         11   -1    0    0    0    0 -0.00000000000E+00 -0.00000000000E+00 -0.50000499739E+01  0.50000500000E+01  0.51100000000E-03 0.  1.
     100001    1    1    2    0    0  0.16840382435E-01 -0.38423933996E-02 -0.14200001141E-01  0.50000500000E+01  0.50000000000E+01 0.  1.
     100001    1    1    2    0    0 -0.16840382435E-01  0.38423933996E-02  0.14200001141E-01  0.50000500000E+01  0.50000000000E+01 0. -1.
</event>
<event>
 4    1  0.5008549E-001  0.5000050E+01  0.7818608E-02  0.2136455E+00
        -11   -1    0    0    0    0  0.00000000000E+00  0.00000000000E+00  0.50000499739E+01  0.50000500000E+01  0.51100000000E-03 0. -1.
         11   -1    0    0    0    0 -0.00000000000E+00 -0.00000000000E+00 -0.50000499739E+01  0.50000500000E+01  0.51100000000E-03 0.  1.
     100001    1    1    2    0    0 -0.65526389902E-02 -0.36183518114E-02 -0.21070665686E-01  0.50000500000E+01  0.50000000000E+01 0.  1.
     100001    1    1    2    0    0  0.65526389902E-02  0.36183518114E-02  0.21070665686E-01  0.50000500000E+01  0.50000000000E+01 0.  0.
</event>
<event>
 4    1  0.5008549E-001  0.5000050E+01  0.7818608E-02  0.2136455E+00
        -11   -1    0    0    0    0  0.00000000000E+00  0.00000000000E+00  0.50000499739E+01  0.50000500000E+01  0.51100000000E-03 0. -1.
         11   -1    0    0    0    0 -0.00000000000E+00 -0.00000000000E+00 -0.50000499739E+01  0.50000500000E+01  0.51100000000E-03 0.  1.
     100001    1    1    2    0    0 -0.39662579944E-02  0.22005695772E-01 -0.14370486659E-03  0.50000500000E+01  0.50000000000E+01 0.  0.
     100001    1    1    2    0    0  0.39662579944E-02 -0.22005695772E-01  0.14370486659E-03  0.50000500000E+01  0.50000000000E+01 0.  1.
</event>
<event>
 4    1  0.5008549E-001  0.5000050E+01  0.7818608E-02  0.2136455E+00
        -11   -1    0    0    0    0  0.00000000000E+00  0.00000000000E+00  0.50000499739E+01  0.50000500000E+01  0.51100000000E-03 0.  1.
         11   -1    0    0    0    0 -0.00000000000E+00 -0.00000000000E+00 -0.50000499739E+01  0.50000500000E+01  0.51100000000E-03 0. -1.
     100001    1    1    2    0    0  0.14760480539E-01  0.11981688271E-01 -0.11771570008E-01  0.50000500000E+01  0.50000000000E+01 0. -1.
     100001    1    1    2    0    0 -0.14760480539E-01 -0.11981688271E-01  0.11771570008E-01  0.50000500000E+01  0.50000000000E+01 0.  1.
</event>
<event>
 4    1  0.5008549E-001  0.5000050E+01  0.7818608E-02  0.2136455E+00
        -11   -1    0    0    0    0  0.00000000000E+00  0.00000000000E+00  0.50000499739E+01  0.50000500000E+01  0.51100000000E-03 0.  1.
         11   -1    0    0    0    0 -0.00000000000E+00 -0.00000000000E+00 -0.50000499739E+01  0.50000500000E+01  0.51100000000E-03 0. -1.
     100001    1    1    2    0    0 -0.21716504677E-01  0.51417868687E-02 -0.13992685237E-02  0.50000500000E+01  0.50000000000E+01 0.  1.
     100001    1    1    2    0    0  0.21716504677E-01 -0.51417868687E-02  0.13992685237E-02  0.50000500000E+01  0.50000000000E+01 0. -1.
</event>
<event>
 4    1  0.5008549E-001  0.5000050E+01  0.7818608E-02  0.2136455E+00
        -11   -1    0    0    0    0  0.00000000000E+00  0.00000000000E+00  0.50000499739E+01  0.50000500000E+01  0.51100000000E-03 0. -1.
         11   -1    0    0    0    0 -0.00000000000E+00 -0.00000000000E+00 -0.50000499739E+01  0.50000500000E+01  0.51100000000E-03 0.  1.
     100001    1    1    2    0    0 -0.17978356288E-01  0.12143665168E-02  0.13240336821E-01  0.50000500000E+01  0.50000000000E+01 0.  0.
     100001    1    1    2    0    0  0.17978356288E-01 -0.12143665168E-02 -0.13240336821E-01  0.50000500000E+01  0.50000000000E+01 0.  0.
</event>
<event>
 4    1  0.5008549E-001  0.5000050E+01  0.7818608E-02  0.2136455E+00
        -11   -1    0    0    0    0  0.00000000000E+00  0.00000000000E+00  0.50000499739E+01  0.50000500000E+01  0.51100000000E-03 0. -1.
         11   -1    0    0    0    0 -0.00000000000E+00 -0.00000000000E+00 -0.50000499739E+01  0.50000500000E+01  0.51100000000E-03 0.  1.
     100001    1    1    2    0    0 -0.21593259061E-01 -0.57358237635E-02  0.91322992436E-03  0.50000500000E+01  0.50000000000E+01 0.  0.
     100001    1    1    2    0    0  0.21593259061E-01  0.57358237635E-02 -0.91322992436E-03  0.50000500000E+01  0.50000000000E+01 0. -1.
</event>
<event>
 4    1  0.5008549E-001  0.5000050E+01  0.7818608E-02  0.2136455E+00
        -11   -1    0    0    0    0  0.00000000000E+00  0.00000000000E+00  0.50000499739E+01  0.50000500000E+01  0.51100000000E-03 0.  1.
         11   -1    0    0    0    0 -0.00000000000E+00 -0.00000000000E+00 -0.50000499739E+01  0.50000500000E+01  0.51100000000E-03 0. -1.
     100001    1    1    2    0    0  0.15092966388E-01  0.72978288564E-02 -0.14796842893E-01  0.50000500000E+01  0.50000000000E+01 0.  0.
     100001    1    1    2    0    0 -0.15092966388E-01 -0.72978288564E-02  0.14796842893E-01  0.50000500000E+01  0.50000000000E+01 0.  0.
</event>
<event>
 4    1  0.5008549E-001  0.5000050E+01  0.7818608E-02  0.2136455E+00
        -11   -1    0    0    0    0  0.00000000000E+00  0.00000000000E+00  0.50000499739E+01  0.50000500000E+01  0.51100000000E-03 0.  1.
         11   -1    0    0    0    0 -0.00000000000E+00 -0.00000000000E+00 -0.50000499739E+01  0.50000500000E+01  0.51100000000E-03 0. -1.
     100001    1    1    2    0    0 -0.78554831010E-04 -0.98740090073E-02 -0.20062409508E-01  0.50000500000E+01  0.50000000000E+01 0.  0.
     100001    1    1    2    0    0  0.78554831010E-04  0.98740090073E-02  0.20062409508E-01  0.50000500000E+01  0.50000000000E+01 0.  1.
</event>
<event>
 4    1  0.5008549E-001  0.5000050E+01  0.7818608E-02  0.2136455E+00
        -11   -1    0    0    0    0  0.00000000000E+00  0.00000000000E+00  0.50000499739E+01  0.50000500000E+01  0.51100000000E-03 0.  1.
         11   -1    0    0    0    0 -0.00000000000E+00 -0.00000000000E+00 -0.50000499739E+01  0.50000500000E+01  0.51100000000E-03 0. -1.
     100001    1    1    2    0    0 -0.11005779331E-01  0.13677373600E-01 -0.13849360012E-01  0.50000500000E+01  0.50000000000E+01 0. -1.
     100001    1    1    2    0    0  0.11005779331E-01 -0.13677373600E-01  0.13849360012E-01  0.50000500000E+01  0.50000000000E+01 0.  1.
</event>
<event>
 4    1  0.5008549E-001  0.5000050E+01  0.7818608E-02  0.2136455E+00
        -11   -1    0    0    0    0  0.00000000000E+00  0.00000000000E+00  0.50000499739E+01  0.50000500000E+01  0.51100000000E-03 0.  1.
         11   -1    0    0    0    0 -0.00000000000E+00 -0.00000000000E+00 -0.50000499739E+01  0.50000500000E+01  0.51100000000E-03 0. -1.
     100001    1    1    2    0    0  0.36575984750E-02  0.78536083888E-02 -0.20614201626E-01  0.50000500000E+01  0.50000000000E+01 0.  0.
     100001    1    1    2    0    0 -0.36575984750E-02 -0.78536083888E-02  0.20614201626E-01  0.50000500000E+01  0.50000000000E+01 0.  0.
</event>
<event>
 4    1  0.5008549E-001  0.5000050E+01  0.7818608E-02  0.2136455E+00
        -11   -1    0    0    0    0  0.00000000000E+00  0.00000000000E+00  0.50000499739E+01  0.50000500000E+01  0.51100000000E-03 0.  1.
         11   -1    0    0    0    0 -0.00000000000E+00 -0.00000000000E+00 -0.50000499739E+01  0.50000500000E+01  0.51100000000E-03 0. -1.
     100001    1    1    2    0    0  0.82423311917E-02 -0.13434091594E-01 -0.15861641137E-01  0.50000500000E+01  0.50000000000E+01 0. -1.
     100001    1    1    2    0    0 -0.82423311917E-02  0.13434091594E-01  0.15861641137E-01  0.50000500000E+01  0.50000000000E+01 0. -1.
</event>
<event>
 4    1  0.5008549E-001  0.5000050E+01  0.7818608E-02  0.2136455E+00
        -11   -1    0    0    0    0  0.00000000000E+00  0.00000000000E+00  0.50000499739E+01  0.50000500000E+01  0.51100000000E-03 0.  1.
         11   -1    0    0    0    0 -0.00000000000E+00 -0.00000000000E+00 -0.50000499739E+01  0.50000500000E+01  0.51100000000E-03 0. -1.
     100001    1    1    2    0    0  0.55297071814E-02  0.14614322791E-01 -0.15995199525E-01  0.50000500000E+01  0.50000000000E+01 0.  0.
     100001    1    1    2    0    0 -0.55297071814E-02 -0.14614322791E-01  0.15995199525E-01  0.50000500000E+01  0.50000000000E+01 0.  1.
</event>
<event>
 4    1  0.5008549E-001  0.5000050E+01  0.7818608E-02  0.2136455E+00
        -11   -1    0    0    0    0  0.00000000000E+00  0.00000000000E+00  0.50000499739E+01  0.50000500000E+01  0.51100000000E-03 0.  1.
         11   -1    0    0    0    0 -0.00000000000E+00 -0.00000000000E+00 -0.50000499739E+01  0.50000500000E+01  0.51100000000E-03 0. -1.
     100001    1    1    2    0    0  0.53741354184E-02  0.12743696943E-01  0.17570411399E-01  0.50000500000E+01  0.50000000000E+01 0.  0.
     100001    1    1    2    0    0 -0.53741354184E-02 -0.12743696943E-01 -0.17570411399E-01  0.50000500000E+01  0.50000000000E+01 0.  0.
</event>
<event>
 4    1  0.5008549E-001  0.5000050E+01  0.7818608E-02  0.2136455E+00
        -11   -1    0    0    0    0  0.00000000000E+00  0.00000000000E+00  0.50000499739E+01  0.50000500000E+01  0.51100000000E-03 0. -1.
         11   -1    0    0    0    0 -0.00000000000E+00 -0.00000000000E+00 -0.50000499739E+01  0.50000500000E+01  0.51100000000E-03 0.  1.
     100001    1    1    2    0    0 -0.20368123757E-01  0.16676664099E-02 -0.90752919152E-02  0.50000500000E+01  0.50000000000E+01 0.  1.
     100001    1    1    2    0    0  0.20368123757E-01 -0.16676664099E-02  0.90752919152E-02  0.50000500000E+01  0.50000000000E+01 0. -1.
</event>
<event>
 4    1  0.5008549E-001  0.5000050E+01  0.7818608E-02  0.2136455E+00
        -11   -1    0    0    0    0  0.00000000000E+00  0.00000000000E+00  0.50000499739E+01  0.50000500000E+01  0.51100000000E-03 0.  1.
         11   -1    0    0    0    0 -0.00000000000E+00 -0.00000000000E+00 -0.50000499739E+01  0.50000500000E+01  0.51100000000E-03 0. -1.
     100001    1    1    2    0    0  0.64546965917E-02 -0.15997534768E-01 -0.14227377595E-01  0.50000500000E+01  0.50000000000E+01 0.  1.
     100001    1    1    2    0    0 -0.64546965917E-02  0.15997534768E-01  0.14227377595E-01  0.50000500000E+01  0.50000000000E+01 0.  0.
</event>
<event>
 4    1  0.5008549E-001  0.5000050E+01  0.7818608E-02  0.2136455E+00
        -11   -1    0    0    0    0  0.00000000000E+00  0.00000000000E+00  0.50000499739E+01  0.50000500000E+01  0.51100000000E-03 0.  1.
         11   -1    0    0    0    0 -0.00000000000E+00 -0.00000000000E+00 -0.50000499739E+01  0.50000500000E+01  0.51100000000E-03 0. -1.
     100001    1    1    2    0    0 -0.15263937370E-01 -0.13850141872E-01  0.86711179260E-02  0.50000500000E+01  0.50000000000E+01 0. -1.
     100001    1    1    2    0    0  0.15263937370E-01  0.13850141872E-01 -0.86711179260E-02  0.50000500000E+01  0.50000000000E+01 0.  1.
</event>
<event>
 4    1  0.5008549E-001  0.5000050E+01  0.7818608E-02  0.2136455E+00
        -11   -1    0    0    0    0  0.00000000000E+00  0.00000000000E+00  0.50000499739E+01  0.50000500000E+01  0.51100000000E-03 0. -1.
         11   -1    0    0    0    0 -0.00000000000E+00 -0.00000000000E+00 -0.50000499739E+01  0.50000500000E+01  0.51100000000E-03 0.  1.
     100001    1    1    2    0    0 -0.98921235026E-02 -0.18756515730E-01  0.70951751419E-02  0.50000500000E+01  0.50000000000E+01 0.  1.
     100001    1    1    2    0    0  0.98921235026E-02  0.18756515730E-01 -0.70951751419E-02  0.50000500000E+01  0.50000000000E+01 0.  0.
</event>
<event>
 4    1  0.5008549E-001  0.5000050E+01  0.7818608E-02  0.2136455E+00
        -11   -1    0    0    0    0  0.00000000000E+00  0.00000000000E+00  0.50000499739E+01  0.50000500000E+01  0.51100000000E-03 0.  1.
         11   -1    0    0    0    0 -0.00000000000E+00 -0.00000000000E+00 -0.50000499739E+01  0.50000500000E+01  0.51100000000E-03 0. -1.
     100001    1    1    2    0    0 -0.15573814820E-01 -0.14237859014E-01 -0.73987946766E-02  0.50000500000E+01  0.50000000000E+01 0. -1.
     100001    1    1    2    0    0  0.15573814820E-01  0.14237859014E-01  0.73987946766E-02  0.50000500000E+01  0.50000000000E+01 0.  1.
</event>
<event>
 4    1  0.5008549E-001  0.5000050E+01  0.7818608E-02  0.2136455E+00
        -11   -1    0    0    0    0  0.00000000000E+00  0.00000000000E+00  0.50000499739E+01  0.50000500000E+01  0.51100000000E-03 0.  1.
         11   -1    0    0    0    0 -0.00000000000E+00 -0.00000000000E+00 -0.50000499739E+01  0.50000500000E+01  0.51100000000E-03 0. -1.
     100001    1    1    2    0    0 -0.14886282833E-01  0.15014935662E-01  0.72768668044E-02  0.50000500000E+01  0.50000000000E+01 0. -1.
     100001    1    1    2    0    0  0.14886282833E-01 -0.15014935662E-01 -0.72768668044E-02  0.50000500000E+01  0.50000000000E+01 0.  0.
</event>
<event>
 4    1  0.5008549E-001  0.5000050E+01  0.7818608E-02  0.2136455E+00
        -11   -1    0    0    0    0  0.00000000000E+00  0.00000000000E+00  0.50000499739E+01  0.50000500000E+01  0.51100000000E-03 0.  1.
         11   -1    0    0    0    0 -0.00000000000E+00 -0.00000000000E+00 -0.50000499739E+01  0.50000500000E+01  0.51100000000E-03 0. -1.
     100001    1    1    2    0    0  0.11566001345E-01 -0.12459244123E-01 -0.14525747787E-01  0.50000500000E+01  0.50000000000E+01 0.  1.
     100001    1    1    2    0    0 -0.11566001345E-01  0.12459244123E-01  0.14525747787E-01  0.50000500000E+01  0.50000000000E+01 0.  0.
</event>
<event>
 4    1  0.5008549E-001  0.5000050E+01  0.7818608E-02  0.2136455E+00
        -11   -1    0    0    0    0  0.00000000000E+00  0.00000000000E+00  0.50000499739E+01  0.50000500000E+01  0.51100000000E-03 0. -1.
         11   -1    0    0    0    0 -0.00000000000E+00 -0.00000000000E+00 -0.50000499739E+01  0.50000500000E+01  0.51100000000E-03 0.  1.
     100001    1    1    2    0    0 -0.23291565248E-02 -0.21776750946E-01  0.45111692621E-02  0.50000500000E+01  0.50000000000E+01 0. -1.
     100001    1    1    2    0    0  0.23291565248E-02  0.21776750946E-01 -0.45111692621E-02  0.50000500000E+01  0.50000000000E+01 0.  1.
</event>
<event>
 4    1  0.5008549E-001  0.5000050E+01  0.7818608E-02  0.2136455E+00
        -11   -1    0    0    0    0  0.00000000000E+00  0.00000000000E+00  0.50000499739E+01  0.50000500000E+01  0.51100000000E-03 0.  1.
         11   -1    0    0    0    0 -0.00000000000E+00 -0.00000000000E+00 -0.50000499739E+01  0.50000500000E+01  0.51100000000E-03 0. -1.
     100001    1    1    2    0    0  0.16017037815E-01  0.91457101471E-02  0.12641716083E-01  0.50000500000E+01  0.50000000000E+01 0.  1.
     100001    1    1    2    0    0 -0.16017037815E-01 -0.91457101471E-02 -0.12641716083E-01  0.50000500000E+01  0.50000000000E+01 0. -1.
</event>
<event>
 4    1  0.5008549E-001  0.5000050E+01  0.7818608E-02  0.2136455E+00
        -11   -1    0    0    0    0  0.00000000000E+00  0.00000000000E+00  0.50000499739E+01  0.50000500000E+01  0.51100000000E-03 0. -1.
         11   -1    0    0    0    0 -0.00000000000E+00 -0.00000000000E+00 -0.50000499739E+01  0.50000500000E+01  0.51100000000E-03 0.  1.
     100001    1    1    2    0    0 -0.12554448006E-01  0.14364135308E-01  0.11664473932E-01  0.50000500000E+01  0.50000000000E+01 0. -1.
     100001    1    1    2    0    0  0.12554448006E-01 -0.14364135308E-01 -0.11664473932E-01  0.50000500000E+01  0.50000000000E+01 0.  1.
</event>
<event>
 4    1  0.5008549E-001  0.5000050E+01  0.7818608E-02  0.2136455E+00
        -11   -1    0    0    0    0  0.00000000000E+00  0.00000000000E+00  0.50000499739E+01  0.50000500000E+01  0.51100000000E-03 0. -1.
         11   -1    0    0    0    0 -0.00000000000E+00 -0.00000000000E+00 -0.50000499739E+01  0.50000500000E+01  0.51100000000E-03 0.  1.
     100001    1    1    2    0    0 -0.19535401617E-01 -0.93245351093E-03 -0.10839793085E-01  0.50000500000E+01  0.50000000000E+01 0.  1.
     100001    1    1    2    0    0  0.19535401617E-01  0.93245351093E-03  0.10839793085E-01  0.50000500000E+01  0.50000000000E+01 0. -1.
</event>
<event>
 4    1  0.5008549E-001  0.5000050E+01  0.7818608E-02  0.2136455E+00
        -11   -1    0    0    0    0  0.00000000000E+00  0.00000000000E+00  0.50000499739E+01  0.50000500000E+01  0.51100000000E-03 0. -1.
         11   -1    0    0    0    0 -0.00000000000E+00 -0.00000000000E+00 -0.50000499739E+01  0.50000500000E+01  0.51100000000E-03 0.  1.
     100001    1    1    2    0    0 -0.18581890961E-01 -0.12202448332E-01 -0.24116556552E-02  0.50000500000E+01  0.50000000000E+01 0.  1.
     100001    1    1    2    0    0  0.18581890961E-01  0.12202448332E-01  0.24116556552E-02  0.50000500000E+01  0.50000000000E+01 0. -1.
</event>
<event>
 4    1  0.5008549E-001  0.5000050E+01  0.7818608E-02  0.2136455E+00
        -11   -1    0    0    0    0  0.00000000000E+00  0.00000000000E+00  0.50000499739E+01  0.50000500000E+01  0.51100000000E-03 0.  1.
         11   -1    0    0    0    0 -0.00000000000E+00 -0.00000000000E+00 -0.50000499739E+01  0.50000500000E+01  0.51100000000E-03 0. -1.
     100001    1    1    2    0    0 -0.19281212913E-01  0.24027983302E-02  0.11066340353E-01  0.50000500000E+01  0.50000000000E+01 0.  1.
     100001    1    1    2    0    0  0.19281212913E-01 -0.24027983302E-02 -0.11066340353E-01  0.50000500000E+01  0.50000000000E+01 0. -1.
</event>
<event>
 4    1  0.5008549E-001  0.5000050E+01  0.7818608E-02  0.2136455E+00
        -11   -1    0    0    0    0  0.00000000000E+00  0.00000000000E+00  0.50000499739E+01  0.50000500000E+01  0.51100000000E-03 0.  1.
         11   -1    0    0    0    0 -0.00000000000E+00 -0.00000000000E+00 -0.50000499739E+01  0.50000500000E+01  0.51100000000E-03 0. -1.
     100001    1    1    2    0    0  0.73488229696E-02  0.13916946221E-01 -0.15884454943E-01  0.50000500000E+01  0.50000000000E+01 0. -1.
     100001    1    1    2    0    0 -0.73488229696E-02 -0.13916946221E-01  0.15884454943E-01  0.50000500000E+01  0.50000000000E+01 0.  1.
</event>
<event>
 4    1  0.5008549E-001  0.5000050E+01  0.7818608E-02  0.2136455E+00
        -11   -1    0    0    0    0  0.00000000000E+00  0.00000000000E+00  0.50000499739E+01  0.50000500000E+01  0.51100000000E-03 0.  1.
         11   -1    0    0    0    0 -0.00000000000E+00 -0.00000000000E+00 -0.50000499739E+01  0.50000500000E+01  0.51100000000E-03 0. -1.
     100001    1    1    2    0    0 -0.50275090637E-02  0.20147533274E-01  0.82947908700E-02  0.50000500000E+01  0.50000000000E+01 0.  0.
     100001    1    1    2    0    0  0.50275090637E-02 -0.20147533274E-01 -0.82947908700E-02  0.50000500000E+01  0.50000000000E+01 0.  1.
</event>
<event>
 4    1  0.5008549E-001  0.5000050E+01  0.7818608E-02  0.2136455E+00
        -11   -1    0    0    0    0  0.00000000000E+00  0.00000000000E+00  0.50000499739E+01  0.50000500000E+01  0.51100000000E-03 0. -1.
         11   -1    0    0    0    0 -0.00000000000E+00 -0.00000000000E+00 -0.50000499739E+01  0.50000500000E+01  0.51100000000E-03 0.  1.
     100001    1    1    2    0    0  0.21776230807E-01  0.79122025373E-03  0.50171946696E-02  0.50000500000E+01  0.50000000000E+01 0.  0.
     100001    1    1    2    0    0 -0.21776230807E-01 -0.79122025373E-03 -0.50171946696E-02  0.50000500000E+01  0.50000000000E+01 0. -1.
</event>
<event>
 4    1  0.5008549E-001  0.5000050E+01  0.7818608E-02  0.2136455E+00
        -11   -1    0    0    0    0  0.00000000000E+00  0.00000000000E+00  0.50000499739E+01  0.50000500000E+01  0.51100000000E-03 0.  1.
         11   -1    0    0    0    0 -0.00000000000E+00 -0.00000000000E+00 -0.50000499739E+01  0.50000500000E+01  0.51100000000E-03 0. -1.
     100001    1    1    2    0    0  0.12734052139E-01 -0.17007816665E-01  0.69699776491E-02  0.50000500000E+01  0.50000000000E+01 0.  1.
     100001    1    1    2    0    0 -0.12734052139E-01  0.17007816665E-01 -0.69699776491E-02  0.50000500000E+01  0.50000000000E+01 0. -1.
</event>
<event>
 4    1  0.5008549E-001  0.5000050E+01  0.7818608E-02  0.2136455E+00
        -11   -1    0    0    0    0  0.00000000000E+00  0.00000000000E+00  0.50000499739E+01  0.50000500000E+01  0.51100000000E-03 0.  1.
         11   -1    0    0    0    0 -0.00000000000E+00 -0.00000000000E+00 -0.50000499739E+01  0.50000500000E+01  0.51100000000E-03 0. -1.
     100001    1    1    2    0    0  0.81047083211E-02  0.14356910184E-01  0.15106135608E-01  0.50000500000E+01  0.50000000000E+01 0.  1.
     100001    1    1    2    0    0 -0.81047083211E-02 -0.14356910184E-01 -0.15106135608E-01  0.50000500000E+01  0.50000000000E+01 0.  1.
</event>
<event>
 4    1  0.5008549E-001  0.5000050E+01  0.7818608E-02  0.2136455E+00
        -11   -1    0    0    0    0  0.00000000000E+00  0.00000000000E+00  0.50000499739E+01  0.50000500000E+01  0.51100000000E-03 0.  1.
         11   -1    0    0    0    0 -0.00000000000E+00 -0.00000000000E+00 -0.50000499739E+01  0.50000500000E+01  0.51100000000E-03 0. -1.
     100001    1    1    2    0    0 -0.15917927520E-01  0.13765261006E-01  0.75590788382E-02  0.50000500000E+01  0.50000000000E+01 0.  1.
     100001    1    1    2    0    0  0.15917927520E-01 -0.13765261006E-01 -0.75590788382E-02  0.50000500000E+01  0.50000000000E+01 0. -1.
</event>
<event>
 4    1  0.5008549E-001  0.5000050E+01  0.7818608E-02  0.2136455E+00
        -11   -1    0    0    0    0  0.00000000000E+00  0.00000000000E+00  0.50000499739E+01  0.50000500000E+01  0.51100000000E-03 0. -1.
         11   -1    0    0    0    0 -0.00000000000E+00 -0.00000000000E+00 -0.50000499739E+01  0.50000500000E+01  0.51100000000E-03 0.  1.
     100001    1    1    2    0    0 -0.14128121300E-02  0.21488397727E-01 -0.60212311886E-02  0.50000500000E+01  0.50000000000E+01 0.  0.
     100001    1    1    2    0    0  0.14128121300E-02 -0.21488397727E-01  0.60212311886E-02  0.50000500000E+01  0.50000000000E+01 0.  1.
</event>
<event>
 4    1  0.5008549E-001  0.5000050E+01  0.7818608E-02  0.2136455E+00
        -11   -1    0    0    0    0  0.00000000000E+00  0.00000000000E+00  0.50000499739E+01  0.50000500000E+01  0.51100000000E-03 0. -1.
         11   -1    0    0    0    0 -0.00000000000E+00 -0.00000000000E+00 -0.50000499739E+01  0.50000500000E+01  0.51100000000E-03 0.  1.
     100001    1    1    2    0    0 -0.66925832119E-04  0.16482596898E-01  0.15110328270E-01  0.50000500000E+01  0.50000000000E+01 0.  0.
     100001    1    1    2    0    0  0.66925832119E-04 -0.16482596898E-01 -0.15110328270E-01  0.50000500000E+01  0.50000000000E+01 0.  0.
</event>
<event>
 4    1  0.5008549E-001  0.5000050E+01  0.7818608E-02  0.2136455E+00
        -11   -1    0    0    0    0  0.00000000000E+00  0.00000000000E+00  0.50000499739E+01  0.50000500000E+01  0.51100000000E-03 0.  1.
         11   -1    0    0    0    0 -0.00000000000E+00 -0.00000000000E+00 -0.50000499739E+01  0.50000500000E+01  0.51100000000E-03 0. -1.
     100001    1    1    2    0    0 -0.18107646260E-01  0.12996011977E-01 -0.17942462543E-02  0.50000500000E+01  0.50000000000E+01 0. -1.
     100001    1    1    2    0    0  0.18107646260E-01 -0.12996011977E-01  0.17942462543E-02  0.50000500000E+01  0.50000000000E+01 0.  1.
</event>
<event>
 4    1  0.5008549E-001  0.5000050E+01  0.7818608E-02  0.2136455E+00
        -11   -1    0    0    0    0  0.00000000000E+00  0.00000000000E+00  0.50000499739E+01  0.50000500000E+01  0.51100000000E-03 0. -1.
         11   -1    0    0    0    0 -0.00000000000E+00 -0.00000000000E+00 -0.50000499739E+01  0.50000500000E+01  0.51100000000E-03 0.  1.
     100001    1    1    2    0    0 -0.17583872356E-01 -0.11870874804E-01 -0.70634456433E-02  0.50000500000E+01  0.50000000000E+01 0.  0.
     100001    1    1    2    0    0  0.17583872356E-01  0.11870874804E-01  0.70634456433E-02  0.50000500000E+01  0.50000000000E+01 0.  1.
</event>
<event>
 4    1  0.5008549E-001  0.5000050E+01  0.7818608E-02  0.2136455E+00
        -11   -1    0    0    0    0  0.00000000000E+00  0.00000000000E+00  0.50000499739E+01  0.50000500000E+01  0.51100000000E-03 0.  1.
         11   -1    0    0    0    0 -0.00000000000E+00 -0.00000000000E+00 -0.50000499739E+01  0.50000500000E+01  0.51100000000E-03 0. -1.
     100001    1    1    2    0    0 -0.65961563771E-02 -0.65482614635E-02  0.20337489837E-01  0.50000500000E+01  0.50000000000E+01 0.  1.
     100001    1    1    2    0    0  0.65961563771E-02  0.65482614635E-02 -0.20337489837E-01  0.50000500000E+01  0.50000000000E+01 0. -1.
</event>
<event>
 4    1  0.5008549E-001  0.5000050E+01  0.7818608E-02  0.2136455E+00
        -11   -1    0    0    0    0  0.00000000000E+00  0.00000000000E+00  0.50000499739E+01  0.50000500000E+01  0.51100000000E-03 0. -1.
         11   -1    0    0    0    0 -0.00000000000E+00 -0.00000000000E+00 -0.50000499739E+01  0.50000500000E+01  0.51100000000E-03 0.  1.
     100001    1    1    2    0    0 -0.12637828130E-01 -0.89869732085E-02 -0.16109690025E-01  0.50000500000E+01  0.50000000000E+01 0.  0.
     100001    1    1    2    0    0  0.12637828130E-01  0.89869732085E-02  0.16109690025E-01  0.50000500000E+01  0.50000000000E+01 0.  0.
</event>
<event>
 4    1  0.5008549E-001  0.5000050E+01  0.7818608E-02  0.2136455E+00
        -11   -1    0    0    0    0  0.00000000000E+00  0.00000000000E+00  0.50000499739E+01  0.50000500000E+01  0.51100000000E-03 0. -1.
         11   -1    0    0    0    0 -0.00000000000E+00 -0.00000000000E+00 -0.50000499739E+01  0.50000500000E+01  0.51100000000E-03 0.  1.
     100001    1    1    2    0    0  0.13942067625E-01 -0.12102247945E-01  0.12615737989E-01  0.50000500000E+01  0.50000000000E+01 0. -1.
     100001    1    1    2    0    0 -0.13942067625E-01  0.12102247945E-01 -0.12615737989E-01  0.50000500000E+01  0.50000000000E+01 0.  1.
</event>
<event>
 4    1  0.5008549E-001  0.5000050E+01  0.7818608E-02  0.2136455E+00
        -11   -1    0    0    0    0  0.00000000000E+00  0.00000000000E+00  0.50000499739E+01  0.50000500000E+01  0.51100000000E-03 0.  1.
         11   -1    0    0    0    0 -0.00000000000E+00 -0.00000000000E+00 -0.50000499739E+01  0.50000500000E+01  0.51100000000E-03 0. -1.
     100001    1    1    2    0    0 -0.10039143967E-01 -0.72613732743E-02  0.18614256541E-01  0.50000500000E+01  0.50000000000E+01 0.  1.
     100001    1    1    2    0    0  0.10039143967E-01  0.72613732743E-02 -0.18614256541E-01  0.50000500000E+01  0.50000000000E+01 0. -1.
</event>
<event>
 4    1  0.5008549E-001  0.5000050E+01  0.7818608E-02  0.2136455E+00
        -11   -1    0    0    0    0  0.00000000000E+00  0.00000000000E+00  0.50000499739E+01  0.50000500000E+01  0.51100000000E-03 0. -1.
         11   -1    0    0    0    0 -0.00000000000E+00 -0.00000000000E+00 -0.50000499739E+01  0.50000500000E+01  0.51100000000E-03 0.  1.
     100001    1    1    2    0    0 -0.70248488766E-03 -0.10486278117E-01 -0.19736944703E-01  0.50000500000E+01  0.50000000000E+01 0.  1.
     100001    1    1    2    0    0  0.70248488766E-03  0.10486278117E-01  0.19736944703E-01  0.50000500000E+01  0.50000000000E+01 0.  0.
</event>
<event>
 4    1  0.5008549E-001  0.5000050E+01  0.7818608E-02  0.2136455E+00
        -11   -1    0    0    0    0  0.00000000000E+00  0.00000000000E+00  0.50000499739E+01  0.50000500000E+01  0.51100000000E-03 0. -1.
         11   -1    0    0    0    0 -0.00000000000E+00 -0.00000000000E+00 -0.50000499739E+01  0.50000500000E+01  0.51100000000E-03 0.  1.
     100001    1    1    2    0    0  0.77616542672E-03 -0.16792020382E-01  0.14745443999E-01  0.50000500000E+01  0.50000000000E+01 0.  0.
     100001    1    1    2    0    0 -0.77616542672E-03  0.16792020382E-01 -0.14745443999E-01  0.50000500000E+01  0.50000000000E+01 0.  0.
</event>
<event>
 4    1  0.5008549E-001  0.5000050E+01  0.7818608E-02  0.2136455E+00
        -11   -1    0    0    0    0  0.00000000000E+00  0.00000000000E+00  0.50000499739E+01  0.50000500000E+01  0.51100000000E-03 0.  1.
         11   -1    0    0    0    0 -0.00000000000E+00 -0.00000000000E+00 -0.50000499739E+01  0.50000500000E+01  0.51100000000E-03 0. -1.
     100001    1    1    2    0    0 -0.63450293818E-02 -0.16036020120E-01 -0.14233381919E-01  0.50000500000E+01  0.50000000000E+01 0.  0.
     100001    1    1    2    0    0  0.63450293818E-02  0.16036020120E-01  0.14233381919E-01  0.50000500000E+01  0.50000000000E+01 0.  0.
</event>
<event>
 4    1  0.5008549E-001  0.5000050E+01  0.7818608E-02  0.2136455E+00
        -11   -1    0    0    0    0  0.00000000000E+00  0.00000000000E+00  0.50000499739E+01  0.50000500000E+01  0.51100000000E-03 0.  1.
         11   -1    0    0    0    0 -0.00000000000E+00 -0.00000000000E+00 -0.50000499739E+01  0.50000500000E+01  0.51100000000E-03 0. -1.
     100001    1    1    2    0    0  0.73583516944E-02 -0.81542340800E-02 -0.19477310567E-01  0.50000500000E+01  0.50000000000E+01 0. -1.
     100001    1    1    2    0    0 -0.73583516944E-02  0.81542340800E-02  0.19477310567E-01  0.50000500000E+01  0.50000000000E+01 0.  0.
</event>
<event>
 4    1  0.5008549E-001  0.5000050E+01  0.7818608E-02  0.2136455E+00
        -11   -1    0    0    0    0  0.00000000000E+00  0.00000000000E+00  0.50000499739E+01  0.50000500000E+01  0.51100000000E-03 0.  1.
         11   -1    0    0    0    0 -0.00000000000E+00 -0.00000000000E+00 -0.50000499739E+01  0.50000500000E+01  0.51100000000E-03 0. -1.
     100001    1    1    2    0    0  0.13880747820E-01 -0.14331827796E-01 -0.10095843302E-01  0.50000500000E+01  0.50000000000E+01 0.  0.
     100001    1    1    2    0    0 -0.13880747820E-01  0.14331827796E-01  0.10095843302E-01  0.50000500000E+01  0.50000000000E+01 0.  0.
</event>
<event>
 4    1  0.5008549E-001  0.5000050E+01  0.7818608E-02  0.2136455E+00
        -11   -1    0    0    0    0  0.00000000000E+00  0.00000000000E+00  0.50000499739E+01  0.50000500000E+01  0.51100000000E-03 0. -1.
         11   -1    0    0    0    0 -0.00000000000E+00 -0.00000000000E+00 -0.50000499739E+01  0.50000500000E+01  0.51100000000E-03 0.  1.
     100001    1    1    2    0    0  0.57137266816E-03 -0.12606817238E-01 -0.18459257634E-01  0.50000500000E+01  0.50000000000E+01 0.  0.
     100001    1    1    2    0    0 -0.57137266816E-03  0.12606817238E-01  0.18459257634E-01  0.50000500000E+01  0.50000000000E+01 0.  0.
</event>
<event>
 4    1  0.5008549E-001  0.5000050E+01  0.7818608E-02  0.2136455E+00
        -11   -1    0    0    0    0  0.00000000000E+00  0.00000000000E+00  0.50000499739E+01  0.50000500000E+01  0.51100000000E-03 0. -1.
         11   -1    0    0    0    0 -0.00000000000E+00 -0.00000000000E+00 -0.50000499739E+01  0.50000500000E+01  0.51100000000E-03 0.  1.
     100001    1    1    2    0    0  0.96145804337E-02  0.19981812398E-01  0.28791520257E-02  0.50000500000E+01  0.50000000000E+01 0.  0.
     100001    1    1    2    0    0 -0.96145804337E-02 -0.19981812398E-01 -0.28791520257E-02  0.50000500000E+01  0.50000000000E+01 0.  0.
</event>
<event>
 4    1  0.5008549E-001  0.5000050E+01  0.7818608E-02  0.2136455E+00
        -11   -1    0    0    0    0  0.00000000000E+00  0.00000000000E+00  0.50000499739E+01  0.50000500000E+01  0.51100000000E-03 0. -1.
         11   -1    0    0    0    0 -0.00000000000E+00 -0.00000000000E+00 -0.50000499739E+01  0.50000500000E+01  0.51100000000E-03 0.  1.
     100001    1    1    2    0    0 -0.17204079275E-01  0.11736532673E-01 -0.81410046743E-02  0.50000500000E+01  0.50000000000E+01 0.  1.
     100001    1    1    2    0    0  0.17204079275E-01 -0.11736532673E-01  0.81410046743E-02  0.50000500000E+01  0.50000000000E+01 0. -1.
</event>
<event>
 4    1  0.5008549E-001  0.5000050E+01  0.7818608E-02  0.2136455E+00
        -11   -1    0    0    0    0  0.00000000000E+00  0.00000000000E+00  0.50000499739E+01  0.50000500000E+01  0.51100000000E-03 0. -1.
         11   -1    0    0    0    0 -0.00000000000E+00 -0.00000000000E+00 -0.50000499739E+01  0.50000500000E+01  0.51100000000E-03 0.  1.
     100001    1    1    2    0    0 -0.33693428010E-02 -0.42328024509E-02 -0.21696391693E-01  0.50000500000E+01  0.50000000000E+01 0. -1.
     100001    1    1    2    0    0  0.33693428010E-02  0.42328024509E-02  0.21696391693E-01  0.50000500000E+01  0.50000000000E+01 0. -1.
</event>
<event>
 4    1  0.5008549E-001  0.5000050E+01  0.7818608E-02  0.2136455E+00
        -11   -1    0    0    0    0  0.00000000000E+00  0.00000000000E+00  0.50000499739E+01  0.50000500000E+01  0.51100000000E-03 0.  1.
         11   -1    0    0    0    0 -0.00000000000E+00 -0.00000000000E+00 -0.50000499739E+01  0.50000500000E+01  0.51100000000E-03 0. -1.
     100001    1    1    2    0    0 -0.14944881784E-01  0.98096825862E-02  0.13432167957E-01  0.50000500000E+01  0.50000000000E+01 0.  1.
     100001    1    1    2    0    0  0.14944881784E-01 -0.98096825862E-02 -0.13432167957E-01  0.50000500000E+01  0.50000000000E+01 0. -1.
</event>
<event>
 4    1  0.5008549E-001  0.5000050E+01  0.7818608E-02  0.2136455E+00
        -11   -1    0    0    0    0  0.00000000000E+00  0.00000000000E+00  0.50000499739E+01  0.50000500000E+01  0.51100000000E-03 0.  1.
         11   -1    0    0    0    0 -0.00000000000E+00 -0.00000000000E+00 -0.50000499739E+01  0.50000500000E+01  0.51100000000E-03 0. -1.
     100001    1    1    2    0    0 -0.94081013946E-02  0.23467996895E-02  0.20149011374E-01  0.50000500000E+01  0.50000000000E+01 0.  0.
     100001    1    1    2    0    0  0.94081013946E-02 -0.23467996895E-02 -0.20149011374E-01  0.50000500000E+01  0.50000000000E+01 0. -1.
</event>
<event>
 4    1  0.5008549E-001  0.5000050E+01  0.7818608E-02  0.2136455E+00
        -11   -1    0    0    0    0  0.00000000000E+00  0.00000000000E+00  0.50000499739E+01  0.50000500000E+01  0.51100000000E-03 0.  1.
         11   -1    0    0    0    0 -0.00000000000E+00 -0.00000000000E+00 -0.50000499739E+01  0.50000500000E+01  0.51100000000E-03 0. -1.
     100001    1    1    2    0    0  0.21180859919E-01 -0.65384033349E-02  0.29364868314E-02  0.50000500000E+01  0.50000000000E+01 0.  1.
     100001    1    1    2    0    0 -0.21180859919E-01  0.65384033349E-02 -0.29364868314E-02  0.50000500000E+01  0.50000000000E+01 0. -1.
</event>
<event>
 4    1  0.5008549E-001  0.5000050E+01  0.7818608E-02  0.2136455E+00
        -11   -1    0    0    0    0  0.00000000000E+00  0.00000000000E+00  0.50000499739E+01  0.50000500000E+01  0.51100000000E-03 0. -1.
         11   -1    0    0    0    0 -0.00000000000E+00 -0.00000000000E+00 -0.50000499739E+01  0.50000500000E+01  0.51100000000E-03 0.  1.
     100001    1    1    2    0    0 -0.21025681652E-01 -0.76086286094E-02 -0.17883440184E-03  0.50000500000E+01  0.50000000000E+01 0.  1.
     100001    1    1    2    0    0  0.21025681652E-01  0.76086286094E-02  0.17883440184E-03  0.50000500000E+01  0.50000000000E+01 0.  0.
</event>
<event>
 4    1  0.5008549E-001  0.5000050E+01  0.7818608E-02  0.2136455E+00
        -11   -1    0    0    0    0  0.00000000000E+00  0.00000000000E+00  0.50000499739E+01  0.50000500000E+01  0.51100000000E-03 0. -1.
         11   -1    0    0    0    0 -0.00000000000E+00 -0.00000000000E+00 -0.50000499739E+01  0.50000500000E+01  0.51100000000E-03 0.  1.
     100001    1    1    2    0    0 -0.15401494881E-01 -0.11091316741E-01  0.11822823198E-01  0.50000500000E+01  0.50000000000E+01 0.  1.
     100001    1    1    2    0    0  0.15401494881E-01  0.11091316741E-01 -0.11822823198E-01  0.50000500000E+01  0.50000000000E+01 0.  0.
</event>
<event>
 4    1  0.5008549E-001  0.5000050E+01  0.7818608E-02  0.2136455E+00
        -11   -1    0    0    0    0  0.00000000000E+00  0.00000000000E+00  0.50000499739E+01  0.50000500000E+01  0.51100000000E-03 0.  1.
         11   -1    0    0    0    0 -0.00000000000E+00 -0.00000000000E+00 -0.50000499739E+01  0.50000500000E+01  0.51100000000E-03 0. -1.
     100001    1    1    2    0    0  0.17754516282E-01 -0.24385850787E-02 -0.13372843916E-01  0.50000500000E+01  0.50000000000E+01 0. -1.
     100001    1    1    2    0    0 -0.17754516282E-01  0.24385850787E-02  0.13372843916E-01  0.50000500000E+01  0.50000000000E+01 0.  1.
</event>
<event>
 4    1  0.5008549E-001  0.5000050E+01  0.7818608E-02  0.2136455E+00
        -11   -1    0    0    0    0  0.00000000000E+00  0.00000000000E+00  0.50000499739E+01  0.50000500000E+01  0.51100000000E-03 0.  1.
         11   -1    0    0    0    0 -0.00000000000E+00 -0.00000000000E+00 -0.50000499739E+01  0.50000500000E+01  0.51100000000E-03 0. -1.
     100001    1    1    2    0    0  0.18910855456E-01 -0.92251524184E-02 -0.75682632597E-02  0.50000500000E+01  0.50000000000E+01 0.  1.
     100001    1    1    2    0    0 -0.18910855456E-01  0.92251524184E-02  0.75682632597E-02  0.50000500000E+01  0.50000000000E+01 0.  0.
</event>
<event>
 4    1  0.5008549E-001  0.5000050E+01  0.7818608E-02  0.2136455E+00
        -11   -1    0    0    0    0  0.00000000000E+00  0.00000000000E+00  0.50000499739E+01  0.50000500000E+01  0.51100000000E-03 0. -1.
         11   -1    0    0    0    0 -0.00000000000E+00 -0.00000000000E+00 -0.50000499739E+01  0.50000500000E+01  0.51100000000E-03 0.  1.
     100001    1    1    2    0    0 -0.18190832170E-01 -0.12807455526E-01  0.22506016779E-02  0.50000500000E+01  0.50000000000E+01 0.  1.
     100001    1    1    2    0    0  0.18190832170E-01  0.12807455526E-01 -0.22506016779E-02  0.50000500000E+01  0.50000000000E+01 0. -1.
</event>
<event>
 4    1  0.5008549E-001  0.5000050E+01  0.7818608E-02  0.2136455E+00
        -11   -1    0    0    0    0  0.00000000000E+00  0.00000000000E+00  0.50000499739E+01  0.50000500000E+01  0.51100000000E-03 0. -1.
         11   -1    0    0    0    0 -0.00000000000E+00 -0.00000000000E+00 -0.50000499739E+01  0.50000500000E+01  0.51100000000E-03 0.  1.
     100001    1    1    2    0    0 -0.89507849187E-02  0.13103703690E-01  0.15753694771E-01  0.50000500000E+01  0.50000000000E+01 0.  1.
     100001    1    1    2    0    0  0.89507849187E-02 -0.13103703690E-01 -0.15753694771E-01  0.50000500000E+01  0.50000000000E+01 0.  1.
</event>
<event>
 4    1  0.5008549E-001  0.5000050E+01  0.7818608E-02  0.2136455E+00
        -11   -1    0    0    0    0  0.00000000000E+00  0.00000000000E+00  0.50000499739E+01  0.50000500000E+01  0.51100000000E-03 0.  1.
         11   -1    0    0    0    0 -0.00000000000E+00 -0.00000000000E+00 -0.50000499739E+01  0.50000500000E+01  0.51100000000E-03 0. -1.
     100001    1    1    2    0    0  0.16544554909E-01  0.11884813054E-01  0.92212483710E-02  0.50000500000E+01  0.50000000000E+01 0.  0.
     100001    1    1    2    0    0 -0.16544554909E-01 -0.11884813054E-01 -0.92212483710E-02  0.50000500000E+01  0.50000000000E+01 0.  0.
</event>
<event>
 4    1  0.5008549E-001  0.5000050E+01  0.7818608E-02  0.2136455E+00
        -11   -1    0    0    0    0  0.00000000000E+00  0.00000000000E+00  0.50000499739E+01  0.50000500000E+01  0.51100000000E-03 0.  1.
         11   -1    0    0    0    0 -0.00000000000E+00 -0.00000000000E+00 -0.50000499739E+01  0.50000500000E+01  0.51100000000E-03 0. -1.
     100001    1    1    2    0    0 -0.29893476257E-03  0.18982433410E-01 -0.11814413225E-01  0.50000500000E+01  0.50000000000E+01 0.  1.
     100001    1    1    2    0    0  0.29893476257E-03 -0.18982433410E-01  0.11814413225E-01  0.50000500000E+01  0.50000000000E+01 0.  0.
</event>
<event>
 4    1  0.5008549E-001  0.5000050E+01  0.7818608E-02  0.2136455E+00
        -11   -1    0    0    0    0  0.00000000000E+00  0.00000000000E+00  0.50000499739E+01  0.50000500000E+01  0.51100000000E-03 0.  1.
         11   -1    0    0    0    0 -0.00000000000E+00 -0.00000000000E+00 -0.50000499739E+01  0.50000500000E+01  0.51100000000E-03 0. -1.
     100001    1    1    2    0    0  0.37435150208E-02  0.18226034217E-01  0.12401623765E-01  0.50000500000E+01  0.50000000000E+01 0.  0.
     100001    1    1    2    0    0 -0.37435150208E-02 -0.18226034217E-01 -0.12401623765E-01  0.50000500000E+01  0.50000000000E+01 0.  0.
</event>
<event>
 4    1  0.5008549E-001  0.5000050E+01  0.7818608E-02  0.2136455E+00
        -11   -1    0    0    0    0  0.00000000000E+00  0.00000000000E+00  0.50000499739E+01  0.50000500000E+01  0.51100000000E-03 0. -1.
         11   -1    0    0    0    0 -0.00000000000E+00 -0.00000000000E+00 -0.50000499739E+01  0.50000500000E+01  0.51100000000E-03 0.  1.
     100001    1    1    2    0    0 -0.16162037854E-01 -0.15394962242E-01 -0.13364767059E-02  0.50000500000E+01  0.50000000000E+01 0.  1.
     100001    1    1    2    0    0  0.16162037854E-01  0.15394962242E-01  0.13364767059E-02  0.50000500000E+01  0.50000000000E+01 0. -1.
</event>
<event>
 4    1  0.5008549E-001  0.5000050E+01  0.7818608E-02  0.2136455E+00
        -11   -1    0    0    0    0  0.00000000000E+00  0.00000000000E+00  0.50000499739E+01  0.50000500000E+01  0.51100000000E-03 0.  1.
         11   -1    0    0    0    0 -0.00000000000E+00 -0.00000000000E+00 -0.50000499739E+01  0.50000500000E+01  0.51100000000E-03 0. -1.
     100001    1    1    2    0    0  0.21081082947E-01 -0.59438211197E-02 -0.45012700756E-02  0.50000500000E+01  0.50000000000E+01 0. -1.
     100001    1    1    2    0    0 -0.21081082947E-01  0.59438211197E-02  0.45012700756E-02  0.50000500000E+01  0.50000000000E+01 0.  1.
</event>
<event>
 4    1  0.5008549E-001  0.5000050E+01  0.7818608E-02  0.2136455E+00
        -11   -1    0    0    0    0  0.00000000000E+00  0.00000000000E+00  0.50000499739E+01  0.50000500000E+01  0.51100000000E-03 0.  1.
         11   -1    0    0    0    0 -0.00000000000E+00 -0.00000000000E+00 -0.50000499739E+01  0.50000500000E+01  0.51100000000E-03 0. -1.
     100001    1    1    2    0    0  0.22700936812E-02  0.33340991348E-02  0.21993930018E-01  0.50000500000E+01  0.50000000000E+01 0.  1.
     100001    1    1    2    0    0 -0.22700936812E-02 -0.33340991348E-02 -0.21993930018E-01  0.50000500000E+01  0.50000000000E+01 0.  0.
</event>
<event>
 4    1  0.5008549E-001  0.5000050E+01  0.7818608E-02  0.2136455E+00
        -11   -1    0    0    0    0  0.00000000000E+00  0.00000000000E+00  0.50000499739E+01  0.50000500000E+01  0.51100000000E-03 0.  1.
         11   -1    0    0    0    0 -0.00000000000E+00 -0.00000000000E+00 -0.50000499739E+01  0.50000500000E+01  0.51100000000E-03 0. -1.
     100001    1    1    2    0    0 -0.84201759316E-02 -0.12786070668E-01 -0.16297838327E-01  0.50000500000E+01  0.50000000000E+01 0. -1.
     100001    1    1    2    0    0  0.84201759316E-02  0.12786070668E-01  0.16297838327E-01  0.50000500000E+01  0.50000000000E+01 0.  1.
</event>
<event>
 4    1  0.5008549E-001  0.5000050E+01  0.7818608E-02  0.2136455E+00
        -11   -1    0    0    0    0  0.00000000000E+00  0.00000000000E+00  0.50000499739E+01  0.50000500000E+01  0.51100000000E-03 0.  1.
         11   -1    0    0    0    0 -0.00000000000E+00 -0.00000000000E+00 -0.50000499739E+01  0.50000500000E+01  0.51100000000E-03 0. -1.
     100001    1    1    2    0    0  0.10998233737E-02 -0.91377324098E-02  0.20378781488E-01  0.50000500000E+01  0.50000000000E+01 0.  1.
     100001    1    1    2    0    0 -0.10998233737E-02  0.91377324098E-02 -0.20378781488E-01  0.50000500000E+01  0.50000000000E+01 0.  1.
</event>
<event>
 4    1  0.5008549E-001  0.5000050E+01  0.7818608E-02  0.2136455E+00
        -11   -1    0    0    0    0  0.00000000000E+00  0.00000000000E+00  0.50000499739E+01  0.50000500000E+01  0.51100000000E-03 0.  1.
         11   -1    0    0    0    0 -0.00000000000E+00 -0.00000000000E+00 -0.50000499739E+01  0.50000500000E+01  0.51100000000E-03 0. -1.
     100001    1    1    2    0    0  0.16599540208E-01 -0.13962392169E-01 -0.54322527368E-02  0.50000500000E+01  0.50000000000E+01 0.  0.
     100001    1    1    2    0    0 -0.16599540208E-01  0.13962392169E-01  0.54322527368E-02  0.50000500000E+01  0.50000000000E+01 0. -1.
</event>
<event>
 4    1  0.5008549E-001  0.5000050E+01  0.7818608E-02  0.2136455E+00
        -11   -1    0    0    0    0  0.00000000000E+00  0.00000000000E+00  0.50000499739E+01  0.50000500000E+01  0.51100000000E-03 0.  1.
         11   -1    0    0    0    0 -0.00000000000E+00 -0.00000000000E+00 -0.50000499739E+01  0.50000500000E+01  0.51100000000E-03 0. -1.
     100001    1    1    2    0    0  0.17344728848E-01  0.80560972239E-02 -0.11587155764E-01  0.50000500000E+01  0.50000000000E+01 0. -1.
     100001    1    1    2    0    0 -0.17344728848E-01 -0.80560972239E-02  0.11587155764E-01  0.50000500000E+01  0.50000000000E+01 0.  1.
</event>
<event>
 4    1  0.5008549E-001  0.5000050E+01  0.7818608E-02  0.2136455E+00
        -11   -1    0    0    0    0  0.00000000000E+00  0.00000000000E+00  0.50000499739E+01  0.50000500000E+01  0.51100000000E-03 0. -1.
         11   -1    0    0    0    0 -0.00000000000E+00 -0.00000000000E+00 -0.50000499739E+01  0.50000500000E+01  0.51100000000E-03 0.  1.
     100001    1    1    2    0    0 -0.69355888181E-02  0.14823532134E-01 -0.15236896102E-01  0.50000500000E+01  0.50000000000E+01 0.  1.
     100001    1    1    2    0    0  0.69355888181E-02 -0.14823532134E-01  0.15236896102E-01  0.50000500000E+01  0.50000000000E+01 0.  1.
</event>
<event>
 4    1  0.5008549E-001  0.5000050E+01  0.7818608E-02  0.2136455E+00
        -11   -1    0    0    0    0  0.00000000000E+00  0.00000000000E+00  0.50000499739E+01  0.50000500000E+01  0.51100000000E-03 0.  1.
         11   -1    0    0    0    0 -0.00000000000E+00 -0.00000000000E+00 -0.50000499739E+01  0.50000500000E+01  0.51100000000E-03 0. -1.
     100001    1    1    2    0    0 -0.17859006392E-01  0.31776537858E-02  0.13075201991E-01  0.50000500000E+01  0.50000000000E+01 0.  0.
     100001    1    1    2    0    0  0.17859006392E-01 -0.31776537858E-02 -0.13075201991E-01  0.50000500000E+01  0.50000000000E+01 0.  1.
</event>
<event>
 4    1  0.5008549E-001  0.5000050E+01  0.7818608E-02  0.2136455E+00
        -11   -1    0    0    0    0  0.00000000000E+00  0.00000000000E+00  0.50000499739E+01  0.50000500000E+01  0.51100000000E-03 0.  1.
         11   -1    0    0    0    0 -0.00000000000E+00 -0.00000000000E+00 -0.50000499739E+01  0.50000500000E+01  0.51100000000E-03 0. -1.
     100001    1    1    2    0    0  0.12156551427E-01 -0.18305316270E-01  0.41395837544E-02  0.50000500000E+01  0.50000000000E+01 0.  0.
     100001    1    1    2    0    0 -0.12156551427E-01  0.18305316270E-01 -0.41395837544E-02  0.50000500000E+01  0.50000000000E+01 0.  1.
</event>
<event>
 4    1  0.5008549E-001  0.5000050E+01  0.7818608E-02  0.2136455E+00
        -11   -1    0    0    0    0  0.00000000000E+00  0.00000000000E+00  0.50000499739E+01  0.50000500000E+01  0.51100000000E-03 0.  1.
         11   -1    0    0    0    0 -0.00000000000E+00 -0.00000000000E+00 -0.50000499739E+01  0.50000500000E+01  0.51100000000E-03 0. -1.
     100001    1    1    2    0    0  0.57763710564E-02 -0.31332049384E-04 -0.21601737331E-01  0.50000500000E+01  0.50000000000E+01 0.  0.
     100001    1    1    2    0    0 -0.57763710564E-02  0.31332049384E-04  0.21601737331E-01  0.50000500000E+01  0.50000000000E+01 0.  1.
</event>
<event>
 4    1  0.5008549E-001  0.5000050E+01  0.7818608E-02  0.2136455E+00
        -11   -1    0    0    0    0  0.00000000000E+00  0.00000000000E+00  0.50000499739E+01  0.50000500000E+01  0.51100000000E-03 0. -1.
         11   -1    0    0    0    0 -0.00000000000E+00 -0.00000000000E+00 -0.50000499739E+01  0.50000500000E+01  0.51100000000E-03 0.  1.
     100001    1    1    2    0    0 -0.11698092805E-01 -0.65478146293E-02 -0.17896459099E-01  0.50000500000E+01  0.50000000000E+01 0.  1.
     100001    1    1    2    0    0  0.11698092805E-01  0.65478146293E-02  0.17896459099E-01  0.50000500000E+01  0.50000000000E+01 0.  1.
</event>
<event>
 4    1  0.5008549E-001  0.5000050E+01  0.7818608E-02  0.2136455E+00
        -11   -1    0    0    0    0  0.00000000000E+00  0.00000000000E+00  0.50000499739E+01  0.50000500000E+01  0.51100000000E-03 0. -1.
         11   -1    0    0    0    0 -0.00000000000E+00 -0.00000000000E+00 -0.50000499739E+01  0.50000500000E+01  0.51100000000E-03 0.  1.
     100001    1    1    2    0    0  0.22115404886E-01 -0.30191343846E-02 -0.13402217363E-02  0.50000500000E+01  0.50000000000E+01 0.  0.
     100001    1    1    2    0    0 -0.22115404886E-01  0.30191343846E-02  0.13402217363E-02  0.50000500000E+01  0.50000000000E+01 0.  1.
</event>
<event>
 4    1  0.5008549E-001  0.5000050E+01  0.7818608E-02  0.2136455E+00
        -11   -1    0    0    0    0  0.00000000000E+00  0.00000000000E+00  0.50000499739E+01  0.50000500000E+01  0.51100000000E-03 0.  1.
         11   -1    0    0    0    0 -0.00000000000E+00 -0.00000000000E+00 -0.50000499739E+01  0.50000500000E+01  0.51100000000E-03 0. -1.
     100001    1    1    2    0    0 -0.15316478052E-01  0.12151292098E-01 -0.10851456142E-01  0.50000500000E+01  0.50000000000E+01 0.  1.
     100001    1    1    2    0    0  0.15316478052E-01 -0.12151292098E-01  0.10851456142E-01  0.50000500000E+01  0.50000000000E+01 0.  0.
</event>
<event>
 4    1  0.5008549E-001  0.5000050E+01  0.7818608E-02  0.2136455E+00
        -11   -1    0    0    0    0  0.00000000000E+00  0.00000000000E+00  0.50000499739E+01  0.50000500000E+01  0.51100000000E-03 0. -1.
         11   -1    0    0    0    0 -0.00000000000E+00 -0.00000000000E+00 -0.50000499739E+01  0.50000500000E+01  0.51100000000E-03 0.  1.
     100001    1    1    2    0    0  0.95706757405E-02  0.59402650847E-02  0.19316260419E-01  0.50000500000E+01  0.50000000000E+01 0. -1.
     100001    1    1    2    0    0 -0.95706757405E-02 -0.59402650847E-02 -0.19316260419E-01  0.50000500000E+01  0.50000000000E+01 0.  0.
</event>
<event>
 4    1  0.5008549E-001  0.5000050E+01  0.7818608E-02  0.2136455E+00
        -11   -1    0    0    0    0  0.00000000000E+00  0.00000000000E+00  0.50000499739E+01  0.50000500000E+01  0.51100000000E-03 0. -1.
         11   -1    0    0    0    0 -0.00000000000E+00 -0.00000000000E+00 -0.50000499739E+01  0.50000500000E+01  0.51100000000E-03 0.  1.
     100001    1    1    2    0    0  0.13040514717E-01 -0.12559300001E-01  0.13122936387E-01  0.50000500000E+01  0.50000000000E+01 0.  0.
     100001    1    1    2    0    0 -0.13040514717E-01  0.12559300001E-01 -0.13122936387E-01  0.50000500000E+01  0.50000000000E+01 0.  0.
</event>
<event>
 4    1  0.5008549E-001  0.5000050E+01  0.7818608E-02  0.2136455E+00
        -11   -1    0    0    0    0  0.00000000000E+00  0.00000000000E+00  0.50000499739E+01  0.50000500000E+01  0.51100000000E-03 0. -1.
         11   -1    0    0    0    0 -0.00000000000E+00 -0.00000000000E+00 -0.50000499739E+01  0.50000500000E+01  0.51100000000E-03 0.  1.
     100001    1    1    2    0    0 -0.39712505997E-02  0.15242165434E-01 -0.15871611814E-01  0.50000500000E+01  0.50000000000E+01 0.  0.
     100001    1    1    2    0    0  0.39712505997E-02 -0.15242165434E-01  0.15871611814E-01  0.50000500000E+01  0.50000000000E+01 0. -1.
</event>
<event>
 4    1  0.5008549E-001  0.5000050E+01  0.7818608E-02  0.2136455E+00
        -11   -1    0    0    0    0  0.00000000000E+00  0.00000000000E+00  0.50000499739E+01  0.50000500000E+01  0.51100000000E-03 0.  1.
         11   -1    0    0    0    0 -0.00000000000E+00 -0.00000000000E+00 -0.50000499739E+01  0.50000500000E+01  0.51100000000E-03 0. -1.
     100001    1    1    2    0    0 -0.41236897919E-02 -0.21268020471E-01  0.55379588051E-02  0.50000500000E+01  0.50000000000E+01 0.  1.
     100001    1    1    2    0    0  0.41236897919E-02  0.21268020471E-01 -0.55379588051E-02  0.50000500000E+01  0.50000000000E+01 0.  0.
</event>
<event>
 4    1  0.5008549E-001  0.5000050E+01  0.7818608E-02  0.2136455E+00
        -11   -1    0    0    0    0  0.00000000000E+00  0.00000000000E+00  0.50000499739E+01  0.50000500000E+01  0.51100000000E-03 0. -1.
         11   -1    0    0    0    0 -0.00000000000E+00 -0.00000000000E+00 -0.50000499739E+01  0.50000500000E+01  0.51100000000E-03 0.  1.
     100001    1    1    2    0    0  0.11037268685E-01  0.10352051020E-01 -0.16462570870E-01  0.50000500000E+01  0.50000000000E+01 0.  1.
     100001    1    1    2    0    0 -0.11037268685E-01 -0.10352051020E-01  0.16462570870E-01  0.50000500000E+01  0.50000000000E+01 0.  1.
</event>
<event>
 4    1  0.5008549E-001  0.5000050E+01  0.7818608E-02  0.2136455E+00
        -11   -1    0    0    0    0  0.00000000000E+00  0.00000000000E+00  0.50000499739E+01  0.50000500000E+01  0.51100000000E-03 0. -1.
         11   -1    0    0    0    0 -0.00000000000E+00 -0.00000000000E+00 -0.50000499739E+01  0.50000500000E+01  0.51100000000E-03 0.  1.
     100001    1    1    2    0    0  0.39841628038E-02  0.70514903365E-02  0.20842395035E-01  0.50000500000E+01  0.50000000000E+01 0.  0.
     100001    1    1    2    0    0 -0.39841628038E-02 -0.70514903365E-02 -0.20842395035E-01  0.50000500000E+01  0.50000000000E+01 0.  1.
</event>
<event>
 4    1  0.5008549E-001  0.5000050E+01  0.7818608E-02  0.2136455E+00
        -11   -1    0    0    0    0  0.00000000000E+00  0.00000000000E+00  0.50000499739E+01  0.50000500000E+01  0.51100000000E-03 0.  1.
         11   -1    0    0    0    0 -0.00000000000E+00 -0.00000000000E+00 -0.50000499739E+01  0.50000500000E+01  0.51100000000E-03 0. -1.
     100001    1    1    2    0    0  0.17305447316E-01  0.13742402904E-01  0.34161902183E-02  0.50000500000E+01  0.50000000000E+01 0.  0.
     100001    1    1    2    0    0 -0.17305447316E-01 -0.13742402904E-01 -0.34161902183E-02  0.50000500000E+01  0.50000000000E+01 0.  1.
</event>
<event>
 4    1  0.5008549E-001  0.5000050E+01  0.7818608E-02  0.2136455E+00
        -11   -1    0    0    0    0  0.00000000000E+00  0.00000000000E+00  0.50000499739E+01  0.50000500000E+01  0.51100000000E-03 0.  1.
         11   -1    0    0    0    0 -0.00000000000E+00 -0.00000000000E+00 -0.50000499739E+01  0.50000500000E+01  0.51100000000E-03 0. -1.
     100001    1    1    2    0    0  0.66381535677E-02 -0.21267373579E-01 -0.19068923090E-02  0.50000500000E+01  0.50000000000E+01 0.  0.
     100001    1    1    2    0    0 -0.66381535677E-02  0.21267373579E-01  0.19068923090E-02  0.50000500000E+01  0.50000000000E+01 0. -1.
</event>
<event>
 4    1  0.5008549E-001  0.5000050E+01  0.7818608E-02  0.2136455E+00
        -11   -1    0    0    0    0  0.00000000000E+00  0.00000000000E+00  0.50000499739E+01  0.50000500000E+01  0.51100000000E-03 0.  1.
         11   -1    0    0    0    0 -0.00000000000E+00 -0.00000000000E+00 -0.50000499739E+01  0.50000500000E+01  0.51100000000E-03 0. -1.
     100001    1    1    2    0    0  0.13948443213E-01 -0.10686002716E-01  0.13829417120E-01  0.50000500000E+01  0.50000000000E+01 0.  1.
     100001    1    1    2    0    0 -0.13948443213E-01  0.10686002716E-01 -0.13829417120E-01  0.50000500000E+01  0.50000000000E+01 0. -1.
</event>
<event>
 4    1  0.5008549E-001  0.5000050E+01  0.7818608E-02  0.2136455E+00
        -11   -1    0    0    0    0  0.00000000000E+00  0.00000000000E+00  0.50000499739E+01  0.50000500000E+01  0.51100000000E-03 0.  1.
         11   -1    0    0    0    0 -0.00000000000E+00 -0.00000000000E+00 -0.50000499739E+01  0.50000500000E+01  0.51100000000E-03 0. -1.
     100001    1    1    2    0    0  0.31248066295E-02 -0.22136596655E-01  0.45735333238E-03  0.50000500000E+01  0.50000000000E+01 0.  0.
     100001    1    1    2    0    0 -0.31248066295E-02  0.22136596655E-01 -0.45735333238E-03  0.50000500000E+01  0.50000000000E+01 0.  1.
</event>
<event>
 4    1  0.5008549E-001  0.5000050E+01  0.7818608E-02  0.2136455E+00
        -11   -1    0    0    0    0  0.00000000000E+00  0.00000000000E+00  0.50000499739E+01  0.50000500000E+01  0.51100000000E-03 0.  1.
         11   -1    0    0    0    0 -0.00000000000E+00 -0.00000000000E+00 -0.50000499739E+01  0.50000500000E+01  0.51100000000E-03 0. -1.
     100001    1    1    2    0    0  0.10692986666E-02  0.19750696351E-01  0.10429242255E-01  0.50000500000E+01  0.50000000000E+01 0. -1.
     100001    1    1    2    0    0 -0.10692986666E-02 -0.19750696351E-01 -0.10429242255E-01  0.50000500000E+01  0.50000000000E+01 0.  0.
</event>
<event>
 4    1  0.5008549E-001  0.5000050E+01  0.7818608E-02  0.2136455E+00
        -11   -1    0    0    0    0  0.00000000000E+00  0.00000000000E+00  0.50000499739E+01  0.50000500000E+01  0.51100000000E-03 0.  1.
         11   -1    0    0    0    0 -0.00000000000E+00 -0.00000000000E+00 -0.50000499739E+01  0.50000500000E+01  0.51100000000E-03 0. -1.
     100001    1    1    2    0    0  0.81771775096E-02  0.19254221025E-01 -0.79000785241E-02  0.50000500000E+01  0.50000000000E+01 0. -1.
     100001    1    1    2    0    0 -0.81771775096E-02 -0.19254221025E-01  0.79000785241E-02  0.50000500000E+01  0.50000000000E+01 0.  1.
</event>
<event>
 4    1  0.5008549E-001  0.5000050E+01  0.7818608E-02  0.2136455E+00
        -11   -1    0    0    0    0  0.00000000000E+00  0.00000000000E+00  0.50000499739E+01  0.50000500000E+01  0.51100000000E-03 0.  1.
         11   -1    0    0    0    0 -0.00000000000E+00 -0.00000000000E+00 -0.50000499739E+01  0.50000500000E+01  0.51100000000E-03 0. -1.
     100001    1    1    2    0    0  0.18576512227E-01  0.15791608153E-02 -0.12345928259E-01  0.50000500000E+01  0.50000000000E+01 0. -1.
     100001    1    1    2    0    0 -0.18576512227E-01 -0.15791608153E-02  0.12345928259E-01  0.50000500000E+01  0.50000000000E+01 0.  1.
</event>
<event>
 4    1  0.5008549E-001  0.5000050E+01  0.7818608E-02  0.2136455E+00
        -11   -1    0    0    0    0  0.00000000000E+00  0.00000000000E+00  0.50000499739E+01  0.50000500000E+01  0.51100000000E-03 0. -1.
         11   -1    0    0    0    0 -0.00000000000E+00 -0.00000000000E+00 -0.50000499739E+01  0.50000500000E+01  0.51100000000E-03 0.  1.
     100001    1    1    2    0    0  0.15809985899E-01  0.13904687885E-01  0.75303718830E-02  0.50000500000E+01  0.50000000000E+01 0. -1.
     100001    1    1    2    0    0 -0.15809985899E-01 -0.13904687885E-01 -0.75303718830E-02  0.50000500000E+01  0.50000000000E+01 0.  1.
</event>
<event>
 4    1  0.5008549E-001  0.5000050E+01  0.7818608E-02  0.2136455E+00
        -11   -1    0    0    0    0  0.00000000000E+00  0.00000000000E+00  0.50000499739E+01  0.50000500000E+01  0.51100000000E-03 0. -1.
         11   -1    0    0    0    0 -0.00000000000E+00 -0.00000000000E+00 -0.50000499739E+01  0.50000500000E+01  0.51100000000E-03 0.  1.
     100001    1    1    2    0    0 -0.10102938202E-01  0.17647895486E-01  0.92997271260E-02  0.50000500000E+01  0.50000000000E+01 0.  1.
     100001    1    1    2    0    0  0.10102938202E-01 -0.17647895486E-01 -0.92997271260E-02  0.50000500000E+01  0.50000000000E+01 0. -1.
</event>
<event>
 4    1  0.5008549E-001  0.5000050E+01  0.7818608E-02  0.2136455E+00
        -11   -1    0    0    0    0  0.00000000000E+00  0.00000000000E+00  0.50000499739E+01  0.50000500000E+01  0.51100000000E-03 0. -1.
         11   -1    0    0    0    0 -0.00000000000E+00 -0.00000000000E+00 -0.50000499739E+01  0.50000500000E+01  0.51100000000E-03 0.  1.
     100001    1    1    2    0    0 -0.18561885655E-01  0.20080289273E-02 -0.12305556499E-01  0.50000500000E+01  0.50000000000E+01 0. -1.
     100001    1    1    2    0    0  0.18561885655E-01 -0.20080289273E-02  0.12305556499E-01  0.50000500000E+01  0.50000000000E+01 0.  0.
</event>
<event>
 4    1  0.5008549E-001  0.5000050E+01  0.7818608E-02  0.2136455E+00
        -11   -1    0    0    0    0  0.00000000000E+00  0.00000000000E+00  0.50000499739E+01  0.50000500000E+01  0.51100000000E-03 0.  1.
         11   -1    0    0    0    0 -0.00000000000E+00 -0.00000000000E+00 -0.50000499739E+01  0.50000500000E+01  0.51100000000E-03 0. -1.
     100001    1    1    2    0    0  0.19051188636E-01  0.11670708530E-01  0.92156060648E-03  0.50000500000E+01  0.50000000000E+01 0. -1.
     100001    1    1    2    0    0 -0.19051188636E-01 -0.11670708530E-01 -0.92156060648E-03  0.50000500000E+01  0.50000000000E+01 0.  1.
</event>
<event>
 4    1  0.5008549E-001  0.5000050E+01  0.7818608E-02  0.2136455E+00
        -11   -1    0    0    0    0  0.00000000000E+00  0.00000000000E+00  0.50000499739E+01  0.50000500000E+01  0.51100000000E-03 0.  1.
         11   -1    0    0    0    0 -0.00000000000E+00 -0.00000000000E+00 -0.50000499739E+01  0.50000500000E+01  0.51100000000E-03 0. -1.
     100001    1    1    2    0    0  0.20785924301E-01  0.54680710725E-03 -0.82248922756E-02  0.50000500000E+01  0.50000000000E+01 0. -1.
     100001    1    1    2    0    0 -0.20785924301E-01 -0.54680710725E-03  0.82248922756E-02  0.50000500000E+01  0.50000000000E+01 0.  1.
</event>
<event>
 4    1  0.5008549E-001  0.5000050E+01  0.7818608E-02  0.2136455E+00
        -11   -1    0    0    0    0  0.00000000000E+00  0.00000000000E+00  0.50000499739E+01  0.50000500000E+01  0.51100000000E-03 0.  1.
         11   -1    0    0    0    0 -0.00000000000E+00 -0.00000000000E+00 -0.50000499739E+01  0.50000500000E+01  0.51100000000E-03 0. -1.
     100001    1    1    2    0    0  0.10522759512E-01  0.19665402091E-01 -0.15956167555E-02  0.50000500000E+01  0.50000000000E+01 0.  1.
     100001    1    1    2    0    0 -0.10522759512E-01 -0.19665402091E-01  0.15956167555E-02  0.50000500000E+01  0.50000000000E+01 0.  0.
</event>
<event>
 4    1  0.5008549E-001  0.5000050E+01  0.7818608E-02  0.2136455E+00
        -11   -1    0    0    0    0  0.00000000000E+00  0.00000000000E+00  0.50000499739E+01  0.50000500000E+01  0.51100000000E-03 0.  1.
         11   -1    0    0    0    0 -0.00000000000E+00 -0.00000000000E+00 -0.50000499739E+01  0.50000500000E+01  0.51100000000E-03 0. -1.
     100001    1    1    2    0    0 -0.11492577194E-01  0.39897240609E-02 -0.18761803521E-01  0.50000500000E+01  0.50000000000E+01 0.  0.
     100001    1    1    2    0    0  0.11492577194E-01 -0.39897240609E-02  0.18761803521E-01  0.50000500000E+01  0.50000000000E+01 0.  0.
</event>
<event>
 4    1  0.5008549E-001  0.5000050E+01  0.7818608E-02  0.2136455E+00
        -11   -1    0    0    0    0  0.00000000000E+00  0.00000000000E+00  0.50000499739E+01  0.50000500000E+01  0.51100000000E-03 0. -1.
         11   -1    0    0    0    0 -0.00000000000E+00 -0.00000000000E+00 -0.50000499739E+01  0.50000500000E+01  0.51100000000E-03 0.  1.
     100001    1    1    2    0    0  0.11474024644E-01  0.13811638074E-02  0.19142665567E-01  0.50000500000E+01  0.50000000000E+01 0.  0.
     100001    1    1    2    0    0 -0.11474024644E-01 -0.13811638074E-02 -0.19142665567E-01  0.50000500000E+01  0.50000000000E+01 0.  1.
</event>
<event>
 4    1  0.5008549E-001  0.5000050E+01  0.7818608E-02  0.2136455E+00
        -11   -1    0    0    0    0  0.00000000000E+00  0.00000000000E+00  0.50000499739E+01  0.50000500000E+01  0.51100000000E-03 0. -1.
         11   -1    0    0    0    0 -0.00000000000E+00 -0.00000000000E+00 -0.50000499739E+01  0.50000500000E+01  0.51100000000E-03 0.  1.
     100001    1    1    2    0    0 -0.16001409312E-02  0.21369864869E-01 -0.63852113871E-02  0.50000500000E+01  0.50000000000E+01 0.  0.
     100001    1    1    2    0    0  0.16001409312E-02 -0.21369864869E-01  0.63852113871E-02  0.50000500000E+01  0.50000000000E+01 0. -1.
</event>
<event>
 4    1  0.5008549E-001  0.5000050E+01  0.7818608E-02  0.2136455E+00
        -11   -1    0    0    0    0  0.00000000000E+00  0.00000000000E+00  0.50000499739E+01  0.50000500000E+01  0.51100000000E-03 0. -1.
         11   -1    0    0    0    0 -0.00000000000E+00 -0.00000000000E+00 -0.50000499739E+01  0.50000500000E+01  0.51100000000E-03 0.  1.
     100001    1    1    2    0    0  0.21090362111E-01 -0.16309063410E-02 -0.72483977901E-02  0.50000500000E+01  0.50000000000E+01 0. -1.
     100001    1    1    2    0    0 -0.21090362111E-01  0.16309063410E-02  0.72483977901E-02  0.50000500000E+01  0.50000000000E+01 0.  0.
</event>
<event>
 4    1  0.5008549E-001  0.5000050E+01  0.7818608E-02  0.2136455E+00
        -11   -1    0    0    0    0  0.00000000000E+00  0.00000000000E+00  0.50000499739E+01  0.50000500000E+01  0.51100000000E-03 0.  1.
         11   -1    0    0    0    0 -0.00000000000E+00 -0.00000000000E+00 -0.50000499739E+01  0.50000500000E+01  0.51100000000E-03 0. -1.
     100001    1    1    2    0    0 -0.18274875747E-01 -0.12792526296E-01  0.15435956090E-02  0.50000500000E+01  0.50000000000E+01 0. -1.
     100001    1    1    2    0    0  0.18274875747E-01  0.12792526296E-01 -0.15435956090E-02  0.50000500000E+01  0.50000000000E+01 0.  1.
</event>
<event>
 4    1  0.5008549E-001  0.5000050E+01  0.7818608E-02  0.2136455E+00
        -11   -1    0    0    0    0  0.00000000000E+00  0.00000000000E+00  0.50000499739E+01  0.50000500000E+01  0.51100000000E-03 0. -1.
         11   -1    0    0    0    0 -0.00000000000E+00 -0.00000000000E+00 -0.50000499739E+01  0.50000500000E+01  0.51100000000E-03 0.  1.
     100001    1    1    2    0    0 -0.17788867486E-01  0.11933559274E-01  0.64147374540E-02  0.50000500000E+01  0.50000000000E+01 0. -1.
     100001    1    1    2    0    0  0.17788867486E-01 -0.11933559274E-01 -0.64147374540E-02  0.50000500000E+01  0.50000000000E+01 0.  1.
</event>
<event>
 4    1  0.5008549E-001  0.5000050E+01  0.7818608E-02  0.2136455E+00
        -11   -1    0    0    0    0  0.00000000000E+00  0.00000000000E+00  0.50000499739E+01  0.50000500000E+01  0.51100000000E-03 0.  1.
         11   -1    0    0    0    0 -0.00000000000E+00 -0.00000000000E+00 -0.50000499739E+01  0.50000500000E+01  0.51100000000E-03 0. -1.
     100001    1    1    2    0    0 -0.67535654058E-02  0.69503602407E-02 -0.20151534602E-01  0.50000500000E+01  0.50000000000E+01 0. -1.
     100001    1    1    2    0    0  0.67535654058E-02 -0.69503602407E-02  0.20151534602E-01  0.50000500000E+01  0.50000000000E+01 0.  0.
</event>
<event>
 4    1  0.5008549E-001  0.5000050E+01  0.7818608E-02  0.2136455E+00
        -11   -1    0    0    0    0  0.00000000000E+00  0.00000000000E+00  0.50000499739E+01  0.50000500000E+01  0.51100000000E-03 0. -1.
         11   -1    0    0    0    0 -0.00000000000E+00 -0.00000000000E+00 -0.50000499739E+01  0.50000500000E+01  0.51100000000E-03 0.  1.
     100001    1    1    2    0    0  0.13033387217E-01  0.17153666826E-01  0.59904116784E-02  0.50000500000E+01  0.50000000000E+01 0.  1.
     100001    1    1    2    0    0 -0.13033387217E-01 -0.17153666826E-01 -0.59904116784E-02  0.50000500000E+01  0.50000000000E+01 0. -1.
</event>
<event>
 4    1  0.5008549E-001  0.5000050E+01  0.7818608E-02  0.2136455E+00
        -11   -1    0    0    0    0  0.00000000000E+00  0.00000000000E+00  0.50000499739E+01  0.50000500000E+01  0.51100000000E-03 0. -1.
         11   -1    0    0    0    0 -0.00000000000E+00 -0.00000000000E+00 -0.50000499739E+01  0.50000500000E+01  0.51100000000E-03 0.  1.
     100001    1    1    2    0    0  0.12348242417E-01  0.90000064366E-02 -0.16325541135E-01  0.50000500000E+01  0.50000000000E+01 0.  1.
     100001    1    1    2    0    0 -0.12348242417E-01 -0.90000064366E-02  0.16325541135E-01  0.50000500000E+01  0.50000000000E+01 0. -1.
</event>
<event>
 4    1  0.5008549E-001  0.5000050E+01  0.7818608E-02  0.2136455E+00
        -11   -1    0    0    0    0  0.00000000000E+00  0.00000000000E+00  0.50000499739E+01  0.50000500000E+01  0.51100000000E-03 0. -1.
         11   -1    0    0    0    0 -0.00000000000E+00 -0.00000000000E+00 -0.50000499739E+01  0.50000500000E+01  0.51100000000E-03 0.  1.
     100001    1    1    2    0    0  0.72482200721E-02 -0.18207954661E-01 -0.10767367034E-01  0.50000500000E+01  0.50000000000E+01 0.  1.
     100001    1    1    2    0    0 -0.72482200721E-02  0.18207954661E-01  0.10767367034E-01  0.50000500000E+01  0.50000000000E+01 0. -1.
</event>
<event>
 4    1  0.5008549E-001  0.5000050E+01  0.7818608E-02  0.2136455E+00
        -11   -1    0    0    0    0  0.00000000000E+00  0.00000000000E+00  0.50000499739E+01  0.50000500000E+01  0.51100000000E-03 0. -1.
         11   -1    0    0    0    0 -0.00000000000E+00 -0.00000000000E+00 -0.50000499739E+01  0.50000500000E+01  0.51100000000E-03 0.  1.
     100001    1    1    2    0    0  0.16058124467E-01  0.10940055293E-01 -0.11065908404E-01  0.50000500000E+01  0.50000000000E+01 0.  1.
     100001    1    1    2    0    0 -0.16058124467E-01 -0.10940055293E-01  0.11065908404E-01  0.50000500000E+01  0.50000000000E+01 0. -1.
</event>
<event>
 4    1  0.5008549E-001  0.5000050E+01  0.7818608E-02  0.2136455E+00
        -11   -1    0    0    0    0  0.00000000000E+00  0.00000000000E+00  0.50000499739E+01  0.50000500000E+01  0.51100000000E-03 0. -1.
         11   -1    0    0    0    0 -0.00000000000E+00 -0.00000000000E+00 -0.50000499739E+01  0.50000500000E+01  0.51100000000E-03 0.  1.
     100001    1    1    2    0    0  0.19867538575E-01  0.94355264340E-02 -0.40316562210E-02  0.50000500000E+01  0.50000000000E+01 0.  1.
     100001    1    1    2    0    0 -0.19867538575E-01 -0.94355264340E-02  0.40316562210E-02  0.50000500000E+01  0.50000000000E+01 0. -1.
</event>
<event>
 4    1  0.5008549E-001  0.5000050E+01  0.7818608E-02  0.2136455E+00
        -11   -1    0    0    0    0  0.00000000000E+00  0.00000000000E+00  0.50000499739E+01  0.50000500000E+01  0.51100000000E-03 0. -1.
         11   -1    0    0    0    0 -0.00000000000E+00 -0.00000000000E+00 -0.50000499739E+01  0.50000500000E+01  0.51100000000E-03 0.  1.
     100001    1    1    2    0    0  0.59300037971E-02 -0.17872899750E-01  0.12058068232E-01  0.50000500000E+01  0.50000000000E+01 0.  0.
     100001    1    1    2    0    0 -0.59300037971E-02  0.17872899750E-01 -0.12058068232E-01  0.50000500000E+01  0.50000000000E+01 0.  0.
</event>
<event>
 4    1  0.5008549E-001  0.5000050E+01  0.7818608E-02  0.2136455E+00
        -11   -1    0    0    0    0  0.00000000000E+00  0.00000000000E+00  0.50000499739E+01  0.50000500000E+01  0.51100000000E-03 0. -1.
         11   -1    0    0    0    0 -0.00000000000E+00 -0.00000000000E+00 -0.50000499739E+01  0.50000500000E+01  0.51100000000E-03 0.  1.
     100001    1    1    2    0    0  0.10909961844E-01  0.19509321872E-01 -0.60132576661E-03  0.50000500000E+01  0.50000000000E+01 0. -1.
     100001    1    1    2    0    0 -0.10909961844E-01 -0.19509321872E-01  0.60132576661E-03  0.50000500000E+01  0.50000000000E+01 0.  1.
</event>
<event>
 4    1  0.5008549E-001  0.5000050E+01  0.7818608E-02  0.2136455E+00
        -11   -1    0    0    0    0  0.00000000000E+00  0.00000000000E+00  0.50000499739E+01  0.50000500000E+01  0.51100000000E-03 0.  1.
         11   -1    0    0    0    0 -0.00000000000E+00 -0.00000000000E+00 -0.50000499739E+01  0.50000500000E+01  0.51100000000E-03 0. -1.
     100001    1    1    2    0    0  0.16873080378E-01 -0.59182796597E-02 -0.13426675851E-01  0.50000500000E+01  0.50000000000E+01 0. -1.
     100001    1    1    2    0    0 -0.16873080378E-01  0.59182796597E-02  0.13426675851E-01  0.50000500000E+01  0.50000000000E+01 0.  1.
</event>
<event>
 4    1  0.5008549E-001  0.5000050E+01  0.7818608E-02  0.2136455E+00
        -11   -1    0    0    0    0  0.00000000000E+00  0.00000000000E+00  0.50000499739E+01  0.50000500000E+01  0.51100000000E-03 0.  1.
         11   -1    0    0    0    0 -0.00000000000E+00 -0.00000000000E+00 -0.50000499739E+01  0.50000500000E+01  0.51100000000E-03 0. -1.
     100001    1    1    2    0    0  0.26206836179E-02 -0.61142316909E-02  0.21348318159E-01  0.50000500000E+01  0.50000000000E+01 0.  1.
     100001    1    1    2    0    0 -0.26206836179E-02  0.61142316909E-02 -0.21348318159E-01  0.50000500000E+01  0.50000000000E+01 0.  0.
</event>
<event>
 4    1  0.5008549E-001  0.5000050E+01  0.7818608E-02  0.2136455E+00
        -11   -1    0    0    0    0  0.00000000000E+00  0.00000000000E+00  0.50000499739E+01  0.50000500000E+01  0.51100000000E-03 0. -1.
         11   -1    0    0    0    0 -0.00000000000E+00 -0.00000000000E+00 -0.50000499739E+01  0.50000500000E+01  0.51100000000E-03 0.  1.
     100001    1    1    2    0    0 -0.81541520019E-02 -0.20449193395E-01  0.39169879549E-02  0.50000500000E+01  0.50000000000E+01 0. -1.
     100001    1    1    2    0    0  0.81541520019E-02  0.20449193395E-01 -0.39169879549E-02  0.50000500000E+01  0.50000000000E+01 0.  1.
</event>
<event>
 4    1  0.5008549E-001  0.5000050E+01  0.7818608E-02  0.2136455E+00
        -11   -1    0    0    0    0  0.00000000000E+00  0.00000000000E+00  0.50000499739E+01  0.50000500000E+01  0.51100000000E-03 0.  1.
         11   -1    0    0    0    0 -0.00000000000E+00 -0.00000000000E+00 -0.50000499739E+01  0.50000500000E+01  0.51100000000E-03 0. -1.
     100001    1    1    2    0    0  0.53890279228E-02  0.11264930810E-01  0.18548914035E-01  0.50000500000E+01  0.50000000000E+01 0. -1.
     100001    1    1    2    0    0 -0.53890279228E-02 -0.11264930810E-01 -0.18548914035E-01  0.50000500000E+01  0.50000000000E+01 0. -1.
</event>
<event>
 4    1  0.5008549E-001  0.5000050E+01  0.7818608E-02  0.2136455E+00
        -11   -1    0    0    0    0  0.00000000000E+00  0.00000000000E+00  0.50000499739E+01  0.50000500000E+01  0.51100000000E-03 0. -1.
         11   -1    0    0    0    0 -0.00000000000E+00 -0.00000000000E+00 -0.50000499739E+01  0.50000500000E+01  0.51100000000E-03 0.  1.
     100001    1    1    2    0    0  0.11835216563E-02 -0.20987701945E-01 -0.76235256630E-02  0.50000500000E+01  0.50000000000E+01 0.  1.
     100001    1    1    2    0    0 -0.11835216563E-02  0.20987701945E-01  0.76235256630E-02  0.50000500000E+01  0.50000000000E+01 0. -1.
</event>
<event>
 4    1  0.5008549E-001  0.5000050E+01  0.7818608E-02  0.2136455E+00
        -11   -1    0    0    0    0  0.00000000000E+00  0.00000000000E+00  0.50000499739E+01  0.50000500000E+01  0.51100000000E-03 0. -1.
         11   -1    0    0    0    0 -0.00000000000E+00 -0.00000000000E+00 -0.50000499739E+01  0.50000500000E+01  0.51100000000E-03 0.  1.
     100001    1    1    2    0    0  0.21444605005E-01  0.33002008503E-02  0.54074107026E-02  0.50000500000E+01  0.50000000000E+01 0.  1.
     100001    1    1    2    0    0 -0.21444605005E-01 -0.33002008503E-02 -0.54074107026E-02  0.50000500000E+01  0.50000000000E+01 0. -1.
</event>
<event>
 4    1  0.5008549E-001  0.5000050E+01  0.7818608E-02  0.2136455E+00
        -11   -1    0    0    0    0  0.00000000000E+00  0.00000000000E+00  0.50000499739E+01  0.50000500000E+01  0.51100000000E-03 0.  1.
         11   -1    0    0    0    0 -0.00000000000E+00 -0.00000000000E+00 -0.50000499739E+01  0.50000500000E+01  0.51100000000E-03 0. -1.
     100001    1    1    2    0    0 -0.71539988168E-02  0.87812363960E-02  0.19279851874E-01  0.50000500000E+01  0.50000000000E+01 0.  0.
     100001    1    1    2    0    0  0.71539988168E-02 -0.87812363960E-02 -0.19279851874E-01  0.50000500000E+01  0.50000000000E+01 0.  0.
</event>
<event>
 4    1  0.5008549E-001  0.5000050E+01  0.7818608E-02  0.2136455E+00
        -11   -1    0    0    0    0  0.00000000000E+00  0.00000000000E+00  0.50000499739E+01  0.50000500000E+01  0.51100000000E-03 0.  1.
         11   -1    0    0    0    0 -0.00000000000E+00 -0.00000000000E+00 -0.50000499739E+01  0.50000500000E+01  0.51100000000E-03 0. -1.
     100001    1    1    2    0    0 -0.83240774510E-02  0.19093410062E-01 -0.81335064261E-02  0.50000500000E+01  0.50000000000E+01 0.  1.
     100001    1    1    2    0    0  0.83240774510E-02 -0.19093410062E-01  0.81335064261E-02  0.50000500000E+01  0.50000000000E+01 0. -1.
</event>
<event>
 4    1  0.5008549E-001  0.5000050E+01  0.7818608E-02  0.2136455E+00
        -11   -1    0    0    0    0  0.00000000000E+00  0.00000000000E+00  0.50000499739E+01  0.50000500000E+01  0.51100000000E-03 0. -1.
         11   -1    0    0    0    0 -0.00000000000E+00 -0.00000000000E+00 -0.50000499739E+01  0.50000500000E+01  0.51100000000E-03 0.  1.
     100001    1    1    2    0    0 -0.77828448568E-02 -0.20528790380E-01 -0.42424746874E-02  0.50000500000E+01  0.50000000000E+01 0.  1.
     100001    1    1    2    0    0  0.77828448568E-02  0.20528790380E-01  0.42424746874E-02  0.50000500000E+01  0.50000000000E+01 0. -1.
</event>
<event>
 4    1  0.5008549E-001  0.5000050E+01  0.7818608E-02  0.2136455E+00
        -11   -1    0    0    0    0  0.00000000000E+00  0.00000000000E+00  0.50000499739E+01  0.50000500000E+01  0.51100000000E-03 0. -1.
         11   -1    0    0    0    0 -0.00000000000E+00 -0.00000000000E+00 -0.50000499739E+01  0.50000500000E+01  0.51100000000E-03 0.  1.
     100001    1    1    2    0    0  0.16147281747E-01  0.15262815247E-01 -0.25128197160E-02  0.50000500000E+01  0.50000000000E+01 0.  0.
     100001    1    1    2    0    0 -0.16147281747E-01 -0.15262815247E-01  0.25128197160E-02  0.50000500000E+01  0.50000000000E+01 0. -1.
</event>
<event>
 4    1  0.5008549E-001  0.5000050E+01  0.7818608E-02  0.2136455E+00
        -11   -1    0    0    0    0  0.00000000000E+00  0.00000000000E+00  0.50000499739E+01  0.50000500000E+01  0.51100000000E-03 0. -1.
         11   -1    0    0    0    0 -0.00000000000E+00 -0.00000000000E+00 -0.50000499739E+01  0.50000500000E+01  0.51100000000E-03 0.  1.
     100001    1    1    2    0    0 -0.62597651941E-02 -0.10532945973E-01 -0.18704942899E-01  0.50000500000E+01  0.50000000000E+01 0.  1.
     100001    1    1    2    0    0  0.62597651941E-02  0.10532945973E-01  0.18704942899E-01  0.50000500000E+01  0.50000000000E+01 0. -1.
</event>
<event>
 4    1  0.5008549E-001  0.5000050E+01  0.7818608E-02  0.2136455E+00
        -11   -1    0    0    0    0  0.00000000000E+00  0.00000000000E+00  0.50000499739E+01  0.50000500000E+01  0.51100000000E-03 0. -1.
         11   -1    0    0    0    0 -0.00000000000E+00 -0.00000000000E+00 -0.50000499739E+01  0.50000500000E+01  0.51100000000E-03 0.  1.
     100001    1    1    2    0    0  0.10120607274E-01 -0.17039963837E-01  0.10354488921E-01  0.50000500000E+01  0.50000000000E+01 0.  0.
     100001    1    1    2    0    0 -0.10120607274E-01  0.17039963837E-01 -0.10354488921E-01  0.50000500000E+01  0.50000000000E+01 0. -1.
</event>
<event>
 4    1  0.5008549E-001  0.5000050E+01  0.7818608E-02  0.2136455E+00
        -11   -1    0    0    0    0  0.00000000000E+00  0.00000000000E+00  0.50000499739E+01  0.50000500000E+01  0.51100000000E-03 0.  1.
         11   -1    0    0    0    0 -0.00000000000E+00 -0.00000000000E+00 -0.50000499739E+01  0.50000500000E+01  0.51100000000E-03 0. -1.
     100001    1    1    2    0    0  0.76480578104E-02  0.20511961820E-01  0.45573165373E-02  0.50000500000E+01  0.50000000000E+01 0.  0.
     100001    1    1    2    0    0 -0.76480578104E-02 -0.20511961820E-01 -0.45573165373E-02  0.50000500000E+01  0.50000000000E+01 0.  1.
</event>
<event>
 4    1  0.5008549E-001  0.5000050E+01  0.7818608E-02  0.2136455E+00
        -11   -1    0    0    0    0  0.00000000000E+00  0.00000000000E+00  0.50000499739E+01  0.50000500000E+01  0.51100000000E-03 0. -1.
         11   -1    0    0    0    0 -0.00000000000E+00 -0.00000000000E+00 -0.50000499739E+01  0.50000500000E+01  0.51100000000E-03 0.  1.
     100001    1    1    2    0    0 -0.12369648649E-01  0.71022321898E-02 -0.17220702373E-01  0.50000500000E+01  0.50000000000E+01 0.  1.
     100001    1    1    2    0    0  0.12369648649E-01 -0.71022321898E-02  0.17220702373E-01  0.50000500000E+01  0.50000000000E+01 0. -1.
</event>
<event>
 4    1  0.5008549E-001  0.5000050E+01  0.7818608E-02  0.2136455E+00
        -11   -1    0    0    0    0  0.00000000000E+00  0.00000000000E+00  0.50000499739E+01  0.50000500000E+01  0.51100000000E-03 0. -1.
         11   -1    0    0    0    0 -0.00000000000E+00 -0.00000000000E+00 -0.50000499739E+01  0.50000500000E+01  0.51100000000E-03 0.  1.
     100001    1    1    2    0    0 -0.19143658808E-03  0.11875426413E-01 -0.18945714543E-01  0.50000500000E+01  0.50000000000E+01 0. -1.
     100001    1    1    2    0    0  0.19143658808E-03 -0.11875426413E-01  0.18945714543E-01  0.50000500000E+01  0.50000000000E+01 0. -1.
</event>
<event>
 4    1  0.5008549E-001  0.5000050E+01  0.7818608E-02  0.2136455E+00
        -11   -1    0    0    0    0  0.00000000000E+00  0.00000000000E+00  0.50000499739E+01  0.50000500000E+01  0.51100000000E-03 0. -1.
         11   -1    0    0    0    0 -0.00000000000E+00 -0.00000000000E+00 -0.50000499739E+01  0.50000500000E+01  0.51100000000E-03 0.  1.
     100001    1    1    2    0    0  0.20717581326E-01 -0.78320415765E-02  0.30730194797E-02  0.50000500000E+01  0.50000000000E+01 0. -1.
     100001    1    1    2    0    0 -0.20717581326E-01  0.78320415765E-02 -0.30730194797E-02  0.50000500000E+01  0.50000000000E+01 0.  0.
</event>
<event>
 4    1  0.5008549E-001  0.5000050E+01  0.7818608E-02  0.2136455E+00
        -11   -1    0    0    0    0  0.00000000000E+00  0.00000000000E+00  0.50000499739E+01  0.50000500000E+01  0.51100000000E-03 0.  1.
         11   -1    0    0    0    0 -0.00000000000E+00 -0.00000000000E+00 -0.50000499739E+01  0.50000500000E+01  0.51100000000E-03 0. -1.
     100001    1    1    2    0    0 -0.42498107883E-02  0.30080433256E-03 -0.21951107603E-01  0.50000500000E+01  0.50000000000E+01 0.  0.
     100001    1    1    2    0    0  0.42498107883E-02 -0.30080433256E-03  0.21951107603E-01  0.50000500000E+01  0.50000000000E+01 0.  1.
</event>
<event>
 4    1  0.5008549E-001  0.5000050E+01  0.7818608E-02  0.2136455E+00
        -11   -1    0    0    0    0  0.00000000000E+00  0.00000000000E+00  0.50000499739E+01  0.50000500000E+01  0.51100000000E-03 0.  1.
         11   -1    0    0    0    0 -0.00000000000E+00 -0.00000000000E+00 -0.50000499739E+01  0.50000500000E+01  0.51100000000E-03 0. -1.
     100001    1    1    2    0    0 -0.18992635083E-01 -0.37530509402E-02  0.11189143008E-01  0.50000500000E+01  0.50000000000E+01 0.  0.
     100001    1    1    2    0    0  0.18992635083E-01  0.37530509402E-02 -0.11189143008E-01  0.50000500000E+01  0.50000000000E+01 0.  0.
</event>
<event>
 4    1  0.5008549E-001  0.5000050E+01  0.7818608E-02  0.2136455E+00
        -11   -1    0    0    0    0  0.00000000000E+00  0.00000000000E+00  0.50000499739E+01  0.50000500000E+01  0.51100000000E-03 0. -1.
         11   -1    0    0    0    0 -0.00000000000E+00 -0.00000000000E+00 -0.50000499739E+01  0.50000500000E+01  0.51100000000E-03 0.  1.
     100001    1    1    2    0    0 -0.12009243671E-01  0.46788612866E-03 -0.18856342408E-01  0.50000500000E+01  0.50000000000E+01 0.  0.
     100001    1    1    2    0    0  0.12009243671E-01 -0.46788612866E-03  0.18856342408E-01  0.50000500000E+01  0.50000000000E+01 0.  0.
</event>
<event>
 4    1  0.5008549E-001  0.5000050E+01  0.7818608E-02  0.2136455E+00
        -11   -1    0    0    0    0  0.00000000000E+00  0.00000000000E+00  0.50000499739E+01  0.50000500000E+01  0.51100000000E-03 0.  1.
         11   -1    0    0    0    0 -0.00000000000E+00 -0.00000000000E+00 -0.50000499739E+01  0.50000500000E+01  0.51100000000E-03 0. -1.
     100001    1    1    2    0    0  0.16998129031E-01  0.13552330942E-02 -0.14464765905E-01  0.50000500000E+01  0.50000000000E+01 0. -1.
     100001    1    1    2    0    0 -0.16998129031E-01 -0.13552330942E-02  0.14464765905E-01  0.50000500000E+01  0.50000000000E+01 0.  1.
</event>
<event>
 4    1  0.5008549E-001  0.5000050E+01  0.7818608E-02  0.2136455E+00
        -11   -1    0    0    0    0  0.00000000000E+00  0.00000000000E+00  0.50000499739E+01  0.50000500000E+01  0.51100000000E-03 0. -1.
         11   -1    0    0    0    0 -0.00000000000E+00 -0.00000000000E+00 -0.50000499739E+01  0.50000500000E+01  0.51100000000E-03 0.  1.
     100001    1    1    2    0    0  0.15890584967E-01  0.10213783002E-01  0.11965385335E-01  0.50000500000E+01  0.50000000000E+01 0.  1.
     100001    1    1    2    0    0 -0.15890584967E-01 -0.10213783002E-01 -0.11965385335E-01  0.50000500000E+01  0.50000000000E+01 0.  0.
</event>
<event>
 4    1  0.5008549E-001  0.5000050E+01  0.7818608E-02  0.2136455E+00
        -11   -1    0    0    0    0  0.00000000000E+00  0.00000000000E+00  0.50000499739E+01  0.50000500000E+01  0.51100000000E-03 0. -1.
         11   -1    0    0    0    0 -0.00000000000E+00 -0.00000000000E+00 -0.50000499739E+01  0.50000500000E+01  0.51100000000E-03 0.  1.
     100001    1    1    2    0    0  0.15971723364E-02 -0.20922350943E-01 -0.77270156935E-02  0.50000500000E+01  0.50000000000E+01 0.  0.
     100001    1    1    2    0    0 -0.15971723364E-02  0.20922350943E-01  0.77270156935E-02  0.50000500000E+01  0.50000000000E+01 0.  0.
</event>
<event>
 4    1  0.5008549E-001  0.5000050E+01  0.7818608E-02  0.2136455E+00
        -11   -1    0    0    0    0  0.00000000000E+00  0.00000000000E+00  0.50000499739E+01  0.50000500000E+01  0.51100000000E-03 0. -1.
         11   -1    0    0    0    0 -0.00000000000E+00 -0.00000000000E+00 -0.50000499739E+01  0.50000500000E+01  0.51100000000E-03 0.  1.
     100001    1    1    2    0    0  0.72497885306E-02  0.20533259606E-01  0.50821566495E-02  0.50000500000E+01  0.50000000000E+01 0.  1.
     100001    1    1    2    0    0 -0.72497885306E-02 -0.20533259606E-01 -0.50821566495E-02  0.50000500000E+01  0.50000000000E+01 0. -1.
</event>
<event>
 4    1  0.5008549E-001  0.5000050E+01  0.7818608E-02  0.2136455E+00
        -11   -1    0    0    0    0  0.00000000000E+00  0.00000000000E+00  0.50000499739E+01  0.50000500000E+01  0.51100000000E-03 0. -1.
         11   -1    0    0    0    0 -0.00000000000E+00 -0.00000000000E+00 -0.50000499739E+01  0.50000500000E+01  0.51100000000E-03 0.  1.
     100001    1    1    2    0    0  0.50318034941E-02  0.86534140697E-02  0.19995046350E-01  0.50000500000E+01  0.50000000000E+01 0. -1.
     100001    1    1    2    0    0 -0.50318034941E-02 -0.86534140697E-02 -0.19995046350E-01  0.50000500000E+01  0.50000000000E+01 0.  0.
</event>
<event>
 4    1  0.5008549E-001  0.5000050E+01  0.7818608E-02  0.2136455E+00
        -11   -1    0    0    0    0  0.00000000000E+00  0.00000000000E+00  0.50000499739E+01  0.50000500000E+01  0.51100000000E-03 0.  1.
         11   -1    0    0    0    0 -0.00000000000E+00 -0.00000000000E+00 -0.50000499739E+01  0.50000500000E+01  0.51100000000E-03 0. -1.
     100001    1    1    2    0    0  0.80104376368E-03 -0.13093777747E-01 -0.18108390685E-01  0.50000500000E+01  0.50000000000E+01 0. -1.
     100001    1    1    2    0    0 -0.80104376368E-03  0.13093777747E-01  0.18108390685E-01  0.50000500000E+01  0.50000000000E+01 0.  1.
</event>
<event>
 4    1  0.5008549E-001  0.5000050E+01  0.7818608E-02  0.2136455E+00
        -11   -1    0    0    0    0  0.00000000000E+00  0.00000000000E+00  0.50000499739E+01  0.50000500000E+01  0.51100000000E-03 0.  1.
         11   -1    0    0    0    0 -0.00000000000E+00 -0.00000000000E+00 -0.50000499739E+01  0.50000500000E+01  0.51100000000E-03 0. -1.
     100001    1    1    2    0    0 -0.11219309382E-01 -0.15424697762E-01 -0.11670830988E-01  0.50000500000E+01  0.50000000000E+01 0.  0.
     100001    1    1    2    0    0  0.11219309382E-01  0.15424697762E-01  0.11670830988E-01  0.50000500000E+01  0.50000000000E+01 0. -1.
</event>
<event>
 4    1  0.5008549E-001  0.5000050E+01  0.7818608E-02  0.2136455E+00
        -11   -1    0    0    0    0  0.00000000000E+00  0.00000000000E+00  0.50000499739E+01  0.50000500000E+01  0.51100000000E-03 0.  1.
         11   -1    0    0    0    0 -0.00000000000E+00 -0.00000000000E+00 -0.50000499739E+01  0.50000500000E+01  0.51100000000E-03 0. -1.
     100001    1    1    2    0    0 -0.12325584303E-01 -0.21018309728E-02 -0.18538197813E-01  0.50000500000E+01  0.50000000000E+01 0.  0.
     100001    1    1    2    0    0  0.12325584303E-01  0.21018309728E-02  0.18538197813E-01  0.50000500000E+01  0.50000000000E+01 0.  0.
</event>
<event>
 4    1  0.5008549E-001  0.5000050E+01  0.7818608E-02  0.2136455E+00
        -11   -1    0    0    0    0  0.00000000000E+00  0.00000000000E+00  0.50000499739E+01  0.50000500000E+01  0.51100000000E-03 0. -1.
         11   -1    0    0    0    0 -0.00000000000E+00 -0.00000000000E+00 -0.50000499739E+01  0.50000500000E+01  0.51100000000E-03 0.  1.
     100001    1    1    2    0    0  0.41712187796E-03  0.21731822468E-01 -0.52494191650E-02  0.50000500000E+01  0.50000000000E+01 0. -1.
     100001    1    1    2    0    0 -0.41712187796E-03 -0.21731822468E-01  0.52494191650E-02  0.50000500000E+01  0.50000000000E+01 0.  1.
</event>
<event>
 4    1  0.5008549E-001  0.5000050E+01  0.7818608E-02  0.2136455E+00
        -11   -1    0    0    0    0  0.00000000000E+00  0.00000000000E+00  0.50000499739E+01  0.50000500000E+01  0.51100000000E-03 0.  1.
         11   -1    0    0    0    0 -0.00000000000E+00 -0.00000000000E+00 -0.50000499739E+01  0.50000500000E+01  0.51100000000E-03 0. -1.
     100001    1    1    2    0    0 -0.20249776455E-01  0.56770042712E-02 -0.75974124572E-02  0.50000500000E+01  0.50000000000E+01 0. -1.
     100001    1    1    2    0    0  0.20249776455E-01 -0.56770042712E-02  0.75974124572E-02  0.50000500000E+01  0.50000000000E+01 0.  1.
</event>
<event>
 4    1  0.5008549E-001  0.5000050E+01  0.7818608E-02  0.2136455E+00
        -11   -1    0    0    0    0  0.00000000000E+00  0.00000000000E+00  0.50000499739E+01  0.50000500000E+01  0.51100000000E-03 0.  1.
         11   -1    0    0    0    0 -0.00000000000E+00 -0.00000000000E+00 -0.50000499739E+01  0.50000500000E+01  0.51100000000E-03 0. -1.
     100001    1    1    2    0    0  0.11845125719E-01  0.74357762654E-02 -0.17447198286E-01  0.50000500000E+01  0.50000000000E+01 0.  1.
     100001    1    1    2    0    0 -0.11845125719E-01 -0.74357762654E-02  0.17447198286E-01  0.50000500000E+01  0.50000000000E+01 0.  0.
</event>
<event>
 4    1  0.5008549E-001  0.5000050E+01  0.7818608E-02  0.2136455E+00
        -11   -1    0    0    0    0  0.00000000000E+00  0.00000000000E+00  0.50000499739E+01  0.50000500000E+01  0.51100000000E-03 0.  1.
         11   -1    0    0    0    0 -0.00000000000E+00 -0.00000000000E+00 -0.50000499739E+01  0.50000500000E+01  0.51100000000E-03 0. -1.
     100001    1    1    2    0    0  0.14078312693E-01 -0.12994800038E-01 -0.11529908226E-01  0.50000500000E+01  0.50000000000E+01 0.  0.
     100001    1    1    2    0    0 -0.14078312693E-01  0.12994800038E-01  0.11529908226E-01  0.50000500000E+01  0.50000000000E+01 0.  0.
</event>
<event>
 4    1  0.5008549E-001  0.5000050E+01  0.7818608E-02  0.2136455E+00
        -11   -1    0    0    0    0  0.00000000000E+00  0.00000000000E+00  0.50000499739E+01  0.50000500000E+01  0.51100000000E-03 0.  1.
         11   -1    0    0    0    0 -0.00000000000E+00 -0.00000000000E+00 -0.50000499739E+01  0.50000500000E+01  0.51100000000E-03 0. -1.
     100001    1    1    2    0    0  0.91291368618E-02  0.20274757430E-01 -0.23654959980E-02  0.50000500000E+01  0.50000000000E+01 0.  1.
     100001    1    1    2    0    0 -0.91291368618E-02 -0.20274757430E-01  0.23654959980E-02  0.50000500000E+01  0.50000000000E+01 0. -1.
</event>
<event>
 4    1  0.5008549E-001  0.5000050E+01  0.7818608E-02  0.2136455E+00
        -11   -1    0    0    0    0  0.00000000000E+00  0.00000000000E+00  0.50000499739E+01  0.50000500000E+01  0.51100000000E-03 0. -1.
         11   -1    0    0    0    0 -0.00000000000E+00 -0.00000000000E+00 -0.50000499739E+01  0.50000500000E+01  0.51100000000E-03 0.  1.
     100001    1    1    2    0    0 -0.21556783007E-02 -0.19657628075E-01  0.10437107336E-01  0.50000500000E+01  0.50000000000E+01 0.  0.
     100001    1    1    2    0    0  0.21556783007E-02  0.19657628075E-01 -0.10437107336E-01  0.50000500000E+01  0.50000000000E+01 0.  0.
</event>
<event>
 4    1  0.5008549E-001  0.5000050E+01  0.7818608E-02  0.2136455E+00
        -11   -1    0    0    0    0  0.00000000000E+00  0.00000000000E+00  0.50000499739E+01  0.50000500000E+01  0.51100000000E-03 0. -1.
         11   -1    0    0    0    0 -0.00000000000E+00 -0.00000000000E+00 -0.50000499739E+01  0.50000500000E+01  0.51100000000E-03 0.  1.
     100001    1    1    2    0    0 -0.15662563525E-01  0.84681784674E-02  0.13526882762E-01  0.50000500000E+01  0.50000000000E+01 0. -1.
     100001    1    1    2    0    0  0.15662563525E-01 -0.84681784674E-02 -0.13526882762E-01  0.50000500000E+01  0.50000000000E+01 0.  1.
</event>
<event>
 4    1  0.5008549E-001  0.5000050E+01  0.7818608E-02  0.2136455E+00
        -11   -1    0    0    0    0  0.00000000000E+00  0.00000000000E+00  0.50000499739E+01  0.50000500000E+01  0.51100000000E-03 0. -1.
         11   -1    0    0    0    0 -0.00000000000E+00 -0.00000000000E+00 -0.50000499739E+01  0.50000500000E+01  0.51100000000E-03 0.  1.
     100001    1    1    2    0    0  0.22350322914E-01  0.46785998032E-04  0.68071780091E-03  0.50000500000E+01  0.50000000000E+01 0. -1.
     100001    1    1    2    0    0 -0.22350322914E-01 -0.46785998032E-04 -0.68071780091E-03  0.50000500000E+01  0.50000000000E+01 0.  1.
</event>
<event>
 4    1  0.5008549E-001  0.5000050E+01  0.7818608E-02  0.2136455E+00
        -11   -1    0    0    0    0  0.00000000000E+00  0.00000000000E+00  0.50000499739E+01  0.50000500000E+01  0.51100000000E-03 0. -1.
         11   -1    0    0    0    0 -0.00000000000E+00 -0.00000000000E+00 -0.50000499739E+01  0.50000500000E+01  0.51100000000E-03 0.  1.
     100001    1    1    2    0    0 -0.12720350186E-02 -0.22324136965E-01  0.13166509293E-03  0.50000500000E+01  0.50000000000E+01 0.  1.
     100001    1    1    2    0    0  0.12720350186E-02  0.22324136965E-01 -0.13166509293E-03  0.50000500000E+01  0.50000000000E+01 0. -1.
</event>
<event>
 4    1  0.5008549E-001  0.5000050E+01  0.7818608E-02  0.2136455E+00
        -11   -1    0    0    0    0  0.00000000000E+00  0.00000000000E+00  0.50000499739E+01  0.50000500000E+01  0.51100000000E-03 0. -1.
         11   -1    0    0    0    0 -0.00000000000E+00 -0.00000000000E+00 -0.50000499739E+01  0.50000500000E+01  0.51100000000E-03 0.  1.
     100001    1    1    2    0    0  0.33497292612E-02 -0.21004462260E-01 -0.68988679543E-02  0.50000500000E+01  0.50000000000E+01 0.  1.
     100001    1    1    2    0    0 -0.33497292612E-02  0.21004462260E-01  0.68988679543E-02  0.50000500000E+01  0.50000000000E+01 0. -1.
</event>
<event>
 4    1  0.5008549E-001  0.5000050E+01  0.7818608E-02  0.2136455E+00
        -11   -1    0    0    0    0  0.00000000000E+00  0.00000000000E+00  0.50000499739E+01  0.50000500000E+01  0.51100000000E-03 0. -1.
         11   -1    0    0    0    0 -0.00000000000E+00 -0.00000000000E+00 -0.50000499739E+01  0.50000500000E+01  0.51100000000E-03 0.  1.
     100001    1    1    2    0    0  0.28253078942E-02  0.19503922300E-01  0.10564901808E-01  0.50000500000E+01  0.50000000000E+01 0.  0.
     100001    1    1    2    0    0 -0.28253078942E-02 -0.19503922300E-01 -0.10564901808E-01  0.50000500000E+01  0.50000000000E+01 0.  0.
</event>
<event>
 4    1  0.5008549E-001  0.5000050E+01  0.7818608E-02  0.2136455E+00
        -11   -1    0    0    0    0  0.00000000000E+00  0.00000000000E+00  0.50000499739E+01  0.50000500000E+01  0.51100000000E-03 0.  1.
         11   -1    0    0    0    0 -0.00000000000E+00 -0.00000000000E+00 -0.50000499739E+01  0.50000500000E+01  0.51100000000E-03 0. -1.
     100001    1    1    2    0    0  0.20169007982E-01 -0.28620901018E-02 -0.92207406034E-02  0.50000500000E+01  0.50000000000E+01 0. -1.
     100001    1    1    2    0    0 -0.20169007982E-01  0.28620901018E-02  0.92207406034E-02  0.50000500000E+01  0.50000000000E+01 0.  1.
</event>
<event>
 4    1  0.5008549E-001  0.5000050E+01  0.7818608E-02  0.2136455E+00
        -11   -1    0    0    0    0  0.00000000000E+00  0.00000000000E+00  0.50000499739E+01  0.50000500000E+01  0.51100000000E-03 0. -1.
         11   -1    0    0    0    0 -0.00000000000E+00 -0.00000000000E+00 -0.50000499739E+01  0.50000500000E+01  0.51100000000E-03 0.  1.
     100001    1    1    2    0    0  0.14286515638E-01 -0.37163256237E-02  0.16795442679E-01  0.50000500000E+01  0.50000000000E+01 0.  1.
     100001    1    1    2    0    0 -0.14286515638E-01  0.37163256237E-02 -0.16795442679E-01  0.50000500000E+01  0.50000000000E+01 0.  0.
</event>
<event>
 4    1  0.5008549E-001  0.5000050E+01  0.7818608E-02  0.2136455E+00
        -11   -1    0    0    0    0  0.00000000000E+00  0.00000000000E+00  0.50000499739E+01  0.50000500000E+01  0.51100000000E-03 0.  1.
         11   -1    0    0    0    0 -0.00000000000E+00 -0.00000000000E+00 -0.50000499739E+01  0.50000500000E+01  0.51100000000E-03 0. -1.
     100001    1    1    2    0    0 -0.20243572898E-01  0.89502467570E-02  0.31770016221E-02  0.50000500000E+01  0.50000000000E+01 0.  0.
     100001    1    1    2    0    0  0.20243572898E-01 -0.89502467570E-02 -0.31770016221E-02  0.50000500000E+01  0.50000000000E+01 0.  1.
</event>
<event>
 4    1  0.5008549E-001  0.5000050E+01  0.7818608E-02  0.2136455E+00
        -11   -1    0    0    0    0  0.00000000000E+00  0.00000000000E+00  0.50000499739E+01  0.50000500000E+01  0.51100000000E-03 0. -1.
         11   -1    0    0    0    0 -0.00000000000E+00 -0.00000000000E+00 -0.50000499739E+01  0.50000500000E+01  0.51100000000E-03 0.  1.
     100001    1    1    2    0    0  0.19408306462E-01 -0.10890562404E-01  0.21715871634E-02  0.50000500000E+01  0.50000000000E+01 0.  1.
     100001    1    1    2    0    0 -0.19408306462E-01  0.10890562404E-01 -0.21715871634E-02  0.50000500000E+01  0.50000000000E+01 0.  0.
</event>
<event>
 4    1  0.5008549E-001  0.5000050E+01  0.7818608E-02  0.2136455E+00
        -11   -1    0    0    0    0  0.00000000000E+00  0.00000000000E+00  0.50000499739E+01  0.50000500000E+01  0.51100000000E-03 0.  1.
         11   -1    0    0    0    0 -0.00000000000E+00 -0.00000000000E+00 -0.50000499739E+01  0.50000500000E+01  0.51100000000E-03 0. -1.
     100001    1    1    2    0    0 -0.20655870459E-01 -0.83099885327E-02 -0.20692042307E-02  0.50000500000E+01  0.50000000000E+01 0.  0.
     100001    1    1    2    0    0  0.20655870459E-01  0.83099885327E-02  0.20692042307E-02  0.50000500000E+01  0.50000000000E+01 0.  0.
</event>
<event>
 4    1  0.5008549E-001  0.5000050E+01  0.7818608E-02  0.2136455E+00
        -11   -1    0    0    0    0  0.00000000000E+00  0.00000000000E+00  0.50000499739E+01  0.50000500000E+01  0.51100000000E-03 0. -1.
         11   -1    0    0    0    0 -0.00000000000E+00 -0.00000000000E+00 -0.50000499739E+01  0.50000500000E+01  0.51100000000E-03 0.  1.
     100001    1    1    2    0    0 -0.14905160657E-01 -0.10993579095E-01  0.12529162162E-01  0.50000500000E+01  0.50000000000E+01 0. -1.
     100001    1    1    2    0    0  0.14905160657E-01  0.10993579095E-01 -0.12529162162E-01  0.50000500000E+01  0.50000000000E+01 0.  1.
</event>
<event>
 4    1  0.5008549E-001  0.5000050E+01  0.7818608E-02  0.2136455E+00
        -11   -1    0    0    0    0  0.00000000000E+00  0.00000000000E+00  0.50000499739E+01  0.50000500000E+01  0.51100000000E-03 0.  1.
         11   -1    0    0    0    0 -0.00000000000E+00 -0.00000000000E+00 -0.50000499739E+01  0.50000500000E+01  0.51100000000E-03 0. -1.
     100001    1    1    2    0    0  0.19452131323E-01 -0.99901674298E-02 -0.46705076498E-02  0.50000500000E+01  0.50000000000E+01 0. -1.
     100001    1    1    2    0    0 -0.19452131323E-01  0.99901674298E-02  0.46705076498E-02  0.50000500000E+01  0.50000000000E+01 0.  1.
</event>
<event>
 4    1  0.5008549E-001  0.5000050E+01  0.7818608E-02  0.2136455E+00
        -11   -1    0    0    0    0  0.00000000000E+00  0.00000000000E+00  0.50000499739E+01  0.50000500000E+01  0.51100000000E-03 0. -1.
         11   -1    0    0    0    0 -0.00000000000E+00 -0.00000000000E+00 -0.50000499739E+01  0.50000500000E+01  0.51100000000E-03 0.  1.
     100001    1    1    2    0    0  0.59899162024E-02  0.20502769852E-01 -0.66151214859E-02  0.50000500000E+01  0.50000000000E+01 0.  1.
     100001    1    1    2    0    0 -0.59899162024E-02 -0.20502769852E-01  0.66151214859E-02  0.50000500000E+01  0.50000000000E+01 0. -1.
</event>
<event>
 4    1  0.5008549E-001  0.5000050E+01  0.7818608E-02  0.2136455E+00
        -11   -1    0    0    0    0  0.00000000000E+00  0.00000000000E+00  0.50000499739E+01  0.50000500000E+01  0.51100000000E-03 0.  1.
         11   -1    0    0    0    0 -0.00000000000E+00 -0.00000000000E+00 -0.50000499739E+01  0.50000500000E+01  0.51100000000E-03 0. -1.
     100001    1    1    2    0    0  0.19193562836E-01 -0.77193249389E-02 -0.84865580850E-02  0.50000500000E+01  0.50000000000E+01 0. -1.
     100001    1    1    2    0    0 -0.19193562836E-01  0.77193249389E-02  0.84865580850E-02  0.50000500000E+01  0.50000000000E+01 0.  1.
</event>
<event>
 4    1  0.5008549E-001  0.5000050E+01  0.7818608E-02  0.2136455E+00
        -11   -1    0    0    0    0  0.00000000000E+00  0.00000000000E+00  0.50000499739E+01  0.50000500000E+01  0.51100000000E-03 0. -1.
         11   -1    0    0    0    0 -0.00000000000E+00 -0.00000000000E+00 -0.50000499739E+01  0.50000500000E+01  0.51100000000E-03 0.  1.
     100001    1    1    2    0    0 -0.93383158177E-02  0.19345852253E-01 -0.62077659664E-02  0.50000500000E+01  0.50000000000E+01 0.  1.
     100001    1    1    2    0    0  0.93383158177E-02 -0.19345852253E-01  0.62077659664E-02  0.50000500000E+01  0.50000000000E+01 0. -1.
</event>
<event>
 4    1  0.5008549E-001  0.5000050E+01  0.7818608E-02  0.2136455E+00
        -11   -1    0    0    0    0  0.00000000000E+00  0.00000000000E+00  0.50000499739E+01  0.50000500000E+01  0.51100000000E-03 0. -1.
         11   -1    0    0    0    0 -0.00000000000E+00 -0.00000000000E+00 -0.50000499739E+01  0.50000500000E+01  0.51100000000E-03 0.  1.
     100001    1    1    2    0    0  0.13284179405E-01 -0.16116310413E-01 -0.79873409975E-02  0.50000500000E+01  0.50000000000E+01 0.  1.
     100001    1    1    2    0    0 -0.13284179405E-01  0.16116310413E-01  0.79873409975E-02  0.50000500000E+01  0.50000000000E+01 0. -1.
</event>
<event>
 4    1  0.5008549E-001  0.5000050E+01  0.7818608E-02  0.2136455E+00
        -11   -1    0    0    0    0  0.00000000000E+00  0.00000000000E+00  0.50000499739E+01  0.50000500000E+01  0.51100000000E-03 0.  1.
         11   -1    0    0    0    0 -0.00000000000E+00 -0.00000000000E+00 -0.50000499739E+01  0.50000500000E+01  0.51100000000E-03 0. -1.
     100001    1    1    2    0    0  0.11842173717E-01 -0.92978329037E-02  0.16532263152E-01  0.50000500000E+01  0.50000000000E+01 0.  1.
     100001    1    1    2    0    0 -0.11842173717E-01  0.92978329037E-02 -0.16532263152E-01  0.50000500000E+01  0.50000000000E+01 0. -1.
</event>
<event>
 4    1  0.5008549E-001  0.5000050E+01  0.7818608E-02  0.2136455E+00
        -11   -1    0    0    0    0  0.00000000000E+00  0.00000000000E+00  0.50000499739E+01  0.50000500000E+01  0.51100000000E-03 0. -1.
         11   -1    0    0    0    0 -0.00000000000E+00 -0.00000000000E+00 -0.50000499739E+01  0.50000500000E+01  0.51100000000E-03 0.  1.
     100001    1    1    2    0    0 -0.14782893997E-01  0.79458215380E-03 -0.16758197525E-01  0.50000500000E+01  0.50000000000E+01 0.  0.
     100001    1    1    2    0    0  0.14782893997E-01 -0.79458215380E-03  0.16758197525E-01  0.50000500000E+01  0.50000000000E+01 0.  1.
</event>
<event>
 4    1  0.5008549E-001  0.5000050E+01  0.7818608E-02  0.2136455E+00
        -11   -1    0    0    0    0  0.00000000000E+00  0.00000000000E+00  0.50000499739E+01  0.50000500000E+01  0.51100000000E-03 0.  1.
         11   -1    0    0    0    0 -0.00000000000E+00 -0.00000000000E+00 -0.50000499739E+01  0.50000500000E+01  0.51100000000E-03 0. -1.
     100001    1    1    2    0    0  0.31615591157E-02 -0.11710930766E-01  0.18784598600E-01  0.50000500000E+01  0.50000000000E+01 0.  1.
     100001    1    1    2    0    0 -0.31615591157E-02  0.11710930766E-01 -0.18784598600E-01  0.50000500000E+01  0.50000000000E+01 0.  0.
</event>
<event>
 4    1  0.5008549E-001  0.5000050E+01  0.7818608E-02  0.2136455E+00
        -11   -1    0    0    0    0  0.00000000000E+00  0.00000000000E+00  0.50000499739E+01  0.50000500000E+01  0.51100000000E-03 0. -1.
         11   -1    0    0    0    0 -0.00000000000E+00 -0.00000000000E+00 -0.50000499739E+01  0.50000500000E+01  0.51100000000E-03 0.  1.
     100001    1    1    2    0    0 -0.66784265581E-02 -0.12879211110E-01  0.17015494113E-01  0.50000500000E+01  0.50000000000E+01 0.  0.
     100001    1    1    2    0    0  0.66784265581E-02  0.12879211110E-01 -0.17015494113E-01  0.50000500000E+01  0.50000000000E+01 0.  0.
</event>
<event>
 4    1  0.5008549E-001  0.5000050E+01  0.7818608E-02  0.2136455E+00
        -11   -1    0    0    0    0  0.00000000000E+00  0.00000000000E+00  0.50000499739E+01  0.50000500000E+01  0.51100000000E-03 0.  1.
         11   -1    0    0    0    0 -0.00000000000E+00 -0.00000000000E+00 -0.50000499739E+01  0.50000500000E+01  0.51100000000E-03 0. -1.
     100001    1    1    2    0    0  0.14443958553E-01  0.68800825356E-02 -0.15621748481E-01  0.50000500000E+01  0.50000000000E+01 0. -1.
     100001    1    1    2    0    0 -0.14443958553E-01 -0.68800825356E-02  0.15621748481E-01  0.50000500000E+01  0.50000000000E+01 0.  1.
</event>
<event>
 4    1  0.5008549E-001  0.5000050E+01  0.7818608E-02  0.2136455E+00
        -11   -1    0    0    0    0  0.00000000000E+00  0.00000000000E+00  0.50000499739E+01  0.50000500000E+01  0.51100000000E-03 0. -1.
         11   -1    0    0    0    0 -0.00000000000E+00 -0.00000000000E+00 -0.50000499739E+01  0.50000500000E+01  0.51100000000E-03 0.  1.
     100001    1    1    2    0    0 -0.10225165326E-01 -0.12782029326E-02  0.19844764834E-01  0.50000500000E+01  0.50000000000E+01 0. -1.
     100001    1    1    2    0    0  0.10225165326E-01  0.12782029326E-02 -0.19844764834E-01  0.50000500000E+01  0.50000000000E+01 0.  0.
</event>
<event>
 4    1  0.5008549E-001  0.5000050E+01  0.7818608E-02  0.2136455E+00
        -11   -1    0    0    0    0  0.00000000000E+00  0.00000000000E+00  0.50000499739E+01  0.50000500000E+01  0.51100000000E-03 0. -1.
         11   -1    0    0    0    0 -0.00000000000E+00 -0.00000000000E+00 -0.50000499739E+01  0.50000500000E+01  0.51100000000E-03 0.  1.
     100001    1    1    2    0    0 -0.10506513934E-01 -0.19460843768E-01 -0.33001855666E-02  0.50000500000E+01  0.50000000000E+01 0.  0.
     100001    1    1    2    0    0  0.10506513934E-01  0.19460843768E-01  0.33001855666E-02  0.50000500000E+01  0.50000000000E+01 0.  1.
</event>
<event>
 4    1  0.5008549E-001  0.5000050E+01  0.7818608E-02  0.2136455E+00
        -11   -1    0    0    0    0  0.00000000000E+00  0.00000000000E+00  0.50000499739E+01  0.50000500000E+01  0.51100000000E-03 0. -1.
         11   -1    0    0    0    0 -0.00000000000E+00 -0.00000000000E+00 -0.50000499739E+01  0.50000500000E+01  0.51100000000E-03 0.  1.
     100001    1    1    2    0    0 -0.21835369418E-01  0.18521394893E-02 -0.44484516048E-02  0.50000500000E+01  0.50000000000E+01 0. -1.
     100001    1    1    2    0    0  0.21835369418E-01 -0.18521394893E-02  0.44484516048E-02  0.50000500000E+01  0.50000000000E+01 0.  0.
</event>
<event>
 4    1  0.5008549E-001  0.5000050E+01  0.7818608E-02  0.2136455E+00
        -11   -1    0    0    0    0  0.00000000000E+00  0.00000000000E+00  0.50000499739E+01  0.50000500000E+01  0.51100000000E-03 0. -1.
         11   -1    0    0    0    0 -0.00000000000E+00 -0.00000000000E+00 -0.50000499739E+01  0.50000500000E+01  0.51100000000E-03 0.  1.
     100001    1    1    2    0    0 -0.14330910024E-01  0.99510968286E-02  0.13985821026E-01  0.50000500000E+01  0.50000000000E+01 0. -1.
     100001    1    1    2    0    0  0.14330910024E-01 -0.99510968286E-02 -0.13985821026E-01  0.50000500000E+01  0.50000000000E+01 0.  1.
</event>
<event>
 4    1  0.5008549E-001  0.5000050E+01  0.7818608E-02  0.2136455E+00
        -11   -1    0    0    0    0  0.00000000000E+00  0.00000000000E+00  0.50000499739E+01  0.50000500000E+01  0.51100000000E-03 0.  1.
         11   -1    0    0    0    0 -0.00000000000E+00 -0.00000000000E+00 -0.50000499739E+01  0.50000500000E+01  0.51100000000E-03 0. -1.
     100001    1    1    2    0    0  0.61664447756E-02 -0.11236190064E-01  0.18322813422E-01  0.50000500000E+01  0.50000000000E+01 0.  1.
     100001    1    1    2    0    0 -0.61664447756E-02  0.11236190064E-01 -0.18322813422E-01  0.50000500000E+01  0.50000000000E+01 0.  0.
</event>
<event>
 4    1  0.5008549E-001  0.5000050E+01  0.7818608E-02  0.2136455E+00
        -11   -1    0    0    0    0  0.00000000000E+00  0.00000000000E+00  0.50000499739E+01  0.50000500000E+01  0.51100000000E-03 0.  1.
         11   -1    0    0    0    0 -0.00000000000E+00 -0.00000000000E+00 -0.50000499739E+01  0.50000500000E+01  0.51100000000E-03 0. -1.
     100001    1    1    2    0    0  0.92051930214E-02  0.18321975106E-01 -0.89203222837E-02  0.50000500000E+01  0.50000000000E+01 0.  0.
     100001    1    1    2    0    0 -0.92051930214E-02 -0.18321975106E-01  0.89203222837E-02  0.50000500000E+01  0.50000000000E+01 0.  0.
</event>
<event>
 4    1  0.5008549E-001  0.5000050E+01  0.7818608E-02  0.2136455E+00
        -11   -1    0    0    0    0  0.00000000000E+00  0.00000000000E+00  0.50000499739E+01  0.50000500000E+01  0.51100000000E-03 0. -1.
         11   -1    0    0    0    0 -0.00000000000E+00 -0.00000000000E+00 -0.50000499739E+01  0.50000500000E+01  0.51100000000E-03 0.  1.
     100001    1    1    2    0    0  0.10759151463E-01  0.13351972122E-01  0.14351585287E-01  0.50000500000E+01  0.50000000000E+01 0. -1.
     100001    1    1    2    0    0 -0.10759151463E-01 -0.13351972122E-01 -0.14351585287E-01  0.50000500000E+01  0.50000000000E+01 0.  1.
</event>
<event>
 4    1  0.5008549E-001  0.5000050E+01  0.7818608E-02  0.2136455E+00
        -11   -1    0    0    0    0  0.00000000000E+00  0.00000000000E+00  0.50000499739E+01  0.50000500000E+01  0.51100000000E-03 0. -1.
         11   -1    0    0    0    0 -0.00000000000E+00 -0.00000000000E+00 -0.50000499739E+01  0.50000500000E+01  0.51100000000E-03 0.  1.
     100001    1    1    2    0    0  0.20402496776E-01 -0.60421393113E-02  0.68726398017E-02  0.50000500000E+01  0.50000000000E+01 0. -1.
     100001    1    1    2    0    0 -0.20402496776E-01  0.60421393113E-02 -0.68726398017E-02  0.50000500000E+01  0.50000000000E+01 0.  1.
</event>
<event>
 4    1  0.5008549E-001  0.5000050E+01  0.7818608E-02  0.2136455E+00
        -11   -1    0    0    0    0  0.00000000000E+00  0.00000000000E+00  0.50000499739E+01  0.50000500000E+01  0.51100000000E-03 0.  1.
         11   -1    0    0    0    0 -0.00000000000E+00 -0.00000000000E+00 -0.50000499739E+01  0.50000500000E+01  0.51100000000E-03 0. -1.
     100001    1    1    2    0    0 -0.11089234206E-01 -0.12585065233E-01 -0.14786734522E-01  0.50000500000E+01  0.50000000000E+01 0.  0.
     100001    1    1    2    0    0  0.11089234206E-01  0.12585065233E-01  0.14786734522E-01  0.50000500000E+01  0.50000000000E+01 0.  0.
</event>
<event>
 4    1  0.5008549E-001  0.5000050E+01  0.7818608E-02  0.2136455E+00
        -11   -1    0    0    0    0  0.00000000000E+00  0.00000000000E+00  0.50000499739E+01  0.50000500000E+01  0.51100000000E-03 0.  1.
         11   -1    0    0    0    0 -0.00000000000E+00 -0.00000000000E+00 -0.50000499739E+01  0.50000500000E+01  0.51100000000E-03 0. -1.
     100001    1    1    2    0    0  0.19786050431E-01 -0.51915545396E-03  0.10404094672E-01  0.50000500000E+01  0.50000000000E+01 0.  0.
     100001    1    1    2    0    0 -0.19786050431E-01  0.51915545396E-03 -0.10404094672E-01  0.50000500000E+01  0.50000000000E+01 0.  0.
</event>
<event>
 4    1  0.5008549E-001  0.5000050E+01  0.7818608E-02  0.2136455E+00
        -11   -1    0    0    0    0  0.00000000000E+00  0.00000000000E+00  0.50000499739E+01  0.50000500000E+01  0.51100000000E-03 0.  1.
         11   -1    0    0    0    0 -0.00000000000E+00 -0.00000000000E+00 -0.50000499739E+01  0.50000500000E+01  0.51100000000E-03 0. -1.
     100001    1    1    2    0    0 -0.14336752392E-01  0.24750071406E-02  0.16980411376E-01  0.50000500000E+01  0.50000000000E+01 0.  1.
     100001    1    1    2    0    0  0.14336752392E-01 -0.24750071406E-02 -0.16980411376E-01  0.50000500000E+01  0.50000000000E+01 0.  1.
</event>
<event>
 4    1  0.5008549E-001  0.5000050E+01  0.7818608E-02  0.2136455E+00
        -11   -1    0    0    0    0  0.00000000000E+00  0.00000000000E+00  0.50000499739E+01  0.50000500000E+01  0.51100000000E-03 0.  1.
         11   -1    0    0    0    0 -0.00000000000E+00 -0.00000000000E+00 -0.50000499739E+01  0.50000500000E+01  0.51100000000E-03 0. -1.
     100001    1    1    2    0    0 -0.85359865470E-02 -0.20495625272E-01  0.26587174336E-02  0.50000500000E+01  0.50000000000E+01 0.  1.
     100001    1    1    2    0    0  0.85359865470E-02  0.20495625272E-01 -0.26587174336E-02  0.50000500000E+01  0.50000000000E+01 0.  0.
</event>
<event>
 4    1  0.5008549E-001  0.5000050E+01  0.7818608E-02  0.2136455E+00
        -11   -1    0    0    0    0  0.00000000000E+00  0.00000000000E+00  0.50000499739E+01  0.50000500000E+01  0.51100000000E-03 0. -1.
         11   -1    0    0    0    0 -0.00000000000E+00 -0.00000000000E+00 -0.50000499739E+01  0.50000500000E+01  0.51100000000E-03 0.  1.
     100001    1    1    2    0    0  0.10093914322E-01 -0.49692553435E-02  0.19324127276E-01  0.50000500000E+01  0.50000000000E+01 0.  0.
     100001    1    1    2    0    0 -0.10093914322E-01  0.49692553435E-02 -0.19324127276E-01  0.50000500000E+01  0.50000000000E+01 0.  1.
</event>
<event>
 4    1  0.5008549E-001  0.5000050E+01  0.7818608E-02  0.2136455E+00
        -11   -1    0    0    0    0  0.00000000000E+00  0.00000000000E+00  0.50000499739E+01  0.50000500000E+01  0.51100000000E-03 0.  1.
         11   -1    0    0    0    0 -0.00000000000E+00 -0.00000000000E+00 -0.50000499739E+01  0.50000500000E+01  0.51100000000E-03 0. -1.
     100001    1    1    2    0    0  0.62724988923E-02 -0.19159856691E-01 -0.96725461609E-02  0.50000500000E+01  0.50000000000E+01 0.  1.
     100001    1    1    2    0    0 -0.62724988923E-02  0.19159856691E-01  0.96725461609E-02  0.50000500000E+01  0.50000000000E+01 0.  0.
</event>
<event>
 4    1  0.5008549E-001  0.5000050E+01  0.7818608E-02  0.2136455E+00
        -11   -1    0    0    0    0  0.00000000000E+00  0.00000000000E+00  0.50000499739E+01  0.50000500000E+01  0.51100000000E-03 0. -1.
         11   -1    0    0    0    0 -0.00000000000E+00 -0.00000000000E+00 -0.50000499739E+01  0.50000500000E+01  0.51100000000E-03 0.  1.
     100001    1    1    2    0    0  0.22096589770E-01 -0.26594298946E-02 -0.21611694011E-02  0.50000500000E+01  0.50000000000E+01 0.  1.
     100001    1    1    2    0    0 -0.22096589770E-01  0.26594298946E-02  0.21611694011E-02  0.50000500000E+01  0.50000000000E+01 0. -1.
</event>
<event>
 4    1  0.5008549E-001  0.5000050E+01  0.7818608E-02  0.2136455E+00
        -11   -1    0    0    0    0  0.00000000000E+00  0.00000000000E+00  0.50000499739E+01  0.50000500000E+01  0.51100000000E-03 0.  1.
         11   -1    0    0    0    0 -0.00000000000E+00 -0.00000000000E+00 -0.50000499739E+01  0.50000500000E+01  0.51100000000E-03 0. -1.
     100001    1    1    2    0    0  0.54533069073E-02  0.14937125546E-01  0.15720884968E-01  0.50000500000E+01  0.50000000000E+01 0.  1.
     100001    1    1    2    0    0 -0.54533069073E-02 -0.14937125546E-01 -0.15720884968E-01  0.50000500000E+01  0.50000000000E+01 0. -1.
</event>
<event>
 4    1  0.5008549E-001  0.5000050E+01  0.7818608E-02  0.2136455E+00
        -11   -1    0    0    0    0  0.00000000000E+00  0.00000000000E+00  0.50000499739E+01  0.50000500000E+01  0.51100000000E-03 0.  1.
         11   -1    0    0    0    0 -0.00000000000E+00 -0.00000000000E+00 -0.50000499739E+01  0.50000500000E+01  0.51100000000E-03 0. -1.
     100001    1    1    2    0    0  0.95412161378E-02 -0.19744086030E-01  0.43747870187E-02  0.50000500000E+01  0.50000000000E+01 0.  1.
     100001    1    1    2    0    0 -0.95412161378E-02  0.19744086030E-01 -0.43747870187E-02  0.50000500000E+01  0.50000000000E+01 0. -1.
</event>
<event>
 4    1  0.5008549E-001  0.5000050E+01  0.7818608E-02  0.2136455E+00
        -11   -1    0    0    0    0  0.00000000000E+00  0.00000000000E+00  0.50000499739E+01  0.50000500000E+01  0.51100000000E-03 0.  1.
         11   -1    0    0    0    0 -0.00000000000E+00 -0.00000000000E+00 -0.50000499739E+01  0.50000500000E+01  0.51100000000E-03 0. -1.
     100001    1    1    2    0    0 -0.16370068321E-01  0.14098465041E-01 -0.57668576062E-02  0.50000500000E+01  0.50000000000E+01 0. -1.
     100001    1    1    2    0    0  0.16370068321E-01 -0.14098465041E-01  0.57668576062E-02  0.50000500000E+01  0.50000000000E+01 0.  0.
</event>
<event>
 4    1  0.5008549E-001  0.5000050E+01  0.7818608E-02  0.2136455E+00
        -11   -1    0    0    0    0  0.00000000000E+00  0.00000000000E+00  0.50000499739E+01  0.50000500000E+01  0.51100000000E-03 0.  1.
         11   -1    0    0    0    0 -0.00000000000E+00 -0.00000000000E+00 -0.50000499739E+01  0.50000500000E+01  0.51100000000E-03 0. -1.
     100001    1    1    2    0    0 -0.18152838128E-01  0.18490539320E-02  0.12925090617E-01  0.50000500000E+01  0.50000000000E+01 0.  0.
     100001    1    1    2    0    0  0.18152838128E-01 -0.18490539320E-02 -0.12925090617E-01  0.50000500000E+01  0.50000000000E+01 0.  0.
</event>
<event>
 4    1  0.5008549E-001  0.5000050E+01  0.7818608E-02  0.2136455E+00
        -11   -1    0    0    0    0  0.00000000000E+00  0.00000000000E+00  0.50000499739E+01  0.50000500000E+01  0.51100000000E-03 0.  1.
         11   -1    0    0    0    0 -0.00000000000E+00 -0.00000000000E+00 -0.50000499739E+01  0.50000500000E+01  0.51100000000E-03 0. -1.
     100001    1    1    2    0    0  0.42583600447E-02 -0.21681108067E-01  0.34348832172E-02  0.50000500000E+01  0.50000000000E+01 0. -1.
     100001    1    1    2    0    0 -0.42583600447E-02  0.21681108067E-01 -0.34348832172E-02  0.50000500000E+01  0.50000000000E+01 0.  0.
</event>
<event>
 4    1  0.5008549E-001  0.5000050E+01  0.7818608E-02  0.2136455E+00
        -11   -1    0    0    0    0  0.00000000000E+00  0.00000000000E+00  0.50000499739E+01  0.50000500000E+01  0.51100000000E-03 0. -1.
         11   -1    0    0    0    0 -0.00000000000E+00 -0.00000000000E+00 -0.50000499739E+01  0.50000500000E+01  0.51100000000E-03 0.  1.
     100001    1    1    2    0    0 -0.18539463423E-01 -0.12459562073E-01 -0.10247482254E-02  0.50000500000E+01  0.50000000000E+01 0. -1.
     100001    1    1    2    0    0  0.18539463423E-01  0.12459562073E-01  0.10247482254E-02  0.50000500000E+01  0.50000000000E+01 0.  1.
</event>
<event>
 4    1  0.5008549E-001  0.5000050E+01  0.7818608E-02  0.2136455E+00
        -11   -1    0    0    0    0  0.00000000000E+00  0.00000000000E+00  0.50000499739E+01  0.50000500000E+01  0.51100000000E-03 0. -1.
         11   -1    0    0    0    0 -0.00000000000E+00 -0.00000000000E+00 -0.50000499739E+01  0.50000500000E+01  0.51100000000E-03 0.  1.
     100001    1    1    2    0    0 -0.38930372498E-02 -0.21339145533E-01 -0.54302512746E-02  0.50000500000E+01  0.50000000000E+01 0.  0.
     100001    1    1    2    0    0  0.38930372498E-02  0.21339145533E-01  0.54302512746E-02  0.50000500000E+01  0.50000000000E+01 0.  1.
</event>
<event>
 4    1  0.5008549E-001  0.5000050E+01  0.7818608E-02  0.2136455E+00
        -11   -1    0    0    0    0  0.00000000000E+00  0.00000000000E+00  0.50000499739E+01  0.50000500000E+01  0.51100000000E-03 0. -1.
         11   -1    0    0    0    0 -0.00000000000E+00 -0.00000000000E+00 -0.50000499739E+01  0.50000500000E+01  0.51100000000E-03 0.  1.
     100001    1    1    2    0    0 -0.18002798618E-01 -0.33029716685E-02  0.12844925850E-01  0.50000500000E+01  0.50000000000E+01 0. -1.
     100001    1    1    2    0    0  0.18002798618E-01  0.33029716685E-02 -0.12844925850E-01  0.50000500000E+01  0.50000000000E+01 0.  1.
</event>
<event>
 4    1  0.5008549E-001  0.5000050E+01  0.7818608E-02  0.2136455E+00
        -11   -1    0    0    0    0  0.00000000000E+00  0.00000000000E+00  0.50000499739E+01  0.50000500000E+01  0.51100000000E-03 0. -1.
         11   -1    0    0    0    0 -0.00000000000E+00 -0.00000000000E+00 -0.50000499739E+01  0.50000500000E+01  0.51100000000E-03 0.  1.
     100001    1    1    2    0    0 -0.42784463001E-03 -0.20629142889E-01  0.86173030952E-02  0.50000500000E+01  0.50000000000E+01 0.  1.
     100001    1    1    2    0    0  0.42784463001E-03  0.20629142889E-01 -0.86173030952E-02  0.50000500000E+01  0.50000000000E+01 0.  0.
</event>
<event>
 4    1  0.5008549E-001  0.5000050E+01  0.7818608E-02  0.2136455E+00
        -11   -1    0    0    0    0  0.00000000000E+00  0.00000000000E+00  0.50000499739E+01  0.50000500000E+01  0.51100000000E-03 0.  1.
         11   -1    0    0    0    0 -0.00000000000E+00 -0.00000000000E+00 -0.50000499739E+01  0.50000500000E+01  0.51100000000E-03 0. -1.
     100001    1    1    2    0    0 -0.88435119182E-02  0.18907336443E-01 -0.80191910800E-02  0.50000500000E+01  0.50000000000E+01 0.  1.
     100001    1    1    2    0    0  0.88435119182E-02 -0.18907336443E-01  0.80191910800E-02  0.50000500000E+01  0.50000000000E+01 0.  0.
</event>
<event>
 4    1  0.5008549E-001  0.5000050E+01  0.7818608E-02  0.2136455E+00
        -11   -1    0    0    0    0  0.00000000000E+00  0.00000000000E+00  0.50000499739E+01  0.50000500000E+01  0.51100000000E-03 0.  1.
         11   -1    0    0    0    0 -0.00000000000E+00 -0.00000000000E+00 -0.50000499739E+01  0.50000500000E+01  0.51100000000E-03 0. -1.
     100001    1    1    2    0    0  0.41758482215E-02 -0.76977187077E-02  0.20574496794E-01  0.50000500000E+01  0.50000000000E+01 0.  1.
     100001    1    1    2    0    0 -0.41758482215E-02  0.76977187077E-02 -0.20574496794E-01  0.50000500000E+01  0.50000000000E+01 0.  0.
</event>
<event>
 4    1  0.5008549E-001  0.5000050E+01  0.7818608E-02  0.2136455E+00
        -11   -1    0    0    0    0  0.00000000000E+00  0.00000000000E+00  0.50000499739E+01  0.50000500000E+01  0.51100000000E-03 0. -1.
         11   -1    0    0    0    0 -0.00000000000E+00 -0.00000000000E+00 -0.50000499739E+01  0.50000500000E+01  0.51100000000E-03 0.  1.
     100001    1    1    2    0    0 -0.15316879361E-01  0.25763257958E-02  0.16085964442E-01  0.50000500000E+01  0.50000000000E+01 0. -1.
     100001    1    1    2    0    0  0.15316879361E-01 -0.25763257958E-02 -0.16085964442E-01  0.50000500000E+01  0.50000000000E+01 0.  1.
</event>
<event>
 4    1  0.5008549E-001  0.5000050E+01  0.7818608E-02  0.2136455E+00
        -11   -1    0    0    0    0  0.00000000000E+00  0.00000000000E+00  0.50000499739E+01  0.50000500000E+01  0.51100000000E-03 0. -1.
         11   -1    0    0    0    0 -0.00000000000E+00 -0.00000000000E+00 -0.50000499739E+01  0.50000500000E+01  0.51100000000E-03 0.  1.
     100001    1    1    2    0    0 -0.11136760702E-02 -0.22321328893E-01  0.72145828350E-03  0.50000500000E+01  0.50000000000E+01 0.  1.
     100001    1    1    2    0    0  0.11136760702E-02  0.22321328893E-01 -0.72145828350E-03  0.50000500000E+01  0.50000000000E+01 0.  0.
</event>
<event>
 4    1  0.5008549E-001  0.5000050E+01  0.7818608E-02  0.2136455E+00
        -11   -1    0    0    0    0  0.00000000000E+00  0.00000000000E+00  0.50000499739E+01  0.50000500000E+01  0.51100000000E-03 0. -1.
         11   -1    0    0    0    0 -0.00000000000E+00 -0.00000000000E+00 -0.50000499739E+01  0.50000500000E+01  0.51100000000E-03 0.  1.
     100001    1    1    2    0    0  0.15214785407E-02  0.42130843177E-02  0.21907476431E-01  0.50000500000E+01  0.50000000000E+01 0.  0.
     100001    1    1    2    0    0 -0.15214785407E-02 -0.42130843177E-02 -0.21907476431E-01  0.50000500000E+01  0.50000000000E+01 0.  1.
</event>
<event>
 4    1  0.5008549E-001  0.5000050E+01  0.7818608E-02  0.2136455E+00
        -11   -1    0    0    0    0  0.00000000000E+00  0.00000000000E+00  0.50000499739E+01  0.50000500000E+01  0.51100000000E-03 0.  1.
         11   -1    0    0    0    0 -0.00000000000E+00 -0.00000000000E+00 -0.50000499739E+01  0.50000500000E+01  0.51100000000E-03 0. -1.
     100001    1    1    2    0    0 -0.84639999212E-02 -0.16604081512E-01  0.12355876435E-01  0.50000500000E+01  0.50000000000E+01 0.  0.
     100001    1    1    2    0    0  0.84639999212E-02  0.16604081512E-01 -0.12355876435E-01  0.50000500000E+01  0.50000000000E+01 0.  0.
</event>
<event>
 4    1  0.5008549E-001  0.5000050E+01  0.7818608E-02  0.2136455E+00
        -11   -1    0    0    0    0  0.00000000000E+00  0.00000000000E+00  0.50000499739E+01  0.50000500000E+01  0.51100000000E-03 0.  1.
         11   -1    0    0    0    0 -0.00000000000E+00 -0.00000000000E+00 -0.50000499739E+01  0.50000500000E+01  0.51100000000E-03 0. -1.
     100001    1    1    2    0    0  0.18218194676E-01 -0.10135320370E-02  0.12925658031E-01  0.50000500000E+01  0.50000000000E+01 0.  1.
     100001    1    1    2    0    0 -0.18218194676E-01  0.10135320370E-02 -0.12925658031E-01  0.50000500000E+01  0.50000000000E+01 0. -1.
</event>
<event>
 4    1  0.5008549E-001  0.5000050E+01  0.7818608E-02  0.2136455E+00
        -11   -1    0    0    0    0  0.00000000000E+00  0.00000000000E+00  0.50000499739E+01  0.50000500000E+01  0.51100000000E-03 0. -1.
         11   -1    0    0    0    0 -0.00000000000E+00 -0.00000000000E+00 -0.50000499739E+01  0.50000500000E+01  0.51100000000E-03 0.  1.
     100001    1    1    2    0    0  0.14324953096E-01  0.16743727156E-01 -0.38007656759E-02  0.50000500000E+01  0.50000000000E+01 0. -1.
     100001    1    1    2    0    0 -0.14324953096E-01 -0.16743727156E-01  0.38007656759E-02  0.50000500000E+01  0.50000000000E+01 0.  0.
</event>
<event>
 4    1  0.5008549E-001  0.5000050E+01  0.7818608E-02  0.2136455E+00
        -11   -1    0    0    0    0  0.00000000000E+00  0.00000000000E+00  0.50000499739E+01  0.50000500000E+01  0.51100000000E-03 0. -1.
         11   -1    0    0    0    0 -0.00000000000E+00 -0.00000000000E+00 -0.50000499739E+01  0.50000500000E+01  0.51100000000E-03 0.  1.
     100001    1    1    2    0    0  0.21860727107E-01 -0.26304955865E-02 -0.38976407379E-02  0.50000500000E+01  0.50000000000E+01 0.  1.
     100001    1    1    2    0    0 -0.21860727107E-01  0.26304955865E-02  0.38976407379E-02  0.50000500000E+01  0.50000000000E+01 0. -1.
</event>
<event>
 4    1  0.5008549E-001  0.5000050E+01  0.7818608E-02  0.2136455E+00
        -11   -1    0    0    0    0  0.00000000000E+00  0.00000000000E+00  0.50000499739E+01  0.50000500000E+01  0.51100000000E-03 0.  1.
         11   -1    0    0    0    0 -0.00000000000E+00 -0.00000000000E+00 -0.50000499739E+01  0.50000500000E+01  0.51100000000E-03 0. -1.
     100001    1    1    2    0    0  0.19866570945E-01  0.20908255628E-02 -0.10047403016E-01  0.50000500000E+01  0.50000000000E+01 0.  1.
     100001    1    1    2    0    0 -0.19866570945E-01 -0.20908255628E-02  0.10047403016E-01  0.50000500000E+01  0.50000000000E+01 0.  0.
</event>
<event>
 4    1  0.5008549E-001  0.5000050E+01  0.7818608E-02  0.2136455E+00
        -11   -1    0    0    0    0  0.00000000000E+00  0.00000000000E+00  0.50000499739E+01  0.50000500000E+01  0.51100000000E-03 0. -1.
         11   -1    0    0    0    0 -0.00000000000E+00 -0.00000000000E+00 -0.50000499739E+01  0.50000500000E+01  0.51100000000E-03 0.  1.
     100001    1    1    2    0    0  0.11842415652E-01 -0.17239135176E-02  0.18888827748E-01  0.50000500000E+01  0.50000000000E+01 0.  0.
     100001    1    1    2    0    0 -0.11842415652E-01  0.17239135176E-02 -0.18888827748E-01  0.50000500000E+01  0.50000000000E+01 0.  1.
</event>
<event>
 4    1  0.5008549E-001  0.5000050E+01  0.7818608E-02  0.2136455E+00
        -11   -1    0    0    0    0  0.00000000000E+00  0.00000000000E+00  0.50000499739E+01  0.50000500000E+01  0.51100000000E-03 0. -1.
         11   -1    0    0    0    0 -0.00000000000E+00 -0.00000000000E+00 -0.50000499739E+01  0.50000500000E+01  0.51100000000E-03 0.  1.
     100001    1    1    2    0    0 -0.95698733475E-03  0.16082993616E-01 -0.15505611616E-01  0.50000500000E+01  0.50000000000E+01 0.  1.
     100001    1    1    2    0    0  0.95698733475E-03 -0.16082993616E-01  0.15505611616E-01  0.50000500000E+01  0.50000000000E+01 0. -1.
</event>
<event>
 4    1  0.5008549E-001  0.5000050E+01  0.7818608E-02  0.2136455E+00
        -11   -1    0    0    0    0  0.00000000000E+00  0.00000000000E+00  0.50000499739E+01  0.50000500000E+01  0.51100000000E-03 0. -1.
         11   -1    0    0    0    0 -0.00000000000E+00 -0.00000000000E+00 -0.50000499739E+01  0.50000500000E+01  0.51100000000E-03 0.  1.
     100001    1    1    2    0    0  0.41632632685E-02  0.20448599117E-01  0.80327164214E-02  0.50000500000E+01  0.50000000000E+01 0.  0.
     100001    1    1    2    0    0 -0.41632632685E-02 -0.20448599117E-01 -0.80327164214E-02  0.50000500000E+01  0.50000000000E+01 0.  0.
</event>
<event>
 4    1  0.5008549E-001  0.5000050E+01  0.7818608E-02  0.2136455E+00
        -11   -1    0    0    0    0  0.00000000000E+00  0.00000000000E+00  0.50000499739E+01  0.50000500000E+01  0.51100000000E-03 0. -1.
         11   -1    0    0    0    0 -0.00000000000E+00 -0.00000000000E+00 -0.50000499739E+01  0.50000500000E+01  0.51100000000E-03 0.  1.
     100001    1    1    2    0    0 -0.18766254118E-01 -0.11225882336E-01  0.46700933776E-02  0.50000500000E+01  0.50000000000E+01 0. -1.
     100001    1    1    2    0    0  0.18766254118E-01  0.11225882336E-01 -0.46700933776E-02  0.50000500000E+01  0.50000000000E+01 0.  1.
</event>
<event>
 4    1  0.5008549E-001  0.5000050E+01  0.7818608E-02  0.2136455E+00
        -11   -1    0    0    0    0  0.00000000000E+00  0.00000000000E+00  0.50000499739E+01  0.50000500000E+01  0.51100000000E-03 0.  1.
         11   -1    0    0    0    0 -0.00000000000E+00 -0.00000000000E+00 -0.50000499739E+01  0.50000500000E+01  0.51100000000E-03 0. -1.
     100001    1    1    2    0    0 -0.19015151079E-01 -0.11244927408E-01  0.34609445301E-02  0.50000500000E+01  0.50000000000E+01 0. -1.
     100001    1    1    2    0    0  0.19015151079E-01  0.11244927408E-01 -0.34609445301E-02  0.50000500000E+01  0.50000000000E+01 0.  0.
</event>
<event>
 4    1  0.5008549E-001  0.5000050E+01  0.7818608E-02  0.2136455E+00
        -11   -1    0    0    0    0  0.00000000000E+00  0.00000000000E+00  0.50000499739E+01  0.50000500000E+01  0.51100000000E-03 0.  1.
         11   -1    0    0    0    0 -0.00000000000E+00 -0.00000000000E+00 -0.50000499739E+01  0.50000500000E+01  0.51100000000E-03 0. -1.
     100001    1    1    2    0    0 -0.35948511471E-02  0.11916692097E-01 -0.18576113552E-01  0.50000500000E+01  0.50000000000E+01 0. -1.
     100001    1    1    2    0    0  0.35948511471E-02 -0.11916692097E-01  0.18576113552E-01  0.50000500000E+01  0.50000000000E+01 0.  1.
</event>
<event>
 4    1  0.5008549E-001  0.5000050E+01  0.7818608E-02  0.2136455E+00
        -11   -1    0    0    0    0  0.00000000000E+00  0.00000000000E+00  0.50000499739E+01  0.50000500000E+01  0.51100000000E-03 0. -1.
         11   -1    0    0    0    0 -0.00000000000E+00 -0.00000000000E+00 -0.50000499739E+01  0.50000500000E+01  0.51100000000E-03 0.  1.
     100001    1    1    2    0    0  0.21964467464E-01 -0.41821743419E-02 -0.27218893375E-03  0.50000500000E+01  0.50000000000E+01 0. -1.
     100001    1    1    2    0    0 -0.21964467464E-01  0.41821743419E-02  0.27218893375E-03  0.50000500000E+01  0.50000000000E+01 0.  1.
</event>
<event>
 4    1  0.5008549E-001  0.5000050E+01  0.7818608E-02  0.2136455E+00
        -11   -1    0    0    0    0  0.00000000000E+00  0.00000000000E+00  0.50000499739E+01  0.50000500000E+01  0.51100000000E-03 0. -1.
         11   -1    0    0    0    0 -0.00000000000E+00 -0.00000000000E+00 -0.50000499739E+01  0.50000500000E+01  0.51100000000E-03 0.  1.
     100001    1    1    2    0    0  0.74741757414E-02 -0.18088754520E-01  0.10813702275E-01  0.50000500000E+01  0.50000000000E+01 0.  0.
     100001    1    1    2    0    0 -0.74741757414E-02  0.18088754520E-01 -0.10813702275E-01  0.50000500000E+01  0.50000000000E+01 0.  0.
</event>
<event>
 4    1  0.5008549E-001  0.5000050E+01  0.7818608E-02  0.2136455E+00
        -11   -1    0    0    0    0  0.00000000000E+00  0.00000000000E+00  0.50000499739E+01  0.50000500000E+01  0.51100000000E-03 0.  1.
         11   -1    0    0    0    0 -0.00000000000E+00 -0.00000000000E+00 -0.50000499739E+01  0.50000500000E+01  0.51100000000E-03 0. -1.
     100001    1    1    2    0    0  0.87193165824E-02  0.71683515035E-03 -0.20578196367E-01  0.50000500000E+01  0.50000000000E+01 0.  0.
     100001    1    1    2    0    0 -0.87193165824E-02 -0.71683515035E-03  0.20578196367E-01  0.50000500000E+01  0.50000000000E+01 0.  0.
</event>
<event>
 4    1  0.5008549E-001  0.5000050E+01  0.7818608E-02  0.2136455E+00
        -11   -1    0    0    0    0  0.00000000000E+00  0.00000000000E+00  0.50000499739E+01  0.50000500000E+01  0.51100000000E-03 0. -1.
         11   -1    0    0    0    0 -0.00000000000E+00 -0.00000000000E+00 -0.50000499739E+01  0.50000500000E+01  0.51100000000E-03 0.  1.
     100001    1    1    2    0    0 -0.22149059993E-01  0.30341197495E-02  0.46449841284E-03  0.50000500000E+01  0.50000000000E+01 0.  1.
     100001    1    1    2    0    0  0.22149059993E-01 -0.30341197495E-02 -0.46449841284E-03  0.50000500000E+01  0.50000000000E+01 0. -1.
</event>
<event>
 4    1  0.5008549E-001  0.5000050E+01  0.7818608E-02  0.2136455E+00
        -11   -1    0    0    0    0  0.00000000000E+00  0.00000000000E+00  0.50000499739E+01  0.50000500000E+01  0.51100000000E-03 0. -1.
         11   -1    0    0    0    0 -0.00000000000E+00 -0.00000000000E+00 -0.50000499739E+01  0.50000500000E+01  0.51100000000E-03 0.  1.
     100001    1    1    2    0    0  0.16838407016E-01 -0.14659732066E-01 -0.12501219599E-02  0.50000500000E+01  0.50000000000E+01 0.  1.
     100001    1    1    2    0    0 -0.16838407016E-01  0.14659732066E-01  0.12501219599E-02  0.50000500000E+01  0.50000000000E+01 0. -1.
</event>
<event>
 4    1  0.5008549E-001  0.5000050E+01  0.7818608E-02  0.2136455E+00
        -11   -1    0    0    0    0  0.00000000000E+00  0.00000000000E+00  0.50000499739E+01  0.50000500000E+01  0.51100000000E-03 0. -1.
         11   -1    0    0    0    0 -0.00000000000E+00 -0.00000000000E+00 -0.50000499739E+01  0.50000500000E+01  0.51100000000E-03 0.  1.
     100001    1    1    2    0    0  0.13619785279E-01  0.54538698189E-02 -0.16874811198E-01  0.50000500000E+01  0.50000000000E+01 0.  0.
     100001    1    1    2    0    0 -0.13619785279E-01 -0.54538698189E-02  0.16874811198E-01  0.50000500000E+01  0.50000000000E+01 0. -1.
</event>
<event>
 4    1  0.5008549E-001  0.5000050E+01  0.7818608E-02  0.2136455E+00
        -11   -1    0    0    0    0  0.00000000000E+00  0.00000000000E+00  0.50000499739E+01  0.50000500000E+01  0.51100000000E-03 0. -1.
         11   -1    0    0    0    0 -0.00000000000E+00 -0.00000000000E+00 -0.50000499739E+01  0.50000500000E+01  0.51100000000E-03 0.  1.
     100001    1    1    2    0    0 -0.16338552788E-01  0.12583170603E-01  0.86439580259E-02  0.50000500000E+01  0.50000000000E+01 0.  0.
     100001    1    1    2    0    0  0.16338552788E-01 -0.12583170603E-01 -0.86439580259E-02  0.50000500000E+01  0.50000000000E+01 0.  0.
</event>
<event>
 4    1  0.5008549E-001  0.5000050E+01  0.7818608E-02  0.2136455E+00
        -11   -1    0    0    0    0  0.00000000000E+00  0.00000000000E+00  0.50000499739E+01  0.50000500000E+01  0.51100000000E-03 0. -1.
         11   -1    0    0    0    0 -0.00000000000E+00 -0.00000000000E+00 -0.50000499739E+01  0.50000500000E+01  0.51100000000E-03 0.  1.
     100001    1    1    2    0    0 -0.75826366143E-02  0.12172632434E-01  0.17156140056E-01  0.50000500000E+01  0.50000000000E+01 0.  0.
     100001    1    1    2    0    0  0.75826366143E-02 -0.12172632434E-01 -0.17156140056E-01  0.50000500000E+01  0.50000000000E+01 0.  0.
</event>
<event>
 4    1  0.5008549E-001  0.5000050E+01  0.7818608E-02  0.2136455E+00
        -11   -1    0    0    0    0  0.00000000000E+00  0.00000000000E+00  0.50000499739E+01  0.50000500000E+01  0.51100000000E-03 0. -1.
         11   -1    0    0    0    0 -0.00000000000E+00 -0.00000000000E+00 -0.50000499739E+01  0.50000500000E+01  0.51100000000E-03 0.  1.
     100001    1    1    2    0    0  0.94053324887E-02 -0.58741444584E-02  0.19417431541E-01  0.50000500000E+01  0.50000000000E+01 0. -1.
     100001    1    1    2    0    0 -0.94053324887E-02  0.58741444584E-02 -0.19417431541E-01  0.50000500000E+01  0.50000000000E+01 0.  0.
</event>
<event>
 4    1  0.5008549E-001  0.5000050E+01  0.7818608E-02  0.2136455E+00
        -11   -1    0    0    0    0  0.00000000000E+00  0.00000000000E+00  0.50000499739E+01  0.50000500000E+01  0.51100000000E-03 0.  1.
         11   -1    0    0    0    0 -0.00000000000E+00 -0.00000000000E+00 -0.50000499739E+01  0.50000500000E+01  0.51100000000E-03 0. -1.
     100001    1    1    2    0    0 -0.30681440524E-02 -0.57498652398E-02 -0.21389905138E-01  0.50000500000E+01  0.50000000000E+01 0. -1.
     100001    1    1    2    0    0  0.30681440524E-02  0.57498652398E-02  0.21389905138E-01  0.50000500000E+01  0.50000000000E+01 0.  0.
</event>
<event>
 4    1  0.5008549E-001  0.5000050E+01  0.7818608E-02  0.2136455E+00
        -11   -1    0    0    0    0  0.00000000000E+00  0.00000000000E+00  0.50000499739E+01  0.50000500000E+01  0.51100000000E-03 0. -1.
         11   -1    0    0    0    0 -0.00000000000E+00 -0.00000000000E+00 -0.50000499739E+01  0.50000500000E+01  0.51100000000E-03 0.  1.
     100001    1    1    2    0    0  0.11275848667E-01 -0.18708076755E-01  0.47817989260E-02  0.50000500000E+01  0.50000000000E+01 0. -1.
     100001    1    1    2    0    0 -0.11275848667E-01  0.18708076755E-01 -0.47817989260E-02  0.50000500000E+01  0.50000000000E+01 0. -1.
</event>
<event>
 4    1  0.5008549E-001  0.5000050E+01  0.7818608E-02  0.2136455E+00
        -11   -1    0    0    0    0  0.00000000000E+00  0.00000000000E+00  0.50000499739E+01  0.50000500000E+01  0.51100000000E-03 0.  1.
         11   -1    0    0    0    0 -0.00000000000E+00 -0.00000000000E+00 -0.50000499739E+01  0.50000500000E+01  0.51100000000E-03 0. -1.
     100001    1    1    2    0    0 -0.19517020018E-01 -0.10803245861E-01  0.15421765443E-02  0.50000500000E+01  0.50000000000E+01 0.  1.
     100001    1    1    2    0    0  0.19517020018E-01  0.10803245861E-01 -0.15421765443E-02  0.50000500000E+01  0.50000000000E+01 0. -1.
</event>
<event>
 4    1  0.5008549E-001  0.5000050E+01  0.7818608E-02  0.2136455E+00
        -11   -1    0    0    0    0  0.00000000000E+00  0.00000000000E+00  0.50000499739E+01  0.50000500000E+01  0.51100000000E-03 0.  1.
         11   -1    0    0    0    0 -0.00000000000E+00 -0.00000000000E+00 -0.50000499739E+01  0.50000500000E+01  0.51100000000E-03 0. -1.
     100001    1    1    2    0    0 -0.18090451208E-01 -0.13132981218E-01  0.51271766693E-03  0.50000500000E+01  0.50000000000E+01 0.  1.
     100001    1    1    2    0    0  0.18090451208E-01  0.13132981218E-01 -0.51271766693E-03  0.50000500000E+01  0.50000000000E+01 0.  0.
</event>
<event>
 4    1  0.5008549E-001  0.5000050E+01  0.7818608E-02  0.2136455E+00
        -11   -1    0    0    0    0  0.00000000000E+00  0.00000000000E+00  0.50000499739E+01  0.50000500000E+01  0.51100000000E-03 0.  1.
         11   -1    0    0    0    0 -0.00000000000E+00 -0.00000000000E+00 -0.50000499739E+01  0.50000500000E+01  0.51100000000E-03 0. -1.
     100001    1    1    2    0    0  0.39278513163E-02  0.20145266818E-01  0.88737088560E-02  0.50000500000E+01  0.50000000000E+01 0.  1.
     100001    1    1    2    0    0 -0.39278513163E-02 -0.20145266818E-01 -0.88737088560E-02  0.50000500000E+01  0.50000000000E+01 0. -1.
</event>
<event>
 4    1  0.5008549E-001  0.5000050E+01  0.7818608E-02  0.2136455E+00
        -11   -1    0    0    0    0  0.00000000000E+00  0.00000000000E+00  0.50000499739E+01  0.50000500000E+01  0.51100000000E-03 0.  1.
         11   -1    0    0    0    0 -0.00000000000E+00 -0.00000000000E+00 -0.50000499739E+01  0.50000500000E+01  0.51100000000E-03 0. -1.
     100001    1    1    2    0    0  0.78691678171E-02  0.19196368576E-01  0.83413506916E-02  0.50000500000E+01  0.50000000000E+01 0.  1.
     100001    1    1    2    0    0 -0.78691678171E-02 -0.19196368576E-01 -0.83413506916E-02  0.50000500000E+01  0.50000000000E+01 0. -1.
</event>
<event>
 4    1  0.5008549E-001  0.5000050E+01  0.7818608E-02  0.2136455E+00
        -11   -1    0    0    0    0  0.00000000000E+00  0.00000000000E+00  0.50000499739E+01  0.50000500000E+01  0.51100000000E-03 0. -1.
         11   -1    0    0    0    0 -0.00000000000E+00 -0.00000000000E+00 -0.50000499739E+01  0.50000500000E+01  0.51100000000E-03 0.  1.
     100001    1    1    2    0    0  0.16749715523E-01  0.99092420642E-02  0.11011650721E-01  0.50000500000E+01  0.50000000000E+01 0. -1.
     100001    1    1    2    0    0 -0.16749715523E-01 -0.99092420642E-02 -0.11011650721E-01  0.50000500000E+01  0.50000000000E+01 0.  1.
</event>
<event>
 4    1  0.5008549E-001  0.5000050E+01  0.7818608E-02  0.2136455E+00
        -11   -1    0    0    0    0  0.00000000000E+00  0.00000000000E+00  0.50000499739E+01  0.50000500000E+01  0.51100000000E-03 0.  1.
         11   -1    0    0    0    0 -0.00000000000E+00 -0.00000000000E+00 -0.50000499739E+01  0.50000500000E+01  0.51100000000E-03 0. -1.
     100001    1    1    2    0    0 -0.80865774441E-02  0.17716353303E-03 -0.20846543558E-01  0.50000500000E+01  0.50000000000E+01 0. -1.
     100001    1    1    2    0    0  0.80865774441E-02 -0.17716353303E-03  0.20846543558E-01  0.50000500000E+01  0.50000000000E+01 0.  1.
</event>
<event>
 4    1  0.5008549E-001  0.5000050E+01  0.7818608E-02  0.2136455E+00
        -11   -1    0    0    0    0  0.00000000000E+00  0.00000000000E+00  0.50000499739E+01  0.50000500000E+01  0.51100000000E-03 0.  1.
         11   -1    0    0    0    0 -0.00000000000E+00 -0.00000000000E+00 -0.50000499739E+01  0.50000500000E+01  0.51100000000E-03 0. -1.
     100001    1    1    2    0    0 -0.17798666469E-01 -0.13531327563E-01  0.33637227577E-03  0.50000500000E+01  0.50000000000E+01 0. -1.
     100001    1    1    2    0    0  0.17798666469E-01  0.13531327563E-01 -0.33637227577E-03  0.50000500000E+01  0.50000000000E+01 0.  0.
</event>
<event>
 4    1  0.5008549E-001  0.5000050E+01  0.7818608E-02  0.2136455E+00
        -11   -1    0    0    0    0  0.00000000000E+00  0.00000000000E+00  0.50000499739E+01  0.50000500000E+01  0.51100000000E-03 0.  1.
         11   -1    0    0    0    0 -0.00000000000E+00 -0.00000000000E+00 -0.50000499739E+01  0.50000500000E+01  0.51100000000E-03 0. -1.
     100001    1    1    2    0    0 -0.49866198733E-02 -0.10960443635E-01 -0.18841570995E-01  0.50000500000E+01  0.50000000000E+01 0. -1.
     100001    1    1    2    0    0  0.49866198733E-02  0.10960443635E-01  0.18841570995E-01  0.50000500000E+01  0.50000000000E+01 0.  1.
</event>
<event>
 4    1  0.5008549E-001  0.5000050E+01  0.7818608E-02  0.2136455E+00
        -11   -1    0    0    0    0  0.00000000000E+00  0.00000000000E+00  0.50000499739E+01  0.50000500000E+01  0.51100000000E-03 0.  1.
         11   -1    0    0    0    0 -0.00000000000E+00 -0.00000000000E+00 -0.50000499739E+01  0.50000500000E+01  0.51100000000E-03 0. -1.
     100001    1    1    2    0    0  0.10935279279E-01  0.16933096377E-01 -0.96794841890E-02  0.50000500000E+01  0.50000000000E+01 0.  0.
     100001    1    1    2    0    0 -0.10935279279E-01 -0.16933096377E-01  0.96794841890E-02  0.50000500000E+01  0.50000000000E+01 0.  0.
</event>
<event>
 4    1  0.5008549E-001  0.5000050E+01  0.7818608E-02  0.2136455E+00
        -11   -1    0    0    0    0  0.00000000000E+00  0.00000000000E+00  0.50000499739E+01  0.50000500000E+01  0.51100000000E-03 0.  1.
         11   -1    0    0    0    0 -0.00000000000E+00 -0.00000000000E+00 -0.50000499739E+01  0.50000500000E+01  0.51100000000E-03 0. -1.
     100001    1    1    2    0    0  0.11101464611E-01 -0.10837883557E-01 -0.16102802970E-01  0.50000500000E+01  0.50000000000E+01 0.  0.
     100001    1    1    2    0    0 -0.11101464611E-01  0.10837883557E-01  0.16102802970E-01  0.50000500000E+01  0.50000000000E+01 0.  0.
</event>
<event>
 4    1  0.5008549E-001  0.5000050E+01  0.7818608E-02  0.2136455E+00
        -11   -1    0    0    0    0  0.00000000000E+00  0.00000000000E+00  0.50000499739E+01  0.50000500000E+01  0.51100000000E-03 0. -1.
         11   -1    0    0    0    0 -0.00000000000E+00 -0.00000000000E+00 -0.50000499739E+01  0.50000500000E+01  0.51100000000E-03 0.  1.
     100001    1    1    2    0    0 -0.10454119606E-01 -0.19613875372E-01 -0.24514844782E-02  0.50000500000E+01  0.50000000000E+01 0.  1.
     100001    1    1    2    0    0  0.10454119606E-01  0.19613875372E-01  0.24514844782E-02  0.50000500000E+01  0.50000000000E+01 0. -1.
</event>
<event>
 4    1  0.5008549E-001  0.5000050E+01  0.7818608E-02  0.2136455E+00
        -11   -1    0    0    0    0  0.00000000000E+00  0.00000000000E+00  0.50000499739E+01  0.50000500000E+01  0.51100000000E-03 0.  1.
         11   -1    0    0    0    0 -0.00000000000E+00 -0.00000000000E+00 -0.50000499739E+01  0.50000500000E+01  0.51100000000E-03 0. -1.
     100001    1    1    2    0    0 -0.13297286373E-01  0.10501794151E-01  0.14590990190E-01  0.50000500000E+01  0.50000000000E+01 0.  1.
     100001    1    1    2    0    0  0.13297286373E-01 -0.10501794151E-01 -0.14590990190E-01  0.50000500000E+01  0.50000000000E+01 0. -1.
</event>
<event>
 4    1  0.5008549E-001  0.5000050E+01  0.7818608E-02  0.2136455E+00
        -11   -1    0    0    0    0  0.00000000000E+00  0.00000000000E+00  0.50000499739E+01  0.50000500000E+01  0.51100000000E-03 0.  1.
         11   -1    0    0    0    0 -0.00000000000E+00 -0.00000000000E+00 -0.50000499739E+01  0.50000500000E+01  0.51100000000E-03 0. -1.
     100001    1    1    2    0    0  0.17386385680E-01  0.14037949053E-01 -0.80751431064E-03  0.50000500000E+01  0.50000000000E+01 0.  1.
     100001    1    1    2    0    0 -0.17386385680E-01 -0.14037949053E-01  0.80751431064E-03  0.50000500000E+01  0.50000000000E+01 0. -1.
</event>
<event>
 4    1  0.5008549E-001  0.5000050E+01  0.7818608E-02  0.2136455E+00
        -11   -1    0    0    0    0  0.00000000000E+00  0.00000000000E+00  0.50000499739E+01  0.50000500000E+01  0.51100000000E-03 0.  1.
         11   -1    0    0    0    0 -0.00000000000E+00 -0.00000000000E+00 -0.50000499739E+01  0.50000500000E+01  0.51100000000E-03 0. -1.
     100001    1    1    2    0    0  0.14988025213E-01 -0.71651959248E-02  0.14967350052E-01  0.50000500000E+01  0.50000000000E+01 0.  1.
     100001    1    1    2    0    0 -0.14988025213E-01  0.71651959248E-02 -0.14967350052E-01  0.50000500000E+01  0.50000000000E+01 0. -1.
</event>
<event>
 4    1  0.5008549E-001  0.5000050E+01  0.7818608E-02  0.2136455E+00
        -11   -1    0    0    0    0  0.00000000000E+00  0.00000000000E+00  0.50000499739E+01  0.50000500000E+01  0.51100000000E-03 0.  1.
         11   -1    0    0    0    0 -0.00000000000E+00 -0.00000000000E+00 -0.50000499739E+01  0.50000500000E+01  0.51100000000E-03 0. -1.
     100001    1    1    2    0    0 -0.12946477797E-01 -0.16210652431E-01  0.83430186624E-02  0.50000500000E+01  0.50000000000E+01 0. -1.
     100001    1    1    2    0    0  0.12946477797E-01  0.16210652431E-01 -0.83430186624E-02  0.50000500000E+01  0.50000000000E+01 0. -1.
</event>
<event>
 4    1  0.5008549E-001  0.5000050E+01  0.7818608E-02  0.2136455E+00
        -11   -1    0    0    0    0  0.00000000000E+00  0.00000000000E+00  0.50000499739E+01  0.50000500000E+01  0.51100000000E-03 0. -1.
         11   -1    0    0    0    0 -0.00000000000E+00 -0.00000000000E+00 -0.50000499739E+01  0.50000500000E+01  0.51100000000E-03 0.  1.
     100001    1    1    2    0    0 -0.14581739275E-01 -0.13570643897E-01 -0.10159380097E-01  0.50000500000E+01  0.50000000000E+01 0. -1.
     100001    1    1    2    0    0  0.14581739275E-01  0.13570643897E-01  0.10159380097E-01  0.50000500000E+01  0.50000000000E+01 0.  1.
</event>
<event>
 4    1  0.5008549E-001  0.5000050E+01  0.7818608E-02  0.2136455E+00
        -11   -1    0    0    0    0  0.00000000000E+00  0.00000000000E+00  0.50000499739E+01  0.50000500000E+01  0.51100000000E-03 0. -1.
         11   -1    0    0    0    0 -0.00000000000E+00 -0.00000000000E+00 -0.50000499739E+01  0.50000500000E+01  0.51100000000E-03 0.  1.
     100001    1    1    2    0    0  0.28164812979E-02 -0.21991741060E-01  0.29040072739E-02  0.50000500000E+01  0.50000000000E+01 0.  1.
     100001    1    1    2    0    0 -0.28164812979E-02  0.21991741060E-01 -0.29040072739E-02  0.50000500000E+01  0.50000000000E+01 0. -1.
</event>
<event>
 4    1  0.5008549E-001  0.5000050E+01  0.7818608E-02  0.2136455E+00
        -11   -1    0    0    0    0  0.00000000000E+00  0.00000000000E+00  0.50000499739E+01  0.50000500000E+01  0.51100000000E-03 0. -1.
         11   -1    0    0    0    0 -0.00000000000E+00 -0.00000000000E+00 -0.50000499739E+01  0.50000500000E+01  0.51100000000E-03 0.  1.
     100001    1    1    2    0    0  0.97150019566E-02  0.16690533259E-01 -0.11271527693E-01  0.50000500000E+01  0.50000000000E+01 0.  1.
     100001    1    1    2    0    0 -0.97150019566E-02 -0.16690533259E-01  0.11271527693E-01  0.50000500000E+01  0.50000000000E+01 0. -1.
</event>
<event>
 4    1  0.5008549E-001  0.5000050E+01  0.7818608E-02  0.2136455E+00
        -11   -1    0    0    0    0  0.00000000000E+00  0.00000000000E+00  0.50000499739E+01  0.50000500000E+01  0.51100000000E-03 0.  1.
         11   -1    0    0    0    0 -0.00000000000E+00 -0.00000000000E+00 -0.50000499739E+01  0.50000500000E+01  0.51100000000E-03 0. -1.
     100001    1    1    2    0    0 -0.67251281790E-03  0.85331414166E-02 -0.20657582726E-01  0.50000500000E+01  0.50000000000E+01 0.  0.
     100001    1    1    2    0    0  0.67251281790E-03 -0.85331414166E-02  0.20657582726E-01  0.50000500000E+01  0.50000000000E+01 0.  1.
</event>
<event>
 4    1  0.5008549E-001  0.5000050E+01  0.7818608E-02  0.2136455E+00
        -11   -1    0    0    0    0  0.00000000000E+00  0.00000000000E+00  0.50000499739E+01  0.50000500000E+01  0.51100000000E-03 0. -1.
         11   -1    0    0    0    0 -0.00000000000E+00 -0.00000000000E+00 -0.50000499739E+01  0.50000500000E+01  0.51100000000E-03 0.  1.
     100001    1    1    2    0    0 -0.19998977828E-02 -0.15782898487E-01  0.15713148131E-01  0.50000500000E+01  0.50000000000E+01 0.  0.
     100001    1    1    2    0    0  0.19998977828E-02  0.15782898487E-01 -0.15713148131E-01  0.50000500000E+01  0.50000000000E+01 0.  0.
</event>
<event>
 4    1  0.5008549E-001  0.5000050E+01  0.7818608E-02  0.2136455E+00
        -11   -1    0    0    0    0  0.00000000000E+00  0.00000000000E+00  0.50000499739E+01  0.50000500000E+01  0.51100000000E-03 0.  1.
         11   -1    0    0    0    0 -0.00000000000E+00 -0.00000000000E+00 -0.50000499739E+01  0.50000500000E+01  0.51100000000E-03 0. -1.
     100001    1    1    2    0    0  0.14038973394E-02 -0.16786976819E-01  0.14704726503E-01  0.50000500000E+01  0.50000000000E+01 0. -1.
     100001    1    1    2    0    0 -0.14038973394E-02  0.16786976819E-01 -0.14704726503E-01  0.50000500000E+01  0.50000000000E+01 0. -1.
</event>
<event>
 4    1  0.5008549E-001  0.5000050E+01  0.7818608E-02  0.2136455E+00
        -11   -1    0    0    0    0  0.00000000000E+00  0.00000000000E+00  0.50000499739E+01  0.50000500000E+01  0.51100000000E-03 0.  1.
         11   -1    0    0    0    0 -0.00000000000E+00 -0.00000000000E+00 -0.50000499739E+01  0.50000500000E+01  0.51100000000E-03 0. -1.
     100001    1    1    2    0    0  0.19224555516E-01  0.27922296241E-02  0.11073500753E-01  0.50000500000E+01  0.50000000000E+01 0.  1.
     100001    1    1    2    0    0 -0.19224555516E-01 -0.27922296241E-02 -0.11073500753E-01  0.50000500000E+01  0.50000000000E+01 0. -1.
</event>
<event>
 4    1  0.5008549E-001  0.5000050E+01  0.7818608E-02  0.2136455E+00
        -11   -1    0    0    0    0  0.00000000000E+00  0.00000000000E+00  0.50000499739E+01  0.50000500000E+01  0.51100000000E-03 0.  1.
         11   -1    0    0    0    0 -0.00000000000E+00 -0.00000000000E+00 -0.50000499739E+01  0.50000500000E+01  0.51100000000E-03 0. -1.
     100001    1    1    2    0    0 -0.19336760471E-01  0.11106185899E-01  0.16567526313E-02  0.50000500000E+01  0.50000000000E+01 0. -1.
     100001    1    1    2    0    0  0.19336760471E-01 -0.11106185899E-01 -0.16567526313E-02  0.50000500000E+01  0.50000000000E+01 0.  1.
</event>
<event>
 4    1  0.5008549E-001  0.5000050E+01  0.7818608E-02  0.2136455E+00
        -11   -1    0    0    0    0  0.00000000000E+00  0.00000000000E+00  0.50000499739E+01  0.50000500000E+01  0.51100000000E-03 0.  1.
         11   -1    0    0    0    0 -0.00000000000E+00 -0.00000000000E+00 -0.50000499739E+01  0.50000500000E+01  0.51100000000E-03 0. -1.
     100001    1    1    2    0    0 -0.79551004983E-02  0.16961205291E-01 -0.12208046164E-01  0.50000500000E+01  0.50000000000E+01 0. -1.
     100001    1    1    2    0    0  0.79551004983E-02 -0.16961205291E-01  0.12208046164E-01  0.50000500000E+01  0.50000000000E+01 0. -1.
</event>
<event>
 4    1  0.5008549E-001  0.5000050E+01  0.7818608E-02  0.2136455E+00
        -11   -1    0    0    0    0  0.00000000000E+00  0.00000000000E+00  0.50000499739E+01  0.50000500000E+01  0.51100000000E-03 0. -1.
         11   -1    0    0    0    0 -0.00000000000E+00 -0.00000000000E+00 -0.50000499739E+01  0.50000500000E+01  0.51100000000E-03 0.  1.
     100001    1    1    2    0    0  0.16965258246E-02  0.21189751763E-01 -0.69367658429E-02  0.50000500000E+01  0.50000000000E+01 0.  1.
     100001    1    1    2    0    0 -0.16965258246E-02 -0.21189751763E-01  0.69367658429E-02  0.50000500000E+01  0.50000000000E+01 0. -1.
</event>
<event>
 4    1  0.5008549E-001  0.5000050E+01  0.7818608E-02  0.2136455E+00
        -11   -1    0    0    0    0  0.00000000000E+00  0.00000000000E+00  0.50000499739E+01  0.50000500000E+01  0.51100000000E-03 0. -1.
         11   -1    0    0    0    0 -0.00000000000E+00 -0.00000000000E+00 -0.50000499739E+01  0.50000500000E+01  0.51100000000E-03 0.  1.
     100001    1    1    2    0    0 -0.61234097467E-02  0.15548744779E-01 -0.14857418648E-01  0.50000500000E+01  0.50000000000E+01 0. -1.
     100001    1    1    2    0    0  0.61234097467E-02 -0.15548744779E-01  0.14857418648E-01  0.50000500000E+01  0.50000000000E+01 0. -1.
</event>
<event>
 4    1  0.5008549E-001  0.5000050E+01  0.7818608E-02  0.2136455E+00
        -11   -1    0    0    0    0  0.00000000000E+00  0.00000000000E+00  0.50000499739E+01  0.50000500000E+01  0.51100000000E-03 0.  1.
         11   -1    0    0    0    0 -0.00000000000E+00 -0.00000000000E+00 -0.50000499739E+01  0.50000500000E+01  0.51100000000E-03 0. -1.
     100001    1    1    2    0    0 -0.22618785221E-02 -0.82445806174E-02 -0.20661880263E-01  0.50000500000E+01  0.50000000000E+01 0. -1.
     100001    1    1    2    0    0  0.22618785221E-02  0.82445806174E-02  0.20661880263E-01  0.50000500000E+01  0.50000000000E+01 0.  1.
</event>
<event>
 4    1  0.5008549E-001  0.5000050E+01  0.7818608E-02  0.2136455E+00
        -11   -1    0    0    0    0  0.00000000000E+00  0.00000000000E+00  0.50000499739E+01  0.50000500000E+01  0.51100000000E-03 0.  1.
         11   -1    0    0    0    0 -0.00000000000E+00 -0.00000000000E+00 -0.50000499739E+01  0.50000500000E+01  0.51100000000E-03 0. -1.
     100001    1    1    2    0    0 -0.17937223467E-01  0.43320486193E-02 -0.12629009029E-01  0.50000500000E+01  0.50000000000E+01 0. -1.
     100001    1    1    2    0    0  0.17937223467E-01 -0.43320486193E-02  0.12629009029E-01  0.50000500000E+01  0.50000000000E+01 0.  1.
</event>
<event>
 4    1  0.5008549E-001  0.5000050E+01  0.7818608E-02  0.2136455E+00
        -11   -1    0    0    0    0  0.00000000000E+00  0.00000000000E+00  0.50000499739E+01  0.50000500000E+01  0.51100000000E-03 0.  1.
         11   -1    0    0    0    0 -0.00000000000E+00 -0.00000000000E+00 -0.50000499739E+01  0.50000500000E+01  0.51100000000E-03 0. -1.
     100001    1    1    2    0    0  0.10512705811E-01  0.18547555374E-01 -0.67434194703E-02  0.50000500000E+01  0.50000000000E+01 0. -1.
     100001    1    1    2    0    0 -0.10512705811E-01 -0.18547555374E-01  0.67434194703E-02  0.50000500000E+01  0.50000000000E+01 0.  1.
</event>
<event>
 4    1  0.5008549E-001  0.5000050E+01  0.7818608E-02  0.2136455E+00
        -11   -1    0    0    0    0  0.00000000000E+00  0.00000000000E+00  0.50000499739E+01  0.50000500000E+01  0.51100000000E-03 0. -1.
         11   -1    0    0    0    0 -0.00000000000E+00 -0.00000000000E+00 -0.50000499739E+01  0.50000500000E+01  0.51100000000E-03 0.  1.
     100001    1    1    2    0    0  0.45927494550E-02  0.19027432487E-01 -0.10810456298E-01  0.50000500000E+01  0.50000000000E+01 0.  0.
     100001    1    1    2    0    0 -0.45927494550E-02 -0.19027432487E-01  0.10810456298E-01  0.50000500000E+01  0.50000000000E+01 0.  0.
</event>
<event>
 4    1  0.5008549E-001  0.5000050E+01  0.7818608E-02  0.2136455E+00
        -11   -1    0    0    0    0  0.00000000000E+00  0.00000000000E+00  0.50000499739E+01  0.50000500000E+01  0.51100000000E-03 0. -1.
         11   -1    0    0    0    0 -0.00000000000E+00 -0.00000000000E+00 -0.50000499739E+01  0.50000500000E+01  0.51100000000E-03 0.  1.
     100001    1    1    2    0    0  0.17937312050E-01  0.12569517729E-01  0.45013953930E-02  0.50000500000E+01  0.50000000000E+01 0. -1.
     100001    1    1    2    0    0 -0.17937312050E-01 -0.12569517729E-01 -0.45013953930E-02  0.50000500000E+01  0.50000000000E+01 0.  1.
</event>
<event>
 4    1  0.5008549E-001  0.5000050E+01  0.7818608E-02  0.2136455E+00
        -11   -1    0    0    0    0  0.00000000000E+00  0.00000000000E+00  0.50000499739E+01  0.50000500000E+01  0.51100000000E-03 0.  1.
         11   -1    0    0    0    0 -0.00000000000E+00 -0.00000000000E+00 -0.50000499739E+01  0.50000500000E+01  0.51100000000E-03 0. -1.
     100001    1    1    2    0    0 -0.12886220694E-02  0.21517198083E-01  0.59457665465E-02  0.50000500000E+01  0.50000000000E+01 0.  0.
     100001    1    1    2    0    0  0.12886220694E-02 -0.21517198083E-01 -0.59457665465E-02  0.50000500000E+01  0.50000000000E+01 0.  0.
</event>
<event>
 4    1  0.5008549E-001  0.5000050E+01  0.7818608E-02  0.2136455E+00
        -11   -1    0    0    0    0  0.00000000000E+00  0.00000000000E+00  0.50000499739E+01  0.50000500000E+01  0.51100000000E-03 0.  1.
         11   -1    0    0    0    0 -0.00000000000E+00 -0.00000000000E+00 -0.50000499739E+01  0.50000500000E+01  0.51100000000E-03 0. -1.
     100001    1    1    2    0    0 -0.14310448780E-01 -0.11241813764E-01 -0.12993659185E-01  0.50000500000E+01  0.50000000000E+01 0.  1.
     100001    1    1    2    0    0  0.14310448780E-01  0.11241813764E-01  0.12993659185E-01  0.50000500000E+01  0.50000000000E+01 0.  0.
</event>
<event>
 4    1  0.5008549E-001  0.5000050E+01  0.7818608E-02  0.2136455E+00
        -11   -1    0    0    0    0  0.00000000000E+00  0.00000000000E+00  0.50000499739E+01  0.50000500000E+01  0.51100000000E-03 0. -1.
         11   -1    0    0    0    0 -0.00000000000E+00 -0.00000000000E+00 -0.50000499739E+01  0.50000500000E+01  0.51100000000E-03 0.  1.
     100001    1    1    2    0    0 -0.21899460174E-01 -0.81581214919E-03  0.44441641078E-02  0.50000500000E+01  0.50000000000E+01 0. -1.
     100001    1    1    2    0    0  0.21899460174E-01  0.81581214919E-03 -0.44441641078E-02  0.50000500000E+01  0.50000000000E+01 0.  1.
</event>
<event>
 4    1  0.5008549E-001  0.5000050E+01  0.7818608E-02  0.2136455E+00
        -11   -1    0    0    0    0  0.00000000000E+00  0.00000000000E+00  0.50000499739E+01  0.50000500000E+01  0.51100000000E-03 0. -1.
         11   -1    0    0    0    0 -0.00000000000E+00 -0.00000000000E+00 -0.50000499739E+01  0.50000500000E+01  0.51100000000E-03 0.  1.
     100001    1    1    2    0    0  0.22033206457E-01 -0.28217066874E-02  0.25648166799E-02  0.50000500000E+01  0.50000000000E+01 0.  1.
     100001    1    1    2    0    0 -0.22033206457E-01  0.28217066874E-02 -0.25648166799E-02  0.50000500000E+01  0.50000000000E+01 0. -1.
</event>
<event>
 4    1  0.5008549E-001  0.5000050E+01  0.7818608E-02  0.2136455E+00
        -11   -1    0    0    0    0  0.00000000000E+00  0.00000000000E+00  0.50000499739E+01  0.50000500000E+01  0.51100000000E-03 0. -1.
         11   -1    0    0    0    0 -0.00000000000E+00 -0.00000000000E+00 -0.50000499739E+01  0.50000500000E+01  0.51100000000E-03 0.  1.
     100001    1    1    2    0    0 -0.22266365700E-01 -0.61705951894E-04  0.20512559315E-02  0.50000500000E+01  0.50000000000E+01 0. -1.
     100001    1    1    2    0    0  0.22266365700E-01  0.61705951894E-04 -0.20512559315E-02  0.50000500000E+01  0.50000000000E+01 0.  1.
</event>
<event>
 4    1  0.5008549E-001  0.5000050E+01  0.7818608E-02  0.2136455E+00
        -11   -1    0    0    0    0  0.00000000000E+00  0.00000000000E+00  0.50000499739E+01  0.50000500000E+01  0.51100000000E-03 0. -1.
         11   -1    0    0    0    0 -0.00000000000E+00 -0.00000000000E+00 -0.50000499739E+01  0.50000500000E+01  0.51100000000E-03 0.  1.
     100001    1    1    2    0    0 -0.99714471794E-02 -0.18607814033E-01 -0.73703458568E-02  0.50000500000E+01  0.50000000000E+01 0. -1.
     100001    1    1    2    0    0  0.99714471794E-02  0.18607814033E-01  0.73703458568E-02  0.50000500000E+01  0.50000000000E+01 0.  1.
</event>
<event>
 4    1  0.5008549E-001  0.5000050E+01  0.7818608E-02  0.2136455E+00
        -11   -1    0    0    0    0  0.00000000000E+00  0.00000000000E+00  0.50000499739E+01  0.50000500000E+01  0.51100000000E-03 0. -1.
         11   -1    0    0    0    0 -0.00000000000E+00 -0.00000000000E+00 -0.50000499739E+01  0.50000500000E+01  0.51100000000E-03 0.  1.
     100001    1    1    2    0    0  0.17008114355E-01  0.17432036384E-02 -0.14411377004E-01  0.50000500000E+01  0.50000000000E+01 0. -1.
     100001    1    1    2    0    0 -0.17008114355E-01 -0.17432036384E-02  0.14411377004E-01  0.50000500000E+01  0.50000000000E+01 0.  0.
</event>
<event>
 4    1  0.5008549E-001  0.5000050E+01  0.7818608E-02  0.2136455E+00
        -11   -1    0    0    0    0  0.00000000000E+00  0.00000000000E+00  0.50000499739E+01  0.50000500000E+01  0.51100000000E-03 0. -1.
         11   -1    0    0    0    0 -0.00000000000E+00 -0.00000000000E+00 -0.50000499739E+01  0.50000500000E+01  0.51100000000E-03 0.  1.
     100001    1    1    2    0    0  0.20732539661E-01 -0.14346626793E-04 -0.83764009811E-02  0.50000500000E+01  0.50000000000E+01 0.  0.
     100001    1    1    2    0    0 -0.20732539661E-01  0.14346626793E-04  0.83764009811E-02  0.50000500000E+01  0.50000000000E+01 0.  0.
</event>
<event>
 4    1  0.5008549E-001  0.5000050E+01  0.7818608E-02  0.2136455E+00
        -11   -1    0    0    0    0  0.00000000000E+00  0.00000000000E+00  0.50000499739E+01  0.50000500000E+01  0.51100000000E-03 0.  1.
         11   -1    0    0    0    0 -0.00000000000E+00 -0.00000000000E+00 -0.50000499739E+01  0.50000500000E+01  0.51100000000E-03 0. -1.
     100001    1    1    2    0    0 -0.22301268755E-01 -0.49512945956E-03 -0.15526618182E-02  0.50000500000E+01  0.50000000000E+01 0. -1.
     100001    1    1    2    0    0  0.22301268755E-01  0.49512945956E-03  0.15526618182E-02  0.50000500000E+01  0.50000000000E+01 0.  1.
</event>
<event>
 4    1  0.5008549E-001  0.5000050E+01  0.7818608E-02  0.2136455E+00
        -11   -1    0    0    0    0  0.00000000000E+00  0.00000000000E+00  0.50000499739E+01  0.50000500000E+01  0.51100000000E-03 0.  1.
         11   -1    0    0    0    0 -0.00000000000E+00 -0.00000000000E+00 -0.50000499739E+01  0.50000500000E+01  0.51100000000E-03 0. -1.
     100001    1    1    2    0    0  0.29058901223E-02  0.11112822000E-01 -0.19184980839E-01  0.50000500000E+01  0.50000000000E+01 0. -1.
     100001    1    1    2    0    0 -0.29058901223E-02 -0.11112822000E-01  0.19184980839E-01  0.50000500000E+01  0.50000000000E+01 0.  0.
</event>
<event>
 4    1  0.5008549E-001  0.5000050E+01  0.7818608E-02  0.2136455E+00
        -11   -1    0    0    0    0  0.00000000000E+00  0.00000000000E+00  0.50000499739E+01  0.50000500000E+01  0.51100000000E-03 0. -1.
         11   -1    0    0    0    0 -0.00000000000E+00 -0.00000000000E+00 -0.50000499739E+01  0.50000500000E+01  0.51100000000E-03 0.  1.
     100001    1    1    2    0    0  0.13306630889E-01  0.10200957297E-01 -0.14794476827E-01  0.50000500000E+01  0.50000000000E+01 0.  1.
     100001    1    1    2    0    0 -0.13306630889E-01 -0.10200957297E-01  0.14794476827E-01  0.50000500000E+01  0.50000000000E+01 0. -1.
</event>
<event>
 4    1  0.5008549E-001  0.5000050E+01  0.7818608E-02  0.2136455E+00
        -11   -1    0    0    0    0  0.00000000000E+00  0.00000000000E+00  0.50000499739E+01  0.50000500000E+01  0.51100000000E-03 0. -1.
         11   -1    0    0    0    0 -0.00000000000E+00 -0.00000000000E+00 -0.50000499739E+01  0.50000500000E+01  0.51100000000E-03 0.  1.
     100001    1    1    2    0    0 -0.14558600393E-01  0.15847473834E-01  0.60751319075E-02  0.50000500000E+01  0.50000000000E+01 0. -1.
     100001    1    1    2    0    0  0.14558600393E-01 -0.15847473834E-01 -0.60751319075E-02  0.50000500000E+01  0.50000000000E+01 0.  1.
</event>
<event>
 4    1  0.5008549E-001  0.5000050E+01  0.7818608E-02  0.2136455E+00
        -11   -1    0    0    0    0  0.00000000000E+00  0.00000000000E+00  0.50000499739E+01  0.50000500000E+01  0.51100000000E-03 0. -1.
         11   -1    0    0    0    0 -0.00000000000E+00 -0.00000000000E+00 -0.50000499739E+01  0.50000500000E+01  0.51100000000E-03 0.  1.
     100001    1    1    2    0    0 -0.71225683223E-02 -0.11284617273E-01  0.17942378145E-01  0.50000500000E+01  0.50000000000E+01 0.  0.
     100001    1    1    2    0    0  0.71225683223E-02  0.11284617273E-01 -0.17942378145E-01  0.50000500000E+01  0.50000000000E+01 0.  0.
</event>
<event>
 4    1  0.5008549E-001  0.5000050E+01  0.7818608E-02  0.2136455E+00
        -11   -1    0    0    0    0  0.00000000000E+00  0.00000000000E+00  0.50000499739E+01  0.50000500000E+01  0.51100000000E-03 0. -1.
         11   -1    0    0    0    0 -0.00000000000E+00 -0.00000000000E+00 -0.50000499739E+01  0.50000500000E+01  0.51100000000E-03 0.  1.
     100001    1    1    2    0    0  0.18154690288E-01  0.12633933503E-01 -0.32853378479E-02  0.50000500000E+01  0.50000000000E+01 0. -1.
     100001    1    1    2    0    0 -0.18154690288E-01 -0.12633933503E-01  0.32853378479E-02  0.50000500000E+01  0.50000000000E+01 0.  1.
</event>
<event>
 4    1  0.5008549E-001  0.5000050E+01  0.7818608E-02  0.2136455E+00
        -11   -1    0    0    0    0  0.00000000000E+00  0.00000000000E+00  0.50000499739E+01  0.50000500000E+01  0.51100000000E-03 0. -1.
         11   -1    0    0    0    0 -0.00000000000E+00 -0.00000000000E+00 -0.50000499739E+01  0.50000500000E+01  0.51100000000E-03 0.  1.
     100001    1    1    2    0    0 -0.53812070485E-02 -0.46654299121E-03  0.21698558670E-01  0.50000500000E+01  0.50000000000E+01 0. -1.
     100001    1    1    2    0    0  0.53812070485E-02  0.46654299121E-03 -0.21698558670E-01  0.50000500000E+01  0.50000000000E+01 0.  0.
</event>
<event>
 4    1  0.5008549E-001  0.5000050E+01  0.7818608E-02  0.2136455E+00
        -11   -1    0    0    0    0  0.00000000000E+00  0.00000000000E+00  0.50000499739E+01  0.50000500000E+01  0.51100000000E-03 0.  1.
         11   -1    0    0    0    0 -0.00000000000E+00 -0.00000000000E+00 -0.50000499739E+01  0.50000500000E+01  0.51100000000E-03 0. -1.
     100001    1    1    2    0    0  0.12170325610E-01  0.11078235305E-01 -0.15137977971E-01  0.50000500000E+01  0.50000000000E+01 0. -1.
     100001    1    1    2    0    0 -0.12170325610E-01 -0.11078235305E-01  0.15137977971E-01  0.50000500000E+01  0.50000000000E+01 0.  0.
</event>
<event>
 4    1  0.5008549E-001  0.5000050E+01  0.7818608E-02  0.2136455E+00
        -11   -1    0    0    0    0  0.00000000000E+00  0.00000000000E+00  0.50000499739E+01  0.50000500000E+01  0.51100000000E-03 0.  1.
         11   -1    0    0    0    0 -0.00000000000E+00 -0.00000000000E+00 -0.50000499739E+01  0.50000500000E+01  0.51100000000E-03 0. -1.
     100001    1    1    2    0    0 -0.20359552520E-01 -0.40757861796E-02  0.82993426374E-02  0.50000500000E+01  0.50000000000E+01 0.  1.
     100001    1    1    2    0    0  0.20359552520E-01  0.40757861796E-02 -0.82993426374E-02  0.50000500000E+01  0.50000000000E+01 0. -1.
</event>
<event>
 4    1  0.5008549E-001  0.5000050E+01  0.7818608E-02  0.2136455E+00
        -11   -1    0    0    0    0  0.00000000000E+00  0.00000000000E+00  0.50000499739E+01  0.50000500000E+01  0.51100000000E-03 0. -1.
         11   -1    0    0    0    0 -0.00000000000E+00 -0.00000000000E+00 -0.50000499739E+01  0.50000500000E+01  0.51100000000E-03 0.  1.
     100001    1    1    2    0    0  0.93258803033E-02  0.18516926068E-01  0.83757928307E-02  0.50000500000E+01  0.50000000000E+01 0.  1.
     100001    1    1    2    0    0 -0.93258803033E-02 -0.18516926068E-01 -0.83757928307E-02  0.50000500000E+01  0.50000000000E+01 0. -1.
</event>
<event>
 4    1  0.5008549E-001  0.5000050E+01  0.7818608E-02  0.2136455E+00
        -11   -1    0    0    0    0  0.00000000000E+00  0.00000000000E+00  0.50000499739E+01  0.50000500000E+01  0.51100000000E-03 0. -1.
         11   -1    0    0    0    0 -0.00000000000E+00 -0.00000000000E+00 -0.50000499739E+01  0.50000500000E+01  0.51100000000E-03 0.  1.
     100001    1    1    2    0    0  0.21631765219E-01  0.30844734399E-02 -0.47492375294E-02  0.50000500000E+01  0.50000000000E+01 0.  1.
     100001    1    1    2    0    0 -0.21631765219E-01 -0.30844734399E-02  0.47492375294E-02  0.50000500000E+01  0.50000000000E+01 0. -1.
</event>
<event>
 4    1  0.5008549E-001  0.5000050E+01  0.7818608E-02  0.2136455E+00
        -11   -1    0    0    0    0  0.00000000000E+00  0.00000000000E+00  0.50000499739E+01  0.50000500000E+01  0.51100000000E-03 0.  1.
         11   -1    0    0    0    0 -0.00000000000E+00 -0.00000000000E+00 -0.50000499739E+01  0.50000500000E+01  0.51100000000E-03 0. -1.
     100001    1    1    2    0    0  0.39969259158E-02  0.33273438156E-02 -0.21747548514E-01  0.50000500000E+01  0.50000000000E+01 0. -1.
     100001    1    1    2    0    0 -0.39969259158E-02 -0.33273438156E-02  0.21747548514E-01  0.50000500000E+01  0.50000000000E+01 0.  0.
</event>
<event>
 4    1  0.5008549E-001  0.5000050E+01  0.7818608E-02  0.2136455E+00
        -11   -1    0    0    0    0  0.00000000000E+00  0.00000000000E+00  0.50000499739E+01  0.50000500000E+01  0.51100000000E-03 0. -1.
         11   -1    0    0    0    0 -0.00000000000E+00 -0.00000000000E+00 -0.50000499739E+01  0.50000500000E+01  0.51100000000E-03 0.  1.
     100001    1    1    2    0    0  0.51556834168E-02  0.19250712549E-01 -0.10140586515E-01  0.50000500000E+01  0.50000000000E+01 0.  0.
     100001    1    1    2    0    0 -0.51556834168E-02 -0.19250712549E-01  0.10140586515E-01  0.50000500000E+01  0.50000000000E+01 0.  0.
</event>
<event>
 4    1  0.5008549E-001  0.5000050E+01  0.7818608E-02  0.2136455E+00
        -11   -1    0    0    0    0  0.00000000000E+00  0.00000000000E+00  0.50000499739E+01  0.50000500000E+01  0.51100000000E-03 0.  1.
         11   -1    0    0    0    0 -0.00000000000E+00 -0.00000000000E+00 -0.50000499739E+01  0.50000500000E+01  0.51100000000E-03 0. -1.
     100001    1    1    2    0    0  0.19953823241E-01  0.23561376946E-02  0.98130552440E-02  0.50000500000E+01  0.50000000000E+01 0.  1.
     100001    1    1    2    0    0 -0.19953823241E-01 -0.23561376946E-02 -0.98130552440E-02  0.50000500000E+01  0.50000000000E+01 0. -1.
</event>
<event>
 4    1  0.5008549E-001  0.5000050E+01  0.7818608E-02  0.2136455E+00
        -11   -1    0    0    0    0  0.00000000000E+00  0.00000000000E+00  0.50000499739E+01  0.50000500000E+01  0.51100000000E-03 0.  1.
         11   -1    0    0    0    0 -0.00000000000E+00 -0.00000000000E+00 -0.50000499739E+01  0.50000500000E+01  0.51100000000E-03 0. -1.
     100001    1    1    2    0    0 -0.94444082641E-02  0.15190008454E-01  0.13418990114E-01  0.50000500000E+01  0.50000000000E+01 0.  1.
     100001    1    1    2    0    0  0.94444082641E-02 -0.15190008454E-01 -0.13418990114E-01  0.50000500000E+01  0.50000000000E+01 0. -1.
</event>
<event>
 4    1  0.5008549E-001  0.5000050E+01  0.7818608E-02  0.2136455E+00
        -11   -1    0    0    0    0  0.00000000000E+00  0.00000000000E+00  0.50000499739E+01  0.50000500000E+01  0.51100000000E-03 0. -1.
         11   -1    0    0    0    0 -0.00000000000E+00 -0.00000000000E+00 -0.50000499739E+01  0.50000500000E+01  0.51100000000E-03 0.  1.
     100001    1    1    2    0    0  0.13791031756E-01 -0.87473079922E-02  0.15273982650E-01  0.50000500000E+01  0.50000000000E+01 0.  0.
     100001    1    1    2    0    0 -0.13791031756E-01  0.87473079922E-02 -0.15273982650E-01  0.50000500000E+01  0.50000000000E+01 0.  0.
</event>
<event>
 4    1  0.5008549E-001  0.5000050E+01  0.7818608E-02  0.2136455E+00
        -11   -1    0    0    0    0  0.00000000000E+00  0.00000000000E+00  0.50000499739E+01  0.50000500000E+01  0.51100000000E-03 0.  1.
         11   -1    0    0    0    0 -0.00000000000E+00 -0.00000000000E+00 -0.50000499739E+01  0.50000500000E+01  0.51100000000E-03 0. -1.
     100001    1    1    2    0    0  0.96159780533E-02  0.17622287432E-01 -0.98483730497E-02  0.50000500000E+01  0.50000000000E+01 0.  1.
     100001    1    1    2    0    0 -0.96159780533E-02 -0.17622287432E-01  0.98483730497E-02  0.50000500000E+01  0.50000000000E+01 0.  1.
</event>
<event>
 4    1  0.5008549E-001  0.5000050E+01  0.7818608E-02  0.2136455E+00
        -11   -1    0    0    0    0  0.00000000000E+00  0.00000000000E+00  0.50000499739E+01  0.50000500000E+01  0.51100000000E-03 0.  1.
         11   -1    0    0    0    0 -0.00000000000E+00 -0.00000000000E+00 -0.50000499739E+01  0.50000500000E+01  0.51100000000E-03 0. -1.
     100001    1    1    2    0    0  0.14717644245E-01  0.81966064881E-02  0.14704050121E-01  0.50000500000E+01  0.50000000000E+01 0.  1.
     100001    1    1    2    0    0 -0.14717644245E-01 -0.81966064881E-02 -0.14704050121E-01  0.50000500000E+01  0.50000000000E+01 0. -1.
</event>
<event>
 4    1  0.5008549E-001  0.5000050E+01  0.7818608E-02  0.2136455E+00
        -11   -1    0    0    0    0  0.00000000000E+00  0.00000000000E+00  0.50000499739E+01  0.50000500000E+01  0.51100000000E-03 0.  1.
         11   -1    0    0    0    0 -0.00000000000E+00 -0.00000000000E+00 -0.50000499739E+01  0.50000500000E+01  0.51100000000E-03 0. -1.
     100001    1    1    2    0    0 -0.64159691168E-02  0.14065771075E-01 -0.16155244485E-01  0.50000500000E+01  0.50000000000E+01 0. -1.
     100001    1    1    2    0    0  0.64159691168E-02 -0.14065771075E-01  0.16155244485E-01  0.50000500000E+01  0.50000000000E+01 0.  1.
</event>
<event>
 4    1  0.5008549E-001  0.5000050E+01  0.7818608E-02  0.2136455E+00
        -11   -1    0    0    0    0  0.00000000000E+00  0.00000000000E+00  0.50000499739E+01  0.50000500000E+01  0.51100000000E-03 0.  1.
         11   -1    0    0    0    0 -0.00000000000E+00 -0.00000000000E+00 -0.50000499739E+01  0.50000500000E+01  0.51100000000E-03 0. -1.
     100001    1    1    2    0    0  0.13657078526E-01  0.54671507868E-02  0.16840337538E-01  0.50000500000E+01  0.50000000000E+01 0.  1.
     100001    1    1    2    0    0 -0.13657078526E-01 -0.54671507868E-02 -0.16840337538E-01  0.50000500000E+01  0.50000000000E+01 0. -1.
</event>
<event>
 4    1  0.5008549E-001  0.5000050E+01  0.7818608E-02  0.2136455E+00
        -11   -1    0    0    0    0  0.00000000000E+00  0.00000000000E+00  0.50000499739E+01  0.50000500000E+01  0.51100000000E-03 0. -1.
         11   -1    0    0    0    0 -0.00000000000E+00 -0.00000000000E+00 -0.50000499739E+01  0.50000500000E+01  0.51100000000E-03 0.  1.
     100001    1    1    2    0    0  0.13820268349E-01 -0.11437973572E-01  0.13348237461E-01  0.50000500000E+01  0.50000000000E+01 0. -1.
     100001    1    1    2    0    0 -0.13820268349E-01  0.11437973572E-01 -0.13348237461E-01  0.50000500000E+01  0.50000000000E+01 0.  1.
</event>
<event>
 4    1  0.5008549E-001  0.5000050E+01  0.7818608E-02  0.2136455E+00
        -11   -1    0    0    0    0  0.00000000000E+00  0.00000000000E+00  0.50000499739E+01  0.50000500000E+01  0.51100000000E-03 0. -1.
         11   -1    0    0    0    0 -0.00000000000E+00 -0.00000000000E+00 -0.50000499739E+01  0.50000500000E+01  0.51100000000E-03 0.  1.
     100001    1    1    2    0    0 -0.19447347274E-01  0.47207172369E-02 -0.99758715289E-02  0.50000500000E+01  0.50000000000E+01 0.  0.
     100001    1    1    2    0    0  0.19447347274E-01 -0.47207172369E-02  0.99758715289E-02  0.50000500000E+01  0.50000000000E+01 0.  0.
</event>
<event>
 4    1  0.5008549E-001  0.5000050E+01  0.7818608E-02  0.2136455E+00
        -11   -1    0    0    0    0  0.00000000000E+00  0.00000000000E+00  0.50000499739E+01  0.50000500000E+01  0.51100000000E-03 0.  1.
         11   -1    0    0    0    0 -0.00000000000E+00 -0.00000000000E+00 -0.50000499739E+01  0.50000500000E+01  0.51100000000E-03 0. -1.
     100001    1    1    2    0    0 -0.26932068913E-02 -0.64166467490E-02  0.21250312495E-01  0.50000500000E+01  0.50000000000E+01 0.  0.
     100001    1    1    2    0    0  0.26932068913E-02  0.64166467490E-02 -0.21250312495E-01  0.50000500000E+01  0.50000000000E+01 0. -1.
</event>
<event>
 4    1  0.5008549E-001  0.5000050E+01  0.7818608E-02  0.2136455E+00
        -11   -1    0    0    0    0  0.00000000000E+00  0.00000000000E+00  0.50000499739E+01  0.50000500000E+01  0.51100000000E-03 0. -1.
         11   -1    0    0    0    0 -0.00000000000E+00 -0.00000000000E+00 -0.50000499739E+01  0.50000500000E+01  0.51100000000E-03 0.  1.
     100001    1    1    2    0    0 -0.78543396212E-02  0.15957773301E-01  0.13552170320E-01  0.50000500000E+01  0.50000000000E+01 0. -1.
     100001    1    1    2    0    0  0.78543396212E-02 -0.15957773301E-01 -0.13552170320E-01  0.50000500000E+01  0.50000000000E+01 0.  1.
</event>
<event>
 4    1  0.5008549E-001  0.5000050E+01  0.7818608E-02  0.2136455E+00
        -11   -1    0    0    0    0  0.00000000000E+00  0.00000000000E+00  0.50000499739E+01  0.50000500000E+01  0.51100000000E-03 0.  1.
         11   -1    0    0    0    0 -0.00000000000E+00 -0.00000000000E+00 -0.50000499739E+01  0.50000500000E+01  0.51100000000E-03 0. -1.
     100001    1    1    2    0    0  0.22182120827E-01  0.12966689768E-02  0.25049281793E-02  0.50000500000E+01  0.50000000000E+01 0.  1.
     100001    1    1    2    0    0 -0.22182120827E-01 -0.12966689768E-02 -0.25049281793E-02  0.50000500000E+01  0.50000000000E+01 0. -1.
</event>
<event>
 4    1  0.5008549E-001  0.5000050E+01  0.7818608E-02  0.2136455E+00
        -11   -1    0    0    0    0  0.00000000000E+00  0.00000000000E+00  0.50000499739E+01  0.50000500000E+01  0.51100000000E-03 0.  1.
         11   -1    0    0    0    0 -0.00000000000E+00 -0.00000000000E+00 -0.50000499739E+01  0.50000500000E+01  0.51100000000E-03 0. -1.
     100001    1    1    2    0    0  0.50247130911E-02 -0.17888129328E-01  0.12440642568E-01  0.50000500000E+01  0.50000000000E+01 0. -1.
     100001    1    1    2    0    0 -0.50247130911E-02  0.17888129328E-01 -0.12440642568E-01  0.50000500000E+01  0.50000000000E+01 0.  1.
</event>
<event>
 4    1  0.5008549E-001  0.5000050E+01  0.7818608E-02  0.2136455E+00
        -11   -1    0    0    0    0  0.00000000000E+00  0.00000000000E+00  0.50000499739E+01  0.50000500000E+01  0.51100000000E-03 0.  1.
         11   -1    0    0    0    0 -0.00000000000E+00 -0.00000000000E+00 -0.50000499739E+01  0.50000500000E+01  0.51100000000E-03 0. -1.
     100001    1    1    2    0    0  0.25444610451E-02 -0.19652153406E-01  0.10359589012E-01  0.50000500000E+01  0.50000000000E+01 0. -1.
     100001    1    1    2    0    0 -0.25444610451E-02  0.19652153406E-01 -0.10359589012E-01  0.50000500000E+01  0.50000000000E+01 0. -1.
</event>
<event>
 4    1  0.5008549E-001  0.5000050E+01  0.7818608E-02  0.2136455E+00
        -11   -1    0    0    0    0  0.00000000000E+00  0.00000000000E+00  0.50000499739E+01  0.50000500000E+01  0.51100000000E-03 0.  1.
         11   -1    0    0    0    0 -0.00000000000E+00 -0.00000000000E+00 -0.50000499739E+01  0.50000500000E+01  0.51100000000E-03 0. -1.
     100001    1    1    2    0    0 -0.18446636686E-01  0.12315786964E-01  0.28364566680E-02  0.50000500000E+01  0.50000000000E+01 0.  1.
     100001    1    1    2    0    0  0.18446636686E-01 -0.12315786964E-01 -0.28364566680E-02  0.50000500000E+01  0.50000000000E+01 0. -1.
</event>
<event>
 4    1  0.5008549E-001  0.5000050E+01  0.7818608E-02  0.2136455E+00
        -11   -1    0    0    0    0  0.00000000000E+00  0.00000000000E+00  0.50000499739E+01  0.50000500000E+01  0.51100000000E-03 0.  1.
         11   -1    0    0    0    0 -0.00000000000E+00 -0.00000000000E+00 -0.50000499739E+01  0.50000500000E+01  0.51100000000E-03 0. -1.
     100001    1    1    2    0    0 -0.19129763120E-01  0.11466634019E-01 -0.16034236034E-02  0.50000500000E+01  0.50000000000E+01 0.  0.
     100001    1    1    2    0    0  0.19129763120E-01 -0.11466634019E-01  0.16034236034E-02  0.50000500000E+01  0.50000000000E+01 0. -1.
</event>
<event>
 4    1  0.5008549E-001  0.5000050E+01  0.7818608E-02  0.2136455E+00
        -11   -1    0    0    0    0  0.00000000000E+00  0.00000000000E+00  0.50000499739E+01  0.50000500000E+01  0.51100000000E-03 0. -1.
         11   -1    0    0    0    0 -0.00000000000E+00 -0.00000000000E+00 -0.50000499739E+01  0.50000500000E+01  0.51100000000E-03 0.  1.
     100001    1    1    2    0    0  0.19697471040E-01  0.14349741344E-02 -0.10485846836E-01  0.50000500000E+01  0.50000000000E+01 0.  0.
     100001    1    1    2    0    0 -0.19697471040E-01 -0.14349741344E-02  0.10485846836E-01  0.50000500000E+01  0.50000000000E+01 0.  0.
</event>
<event>
 4    1  0.5008549E-001  0.5000050E+01  0.7818608E-02  0.2136455E+00
        -11   -1    0    0    0    0  0.00000000000E+00  0.00000000000E+00  0.50000499739E+01  0.50000500000E+01  0.51100000000E-03 0.  1.
         11   -1    0    0    0    0 -0.00000000000E+00 -0.00000000000E+00 -0.50000499739E+01  0.50000500000E+01  0.51100000000E-03 0. -1.
     100001    1    1    2    0    0 -0.17368140038E-01 -0.85057710984E-02  0.11225064348E-01  0.50000500000E+01  0.50000000000E+01 0. -1.
     100001    1    1    2    0    0  0.17368140038E-01  0.85057710984E-02 -0.11225064348E-01  0.50000500000E+01  0.50000000000E+01 0.  0.
</event>
<event>
 4    1  0.5008549E-001  0.5000050E+01  0.7818608E-02  0.2136455E+00
        -11   -1    0    0    0    0  0.00000000000E+00  0.00000000000E+00  0.50000499739E+01  0.50000500000E+01  0.51100000000E-03 0.  1.
         11   -1    0    0    0    0 -0.00000000000E+00 -0.00000000000E+00 -0.50000499739E+01  0.50000500000E+01  0.51100000000E-03 0. -1.
     100001    1    1    2    0    0  0.12752288473E-01  0.14582839453E-02  0.18309971235E-01  0.50000500000E+01  0.50000000000E+01 0.  1.
     100001    1    1    2    0    0 -0.12752288473E-01 -0.14582839453E-02 -0.18309971235E-01  0.50000500000E+01  0.50000000000E+01 0. -1.
</event>
<event>
 4    1  0.5008549E-001  0.5000050E+01  0.7818608E-02  0.2136455E+00
        -11   -1    0    0    0    0  0.00000000000E+00  0.00000000000E+00  0.50000499739E+01  0.50000500000E+01  0.51100000000E-03 0.  1.
         11   -1    0    0    0    0 -0.00000000000E+00 -0.00000000000E+00 -0.50000499739E+01  0.50000500000E+01  0.51100000000E-03 0. -1.
     100001    1    1    2    0    0  0.12257100754E-01 -0.13618988280E-01 -0.12817532499E-01  0.50000500000E+01  0.50000000000E+01 0.  0.
     100001    1    1    2    0    0 -0.12257100754E-01  0.13618988280E-01  0.12817532499E-01  0.50000500000E+01  0.50000000000E+01 0.  0.
</event>
<event>
 4    1  0.5008549E-001  0.5000050E+01  0.7818608E-02  0.2136455E+00
        -11   -1    0    0    0    0  0.00000000000E+00  0.00000000000E+00  0.50000499739E+01  0.50000500000E+01  0.51100000000E-03 0.  1.
         11   -1    0    0    0    0 -0.00000000000E+00 -0.00000000000E+00 -0.50000499739E+01  0.50000500000E+01  0.51100000000E-03 0. -1.
     100001    1    1    2    0    0  0.51872349736E-02  0.99970237083E-02  0.19317210210E-01  0.50000500000E+01  0.50000000000E+01 0.  0.
     100001    1    1    2    0    0 -0.51872349736E-02 -0.99970237083E-02 -0.19317210210E-01  0.50000500000E+01  0.50000000000E+01 0.  0.
</event>
<event>
 4    1  0.5008549E-001  0.5000050E+01  0.7818608E-02  0.2136455E+00
        -11   -1    0    0    0    0  0.00000000000E+00  0.00000000000E+00  0.50000499739E+01  0.50000500000E+01  0.51100000000E-03 0. -1.
         11   -1    0    0    0    0 -0.00000000000E+00 -0.00000000000E+00 -0.50000499739E+01  0.50000500000E+01  0.51100000000E-03 0.  1.
     100001    1    1    2    0    0 -0.75923496595E-03 -0.22285728671E-01 -0.16650405045E-02  0.50000500000E+01  0.50000000000E+01 0.  0.
     100001    1    1    2    0    0  0.75923496595E-03  0.22285728671E-01  0.16650405045E-02  0.50000500000E+01  0.50000000000E+01 0.  1.
</event>
<event>
 4    1  0.5008549E-001  0.5000050E+01  0.7818608E-02  0.2136455E+00
        -11   -1    0    0    0    0  0.00000000000E+00  0.00000000000E+00  0.50000499739E+01  0.50000500000E+01  0.51100000000E-03 0.  1.
         11   -1    0    0    0    0 -0.00000000000E+00 -0.00000000000E+00 -0.50000499739E+01  0.50000500000E+01  0.51100000000E-03 0. -1.
     100001    1    1    2    0    0  0.73238979565E-02  0.17273539877E-01  0.12165025230E-01  0.50000500000E+01  0.50000000000E+01 0.  0.
     100001    1    1    2    0    0 -0.73238979565E-02 -0.17273539877E-01 -0.12165025230E-01  0.50000500000E+01  0.50000000000E+01 0.  0.
</event>
<event>
 4    1  0.5008549E-001  0.5000050E+01  0.7818608E-02  0.2136455E+00
        -11   -1    0    0    0    0  0.00000000000E+00  0.00000000000E+00  0.50000499739E+01  0.50000500000E+01  0.51100000000E-03 0.  1.
         11   -1    0    0    0    0 -0.00000000000E+00 -0.00000000000E+00 -0.50000499739E+01  0.50000500000E+01  0.51100000000E-03 0. -1.
     100001    1    1    2    0    0  0.98858313264E-02  0.14329418644E-01 -0.14033552661E-01  0.50000500000E+01  0.50000000000E+01 0. -1.
     100001    1    1    2    0    0 -0.98858313264E-02 -0.14329418644E-01  0.14033552661E-01  0.50000500000E+01  0.50000000000E+01 0.  1.
</event>
<event>
 4    1  0.5008549E-001  0.5000050E+01  0.7818608E-02  0.2136455E+00
        -11   -1    0    0    0    0  0.00000000000E+00  0.00000000000E+00  0.50000499739E+01  0.50000500000E+01  0.51100000000E-03 0. -1.
         11   -1    0    0    0    0 -0.00000000000E+00 -0.00000000000E+00 -0.50000499739E+01  0.50000500000E+01  0.51100000000E-03 0.  1.
     100001    1    1    2    0    0  0.14076927027E-01  0.16251538467E-01  0.61424850779E-02  0.50000500000E+01  0.50000000000E+01 0. -1.
     100001    1    1    2    0    0 -0.14076927027E-01 -0.16251538467E-01 -0.61424850779E-02  0.50000500000E+01  0.50000000000E+01 0.  1.
</event>
<event>
 4    1  0.5008549E-001  0.5000050E+01  0.7818608E-02  0.2136455E+00
        -11   -1    0    0    0    0  0.00000000000E+00  0.00000000000E+00  0.50000499739E+01  0.50000500000E+01  0.51100000000E-03 0. -1.
         11   -1    0    0    0    0 -0.00000000000E+00 -0.00000000000E+00 -0.50000499739E+01  0.50000500000E+01  0.51100000000E-03 0.  1.
     100001    1    1    2    0    0  0.18859588753E-01  0.59347184349E-02  0.10444976265E-01  0.50000500000E+01  0.50000000000E+01 0.  1.
     100001    1    1    2    0    0 -0.18859588753E-01 -0.59347184349E-02 -0.10444976265E-01  0.50000500000E+01  0.50000000000E+01 0.  1.
</event>
<event>
 4    1  0.5008549E-001  0.5000050E+01  0.7818608E-02  0.2136455E+00
        -11   -1    0    0    0    0  0.00000000000E+00  0.00000000000E+00  0.50000499739E+01  0.50000500000E+01  0.51100000000E-03 0.  1.
         11   -1    0    0    0    0 -0.00000000000E+00 -0.00000000000E+00 -0.50000499739E+01  0.50000500000E+01  0.51100000000E-03 0. -1.
     100001    1    1    2    0    0  0.25586313069E-02  0.22185688416E-01 -0.11185416198E-02  0.50000500000E+01  0.50000000000E+01 0.  0.
     100001    1    1    2    0    0 -0.25586313069E-02 -0.22185688416E-01  0.11185416198E-02  0.50000500000E+01  0.50000000000E+01 0. -1.
</event>
<event>
 4    1  0.5008549E-001  0.5000050E+01  0.7818608E-02  0.2136455E+00
        -11   -1    0    0    0    0  0.00000000000E+00  0.00000000000E+00  0.50000499739E+01  0.50000500000E+01  0.51100000000E-03 0.  1.
         11   -1    0    0    0    0 -0.00000000000E+00 -0.00000000000E+00 -0.50000499739E+01  0.50000500000E+01  0.51100000000E-03 0. -1.
     100001    1    1    2    0    0 -0.78197591153E-02 -0.55927733203E-03  0.20941372358E-01  0.50000500000E+01  0.50000000000E+01 0.  1.
     100001    1    1    2    0    0  0.78197591153E-02  0.55927733203E-03 -0.20941372358E-01  0.50000500000E+01  0.50000000000E+01 0. -1.
</event>
<event>
 4    1  0.5008549E-001  0.5000050E+01  0.7818608E-02  0.2136455E+00
        -11   -1    0    0    0    0  0.00000000000E+00  0.00000000000E+00  0.50000499739E+01  0.50000500000E+01  0.51100000000E-03 0. -1.
         11   -1    0    0    0    0 -0.00000000000E+00 -0.00000000000E+00 -0.50000499739E+01  0.50000500000E+01  0.51100000000E-03 0.  1.
     100001    1    1    2    0    0  0.99759497981E-02 -0.12700917985E-01 -0.15465109374E-01  0.50000500000E+01  0.50000000000E+01 0.  0.
     100001    1    1    2    0    0 -0.99759497981E-02  0.12700917985E-01  0.15465109374E-01  0.50000500000E+01  0.50000000000E+01 0.  1.
</event>
<event>
 4    1  0.5008549E-001  0.5000050E+01  0.7818608E-02  0.2136455E+00
        -11   -1    0    0    0    0  0.00000000000E+00  0.00000000000E+00  0.50000499739E+01  0.50000500000E+01  0.51100000000E-03 0.  1.
         11   -1    0    0    0    0 -0.00000000000E+00 -0.00000000000E+00 -0.50000499739E+01  0.50000500000E+01  0.51100000000E-03 0. -1.
     100001    1    1    2    0    0  0.16384850558E-01 -0.15080081766E-01  0.20323154560E-02  0.50000500000E+01  0.50000000000E+01 0.  1.
     100001    1    1    2    0    0 -0.16384850558E-01  0.15080081766E-01 -0.20323154560E-02  0.50000500000E+01  0.50000000000E+01 0. -1.
</event>
<event>
 4    1  0.5008549E-001  0.5000050E+01  0.7818608E-02  0.2136455E+00
        -11   -1    0    0    0    0  0.00000000000E+00  0.00000000000E+00  0.50000499739E+01  0.50000500000E+01  0.51100000000E-03 0. -1.
         11   -1    0    0    0    0 -0.00000000000E+00 -0.00000000000E+00 -0.50000499739E+01  0.50000500000E+01  0.51100000000E-03 0.  1.
     100001    1    1    2    0    0  0.17902690763E-01  0.12850931530E-01  0.37881027233E-02  0.50000500000E+01  0.50000000000E+01 0.  0.
     100001    1    1    2    0    0 -0.17902690763E-01 -0.12850931530E-01 -0.37881027233E-02  0.50000500000E+01  0.50000000000E+01 0.  0.
</event>
<event>
 4    1  0.5008549E-001  0.5000050E+01  0.7818608E-02  0.2136455E+00
        -11   -1    0    0    0    0  0.00000000000E+00  0.00000000000E+00  0.50000499739E+01  0.50000500000E+01  0.51100000000E-03 0.  1.
         11   -1    0    0    0    0 -0.00000000000E+00 -0.00000000000E+00 -0.50000499739E+01  0.50000500000E+01  0.51100000000E-03 0. -1.
     100001    1    1    2    0    0  0.17028545522E-01 -0.14248180083E-01 -0.26496229420E-02  0.50000500000E+01  0.50000000000E+01 0.  1.
     100001    1    1    2    0    0 -0.17028545522E-01  0.14248180083E-01  0.26496229420E-02  0.50000500000E+01  0.50000000000E+01 0.  0.
</event>
<event>
 4    1  0.5008549E-001  0.5000050E+01  0.7818608E-02  0.2136455E+00
        -11   -1    0    0    0    0  0.00000000000E+00  0.00000000000E+00  0.50000499739E+01  0.50000500000E+01  0.51100000000E-03 0.  1.
         11   -1    0    0    0    0 -0.00000000000E+00 -0.00000000000E+00 -0.50000499739E+01  0.50000500000E+01  0.51100000000E-03 0. -1.
     100001    1    1    2    0    0  0.14640365936E-02 -0.10225870721E-01  0.19831557298E-01  0.50000500000E+01  0.50000000000E+01 0.  1.
     100001    1    1    2    0    0 -0.14640365936E-02  0.10225870721E-01 -0.19831557298E-01  0.50000500000E+01  0.50000000000E+01 0.  0.
</event>
<event>
 4    1  0.5008549E-001  0.5000050E+01  0.7818608E-02  0.2136455E+00
        -11   -1    0    0    0    0  0.00000000000E+00  0.00000000000E+00  0.50000499739E+01  0.50000500000E+01  0.51100000000E-03 0.  1.
         11   -1    0    0    0    0 -0.00000000000E+00 -0.00000000000E+00 -0.50000499739E+01  0.50000500000E+01  0.51100000000E-03 0. -1.
     100001    1    1    2    0    0 -0.81686972810E-02 -0.19474642875E-01  0.73493652537E-02  0.50000500000E+01  0.50000000000E+01 0.  0.
     100001    1    1    2    0    0  0.81686972810E-02  0.19474642875E-01 -0.73493652537E-02  0.50000500000E+01  0.50000000000E+01 0.  0.
</event>
<event>
 4    1  0.5008549E-001  0.5000050E+01  0.7818608E-02  0.2136455E+00
        -11   -1    0    0    0    0  0.00000000000E+00  0.00000000000E+00  0.50000499739E+01  0.50000500000E+01  0.51100000000E-03 0.  1.
         11   -1    0    0    0    0 -0.00000000000E+00 -0.00000000000E+00 -0.50000499739E+01  0.50000500000E+01  0.51100000000E-03 0. -1.
     100001    1    1    2    0    0 -0.20668222575E-01  0.59469482237E-02  0.61205295861E-02  0.50000500000E+01  0.50000000000E+01 0.  1.
     100001    1    1    2    0    0  0.20668222575E-01 -0.59469482237E-02 -0.61205295861E-02  0.50000500000E+01  0.50000000000E+01 0. -1.
</event>
<event>
 4    1  0.5008549E-001  0.5000050E+01  0.7818608E-02  0.2136455E+00
        -11   -1    0    0    0    0  0.00000000000E+00  0.00000000000E+00  0.50000499739E+01  0.50000500000E+01  0.51100000000E-03 0. -1.
         11   -1    0    0    0    0 -0.00000000000E+00 -0.00000000000E+00 -0.50000499739E+01  0.50000500000E+01  0.51100000000E-03 0.  1.
     100001    1    1    2    0    0  0.12342964262E-01 -0.17819379848E-01 -0.54884820365E-02  0.50000500000E+01  0.50000000000E+01 0.  1.
     100001    1    1    2    0    0 -0.12342964262E-01  0.17819379848E-01  0.54884820365E-02  0.50000500000E+01  0.50000000000E+01 0. -1.
</event>
<event>
 4    1  0.5008549E-001  0.5000050E+01  0.7818608E-02  0.2136455E+00
        -11   -1    0    0    0    0  0.00000000000E+00  0.00000000000E+00  0.50000499739E+01  0.50000500000E+01  0.51100000000E-03 0.  1.
         11   -1    0    0    0    0 -0.00000000000E+00 -0.00000000000E+00 -0.50000499739E+01  0.50000500000E+01  0.51100000000E-03 0. -1.
     100001    1    1    2    0    0 -0.15769944741E-01  0.15436092867E-01 -0.36108696828E-02  0.50000500000E+01  0.50000000000E+01 0.  1.
     100001    1    1    2    0    0  0.15769944741E-01 -0.15436092867E-01  0.36108696828E-02  0.50000500000E+01  0.50000000000E+01 0. -1.
</event>
<event>
 4    1  0.5008549E-001  0.5000050E+01  0.7818608E-02  0.2136455E+00
        -11   -1    0    0    0    0  0.00000000000E+00  0.00000000000E+00  0.50000499739E+01  0.50000500000E+01  0.51100000000E-03 0. -1.
         11   -1    0    0    0    0 -0.00000000000E+00 -0.00000000000E+00 -0.50000499739E+01  0.50000500000E+01  0.51100000000E-03 0.  1.
     100001    1    1    2    0    0 -0.90743357875E-02  0.19156124895E-01  0.71205202764E-02  0.50000500000E+01  0.50000000000E+01 0. -1.
     100001    1    1    2    0    0  0.90743357875E-02 -0.19156124895E-01 -0.71205202764E-02  0.50000500000E+01  0.50000000000E+01 0.  1.
</event>
<event>
 4    1  0.5008549E-001  0.5000050E+01  0.7818608E-02  0.2136455E+00
        -11   -1    0    0    0    0  0.00000000000E+00  0.00000000000E+00  0.50000499739E+01  0.50000500000E+01  0.51100000000E-03 0.  1.
         11   -1    0    0    0    0 -0.00000000000E+00 -0.00000000000E+00 -0.50000499739E+01  0.50000500000E+01  0.51100000000E-03 0. -1.
     100001    1    1    2    0    0  0.81436202254E-02  0.85686918685E-02 -0.18980555031E-01  0.50000500000E+01  0.50000000000E+01 0. -1.
     100001    1    1    2    0    0 -0.81436202254E-02 -0.85686918685E-02  0.18980555031E-01  0.50000500000E+01  0.50000000000E+01 0.  0.
</event>
<event>
 4    1  0.5008549E-001  0.5000050E+01  0.7818608E-02  0.2136455E+00
        -11   -1    0    0    0    0  0.00000000000E+00  0.00000000000E+00  0.50000499739E+01  0.50000500000E+01  0.51100000000E-03 0.  1.
         11   -1    0    0    0    0 -0.00000000000E+00 -0.00000000000E+00 -0.50000499739E+01  0.50000500000E+01  0.51100000000E-03 0. -1.
     100001    1    1    2    0    0 -0.19321855551E-01 -0.21329720765E-02 -0.11050738808E-01  0.50000500000E+01  0.50000000000E+01 0. -1.
     100001    1    1    2    0    0  0.19321855551E-01  0.21329720765E-02  0.11050738808E-01  0.50000500000E+01  0.50000000000E+01 0.  1.
</event>
<event>
 4    1  0.5008549E-001  0.5000050E+01  0.7818608E-02  0.2136455E+00
        -11   -1    0    0    0    0  0.00000000000E+00  0.00000000000E+00  0.50000499739E+01  0.50000500000E+01  0.51100000000E-03 0.  1.
         11   -1    0    0    0    0 -0.00000000000E+00 -0.00000000000E+00 -0.50000499739E+01  0.50000500000E+01  0.51100000000E-03 0. -1.
     100001    1    1    2    0    0 -0.40761439282E-02  0.17688846479E-01  0.13057268509E-01  0.50000500000E+01  0.50000000000E+01 0.  1.
     100001    1    1    2    0    0  0.40761439282E-02 -0.17688846479E-01 -0.13057268509E-01  0.50000500000E+01  0.50000000000E+01 0. -1.
</event>
<event>
 4    1  0.5008549E-001  0.5000050E+01  0.7818608E-02  0.2136455E+00
        -11   -1    0    0    0    0  0.00000000000E+00  0.00000000000E+00  0.50000499739E+01  0.50000500000E+01  0.51100000000E-03 0. -1.
         11   -1    0    0    0    0 -0.00000000000E+00 -0.00000000000E+00 -0.50000499739E+01  0.50000500000E+01  0.51100000000E-03 0.  1.
     100001    1    1    2    0    0 -0.20347152525E-01 -0.29687567603E-02 -0.87853495893E-02  0.50000500000E+01  0.50000000000E+01 0.  1.
     100001    1    1    2    0    0  0.20347152525E-01  0.29687567603E-02  0.87853495893E-02  0.50000500000E+01  0.50000000000E+01 0. -1.
</event>
<event>
 4    1  0.5008549E-001  0.5000050E+01  0.7818608E-02  0.2136455E+00
        -11   -1    0    0    0    0  0.00000000000E+00  0.00000000000E+00  0.50000499739E+01  0.50000500000E+01  0.51100000000E-03 0. -1.
         11   -1    0    0    0    0 -0.00000000000E+00 -0.00000000000E+00 -0.50000499739E+01  0.50000500000E+01  0.51100000000E-03 0.  1.
     100001    1    1    2    0    0  0.39972550470E-02 -0.19050836048E-01 -0.11004094600E-01  0.50000500000E+01  0.50000000000E+01 0.  0.
     100001    1    1    2    0    0 -0.39972550470E-02  0.19050836048E-01  0.11004094600E-01  0.50000500000E+01  0.50000000000E+01 0.  1.
</event>
<event>
 4    1  0.5008549E-001  0.5000050E+01  0.7818608E-02  0.2136455E+00
        -11   -1    0    0    0    0  0.00000000000E+00  0.00000000000E+00  0.50000499739E+01  0.50000500000E+01  0.51100000000E-03 0.  1.
         11   -1    0    0    0    0 -0.00000000000E+00 -0.00000000000E+00 -0.50000499739E+01  0.50000500000E+01  0.51100000000E-03 0. -1.
     100001    1    1    2    0    0  0.98508562988E-02  0.12727038884E-01 -0.15523711264E-01  0.50000500000E+01  0.50000000000E+01 0.  0.
     100001    1    1    2    0    0 -0.98508562988E-02 -0.12727038884E-01  0.15523711264E-01  0.50000500000E+01  0.50000000000E+01 0. -1.
</event>
<event>
 4    1  0.5008549E-001  0.5000050E+01  0.7818608E-02  0.2136455E+00
        -11   -1    0    0    0    0  0.00000000000E+00  0.00000000000E+00  0.50000499739E+01  0.50000500000E+01  0.51100000000E-03 0. -1.
         11   -1    0    0    0    0 -0.00000000000E+00 -0.00000000000E+00 -0.50000499739E+01  0.50000500000E+01  0.51100000000E-03 0.  1.
     100001    1    1    2    0    0 -0.55900498032E-02  0.21650593344E-01  0.75173447049E-04  0.50000500000E+01  0.50000000000E+01 0.  1.
     100001    1    1    2    0    0  0.55900498032E-02 -0.21650593344E-01 -0.75173447049E-04  0.50000500000E+01  0.50000000000E+01 0. -1.
</event>
<event>
 4    1  0.5008549E-001  0.5000050E+01  0.7818608E-02  0.2136455E+00
        -11   -1    0    0    0    0  0.00000000000E+00  0.00000000000E+00  0.50000499739E+01  0.50000500000E+01  0.51100000000E-03 0.  1.
         11   -1    0    0    0    0 -0.00000000000E+00 -0.00000000000E+00 -0.50000499739E+01  0.50000500000E+01  0.51100000000E-03 0. -1.
     100001    1    1    2    0    0  0.13855982003E-01  0.48898537481E-02 -0.16855372825E-01  0.50000500000E+01  0.50000000000E+01 0. -1.
     100001    1    1    2    0    0 -0.13855982003E-01 -0.48898537481E-02  0.16855372825E-01  0.50000500000E+01  0.50000000000E+01 0.  1.
</event>
<event>
 4    1  0.5008549E-001  0.5000050E+01  0.7818608E-02  0.2136455E+00
        -11   -1    0    0    0    0  0.00000000000E+00  0.00000000000E+00  0.50000499739E+01  0.50000500000E+01  0.51100000000E-03 0.  1.
         11   -1    0    0    0    0 -0.00000000000E+00 -0.00000000000E+00 -0.50000499739E+01  0.50000500000E+01  0.51100000000E-03 0. -1.
     100001    1    1    2    0    0  0.13222090075E-01  0.10693554335E-01  0.14519873613E-01  0.50000500000E+01  0.50000000000E+01 0. -1.
     100001    1    1    2    0    0 -0.13222090075E-01 -0.10693554335E-01 -0.14519873613E-01  0.50000500000E+01  0.50000000000E+01 0.  0.
</event>
<event>
 4    1  0.5008549E-001  0.5000050E+01  0.7818608E-02  0.2136455E+00
        -11   -1    0    0    0    0  0.00000000000E+00  0.00000000000E+00  0.50000499739E+01  0.50000500000E+01  0.51100000000E-03 0. -1.
         11   -1    0    0    0    0 -0.00000000000E+00 -0.00000000000E+00 -0.50000499739E+01  0.50000500000E+01  0.51100000000E-03 0.  1.
     100001    1    1    2    0    0 -0.42500448534E-02  0.20379443293E-01  0.81619795273E-02  0.50000500000E+01  0.50000000000E+01 0. -1.
     100001    1    1    2    0    0  0.42500448534E-02 -0.20379443293E-01 -0.81619795273E-02  0.50000500000E+01  0.50000000000E+01 0.  0.
</event>
<event>
 4    1  0.5008549E-001  0.5000050E+01  0.7818608E-02  0.2136455E+00
        -11   -1    0    0    0    0  0.00000000000E+00  0.00000000000E+00  0.50000499739E+01  0.50000500000E+01  0.51100000000E-03 0.  1.
         11   -1    0    0    0    0 -0.00000000000E+00 -0.00000000000E+00 -0.50000499739E+01  0.50000500000E+01  0.51100000000E-03 0. -1.
     100001    1    1    2    0    0  0.71378061052E-02  0.56751193994E-02  0.20416837263E-01  0.50000500000E+01  0.50000000000E+01 0.  0.
     100001    1    1    2    0    0 -0.71378061052E-02 -0.56751193994E-02 -0.20416837263E-01  0.50000500000E+01  0.50000000000E+01 0. -1.
</event>
<event>
 4    1  0.5008549E-001  0.5000050E+01  0.7818608E-02  0.2136455E+00
        -11   -1    0    0    0    0  0.00000000000E+00  0.00000000000E+00  0.50000499739E+01  0.50000500000E+01  0.51100000000E-03 0. -1.
         11   -1    0    0    0    0 -0.00000000000E+00 -0.00000000000E+00 -0.50000499739E+01  0.50000500000E+01  0.51100000000E-03 0.  1.
     100001    1    1    2    0    0  0.12586557403E-02  0.21461005787E-01 -0.61517084090E-02  0.50000500000E+01  0.50000000000E+01 0.  1.
     100001    1    1    2    0    0 -0.12586557403E-02 -0.21461005787E-01  0.61517084090E-02  0.50000500000E+01  0.50000000000E+01 0.  1.
</event>
<event>
 4    1  0.5008549E-001  0.5000050E+01  0.7818608E-02  0.2136455E+00
        -11   -1    0    0    0    0  0.00000000000E+00  0.00000000000E+00  0.50000499739E+01  0.50000500000E+01  0.51100000000E-03 0. -1.
         11   -1    0    0    0    0 -0.00000000000E+00 -0.00000000000E+00 -0.50000499739E+01  0.50000500000E+01  0.51100000000E-03 0.  1.
     100001    1    1    2    0    0  0.16103885930E-02 -0.14623050705E-01  0.16839701205E-01  0.50000500000E+01  0.50000000000E+01 0. -1.
     100001    1    1    2    0    0 -0.16103885930E-02  0.14623050705E-01 -0.16839701205E-01  0.50000500000E+01  0.50000000000E+01 0. -1.
</event>
<event>
 4    1  0.5008549E-001  0.5000050E+01  0.7818608E-02  0.2136455E+00
        -11   -1    0    0    0    0  0.00000000000E+00  0.00000000000E+00  0.50000499739E+01  0.50000500000E+01  0.51100000000E-03 0.  1.
         11   -1    0    0    0    0 -0.00000000000E+00 -0.00000000000E+00 -0.50000499739E+01  0.50000500000E+01  0.51100000000E-03 0. -1.
     100001    1    1    2    0    0  0.16441098568E-02 -0.13168999642E-01 -0.17996578875E-01  0.50000500000E+01  0.50000000000E+01 0. -1.
     100001    1    1    2    0    0 -0.16441098568E-02  0.13168999642E-01  0.17996578875E-01  0.50000500000E+01  0.50000000000E+01 0.  1.
</event>
<event>
 4    1  0.5008549E-001  0.5000050E+01  0.7818608E-02  0.2136455E+00
        -11   -1    0    0    0    0  0.00000000000E+00  0.00000000000E+00  0.50000499739E+01  0.50000500000E+01  0.51100000000E-03 0.  1.
         11   -1    0    0    0    0 -0.00000000000E+00 -0.00000000000E+00 -0.50000499739E+01  0.50000500000E+01  0.51100000000E-03 0. -1.
     100001    1    1    2    0    0  0.17018707772E-01 -0.10946477748E-01 -0.95152882604E-02  0.50000500000E+01  0.50000000000E+01 0. -1.
     100001    1    1    2    0    0 -0.17018707772E-01  0.10946477748E-01  0.95152882604E-02  0.50000500000E+01  0.50000000000E+01 0.  1.
</event>
<event>
 4    1  0.5008549E-001  0.5000050E+01  0.7818608E-02  0.2136455E+00
        -11   -1    0    0    0    0  0.00000000000E+00  0.00000000000E+00  0.50000499739E+01  0.50000500000E+01  0.51100000000E-03 0. -1.
         11   -1    0    0    0    0 -0.00000000000E+00 -0.00000000000E+00 -0.50000499739E+01  0.50000500000E+01  0.51100000000E-03 0.  1.
     100001    1    1    2    0    0  0.14038664932E-02 -0.56213000622E-02  0.21597051754E-01  0.50000500000E+01  0.50000000000E+01 0.  0.
     100001    1    1    2    0    0 -0.14038664932E-02  0.56213000622E-02 -0.21597051754E-01  0.50000500000E+01  0.50000000000E+01 0.  1.
</event>
<event>
 4    1  0.5008549E-001  0.5000050E+01  0.7818608E-02  0.2136455E+00
        -11   -1    0    0    0    0  0.00000000000E+00  0.00000000000E+00  0.50000499739E+01  0.50000500000E+01  0.51100000000E-03 0.  1.
         11   -1    0    0    0    0 -0.00000000000E+00 -0.00000000000E+00 -0.50000499739E+01  0.50000500000E+01  0.51100000000E-03 0. -1.
     100001    1    1    2    0    0  0.16646391347E-01 -0.11942697561E-01  0.89594715294E-02  0.50000500000E+01  0.50000000000E+01 0.  1.
     100001    1    1    2    0    0 -0.16646391347E-01  0.11942697561E-01 -0.89594715294E-02  0.50000500000E+01  0.50000000000E+01 0. -1.
</event>
<event>
 4    1  0.5008549E-001  0.5000050E+01  0.7818608E-02  0.2136455E+00
        -11   -1    0    0    0    0  0.00000000000E+00  0.00000000000E+00  0.50000499739E+01  0.50000500000E+01  0.51100000000E-03 0. -1.
         11   -1    0    0    0    0 -0.00000000000E+00 -0.00000000000E+00 -0.50000499739E+01  0.50000500000E+01  0.51100000000E-03 0.  1.
     100001    1    1    2    0    0  0.92263665185E-02 -0.47114926204E-03  0.20363071459E-01  0.50000500000E+01  0.50000000000E+01 0.  1.
     100001    1    1    2    0    0 -0.92263665185E-02  0.47114926204E-03 -0.20363071459E-01  0.50000500000E+01  0.50000000000E+01 0.  1.
</event>
<event>
 4    1  0.5008549E-001  0.5000050E+01  0.7818608E-02  0.2136455E+00
        -11   -1    0    0    0    0  0.00000000000E+00  0.00000000000E+00  0.50000499739E+01  0.50000500000E+01  0.51100000000E-03 0. -1.
         11   -1    0    0    0    0 -0.00000000000E+00 -0.00000000000E+00 -0.50000499739E+01  0.50000500000E+01  0.51100000000E-03 0.  1.
     100001    1    1    2    0    0  0.30303239953E-02 -0.80077804379E-03  0.22139972697E-01  0.50000500000E+01  0.50000000000E+01 0. -1.
     100001    1    1    2    0    0 -0.30303239953E-02  0.80077804379E-03 -0.22139972697E-01  0.50000500000E+01  0.50000000000E+01 0.  0.
</event>
<event>
 4    1  0.5008549E-001  0.5000050E+01  0.7818608E-02  0.2136455E+00
        -11   -1    0    0    0    0  0.00000000000E+00  0.00000000000E+00  0.50000499739E+01  0.50000500000E+01  0.51100000000E-03 0. -1.
         11   -1    0    0    0    0 -0.00000000000E+00 -0.00000000000E+00 -0.50000499739E+01  0.50000500000E+01  0.51100000000E-03 0.  1.
     100001    1    1    2    0    0  0.37123129471E-02 -0.22049176691E-01  0.23460564993E-03  0.50000500000E+01  0.50000000000E+01 0. -1.
     100001    1    1    2    0    0 -0.37123129471E-02  0.22049176691E-01 -0.23460564993E-03  0.50000500000E+01  0.50000000000E+01 0.  0.
</event>
<event>
 4    1  0.5008549E-001  0.5000050E+01  0.7818608E-02  0.2136455E+00
        -11   -1    0    0    0    0  0.00000000000E+00  0.00000000000E+00  0.50000499739E+01  0.50000500000E+01  0.51100000000E-03 0.  1.
         11   -1    0    0    0    0 -0.00000000000E+00 -0.00000000000E+00 -0.50000499739E+01  0.50000500000E+01  0.51100000000E-03 0. -1.
     100001    1    1    2    0    0  0.93192110164E-03 -0.10443048459E-01 -0.19750361058E-01  0.50000500000E+01  0.50000000000E+01 0.  0.
     100001    1    1    2    0    0 -0.93192110164E-03  0.10443048459E-01  0.19750361058E-01  0.50000500000E+01  0.50000000000E+01 0.  1.
</event>
<event>
 4    1  0.5008549E-001  0.5000050E+01  0.7818608E-02  0.2136455E+00
        -11   -1    0    0    0    0  0.00000000000E+00  0.00000000000E+00  0.50000499739E+01  0.50000500000E+01  0.51100000000E-03 0.  1.
         11   -1    0    0    0    0 -0.00000000000E+00 -0.00000000000E+00 -0.50000499739E+01  0.50000500000E+01  0.51100000000E-03 0. -1.
     100001    1    1    2    0    0 -0.13780138023E-01 -0.14401946180E-01 -0.10133816768E-01  0.50000500000E+01  0.50000000000E+01 0.  0.
     100001    1    1    2    0    0  0.13780138023E-01  0.14401946180E-01  0.10133816768E-01  0.50000500000E+01  0.50000000000E+01 0.  0.
</event>
<event>
 4    1  0.5008549E-001  0.5000050E+01  0.7818608E-02  0.2136455E+00
        -11   -1    0    0    0    0  0.00000000000E+00  0.00000000000E+00  0.50000499739E+01  0.50000500000E+01  0.51100000000E-03 0.  1.
         11   -1    0    0    0    0 -0.00000000000E+00 -0.00000000000E+00 -0.50000499739E+01  0.50000500000E+01  0.51100000000E-03 0. -1.
     100001    1    1    2    0    0  0.17379972252E-01  0.44766814606E-02 -0.13337855436E-01  0.50000500000E+01  0.50000000000E+01 0.  0.
     100001    1    1    2    0    0 -0.17379972252E-01 -0.44766814606E-02  0.13337855436E-01  0.50000500000E+01  0.50000000000E+01 0.  0.
</event>
<event>
 4    1  0.5008549E-001  0.5000050E+01  0.7818608E-02  0.2136455E+00
        -11   -1    0    0    0    0  0.00000000000E+00  0.00000000000E+00  0.50000499739E+01  0.50000500000E+01  0.51100000000E-03 0.  1.
         11   -1    0    0    0    0 -0.00000000000E+00 -0.00000000000E+00 -0.50000499739E+01  0.50000500000E+01  0.51100000000E-03 0. -1.
     100001    1    1    2    0    0  0.13146232523E-01  0.11970661529E-01 -0.13560322009E-01  0.50000500000E+01  0.50000000000E+01 0.  0.
     100001    1    1    2    0    0 -0.13146232523E-01 -0.11970661529E-01  0.13560322009E-01  0.50000500000E+01  0.50000000000E+01 0.  0.
</event>
<event>
 4    1  0.5008549E-001  0.5000050E+01  0.7818608E-02  0.2136455E+00
        -11   -1    0    0    0    0  0.00000000000E+00  0.00000000000E+00  0.50000499739E+01  0.50000500000E+01  0.51100000000E-03 0.  1.
         11   -1    0    0    0    0 -0.00000000000E+00 -0.00000000000E+00 -0.50000499739E+01  0.50000500000E+01  0.51100000000E-03 0. -1.
     100001    1    1    2    0    0  0.45752146030E-02  0.98048799020E-02  0.19568705666E-01  0.50000500000E+01  0.50000000000E+01 0.  0.
     100001    1    1    2    0    0 -0.45752146030E-02 -0.98048799020E-02 -0.19568705666E-01  0.50000500000E+01  0.50000000000E+01 0.  0.
</event>
<event>
 4    1  0.5008549E-001  0.5000050E+01  0.7818608E-02  0.2136455E+00
        -11   -1    0    0    0    0  0.00000000000E+00  0.00000000000E+00  0.50000499739E+01  0.50000500000E+01  0.51100000000E-03 0.  1.
         11   -1    0    0    0    0 -0.00000000000E+00 -0.00000000000E+00 -0.50000499739E+01  0.50000500000E+01  0.51100000000E-03 0. -1.
     100001    1    1    2    0    0  0.21007092813E-01 -0.76617242543E-02  0.50328746756E-04  0.50000500000E+01  0.50000000000E+01 0.  1.
     100001    1    1    2    0    0 -0.21007092813E-01  0.76617242543E-02 -0.50328746757E-04  0.50000500000E+01  0.50000000000E+01 0. -1.
</event>
<event>
 4    1  0.5008549E-001  0.5000050E+01  0.7818608E-02  0.2136455E+00
        -11   -1    0    0    0    0  0.00000000000E+00  0.00000000000E+00  0.50000499739E+01  0.50000500000E+01  0.51100000000E-03 0. -1.
         11   -1    0    0    0    0 -0.00000000000E+00 -0.00000000000E+00 -0.50000499739E+01  0.50000500000E+01  0.51100000000E-03 0.  1.
     100001    1    1    2    0    0 -0.15408315419E-02  0.19526583043E-01 -0.10786143556E-01  0.50000500000E+01  0.50000000000E+01 0.  1.
     100001    1    1    2    0    0  0.15408315419E-02 -0.19526583043E-01  0.10786143556E-01  0.50000500000E+01  0.50000000000E+01 0. -1.
</event>
<event>
 4    1  0.5008549E-001  0.5000050E+01  0.7818608E-02  0.2136455E+00
        -11   -1    0    0    0    0  0.00000000000E+00  0.00000000000E+00  0.50000499739E+01  0.50000500000E+01  0.51100000000E-03 0. -1.
         11   -1    0    0    0    0 -0.00000000000E+00 -0.00000000000E+00 -0.50000499739E+01  0.50000500000E+01  0.51100000000E-03 0.  1.
     100001    1    1    2    0    0 -0.21451304350E-01 -0.16064520995E-02  0.61043716585E-02  0.50000500000E+01  0.50000000000E+01 0. -1.
     100001    1    1    2    0    0  0.21451304350E-01  0.16064520995E-02 -0.61043716585E-02  0.50000500000E+01  0.50000000000E+01 0.  1.
</event>
<event>
 4    1  0.5008549E-001  0.5000050E+01  0.7818608E-02  0.2136455E+00
        -11   -1    0    0    0    0  0.00000000000E+00  0.00000000000E+00  0.50000499739E+01  0.50000500000E+01  0.51100000000E-03 0. -1.
         11   -1    0    0    0    0 -0.00000000000E+00 -0.00000000000E+00 -0.50000499739E+01  0.50000500000E+01  0.51100000000E-03 0.  1.
     100001    1    1    2    0    0  0.22231143573E-01 -0.64599002404E-03  0.23154810135E-02  0.50000500000E+01  0.50000000000E+01 0.  0.
     100001    1    1    2    0    0 -0.22231143573E-01  0.64599002404E-03 -0.23154810135E-02  0.50000500000E+01  0.50000000000E+01 0.  1.
</event>
<event>
 4    1  0.5008549E-001  0.5000050E+01  0.7818608E-02  0.2136455E+00
        -11   -1    0    0    0    0  0.00000000000E+00  0.00000000000E+00  0.50000499739E+01  0.50000500000E+01  0.51100000000E-03 0.  1.
         11   -1    0    0    0    0 -0.00000000000E+00 -0.00000000000E+00 -0.50000499739E+01  0.50000500000E+01  0.51100000000E-03 0. -1.
     100001    1    1    2    0    0  0.13858753976E-01  0.15436436592E-01 -0.83458890229E-02  0.50000500000E+01  0.50000000000E+01 0. -1.
     100001    1    1    2    0    0 -0.13858753976E-01 -0.15436436592E-01  0.83458890229E-02  0.50000500000E+01  0.50000000000E+01 0.  0.
</event>
<event>
 4    1  0.5008549E-001  0.5000050E+01  0.7818608E-02  0.2136455E+00
        -11   -1    0    0    0    0  0.00000000000E+00  0.00000000000E+00  0.50000499739E+01  0.50000500000E+01  0.51100000000E-03 0.  1.
         11   -1    0    0    0    0 -0.00000000000E+00 -0.00000000000E+00 -0.50000499739E+01  0.50000500000E+01  0.51100000000E-03 0. -1.
     100001    1    1    2    0    0  0.17397136583E-01 -0.81885848800E-02  0.11414430182E-01  0.50000500000E+01  0.50000000000E+01 0. -1.
     100001    1    1    2    0    0 -0.17397136583E-01  0.81885848800E-02 -0.11414430182E-01  0.50000500000E+01  0.50000000000E+01 0.  0.
</event>
<event>
 4    1  0.5008549E-001  0.5000050E+01  0.7818608E-02  0.2136455E+00
        -11   -1    0    0    0    0  0.00000000000E+00  0.00000000000E+00  0.50000499739E+01  0.50000500000E+01  0.51100000000E-03 0. -1.
         11   -1    0    0    0    0 -0.00000000000E+00 -0.00000000000E+00 -0.50000499739E+01  0.50000500000E+01  0.51100000000E-03 0.  1.
     100001    1    1    2    0    0  0.60568957578E-02  0.16471112580E-02  0.21461676036E-01  0.50000500000E+01  0.50000000000E+01 0. -1.
     100001    1    1    2    0    0 -0.60568957578E-02 -0.16471112580E-02 -0.21461676036E-01  0.50000500000E+01  0.50000000000E+01 0.  1.
</event>
<event>
 4    1  0.5008549E-001  0.5000050E+01  0.7818608E-02  0.2136455E+00
        -11   -1    0    0    0    0  0.00000000000E+00  0.00000000000E+00  0.50000499739E+01  0.50000500000E+01  0.51100000000E-03 0. -1.
         11   -1    0    0    0    0 -0.00000000000E+00 -0.00000000000E+00 -0.50000499739E+01  0.50000500000E+01  0.51100000000E-03 0.  1.
     100001    1    1    2    0    0  0.57081528052E-02  0.20685736255E-01 -0.62864781181E-02  0.50000500000E+01  0.50000000000E+01 0.  0.
     100001    1    1    2    0    0 -0.57081528052E-02 -0.20685736255E-01  0.62864781181E-02  0.50000500000E+01  0.50000000000E+01 0.  1.
</event>
<event>
 4    1  0.5008549E-001  0.5000050E+01  0.7818608E-02  0.2136455E+00
        -11   -1    0    0    0    0  0.00000000000E+00  0.00000000000E+00  0.50000499739E+01  0.50000500000E+01  0.51100000000E-03 0.  1.
         11   -1    0    0    0    0 -0.00000000000E+00 -0.00000000000E+00 -0.50000499739E+01  0.50000500000E+01  0.51100000000E-03 0. -1.
     100001    1    1    2    0    0 -0.13115051942E-01 -0.72911586216E-02  0.16578206130E-01  0.50000500000E+01  0.50000000000E+01 0. -1.
     100001    1    1    2    0    0  0.13115051942E-01  0.72911586216E-02 -0.16578206130E-01  0.50000500000E+01  0.50000000000E+01 0. -1.
</event>
<event>
 4    1  0.5008549E-001  0.5000050E+01  0.7818608E-02  0.2136455E+00
        -11   -1    0    0    0    0  0.00000000000E+00  0.00000000000E+00  0.50000499739E+01  0.50000500000E+01  0.51100000000E-03 0. -1.
         11   -1    0    0    0    0 -0.00000000000E+00 -0.00000000000E+00 -0.50000499739E+01  0.50000500000E+01  0.51100000000E-03 0.  1.
     100001    1    1    2    0    0  0.12441545945E-01  0.18012683985E-01  0.45556174311E-02  0.50000500000E+01  0.50000000000E+01 0.  1.
     100001    1    1    2    0    0 -0.12441545945E-01 -0.18012683985E-01 -0.45556174311E-02  0.50000500000E+01  0.50000000000E+01 0. -1.
</event>
<event>
 4    1  0.5008549E-001  0.5000050E+01  0.7818608E-02  0.2136455E+00
        -11   -1    0    0    0    0  0.00000000000E+00  0.00000000000E+00  0.50000499739E+01  0.50000500000E+01  0.51100000000E-03 0.  1.
         11   -1    0    0    0    0 -0.00000000000E+00 -0.00000000000E+00 -0.50000499739E+01  0.50000500000E+01  0.51100000000E-03 0. -1.
     100001    1    1    2    0    0  0.13799480561E-01  0.45670343363E-02 -0.16991734273E-01  0.50000500000E+01  0.50000000000E+01 0.  0.
     100001    1    1    2    0    0 -0.13799480561E-01 -0.45670343363E-02  0.16991734273E-01  0.50000500000E+01  0.50000000000E+01 0.  0.
</event>
<event>
 4    1  0.5008549E-001  0.5000050E+01  0.7818608E-02  0.2136455E+00
        -11   -1    0    0    0    0  0.00000000000E+00  0.00000000000E+00  0.50000499739E+01  0.50000500000E+01  0.51100000000E-03 0.  1.
         11   -1    0    0    0    0 -0.00000000000E+00 -0.00000000000E+00 -0.50000499739E+01  0.50000500000E+01  0.51100000000E-03 0. -1.
     100001    1    1    2    0    0  0.17034098192E-03 -0.22359180842E-01  0.20128592729E-03  0.50000500000E+01  0.50000000000E+01 0. -1.
     100001    1    1    2    0    0 -0.17034098192E-03  0.22359180842E-01 -0.20128592729E-03  0.50000500000E+01  0.50000000000E+01 0.  0.
</event>
<event>
 4    1  0.5008549E-001  0.5000050E+01  0.7818608E-02  0.2136455E+00
        -11   -1    0    0    0    0  0.00000000000E+00  0.00000000000E+00  0.50000499739E+01  0.50000500000E+01  0.51100000000E-03 0. -1.
         11   -1    0    0    0    0 -0.00000000000E+00 -0.00000000000E+00 -0.50000499739E+01  0.50000500000E+01  0.51100000000E-03 0.  1.
     100001    1    1    2    0    0 -0.14670227854E-01  0.16321450651E-01 -0.42891914572E-02  0.50000500000E+01  0.50000000000E+01 0.  0.
     100001    1    1    2    0    0  0.14670227854E-01 -0.16321450651E-01  0.42891914572E-02  0.50000500000E+01  0.50000000000E+01 0.  1.
</event>
<event>
 4    1  0.5008549E-001  0.5000050E+01  0.7818608E-02  0.2136455E+00
        -11   -1    0    0    0    0  0.00000000000E+00  0.00000000000E+00  0.50000499739E+01  0.50000500000E+01  0.51100000000E-03 0.  1.
         11   -1    0    0    0    0 -0.00000000000E+00 -0.00000000000E+00 -0.50000499739E+01  0.50000500000E+01  0.51100000000E-03 0. -1.
     100001    1    1    2    0    0  0.19386974906E-01  0.82499252083E-02  0.74890879323E-02  0.50000500000E+01  0.50000000000E+01 0.  0.
     100001    1    1    2    0    0 -0.19386974906E-01 -0.82499252083E-02 -0.74890879323E-02  0.50000500000E+01  0.50000000000E+01 0.  0.
</event>
<event>
 4    1  0.5008549E-001  0.5000050E+01  0.7818608E-02  0.2136455E+00
        -11   -1    0    0    0    0  0.00000000000E+00  0.00000000000E+00  0.50000499739E+01  0.50000500000E+01  0.51100000000E-03 0. -1.
         11   -1    0    0    0    0 -0.00000000000E+00 -0.00000000000E+00 -0.50000499739E+01  0.50000500000E+01  0.51100000000E-03 0.  1.
     100001    1    1    2    0    0  0.15125284138E-01  0.84344574299E-02  0.14145253889E-01  0.50000500000E+01  0.50000000000E+01 0.  0.
     100001    1    1    2    0    0 -0.15125284138E-01 -0.84344574299E-02 -0.14145253889E-01  0.50000500000E+01  0.50000000000E+01 0.  0.
</event>
<event>
 4    1  0.5008549E-001  0.5000050E+01  0.7818608E-02  0.2136455E+00
        -11   -1    0    0    0    0  0.00000000000E+00  0.00000000000E+00  0.50000499739E+01  0.50000500000E+01  0.51100000000E-03 0. -1.
         11   -1    0    0    0    0 -0.00000000000E+00 -0.00000000000E+00 -0.50000499739E+01  0.50000500000E+01  0.51100000000E-03 0.  1.
     100001    1    1    2    0    0 -0.58818410220E-02  0.15969289612E-01  0.14504765958E-01  0.50000500000E+01  0.50000000000E+01 0. -1.
     100001    1    1    2    0    0  0.58818410220E-02 -0.15969289612E-01 -0.14504765958E-01  0.50000500000E+01  0.50000000000E+01 0.  1.
</event>
<event>
 4    1  0.5008549E-001  0.5000050E+01  0.7818608E-02  0.2136455E+00
        -11   -1    0    0    0    0  0.00000000000E+00  0.00000000000E+00  0.50000499739E+01  0.50000500000E+01  0.51100000000E-03 0. -1.
         11   -1    0    0    0    0 -0.00000000000E+00 -0.00000000000E+00 -0.50000499739E+01  0.50000500000E+01  0.51100000000E-03 0.  1.
     100001    1    1    2    0    0 -0.20110209855E-01 -0.84474886635E-02 -0.49215744286E-02  0.50000500000E+01  0.50000000000E+01 0.  1.
     100001    1    1    2    0    0  0.20110209855E-01  0.84474886635E-02  0.49215744286E-02  0.50000500000E+01  0.50000000000E+01 0. -1.
</event>
<event>
 4    1  0.5008549E-001  0.5000050E+01  0.7818608E-02  0.2136455E+00
        -11   -1    0    0    0    0  0.00000000000E+00  0.00000000000E+00  0.50000499739E+01  0.50000500000E+01  0.51100000000E-03 0. -1.
         11   -1    0    0    0    0 -0.00000000000E+00 -0.00000000000E+00 -0.50000499739E+01  0.50000500000E+01  0.51100000000E-03 0.  1.
     100001    1    1    2    0    0  0.13145041663E-01  0.55335759123E-02  0.17221786124E-01  0.50000500000E+01  0.50000000000E+01 0. -1.
     100001    1    1    2    0    0 -0.13145041663E-01 -0.55335759123E-02 -0.17221786124E-01  0.50000500000E+01  0.50000000000E+01 0.  1.
</event>
<event>
 4    1  0.5008549E-001  0.5000050E+01  0.7818608E-02  0.2136455E+00
        -11   -1    0    0    0    0  0.00000000000E+00  0.00000000000E+00  0.50000499739E+01  0.50000500000E+01  0.51100000000E-03 0.  1.
         11   -1    0    0    0    0 -0.00000000000E+00 -0.00000000000E+00 -0.50000499739E+01  0.50000500000E+01  0.51100000000E-03 0. -1.
     100001    1    1    2    0    0 -0.76973033953E-02  0.20259073612E-01 -0.55067192447E-02  0.50000500000E+01  0.50000000000E+01 0.  1.
     100001    1    1    2    0    0  0.76973033953E-02 -0.20259073612E-01  0.55067192447E-02  0.50000500000E+01  0.50000000000E+01 0. -1.
</event>
<event>
 4    1  0.5008549E-001  0.5000050E+01  0.7818608E-02  0.2136455E+00
        -11   -1    0    0    0    0  0.00000000000E+00  0.00000000000E+00  0.50000499739E+01  0.50000500000E+01  0.51100000000E-03 0. -1.
         11   -1    0    0    0    0 -0.00000000000E+00 -0.00000000000E+00 -0.50000499739E+01  0.50000500000E+01  0.51100000000E-03 0.  1.
     100001    1    1    2    0    0  0.11689603850E-01 -0.18278711465E-01 -0.54078063029E-02  0.50000500000E+01  0.50000000000E+01 0.  1.
     100001    1    1    2    0    0 -0.11689603850E-01  0.18278711465E-01  0.54078063029E-02  0.50000500000E+01  0.50000000000E+01 0. -1.
</event>
<event>
 4    1  0.5008549E-001  0.5000050E+01  0.7818608E-02  0.2136455E+00
        -11   -1    0    0    0    0  0.00000000000E+00  0.00000000000E+00  0.50000499739E+01  0.50000500000E+01  0.51100000000E-03 0.  1.
         11   -1    0    0    0    0 -0.00000000000E+00 -0.00000000000E+00 -0.50000499739E+01  0.50000500000E+01  0.51100000000E-03 0. -1.
     100001    1    1    2    0    0 -0.24483766982E-02  0.14019953406E-01  0.17246705716E-01  0.50000500000E+01  0.50000000000E+01 0. -1.
     100001    1    1    2    0    0  0.24483766982E-02 -0.14019953406E-01 -0.17246705716E-01  0.50000500000E+01  0.50000000000E+01 0.  0.
</event>
<event>
 4    1  0.5008549E-001  0.5000050E+01  0.7818608E-02  0.2136455E+00
        -11   -1    0    0    0    0  0.00000000000E+00  0.00000000000E+00  0.50000499739E+01  0.50000500000E+01  0.51100000000E-03 0.  1.
         11   -1    0    0    0    0 -0.00000000000E+00 -0.00000000000E+00 -0.50000499739E+01  0.50000500000E+01  0.51100000000E-03 0. -1.
     100001    1    1    2    0    0  0.20853031675E-01 -0.59940081616E-02 -0.54060555042E-02  0.50000500000E+01  0.50000000000E+01 0.  0.
     100001    1    1    2    0    0 -0.20853031675E-01  0.59940081616E-02  0.54060555042E-02  0.50000500000E+01  0.50000000000E+01 0.  1.
</event>
<event>
 4    1  0.5008549E-001  0.5000050E+01  0.7818608E-02  0.2136455E+00
        -11   -1    0    0    0    0  0.00000000000E+00  0.00000000000E+00  0.50000499739E+01  0.50000500000E+01  0.51100000000E-03 0.  1.
         11   -1    0    0    0    0 -0.00000000000E+00 -0.00000000000E+00 -0.50000499739E+01  0.50000500000E+01  0.51100000000E-03 0. -1.
     100001    1    1    2    0    0 -0.80786182179E-02 -0.19977165749E-01 -0.59708689753E-02  0.50000500000E+01  0.50000000000E+01 0.  0.
     100001    1    1    2    0    0  0.80786182179E-02  0.19977165749E-01  0.59708689753E-02  0.50000500000E+01  0.50000000000E+01 0.  1.
</event>
<event>
 4    1  0.5008549E-001  0.5000050E+01  0.7818608E-02  0.2136455E+00
        -11   -1    0    0    0    0  0.00000000000E+00  0.00000000000E+00  0.50000499739E+01  0.50000500000E+01  0.51100000000E-03 0. -1.
         11   -1    0    0    0    0 -0.00000000000E+00 -0.00000000000E+00 -0.50000499739E+01  0.50000500000E+01  0.51100000000E-03 0.  1.
     100001    1    1    2    0    0 -0.20416761600E-01  0.33926293269E-02 -0.84645385005E-02  0.50000500000E+01  0.50000000000E+01 0.  1.
     100001    1    1    2    0    0  0.20416761600E-01 -0.33926293269E-02  0.84645385005E-02  0.50000500000E+01  0.50000000000E+01 0.  1.
</event>
<event>
 4    1  0.5008549E-001  0.5000050E+01  0.7818608E-02  0.2136455E+00
        -11   -1    0    0    0    0  0.00000000000E+00  0.00000000000E+00  0.50000499739E+01  0.50000500000E+01  0.51100000000E-03 0. -1.
         11   -1    0    0    0    0 -0.00000000000E+00 -0.00000000000E+00 -0.50000499739E+01  0.50000500000E+01  0.51100000000E-03 0.  1.
     100001    1    1    2    0    0 -0.17197319313E-01  0.13780995663E-03  0.14291106216E-01  0.50000500000E+01  0.50000000000E+01 0. -1.
     100001    1    1    2    0    0  0.17197319313E-01 -0.13780995663E-03 -0.14291106216E-01  0.50000500000E+01  0.50000000000E+01 0. -1.
</event>
<event>
 4    1  0.5008549E-001  0.5000050E+01  0.7818608E-02  0.2136455E+00
        -11   -1    0    0    0    0  0.00000000000E+00  0.00000000000E+00  0.50000499739E+01  0.50000500000E+01  0.51100000000E-03 0.  1.
         11   -1    0    0    0    0 -0.00000000000E+00 -0.00000000000E+00 -0.50000499739E+01  0.50000500000E+01  0.51100000000E-03 0. -1.
     100001    1    1    2    0    0  0.19698275658E-01 -0.46065191520E-02 -0.95268261985E-02  0.50000500000E+01  0.50000000000E+01 0.  0.
     100001    1    1    2    0    0 -0.19698275658E-01  0.46065191520E-02  0.95268261985E-02  0.50000500000E+01  0.50000000000E+01 0. -1.
</event>
<event>
 4    1  0.5008549E-001  0.5000050E+01  0.7818608E-02  0.2136455E+00
        -11   -1    0    0    0    0  0.00000000000E+00  0.00000000000E+00  0.50000499739E+01  0.50000500000E+01  0.51100000000E-03 0. -1.
         11   -1    0    0    0    0 -0.00000000000E+00 -0.00000000000E+00 -0.50000499739E+01  0.50000500000E+01  0.51100000000E-03 0.  1.
     100001    1    1    2    0    0  0.26928659321E-02 -0.21756737455E-01  0.44040150323E-02  0.50000500000E+01  0.50000000000E+01 0. -1.
     100001    1    1    2    0    0 -0.26928659321E-02  0.21756737455E-01 -0.44040150323E-02  0.50000500000E+01  0.50000000000E+01 0.  0.
</event>
<event>
 4    1  0.5008549E-001  0.5000050E+01  0.7818608E-02  0.2136455E+00
        -11   -1    0    0    0    0  0.00000000000E+00  0.00000000000E+00  0.50000499739E+01  0.50000500000E+01  0.51100000000E-03 0.  1.
         11   -1    0    0    0    0 -0.00000000000E+00 -0.00000000000E+00 -0.50000499739E+01  0.50000500000E+01  0.51100000000E-03 0. -1.
     100001    1    1    2    0    0 -0.19499830931E-01  0.84131766711E-02 -0.69983963847E-02  0.50000500000E+01  0.50000000000E+01 0.  0.
     100001    1    1    2    0    0  0.19499830931E-01 -0.84131766711E-02  0.69983963847E-02  0.50000500000E+01  0.50000000000E+01 0.  1.
</event>
<event>
 4    1  0.5008549E-001  0.5000050E+01  0.7818608E-02  0.2136455E+00
        -11   -1    0    0    0    0  0.00000000000E+00  0.00000000000E+00  0.50000499739E+01  0.50000500000E+01  0.51100000000E-03 0.  1.
         11   -1    0    0    0    0 -0.00000000000E+00 -0.00000000000E+00 -0.50000499739E+01  0.50000500000E+01  0.51100000000E-03 0. -1.
     100001    1    1    2    0    0  0.24901804943E-02 -0.19456310153E-01  0.10735618115E-01  0.50000500000E+01  0.50000000000E+01 0.  1.
     100001    1    1    2    0    0 -0.24901804943E-02  0.19456310153E-01 -0.10735618115E-01  0.50000500000E+01  0.50000000000E+01 0. -1.
</event>
<event>
 4    1  0.5008549E-001  0.5000050E+01  0.7818608E-02  0.2136455E+00
        -11   -1    0    0    0    0  0.00000000000E+00  0.00000000000E+00  0.50000499739E+01  0.50000500000E+01  0.51100000000E-03 0. -1.
         11   -1    0    0    0    0 -0.00000000000E+00 -0.00000000000E+00 -0.50000499739E+01  0.50000500000E+01  0.51100000000E-03 0.  1.
     100001    1    1    2    0    0 -0.17744466641E-01  0.10291087483E-01  0.89011191450E-02  0.50000500000E+01  0.50000000000E+01 0.  1.
     100001    1    1    2    0    0  0.17744466641E-01 -0.10291087483E-01 -0.89011191450E-02  0.50000500000E+01  0.50000000000E+01 0. -1.
</event>
<event>
 4    1  0.5008549E-001  0.5000050E+01  0.7818608E-02  0.2136455E+00
        -11   -1    0    0    0    0  0.00000000000E+00  0.00000000000E+00  0.50000499739E+01  0.50000500000E+01  0.51100000000E-03 0.  1.
         11   -1    0    0    0    0 -0.00000000000E+00 -0.00000000000E+00 -0.50000499739E+01  0.50000500000E+01  0.51100000000E-03 0. -1.
     100001    1    1    2    0    0  0.10329319799E-01 -0.19300637366E-01 -0.45599396657E-02  0.50000500000E+01  0.50000000000E+01 0. -1.
     100001    1    1    2    0    0 -0.10329319799E-01  0.19300637366E-01  0.45599396657E-02  0.50000500000E+01  0.50000000000E+01 0.  0.
</event>
<event>
 4    1  0.5008549E-001  0.5000050E+01  0.7818608E-02  0.2136455E+00
        -11   -1    0    0    0    0  0.00000000000E+00  0.00000000000E+00  0.50000499739E+01  0.50000500000E+01  0.51100000000E-03 0.  1.
         11   -1    0    0    0    0 -0.00000000000E+00 -0.00000000000E+00 -0.50000499739E+01  0.50000500000E+01  0.51100000000E-03 0. -1.
     100001    1    1    2    0    0 -0.19384634823E-01 -0.57202292615E-02 -0.95664732244E-02  0.50000500000E+01  0.50000000000E+01 0. -1.
     100001    1    1    2    0    0  0.19384634823E-01  0.57202292615E-02  0.95664732244E-02  0.50000500000E+01  0.50000000000E+01 0. -1.
</event>
<event>
 4    1  0.5008549E-001  0.5000050E+01  0.7818608E-02  0.2136455E+00
        -11   -1    0    0    0    0  0.00000000000E+00  0.00000000000E+00  0.50000499739E+01  0.50000500000E+01  0.51100000000E-03 0. -1.
         11   -1    0    0    0    0 -0.00000000000E+00 -0.00000000000E+00 -0.50000499739E+01  0.50000500000E+01  0.51100000000E-03 0.  1.
     100001    1    1    2    0    0 -0.21049535986E-01 -0.52627383087E-02  0.54058413111E-02  0.50000500000E+01  0.50000000000E+01 0.  1.
     100001    1    1    2    0    0  0.21049535986E-01  0.52627383087E-02 -0.54058413111E-02  0.50000500000E+01  0.50000000000E+01 0.  0.
</event>
<event>
 4    1  0.5008549E-001  0.5000050E+01  0.7818608E-02  0.2136455E+00
        -11   -1    0    0    0    0  0.00000000000E+00  0.00000000000E+00  0.50000499739E+01  0.50000500000E+01  0.51100000000E-03 0.  1.
         11   -1    0    0    0    0 -0.00000000000E+00 -0.00000000000E+00 -0.50000499739E+01  0.50000500000E+01  0.51100000000E-03 0. -1.
     100001    1    1    2    0    0 -0.16954998236E-01 -0.11744421076E-01  0.86370775386E-02  0.50000500000E+01  0.50000000000E+01 0.  0.
     100001    1    1    2    0    0  0.16954998236E-01  0.11744421076E-01 -0.86370775386E-02  0.50000500000E+01  0.50000000000E+01 0.  1.
</event>
<event>
 4    1  0.5008549E-001  0.5000050E+01  0.7818608E-02  0.2136455E+00
        -11   -1    0    0    0    0  0.00000000000E+00  0.00000000000E+00  0.50000499739E+01  0.50000500000E+01  0.51100000000E-03 0.  1.
         11   -1    0    0    0    0 -0.00000000000E+00 -0.00000000000E+00 -0.50000499739E+01  0.50000500000E+01  0.51100000000E-03 0. -1.
     100001    1    1    2    0    0 -0.17700186768E-01  0.13625670313E-01  0.10232286580E-02  0.50000500000E+01  0.50000000000E+01 0.  0.
     100001    1    1    2    0    0  0.17700186768E-01 -0.13625670313E-01 -0.10232286580E-02  0.50000500000E+01  0.50000000000E+01 0.  1.
</event>
<event>
 4    1  0.5008549E-001  0.5000050E+01  0.7818608E-02  0.2136455E+00
        -11   -1    0    0    0    0  0.00000000000E+00  0.00000000000E+00  0.50000499739E+01  0.50000500000E+01  0.51100000000E-03 0.  1.
         11   -1    0    0    0    0 -0.00000000000E+00 -0.00000000000E+00 -0.50000499739E+01  0.50000500000E+01  0.51100000000E-03 0. -1.
     100001    1    1    2    0    0  0.22282769669E-01 -0.11930661656E-02  0.14343182987E-02  0.50000500000E+01  0.50000000000E+01 0. -1.
     100001    1    1    2    0    0 -0.22282769669E-01  0.11930661656E-02 -0.14343182987E-02  0.50000500000E+01  0.50000000000E+01 0.  0.
</event>
<event>
 4    1  0.5008549E-001  0.5000050E+01  0.7818608E-02  0.2136455E+00
        -11   -1    0    0    0    0  0.00000000000E+00  0.00000000000E+00  0.50000499739E+01  0.50000500000E+01  0.51100000000E-03 0.  1.
         11   -1    0    0    0    0 -0.00000000000E+00 -0.00000000000E+00 -0.50000499739E+01  0.50000500000E+01  0.51100000000E-03 0. -1.
     100001    1    1    2    0    0  0.14409123213E-01  0.17095486479E-01 -0.35215089726E-03  0.50000500000E+01  0.50000000000E+01 0.  0.
     100001    1    1    2    0    0 -0.14409123213E-01 -0.17095486479E-01  0.35215089726E-03  0.50000500000E+01  0.50000000000E+01 0.  1.
</event>
<event>
 4    1  0.5008549E-001  0.5000050E+01  0.7818608E-02  0.2136455E+00
        -11   -1    0    0    0    0  0.00000000000E+00  0.00000000000E+00  0.50000499739E+01  0.50000500000E+01  0.51100000000E-03 0. -1.
         11   -1    0    0    0    0 -0.00000000000E+00 -0.00000000000E+00 -0.50000499739E+01  0.50000500000E+01  0.51100000000E-03 0.  1.
     100001    1    1    2    0    0  0.54426806776E-02 -0.37297120853E-02  0.21365134561E-01  0.50000500000E+01  0.50000000000E+01 0. -1.
     100001    1    1    2    0    0 -0.54426806776E-02  0.37297120853E-02 -0.21365134561E-01  0.50000500000E+01  0.50000000000E+01 0.  0.
</event>
<event>
 4    1  0.5008549E-001  0.5000050E+01  0.7818608E-02  0.2136455E+00
        -11   -1    0    0    0    0  0.00000000000E+00  0.00000000000E+00  0.50000499739E+01  0.50000500000E+01  0.51100000000E-03 0.  1.
         11   -1    0    0    0    0 -0.00000000000E+00 -0.00000000000E+00 -0.50000499739E+01  0.50000500000E+01  0.51100000000E-03 0. -1.
     100001    1    1    2    0    0 -0.16186841847E-01  0.12284788594E-01  0.93312710942E-02  0.50000500000E+01  0.50000000000E+01 0.  1.
     100001    1    1    2    0    0  0.16186841847E-01 -0.12284788594E-01 -0.93312710942E-02  0.50000500000E+01  0.50000000000E+01 0. -1.
</event>
<event>
 4    1  0.5008549E-001  0.5000050E+01  0.7818608E-02  0.2136455E+00
        -11   -1    0    0    0    0  0.00000000000E+00  0.00000000000E+00  0.50000499739E+01  0.50000500000E+01  0.51100000000E-03 0.  1.
         11   -1    0    0    0    0 -0.00000000000E+00 -0.00000000000E+00 -0.50000499739E+01  0.50000500000E+01  0.51100000000E-03 0. -1.
     100001    1    1    2    0    0  0.13756838914E-02 -0.21414488980E-01  0.62872613714E-02  0.50000500000E+01  0.50000000000E+01 0. -1.
     100001    1    1    2    0    0 -0.13756838914E-02  0.21414488980E-01 -0.62872613714E-02  0.50000500000E+01  0.50000000000E+01 0.  1.
</event>
<event>
 4    1  0.5008549E-001  0.5000050E+01  0.7818608E-02  0.2136455E+00
        -11   -1    0    0    0    0  0.00000000000E+00  0.00000000000E+00  0.50000499739E+01  0.50000500000E+01  0.51100000000E-03 0. -1.
         11   -1    0    0    0    0 -0.00000000000E+00 -0.00000000000E+00 -0.50000499739E+01  0.50000500000E+01  0.51100000000E-03 0.  1.
     100001    1    1    2    0    0 -0.22120935604E-01 -0.29352714614E-02 -0.14320926806E-02  0.50000500000E+01  0.50000000000E+01 0.  1.
     100001    1    1    2    0    0  0.22120935604E-01  0.29352714614E-02  0.14320926806E-02  0.50000500000E+01  0.50000000000E+01 0.  0.
</event>
<event>
 4    1  0.5008549E-001  0.5000050E+01  0.7818608E-02  0.2136455E+00
        -11   -1    0    0    0    0  0.00000000000E+00  0.00000000000E+00  0.50000499739E+01  0.50000500000E+01  0.51100000000E-03 0. -1.
         11   -1    0    0    0    0 -0.00000000000E+00 -0.00000000000E+00 -0.50000499739E+01  0.50000500000E+01  0.51100000000E-03 0.  1.
     100001    1    1    2    0    0  0.10406977871E-01 -0.22156660995E-02 -0.19666929993E-01  0.50000500000E+01  0.50000000000E+01 0.  0.
     100001    1    1    2    0    0 -0.10406977871E-01  0.22156660995E-02  0.19666929993E-01  0.50000500000E+01  0.50000000000E+01 0.  0.
</event>
<event>
 4    1  0.5008549E-001  0.5000050E+01  0.7818608E-02  0.2136455E+00
        -11   -1    0    0    0    0  0.00000000000E+00  0.00000000000E+00  0.50000499739E+01  0.50000500000E+01  0.51100000000E-03 0. -1.
         11   -1    0    0    0    0 -0.00000000000E+00 -0.00000000000E+00 -0.50000499739E+01  0.50000500000E+01  0.51100000000E-03 0.  1.
     100001    1    1    2    0    0  0.21030155383E-01 -0.22369723950E-03  0.75950657739E-02  0.50000500000E+01  0.50000000000E+01 0.  1.
     100001    1    1    2    0    0 -0.21030155383E-01  0.22369723950E-03 -0.75950657739E-02  0.50000500000E+01  0.50000000000E+01 0.  0.
</event>
<event>
 4    1  0.5008549E-001  0.5000050E+01  0.7818608E-02  0.2136455E+00
        -11   -1    0    0    0    0  0.00000000000E+00  0.00000000000E+00  0.50000499739E+01  0.50000500000E+01  0.51100000000E-03 0.  1.
         11   -1    0    0    0    0 -0.00000000000E+00 -0.00000000000E+00 -0.50000499739E+01  0.50000500000E+01  0.51100000000E-03 0. -1.
     100001    1    1    2    0    0  0.19622416798E-01  0.10542690535E-01  0.19531859316E-02  0.50000500000E+01  0.50000000000E+01 0.  0.
     100001    1    1    2    0    0 -0.19622416798E-01 -0.10542690535E-01 -0.19531859316E-02  0.50000500000E+01  0.50000000000E+01 0. -1.
</event>
<event>
 4    1  0.5008549E-001  0.5000050E+01  0.7818608E-02  0.2136455E+00
        -11   -1    0    0    0    0  0.00000000000E+00  0.00000000000E+00  0.50000499739E+01  0.50000500000E+01  0.51100000000E-03 0.  1.
         11   -1    0    0    0    0 -0.00000000000E+00 -0.00000000000E+00 -0.50000499739E+01  0.50000500000E+01  0.51100000000E-03 0. -1.
     100001    1    1    2    0    0  0.71564199495E-02 -0.21035706681E-01 -0.25074285476E-02  0.50000500000E+01  0.50000000000E+01 0. -1.
     100001    1    1    2    0    0 -0.71564199495E-02  0.21035706681E-01  0.25074285476E-02  0.50000500000E+01  0.50000000000E+01 0.  1.
</event>
<event>
 4    1  0.5008549E-001  0.5000050E+01  0.7818608E-02  0.2136455E+00
        -11   -1    0    0    0    0  0.00000000000E+00  0.00000000000E+00  0.50000499739E+01  0.50000500000E+01  0.51100000000E-03 0.  1.
         11   -1    0    0    0    0 -0.00000000000E+00 -0.00000000000E+00 -0.50000499739E+01  0.50000500000E+01  0.51100000000E-03 0. -1.
     100001    1    1    2    0    0 -0.36383718089E-02  0.13986640442E-01 -0.17062785228E-01  0.50000500000E+01  0.50000000000E+01 0. -1.
     100001    1    1    2    0    0  0.36383718089E-02 -0.13986640442E-01  0.17062785228E-01  0.50000500000E+01  0.50000000000E+01 0.  1.
</event>
<event>
 4    1  0.5008549E-001  0.5000050E+01  0.7818608E-02  0.2136455E+00
        -11   -1    0    0    0    0  0.00000000000E+00  0.00000000000E+00  0.50000499739E+01  0.50000500000E+01  0.51100000000E-03 0.  1.
         11   -1    0    0    0    0 -0.00000000000E+00 -0.00000000000E+00 -0.50000499739E+01  0.50000500000E+01  0.51100000000E-03 0. -1.
     100001    1    1    2    0    0 -0.15809158149E-01 -0.91033242724E-02  0.12930680795E-01  0.50000500000E+01  0.50000000000E+01 0. -1.
     100001    1    1    2    0    0  0.15809158149E-01  0.91033242724E-02 -0.12930680795E-01  0.50000500000E+01  0.50000000000E+01 0. -1.
</event>
<event>
 4    1  0.5008549E-001  0.5000050E+01  0.7818608E-02  0.2136455E+00
        -11   -1    0    0    0    0  0.00000000000E+00  0.00000000000E+00  0.50000499739E+01  0.50000500000E+01  0.51100000000E-03 0.  1.
         11   -1    0    0    0    0 -0.00000000000E+00 -0.00000000000E+00 -0.50000499739E+01  0.50000500000E+01  0.51100000000E-03 0. -1.
     100001    1    1    2    0    0  0.18168565280E-01  0.10006100191E-01 -0.83536635464E-02  0.50000500000E+01  0.50000000000E+01 0.  0.
     100001    1    1    2    0    0 -0.18168565280E-01 -0.10006100191E-01  0.83536635464E-02  0.50000500000E+01  0.50000000000E+01 0.  0.
</event>
<event>
 4    1  0.5008549E-001  0.5000050E+01  0.7818608E-02  0.2136455E+00
        -11   -1    0    0    0    0  0.00000000000E+00  0.00000000000E+00  0.50000499739E+01  0.50000500000E+01  0.51100000000E-03 0. -1.
         11   -1    0    0    0    0 -0.00000000000E+00 -0.00000000000E+00 -0.50000499739E+01  0.50000500000E+01  0.51100000000E-03 0.  1.
     100001    1    1    2    0    0 -0.79660504997E-02 -0.15271510060E-01 -0.14259225783E-01  0.50000500000E+01  0.50000000000E+01 0. -1.
     100001    1    1    2    0    0  0.79660504997E-02  0.15271510060E-01  0.14259225783E-01  0.50000500000E+01  0.50000000000E+01 0.  1.
</event>
<event>
 4    1  0.5008549E-001  0.5000050E+01  0.7818608E-02  0.2136455E+00
        -11   -1    0    0    0    0  0.00000000000E+00  0.00000000000E+00  0.50000499739E+01  0.50000500000E+01  0.51100000000E-03 0. -1.
         11   -1    0    0    0    0 -0.00000000000E+00 -0.00000000000E+00 -0.50000499739E+01  0.50000500000E+01  0.51100000000E-03 0.  1.
     100001    1    1    2    0    0 -0.15998408667E-01 -0.61662795324E-02  0.14353759677E-01  0.50000500000E+01  0.50000000000E+01 0.  0.
     100001    1    1    2    0    0  0.15998408667E-01  0.61662795324E-02 -0.14353759677E-01  0.50000500000E+01  0.50000000000E+01 0.  0.
</event>
<event>
 4    1  0.5008549E-001  0.5000050E+01  0.7818608E-02  0.2136455E+00
        -11   -1    0    0    0    0  0.00000000000E+00  0.00000000000E+00  0.50000499739E+01  0.50000500000E+01  0.51100000000E-03 0. -1.
         11   -1    0    0    0    0 -0.00000000000E+00 -0.00000000000E+00 -0.50000499739E+01  0.50000500000E+01  0.51100000000E-03 0.  1.
     100001    1    1    2    0    0 -0.21152098694E-01  0.64224203593E-02 -0.33680465495E-02  0.50000500000E+01  0.50000000000E+01 0.  0.
     100001    1    1    2    0    0  0.21152098694E-01 -0.64224203593E-02  0.33680465495E-02  0.50000500000E+01  0.50000000000E+01 0. -1.
</event>
<event>
 4    1  0.5008549E-001  0.5000050E+01  0.7818608E-02  0.2136455E+00
        -11   -1    0    0    0    0  0.00000000000E+00  0.00000000000E+00  0.50000499739E+01  0.50000500000E+01  0.51100000000E-03 0. -1.
         11   -1    0    0    0    0 -0.00000000000E+00 -0.00000000000E+00 -0.50000499739E+01  0.50000500000E+01  0.51100000000E-03 0.  1.
     100001    1    1    2    0    0  0.12900145820E-01  0.16267325547E-01  0.83043878376E-02  0.50000500000E+01  0.50000000000E+01 0.  1.
     100001    1    1    2    0    0 -0.12900145820E-01 -0.16267325547E-01 -0.83043878376E-02  0.50000500000E+01  0.50000000000E+01 0. -1.
</event>
<event>
 4    1  0.5008549E-001  0.5000050E+01  0.7818608E-02  0.2136455E+00
        -11   -1    0    0    0    0  0.00000000000E+00  0.00000000000E+00  0.50000499739E+01  0.50000500000E+01  0.51100000000E-03 0. -1.
         11   -1    0    0    0    0 -0.00000000000E+00 -0.00000000000E+00 -0.50000499739E+01  0.50000500000E+01  0.51100000000E-03 0.  1.
     100001    1    1    2    0    0 -0.19781883074E-01 -0.88280771471E-02  0.55447863750E-02  0.50000500000E+01  0.50000000000E+01 0.  1.
     100001    1    1    2    0    0  0.19781883074E-01  0.88280771471E-02 -0.55447863750E-02  0.50000500000E+01  0.50000000000E+01 0. -1.
</event>
<event>
 4    1  0.5008549E-001  0.5000050E+01  0.7818608E-02  0.2136455E+00
        -11   -1    0    0    0    0  0.00000000000E+00  0.00000000000E+00  0.50000499739E+01  0.50000500000E+01  0.51100000000E-03 0. -1.
         11   -1    0    0    0    0 -0.00000000000E+00 -0.00000000000E+00 -0.50000499739E+01  0.50000500000E+01  0.51100000000E-03 0.  1.
     100001    1    1    2    0    0 -0.10993310140E-01  0.13661906319E-01 -0.13874507123E-01  0.50000500000E+01  0.50000000000E+01 0.  1.
     100001    1    1    2    0    0  0.10993310140E-01 -0.13661906319E-01  0.13874507123E-01  0.50000500000E+01  0.50000000000E+01 0. -1.
</event>
<event>
 4    1  0.5008549E-001  0.5000050E+01  0.7818608E-02  0.2136455E+00
        -11   -1    0    0    0    0  0.00000000000E+00  0.00000000000E+00  0.50000499739E+01  0.50000500000E+01  0.51100000000E-03 0.  1.
         11   -1    0    0    0    0 -0.00000000000E+00 -0.00000000000E+00 -0.50000499739E+01  0.50000500000E+01  0.51100000000E-03 0. -1.
     100001    1    1    2    0    0  0.87263736484E-02 -0.15490807859E-01 -0.13560522660E-01  0.50000500000E+01  0.50000000000E+01 0. -1.
     100001    1    1    2    0    0 -0.87263736484E-02  0.15490807859E-01  0.13560522660E-01  0.50000500000E+01  0.50000000000E+01 0.  1.
</event>
<event>
 4    1  0.5008549E-001  0.5000050E+01  0.7818608E-02  0.2136455E+00
        -11   -1    0    0    0    0  0.00000000000E+00  0.00000000000E+00  0.50000499739E+01  0.50000500000E+01  0.51100000000E-03 0.  1.
         11   -1    0    0    0    0 -0.00000000000E+00 -0.00000000000E+00 -0.50000499739E+01  0.50000500000E+01  0.51100000000E-03 0. -1.
     100001    1    1    2    0    0  0.17657418908E-01 -0.28546790697E-02 -0.13418974064E-01  0.50000500000E+01  0.50000000000E+01 0.  0.
     100001    1    1    2    0    0 -0.17657418908E-01  0.28546790697E-02  0.13418974064E-01  0.50000500000E+01  0.50000000000E+01 0.  0.
</event>
<event>
 4    1  0.5008549E-001  0.5000050E+01  0.7818608E-02  0.2136455E+00
        -11   -1    0    0    0    0  0.00000000000E+00  0.00000000000E+00  0.50000499739E+01  0.50000500000E+01  0.51100000000E-03 0. -1.
         11   -1    0    0    0    0 -0.00000000000E+00 -0.00000000000E+00 -0.50000499739E+01  0.50000500000E+01  0.51100000000E-03 0.  1.
     100001    1    1    2    0    0  0.15581581034E-01  0.88962780697E-02 -0.13344402159E-01  0.50000500000E+01  0.50000000000E+01 0.  0.
     100001    1    1    2    0    0 -0.15581581034E-01 -0.88962780697E-02  0.13344402159E-01  0.50000500000E+01  0.50000000000E+01 0.  0.
</event>
<event>
 4    1  0.5008549E-001  0.5000050E+01  0.7818608E-02  0.2136455E+00
        -11   -1    0    0    0    0  0.00000000000E+00  0.00000000000E+00  0.50000499739E+01  0.50000500000E+01  0.51100000000E-03 0.  1.
         11   -1    0    0    0    0 -0.00000000000E+00 -0.00000000000E+00 -0.50000499739E+01  0.50000500000E+01  0.51100000000E-03 0. -1.
     100001    1    1    2    0    0 -0.20269739602E-02 -0.23769780822E-02 -0.22141450986E-01  0.50000500000E+01  0.50000000000E+01 0. -1.
     100001    1    1    2    0    0  0.20269739602E-02  0.23769780822E-02  0.22141450986E-01  0.50000500000E+01  0.50000000000E+01 0.  0.
</event>
<event>
 4    1  0.5008549E-001  0.5000050E+01  0.7818608E-02  0.2136455E+00
        -11   -1    0    0    0    0  0.00000000000E+00  0.00000000000E+00  0.50000499739E+01  0.50000500000E+01  0.51100000000E-03 0. -1.
         11   -1    0    0    0    0 -0.00000000000E+00 -0.00000000000E+00 -0.50000499739E+01  0.50000500000E+01  0.51100000000E-03 0.  1.
     100001    1    1    2    0    0 -0.76565209303E-02  0.33862715121E-03 -0.21006320927E-01  0.50000500000E+01  0.50000000000E+01 0.  0.
     100001    1    1    2    0    0  0.76565209303E-02 -0.33862715121E-03  0.21006320927E-01  0.50000500000E+01  0.50000000000E+01 0.  0.
</event>
<event>
 4    1  0.5008549E-001  0.5000050E+01  0.7818608E-02  0.2136455E+00
        -11   -1    0    0    0    0  0.00000000000E+00  0.00000000000E+00  0.50000499739E+01  0.50000500000E+01  0.51100000000E-03 0.  1.
         11   -1    0    0    0    0 -0.00000000000E+00 -0.00000000000E+00 -0.50000499739E+01  0.50000500000E+01  0.51100000000E-03 0. -1.
     100001    1    1    2    0    0 -0.79333606722E-02 -0.29644276199E-04 -0.20906061553E-01  0.50000500000E+01  0.50000000000E+01 0.  1.
     100001    1    1    2    0    0  0.79333606722E-02  0.29644276199E-04  0.20906061553E-01  0.50000500000E+01  0.50000000000E+01 0.  1.
</event>
<event>
 4    1  0.5008549E-001  0.5000050E+01  0.7818608E-02  0.2136455E+00
        -11   -1    0    0    0    0  0.00000000000E+00  0.00000000000E+00  0.50000499739E+01  0.50000500000E+01  0.51100000000E-03 0.  1.
         11   -1    0    0    0    0 -0.00000000000E+00 -0.00000000000E+00 -0.50000499739E+01  0.50000500000E+01  0.51100000000E-03 0. -1.
     100001    1    1    2    0    0 -0.10196164391E-01 -0.14383792924E-01 -0.13753080849E-01  0.50000500000E+01  0.50000000000E+01 0.  1.
     100001    1    1    2    0    0  0.10196164391E-01  0.14383792924E-01  0.13753080849E-01  0.50000500000E+01  0.50000000000E+01 0.  1.
</event>
<event>
 4    1  0.5008549E-001  0.5000050E+01  0.7818608E-02  0.2136455E+00
        -11   -1    0    0    0    0  0.00000000000E+00  0.00000000000E+00  0.50000499739E+01  0.50000500000E+01  0.51100000000E-03 0. -1.
         11   -1    0    0    0    0 -0.00000000000E+00 -0.00000000000E+00 -0.50000499739E+01  0.50000500000E+01  0.51100000000E-03 0.  1.
     100001    1    1    2    0    0  0.65408766198E-02  0.18567709047E-01  0.10604697723E-01  0.50000500000E+01  0.50000000000E+01 0.  1.
     100001    1    1    2    0    0 -0.65408766198E-02 -0.18567709047E-01 -0.10604697723E-01  0.50000500000E+01  0.50000000000E+01 0.  0.
</event>
<event>
 4    1  0.5008549E-001  0.5000050E+01  0.7818608E-02  0.2136455E+00
        -11   -1    0    0    0    0  0.00000000000E+00  0.00000000000E+00  0.50000499739E+01  0.50000500000E+01  0.51100000000E-03 0. -1.
         11   -1    0    0    0    0 -0.00000000000E+00 -0.00000000000E+00 -0.50000499739E+01  0.50000500000E+01  0.51100000000E-03 0.  1.
     100001    1    1    2    0    0 -0.13334665579E-01  0.47874275321E-02  0.17299414196E-01  0.50000500000E+01  0.50000000000E+01 0.  0.
     100001    1    1    2    0    0  0.13334665579E-01 -0.47874275321E-02 -0.17299414196E-01  0.50000500000E+01  0.50000000000E+01 0.  1.
</event>
<event>
 4    1  0.5008549E-001  0.5000050E+01  0.7818608E-02  0.2136455E+00
        -11   -1    0    0    0    0  0.00000000000E+00  0.00000000000E+00  0.50000499739E+01  0.50000500000E+01  0.51100000000E-03 0.  1.
         11   -1    0    0    0    0 -0.00000000000E+00 -0.00000000000E+00 -0.50000499739E+01  0.50000500000E+01  0.51100000000E-03 0. -1.
     100001    1    1    2    0    0 -0.17223326412E-01  0.14125329210E-01 -0.19582139875E-02  0.50000500000E+01  0.50000000000E+01 0.  1.
     100001    1    1    2    0    0  0.17223326412E-01 -0.14125329210E-01  0.19582139875E-02  0.50000500000E+01  0.50000000000E+01 0.  0.
</event>
<event>
 4    1  0.5008549E-001  0.5000050E+01  0.7818608E-02  0.2136455E+00
        -11   -1    0    0    0    0  0.00000000000E+00  0.00000000000E+00  0.50000499739E+01  0.50000500000E+01  0.51100000000E-03 0.  1.
         11   -1    0    0    0    0 -0.00000000000E+00 -0.00000000000E+00 -0.50000499739E+01  0.50000500000E+01  0.51100000000E-03 0. -1.
     100001    1    1    2    0    0  0.72775215165E-03  0.21756469763E-01  0.51116435959E-02  0.50000500000E+01  0.50000000000E+01 0.  1.
     100001    1    1    2    0    0 -0.72775215165E-03 -0.21756469763E-01 -0.51116435959E-02  0.50000500000E+01  0.50000000000E+01 0. -1.
</event>
<event>
 4    1  0.5008549E-001  0.5000050E+01  0.7818608E-02  0.2136455E+00
        -11   -1    0    0    0    0  0.00000000000E+00  0.00000000000E+00  0.50000499739E+01  0.50000500000E+01  0.51100000000E-03 0.  1.
         11   -1    0    0    0    0 -0.00000000000E+00 -0.00000000000E+00 -0.50000499739E+01  0.50000500000E+01  0.51100000000E-03 0. -1.
     100001    1    1    2    0    0 -0.89990220753E-02  0.96590682603E-02  0.18047783854E-01  0.50000500000E+01  0.50000000000E+01 0.  1.
     100001    1    1    2    0    0  0.89990220753E-02 -0.96590682603E-02 -0.18047783854E-01  0.50000500000E+01  0.50000000000E+01 0. -1.
</event>
<event>
 4    1  0.5008549E-001  0.5000050E+01  0.7818608E-02  0.2136455E+00
        -11   -1    0    0    0    0  0.00000000000E+00  0.00000000000E+00  0.50000499739E+01  0.50000500000E+01  0.51100000000E-03 0.  1.
         11   -1    0    0    0    0 -0.00000000000E+00 -0.00000000000E+00 -0.50000499739E+01  0.50000500000E+01  0.51100000000E-03 0. -1.
     100001    1    1    2    0    0 -0.24284269460E-02 -0.12653233059E-01  0.18275692482E-01  0.50000500000E+01  0.50000000000E+01 0.  0.
     100001    1    1    2    0    0  0.24284269460E-02  0.12653233059E-01 -0.18275692482E-01  0.50000500000E+01  0.50000000000E+01 0. -1.
</event>
<event>
 4    1  0.5008549E-001  0.5000050E+01  0.7818608E-02  0.2136455E+00
        -11   -1    0    0    0    0  0.00000000000E+00  0.00000000000E+00  0.50000499739E+01  0.50000500000E+01  0.51100000000E-03 0.  1.
         11   -1    0    0    0    0 -0.00000000000E+00 -0.00000000000E+00 -0.50000499739E+01  0.50000500000E+01  0.51100000000E-03 0. -1.
     100001    1    1    2    0    0  0.59122200021E-02  0.20116782105E-01 -0.77693778638E-02  0.50000500000E+01  0.50000000000E+01 0.  1.
     100001    1    1    2    0    0 -0.59122200021E-02 -0.20116782105E-01  0.77693778638E-02  0.50000500000E+01  0.50000000000E+01 0.  0.
</event>
<event>
 4    1  0.5008549E-001  0.5000050E+01  0.7818608E-02  0.2136455E+00
        -11   -1    0    0    0    0  0.00000000000E+00  0.00000000000E+00  0.50000499739E+01  0.50000500000E+01  0.51100000000E-03 0.  1.
         11   -1    0    0    0    0 -0.00000000000E+00 -0.00000000000E+00 -0.50000499739E+01  0.50000500000E+01  0.51100000000E-03 0. -1.
     100001    1    1    2    0    0 -0.12716348066E-01 -0.37751689527E-02 -0.18001252491E-01  0.50000500000E+01  0.50000000000E+01 0.  0.
     100001    1    1    2    0    0  0.12716348066E-01  0.37751689527E-02  0.18001252491E-01  0.50000500000E+01  0.50000000000E+01 0.  1.
</event>
<event>
 4    1  0.5008549E-001  0.5000050E+01  0.7818608E-02  0.2136455E+00
        -11   -1    0    0    0    0  0.00000000000E+00  0.00000000000E+00  0.50000499739E+01  0.50000500000E+01  0.51100000000E-03 0. -1.
         11   -1    0    0    0    0 -0.00000000000E+00 -0.00000000000E+00 -0.50000499739E+01  0.50000500000E+01  0.51100000000E-03 0.  1.
     100001    1    1    2    0    0  0.21478078398E-01 -0.33673219358E-02 -0.52302764089E-02  0.50000500000E+01  0.50000000000E+01 0. -1.
     100001    1    1    2    0    0 -0.21478078398E-01  0.33673219358E-02  0.52302764089E-02  0.50000500000E+01  0.50000000000E+01 0.  1.
</event>
<event>
 4    1  0.5008549E-001  0.5000050E+01  0.7818608E-02  0.2136455E+00
        -11   -1    0    0    0    0  0.00000000000E+00  0.00000000000E+00  0.50000499739E+01  0.50000500000E+01  0.51100000000E-03 0. -1.
         11   -1    0    0    0    0 -0.00000000000E+00 -0.00000000000E+00 -0.50000499739E+01  0.50000500000E+01  0.51100000000E-03 0.  1.
     100001    1    1    2    0    0 -0.16133342820E-01 -0.13894328867E-01 -0.68312059537E-02  0.50000500000E+01  0.50000000000E+01 0.  1.
     100001    1    1    2    0    0  0.16133342820E-01  0.13894328867E-01  0.68312059537E-02  0.50000500000E+01  0.50000000000E+01 0. -1.
</event>
<event>
 4    1  0.5008549E-001  0.5000050E+01  0.7818608E-02  0.2136455E+00
        -11   -1    0    0    0    0  0.00000000000E+00  0.00000000000E+00  0.50000499739E+01  0.50000500000E+01  0.51100000000E-03 0. -1.
         11   -1    0    0    0    0 -0.00000000000E+00 -0.00000000000E+00 -0.50000499739E+01  0.50000500000E+01  0.51100000000E-03 0.  1.
     100001    1    1    2    0    0 -0.14890947852E-01 -0.52878117924E-03 -0.16672809077E-01  0.50000500000E+01  0.50000000000E+01 0.  1.
     100001    1    1    2    0    0  0.14890947852E-01  0.52878117924E-03  0.16672809077E-01  0.50000500000E+01  0.50000000000E+01 0. -1.
</event>
<event>
 4    1  0.5008549E-001  0.5000050E+01  0.7818608E-02  0.2136455E+00
        -11   -1    0    0    0    0  0.00000000000E+00  0.00000000000E+00  0.50000499739E+01  0.50000500000E+01  0.51100000000E-03 0.  1.
         11   -1    0    0    0    0 -0.00000000000E+00 -0.00000000000E+00 -0.50000499739E+01  0.50000500000E+01  0.51100000000E-03 0. -1.
     100001    1    1    2    0    0  0.94568004958E-02 -0.19898267674E-01  0.38249664011E-02  0.50000500000E+01  0.50000000000E+01 0.  1.
     100001    1    1    2    0    0 -0.94568004958E-02  0.19898267674E-01 -0.38249664011E-02  0.50000500000E+01  0.50000000000E+01 0. -1.
</event>
<event>
 4    1  0.5008549E-001  0.5000050E+01  0.7818608E-02  0.2136455E+00
        -11   -1    0    0    0    0  0.00000000000E+00  0.00000000000E+00  0.50000499739E+01  0.50000500000E+01  0.51100000000E-03 0. -1.
         11   -1    0    0    0    0 -0.00000000000E+00 -0.00000000000E+00 -0.50000499739E+01  0.50000500000E+01  0.51100000000E-03 0.  1.
     100001    1    1    2    0    0  0.11422842480E-01 -0.18607006105E-01  0.48270584731E-02  0.50000500000E+01  0.50000000000E+01 0. -1.
     100001    1    1    2    0    0 -0.11422842480E-01  0.18607006105E-01 -0.48270584731E-02  0.50000500000E+01  0.50000000000E+01 0.  1.
</event>
<event>
 4    1  0.5008549E-001  0.5000050E+01  0.7818608E-02  0.2136455E+00
        -11   -1    0    0    0    0  0.00000000000E+00  0.00000000000E+00  0.50000499739E+01  0.50000500000E+01  0.51100000000E-03 0. -1.
         11   -1    0    0    0    0 -0.00000000000E+00 -0.00000000000E+00 -0.50000499739E+01  0.50000500000E+01  0.51100000000E-03 0.  1.
     100001    1    1    2    0    0 -0.33037738442E-02  0.22080294647E-01  0.12442534641E-02  0.50000500000E+01  0.50000000000E+01 0. -1.
     100001    1    1    2    0    0  0.33037738442E-02 -0.22080294647E-01 -0.12442534641E-02  0.50000500000E+01  0.50000000000E+01 0.  0.
</event>
<event>
 4    1  0.5008549E-001  0.5000050E+01  0.7818608E-02  0.2136455E+00
        -11   -1    0    0    0    0  0.00000000000E+00  0.00000000000E+00  0.50000499739E+01  0.50000500000E+01  0.51100000000E-03 0.  1.
         11   -1    0    0    0    0 -0.00000000000E+00 -0.00000000000E+00 -0.50000499739E+01  0.50000500000E+01  0.51100000000E-03 0. -1.
     100001    1    1    2    0    0  0.21629851902E-01  0.54550318406E-03  0.56439731551E-02  0.50000500000E+01  0.50000000000E+01 0.  0.
     100001    1    1    2    0    0 -0.21629851902E-01 -0.54550318406E-03 -0.56439731551E-02  0.50000500000E+01  0.50000000000E+01 0.  1.
</event>
<event>
 4    1  0.5008549E-001  0.5000050E+01  0.7818608E-02  0.2136455E+00
        -11   -1    0    0    0    0  0.00000000000E+00  0.00000000000E+00  0.50000499739E+01  0.50000500000E+01  0.51100000000E-03 0. -1.
         11   -1    0    0    0    0 -0.00000000000E+00 -0.00000000000E+00 -0.50000499739E+01  0.50000500000E+01  0.51100000000E-03 0.  1.
     100001    1    1    2    0    0  0.26677689142E-02 -0.52212553527E-02  0.21578322492E-01  0.50000500000E+01  0.50000000000E+01 0. -1.
     100001    1    1    2    0    0 -0.26677689142E-02  0.52212553527E-02 -0.21578322492E-01  0.50000500000E+01  0.50000000000E+01 0.  1.
</event>
<event>
 4    1  0.5008549E-001  0.5000050E+01  0.7818608E-02  0.2136455E+00
        -11   -1    0    0    0    0  0.00000000000E+00  0.00000000000E+00  0.50000499739E+01  0.50000500000E+01  0.51100000000E-03 0. -1.
         11   -1    0    0    0    0 -0.00000000000E+00 -0.00000000000E+00 -0.50000499739E+01  0.50000500000E+01  0.51100000000E-03 0.  1.
     100001    1    1    2    0    0 -0.10284327849E-01  0.15614407450E-01  0.12264802512E-01  0.50000500000E+01  0.50000000000E+01 0.  0.
     100001    1    1    2    0    0  0.10284327849E-01 -0.15614407450E-01 -0.12264802512E-01  0.50000500000E+01  0.50000000000E+01 0. -1.
</event>
<event>
 4    1  0.5008549E-001  0.5000050E+01  0.7818608E-02  0.2136455E+00
        -11   -1    0    0    0    0  0.00000000000E+00  0.00000000000E+00  0.50000499739E+01  0.50000500000E+01  0.51100000000E-03 0. -1.
         11   -1    0    0    0    0 -0.00000000000E+00 -0.00000000000E+00 -0.50000499739E+01  0.50000500000E+01  0.51100000000E-03 0.  1.
     100001    1    1    2    0    0 -0.12729012372E-01 -0.36929762273E-02  0.18009349534E-01  0.50000500000E+01  0.50000000000E+01 0.  0.
     100001    1    1    2    0    0  0.12729012372E-01  0.36929762273E-02 -0.18009349534E-01  0.50000500000E+01  0.50000000000E+01 0.  0.
</event>
<event>
 4    1  0.5008549E-001  0.5000050E+01  0.7818608E-02  0.2136455E+00
        -11   -1    0    0    0    0  0.00000000000E+00  0.00000000000E+00  0.50000499739E+01  0.50000500000E+01  0.51100000000E-03 0.  1.
         11   -1    0    0    0    0 -0.00000000000E+00 -0.00000000000E+00 -0.50000499739E+01  0.50000500000E+01  0.51100000000E-03 0. -1.
     100001    1    1    2    0    0  0.21014178300E-01 -0.55113140372E-02  0.52945470032E-02  0.50000500000E+01  0.50000000000E+01 0.  1.
     100001    1    1    2    0    0 -0.21014178300E-01  0.55113140372E-02 -0.52945470032E-02  0.50000500000E+01  0.50000000000E+01 0. -1.
</event>
<event>
 4    1  0.5008549E-001  0.5000050E+01  0.7818608E-02  0.2136455E+00
        -11   -1    0    0    0    0  0.00000000000E+00  0.00000000000E+00  0.50000499739E+01  0.50000500000E+01  0.51100000000E-03 0. -1.
         11   -1    0    0    0    0 -0.00000000000E+00 -0.00000000000E+00 -0.50000499739E+01  0.50000500000E+01  0.51100000000E-03 0.  1.
     100001    1    1    2    0    0 -0.14397659032E-01 -0.53776958133E-02  0.16241622521E-01  0.50000500000E+01  0.50000000000E+01 0.  1.
     100001    1    1    2    0    0  0.14397659032E-01  0.53776958133E-02 -0.16241622521E-01  0.50000500000E+01  0.50000000000E+01 0.  0.
</event>
<event>
 4    1  0.5008549E-001  0.5000050E+01  0.7818608E-02  0.2136455E+00
        -11   -1    0    0    0    0  0.00000000000E+00  0.00000000000E+00  0.50000499739E+01  0.50000500000E+01  0.51100000000E-03 0.  1.
         11   -1    0    0    0    0 -0.00000000000E+00 -0.00000000000E+00 -0.50000499739E+01  0.50000500000E+01  0.51100000000E-03 0. -1.
     100001    1    1    2    0    0  0.12647156374E-01  0.12975316432E-01  0.13103171339E-01  0.50000500000E+01  0.50000000000E+01 0.  0.
     100001    1    1    2    0    0 -0.12647156374E-01 -0.12975316432E-01 -0.13103171339E-01  0.50000500000E+01  0.50000000000E+01 0.  1.
</event>
<event>
 4    1  0.5008549E-001  0.5000050E+01  0.7818608E-02  0.2136455E+00
        -11   -1    0    0    0    0  0.00000000000E+00  0.00000000000E+00  0.50000499739E+01  0.50000500000E+01  0.51100000000E-03 0.  1.
         11   -1    0    0    0    0 -0.00000000000E+00 -0.00000000000E+00 -0.50000499739E+01  0.50000500000E+01  0.51100000000E-03 0. -1.
     100001    1    1    2    0    0  0.17363301044E-01 -0.63752811212E-02 -0.12564794764E-01  0.50000500000E+01  0.50000000000E+01 0.  0.
     100001    1    1    2    0    0 -0.17363301044E-01  0.63752811212E-02  0.12564794764E-01  0.50000500000E+01  0.50000000000E+01 0.  0.
</event>
<event>
 4    1  0.5008549E-001  0.5000050E+01  0.7818608E-02  0.2136455E+00
        -11   -1    0    0    0    0  0.00000000000E+00  0.00000000000E+00  0.50000499739E+01  0.50000500000E+01  0.51100000000E-03 0. -1.
         11   -1    0    0    0    0 -0.00000000000E+00 -0.00000000000E+00 -0.50000499739E+01  0.50000500000E+01  0.51100000000E-03 0.  1.
     100001    1    1    2    0    0 -0.18799390843E-02  0.91470152946E-02  0.20317490993E-01  0.50000500000E+01  0.50000000000E+01 0.  1.
     100001    1    1    2    0    0  0.18799390843E-02 -0.91470152946E-02 -0.20317490993E-01  0.50000500000E+01  0.50000000000E+01 0.  1.
</event>
<event>
 4    1  0.5008549E-001  0.5000050E+01  0.7818608E-02  0.2136455E+00
        -11   -1    0    0    0    0  0.00000000000E+00  0.00000000000E+00  0.50000499739E+01  0.50000500000E+01  0.51100000000E-03 0. -1.
         11   -1    0    0    0    0 -0.00000000000E+00 -0.00000000000E+00 -0.50000499739E+01  0.50000500000E+01  0.51100000000E-03 0.  1.
     100001    1    1    2    0    0  0.14069446095E-01  0.14696843483E-01  0.92766361468E-02  0.50000500000E+01  0.50000000000E+01 0. -1.
     100001    1    1    2    0    0 -0.14069446095E-01 -0.14696843483E-01 -0.92766361468E-02  0.50000500000E+01  0.50000000000E+01 0.  1.
</event>
<event>
 4    1  0.5008549E-001  0.5000050E+01  0.7818608E-02  0.2136455E+00
        -11   -1    0    0    0    0  0.00000000000E+00  0.00000000000E+00  0.50000499739E+01  0.50000500000E+01  0.51100000000E-03 0.  1.
         11   -1    0    0    0    0 -0.00000000000E+00 -0.00000000000E+00 -0.50000499739E+01  0.50000500000E+01  0.51100000000E-03 0. -1.
     100001    1    1    2    0    0  0.11979673190E-01 -0.67212909406E-03 -0.18868973813E-01  0.50000500000E+01  0.50000000000E+01 0. -1.
     100001    1    1    2    0    0 -0.11979673190E-01  0.67212909406E-03  0.18868973813E-01  0.50000500000E+01  0.50000000000E+01 0.  1.
</event>
<event>
 4    1  0.5008549E-001  0.5000050E+01  0.7818608E-02  0.2136455E+00
        -11   -1    0    0    0    0  0.00000000000E+00  0.00000000000E+00  0.50000499739E+01  0.50000500000E+01  0.51100000000E-03 0. -1.
         11   -1    0    0    0    0 -0.00000000000E+00 -0.00000000000E+00 -0.50000499739E+01  0.50000500000E+01  0.51100000000E-03 0.  1.
     100001    1    1    2    0    0 -0.51941405656E-02  0.69951950563E-02 -0.20593461339E-01  0.50000500000E+01  0.50000000000E+01 0.  1.
     100001    1    1    2    0    0  0.51941405656E-02 -0.69951950563E-02  0.20593461339E-01  0.50000500000E+01  0.50000000000E+01 0.  0.
</event>
<event>
 4    1  0.5008549E-001  0.5000050E+01  0.7818608E-02  0.2136455E+00
        -11   -1    0    0    0    0  0.00000000000E+00  0.00000000000E+00  0.50000499739E+01  0.50000500000E+01  0.51100000000E-03 0.  1.
         11   -1    0    0    0    0 -0.00000000000E+00 -0.00000000000E+00 -0.50000499739E+01  0.50000500000E+01  0.51100000000E-03 0. -1.
     100001    1    1    2    0    0  0.18845748353E-01 -0.35215008455E-02  0.11508227526E-01  0.50000500000E+01  0.50000000000E+01 0.  1.
     100001    1    1    2    0    0 -0.18845748353E-01  0.35215008455E-02 -0.11508227526E-01  0.50000500000E+01  0.50000000000E+01 0. -1.
</event>
<event>
 4    1  0.5008549E-001  0.5000050E+01  0.7818608E-02  0.2136455E+00
        -11   -1    0    0    0    0  0.00000000000E+00  0.00000000000E+00  0.50000499739E+01  0.50000500000E+01  0.51100000000E-03 0.  1.
         11   -1    0    0    0    0 -0.00000000000E+00 -0.00000000000E+00 -0.50000499739E+01  0.50000500000E+01  0.51100000000E-03 0. -1.
     100001    1    1    2    0    0  0.77720906301E-02  0.20276058989E-01  0.53365287496E-02  0.50000500000E+01  0.50000000000E+01 0.  1.
     100001    1    1    2    0    0 -0.77720906301E-02 -0.20276058989E-01 -0.53365287496E-02  0.50000500000E+01  0.50000000000E+01 0. -1.
</event>
<event>
 4    1  0.5008549E-001  0.5000050E+01  0.7818608E-02  0.2136455E+00
        -11   -1    0    0    0    0  0.00000000000E+00  0.00000000000E+00  0.50000499739E+01  0.50000500000E+01  0.51100000000E-03 0. -1.
         11   -1    0    0    0    0 -0.00000000000E+00 -0.00000000000E+00 -0.50000499739E+01  0.50000500000E+01  0.51100000000E-03 0.  1.
     100001    1    1    2    0    0 -0.11271726688E-01  0.15658583108E-02 -0.19248344480E-01  0.50000500000E+01  0.50000000000E+01 0.  1.
     100001    1    1    2    0    0  0.11271726688E-01 -0.15658583108E-02  0.19248344480E-01  0.50000500000E+01  0.50000000000E+01 0.  0.
</event>
<event>
 4    1  0.5008549E-001  0.5000050E+01  0.7818608E-02  0.2136455E+00
        -11   -1    0    0    0    0  0.00000000000E+00  0.00000000000E+00  0.50000499739E+01  0.50000500000E+01  0.51100000000E-03 0. -1.
         11   -1    0    0    0    0 -0.00000000000E+00 -0.00000000000E+00 -0.50000499739E+01  0.50000500000E+01  0.51100000000E-03 0.  1.
     100001    1    1    2    0    0  0.21619616659E-01  0.49208375749E-02  0.28948286756E-02  0.50000500000E+01  0.50000000000E+01 0. -1.
     100001    1    1    2    0    0 -0.21619616659E-01 -0.49208375749E-02 -0.28948286756E-02  0.50000500000E+01  0.50000000000E+01 0.  0.
</event>
<event>
 4    1  0.5008549E-001  0.5000050E+01  0.7818608E-02  0.2136455E+00
        -11   -1    0    0    0    0  0.00000000000E+00  0.00000000000E+00  0.50000499739E+01  0.50000500000E+01  0.51100000000E-03 0. -1.
         11   -1    0    0    0    0 -0.00000000000E+00 -0.00000000000E+00 -0.50000499739E+01  0.50000500000E+01  0.51100000000E-03 0.  1.
     100001    1    1    2    0    0 -0.20314618602E-01 -0.87994166225E-02 -0.31446841123E-02  0.50000500000E+01  0.50000000000E+01 0. -1.
     100001    1    1    2    0    0  0.20314618602E-01  0.87994166225E-02  0.31446841123E-02  0.50000500000E+01  0.50000000000E+01 0.  1.
</event>
<event>
 4    1  0.5008549E-001  0.5000050E+01  0.7818608E-02  0.2136455E+00
        -11   -1    0    0    0    0  0.00000000000E+00  0.00000000000E+00  0.50000499739E+01  0.50000500000E+01  0.51100000000E-03 0. -1.
         11   -1    0    0    0    0 -0.00000000000E+00 -0.00000000000E+00 -0.50000499739E+01  0.50000500000E+01  0.51100000000E-03 0.  1.
     100001    1    1    2    0    0 -0.19846825758E-01  0.75092194522E-02 -0.70510730078E-02  0.50000500000E+01  0.50000000000E+01 0.  0.
     100001    1    1    2    0    0  0.19846825758E-01 -0.75092194522E-02  0.70510730078E-02  0.50000500000E+01  0.50000000000E+01 0.  0.
</event>
<event>
 4    1  0.5008549E-001  0.5000050E+01  0.7818608E-02  0.2136455E+00
        -11   -1    0    0    0    0  0.00000000000E+00  0.00000000000E+00  0.50000499739E+01  0.50000500000E+01  0.51100000000E-03 0. -1.
         11   -1    0    0    0    0 -0.00000000000E+00 -0.00000000000E+00 -0.50000499739E+01  0.50000500000E+01  0.51100000000E-03 0.  1.
     100001    1    1    2    0    0 -0.48506829230E-02 -0.21428840643E-01 -0.41567010809E-02  0.50000500000E+01  0.50000000000E+01 0. -1.
     100001    1    1    2    0    0  0.48506829230E-02  0.21428840643E-01  0.41567010809E-02  0.50000500000E+01  0.50000000000E+01 0.  0.
</event>
<event>
 4    1  0.5008549E-001  0.5000050E+01  0.7818608E-02  0.2136455E+00
        -11   -1    0    0    0    0  0.00000000000E+00  0.00000000000E+00  0.50000499739E+01  0.50000500000E+01  0.51100000000E-03 0. -1.
         11   -1    0    0    0    0 -0.00000000000E+00 -0.00000000000E+00 -0.50000499739E+01  0.50000500000E+01  0.51100000000E-03 0.  1.
     100001    1    1    2    0    0 -0.50562685493E-02  0.83739709625E-03 -0.21765463801E-01  0.50000500000E+01  0.50000000000E+01 0.  0.
     100001    1    1    2    0    0  0.50562685493E-02 -0.83739709625E-03  0.21765463801E-01  0.50000500000E+01  0.50000000000E+01 0. -1.
</event>
<event>
 4    1  0.5008549E-001  0.5000050E+01  0.7818608E-02  0.2136455E+00
        -11   -1    0    0    0    0  0.00000000000E+00  0.00000000000E+00  0.50000499739E+01  0.50000500000E+01  0.51100000000E-03 0.  1.
         11   -1    0    0    0    0 -0.00000000000E+00 -0.00000000000E+00 -0.50000499739E+01  0.50000500000E+01  0.51100000000E-03 0. -1.
     100001    1    1    2    0    0  0.14582899705E-01 -0.83637686702E-02 -0.14744114413E-01  0.50000500000E+01  0.50000000000E+01 0.  0.
     100001    1    1    2    0    0 -0.14582899705E-01  0.83637686702E-02  0.14744114413E-01  0.50000500000E+01  0.50000000000E+01 0.  0.
</event>
<event>
 4    1  0.5008549E-001  0.5000050E+01  0.7818608E-02  0.2136455E+00
        -11   -1    0    0    0    0  0.00000000000E+00  0.00000000000E+00  0.50000499739E+01  0.50000500000E+01  0.51100000000E-03 0. -1.
         11   -1    0    0    0    0 -0.00000000000E+00 -0.00000000000E+00 -0.50000499739E+01  0.50000500000E+01  0.51100000000E-03 0.  1.
     100001    1    1    2    0    0 -0.52536144032E-02 -0.66264771453E-02 -0.20700044356E-01  0.50000500000E+01  0.50000000000E+01 0.  1.
     100001    1    1    2    0    0  0.52536144032E-02  0.66264771453E-02  0.20700044356E-01  0.50000500000E+01  0.50000000000E+01 0.  0.
</event>
<event>
 4    1  0.5008549E-001  0.5000050E+01  0.7818608E-02  0.2136455E+00
        -11   -1    0    0    0    0  0.00000000000E+00  0.00000000000E+00  0.50000499739E+01  0.50000500000E+01  0.51100000000E-03 0.  1.
         11   -1    0    0    0    0 -0.00000000000E+00 -0.00000000000E+00 -0.50000499739E+01  0.50000500000E+01  0.51100000000E-03 0. -1.
     100001    1    1    2    0    0  0.12285521771E-01  0.14529093193E-01 -0.11746229430E-01  0.50000500000E+01  0.50000000000E+01 0.  0.
     100001    1    1    2    0    0 -0.12285521771E-01 -0.14529093193E-01  0.11746229430E-01  0.50000500000E+01  0.50000000000E+01 0.  0.
</event>
<event>
 4    1  0.5008549E-001  0.5000050E+01  0.7818608E-02  0.2136455E+00
        -11   -1    0    0    0    0  0.00000000000E+00  0.00000000000E+00  0.50000499739E+01  0.50000500000E+01  0.51100000000E-03 0. -1.
         11   -1    0    0    0    0 -0.00000000000E+00 -0.00000000000E+00 -0.50000499739E+01  0.50000500000E+01  0.51100000000E-03 0.  1.
     100001    1    1    2    0    0 -0.33178430965E-02  0.22090842259E-01  0.99453782410E-03  0.50000500000E+01  0.50000000000E+01 0. -1.
     100001    1    1    2    0    0  0.33178430965E-02 -0.22090842259E-01 -0.99453782410E-03  0.50000500000E+01  0.50000000000E+01 0.  1.
</event>
<event>
 4    1  0.5008549E-001  0.5000050E+01  0.7818608E-02  0.2136455E+00
        -11   -1    0    0    0    0  0.00000000000E+00  0.00000000000E+00  0.50000499739E+01  0.50000500000E+01  0.51100000000E-03 0. -1.
         11   -1    0    0    0    0 -0.00000000000E+00 -0.00000000000E+00 -0.50000499739E+01  0.50000500000E+01  0.51100000000E-03 0.  1.
     100001    1    1    2    0    0 -0.21624995775E-02  0.65548784138E-02  0.21268748542E-01  0.50000500000E+01  0.50000000000E+01 0.  0.
     100001    1    1    2    0    0  0.21624995775E-02 -0.65548784138E-02 -0.21268748542E-01  0.50000500000E+01  0.50000000000E+01 0.  0.
</event>
<event>
 4    1  0.5008549E-001  0.5000050E+01  0.7818608E-02  0.2136455E+00
        -11   -1    0    0    0    0  0.00000000000E+00  0.00000000000E+00  0.50000499739E+01  0.50000500000E+01  0.51100000000E-03 0.  1.
         11   -1    0    0    0    0 -0.00000000000E+00 -0.00000000000E+00 -0.50000499739E+01  0.50000500000E+01  0.51100000000E-03 0. -1.
     100001    1    1    2    0    0  0.96222371260E-02 -0.92469778545E-02 -0.17941807413E-01  0.50000500000E+01  0.50000000000E+01 0. -1.
     100001    1    1    2    0    0 -0.96222371260E-02  0.92469778545E-02  0.17941807413E-01  0.50000500000E+01  0.50000000000E+01 0.  0.
</event>
<event>
 4    1  0.5008549E-001  0.5000050E+01  0.7818608E-02  0.2136455E+00
        -11   -1    0    0    0    0  0.00000000000E+00  0.00000000000E+00  0.50000499739E+01  0.50000500000E+01  0.51100000000E-03 0. -1.
         11   -1    0    0    0    0 -0.00000000000E+00 -0.00000000000E+00 -0.50000499739E+01  0.50000500000E+01  0.51100000000E-03 0.  1.
     100001    1    1    2    0    0 -0.91915842051E-02  0.13311424517E-01  0.15437721889E-01  0.50000500000E+01  0.50000000000E+01 0. -1.
     100001    1    1    2    0    0  0.91915842051E-02 -0.13311424517E-01 -0.15437721889E-01  0.50000500000E+01  0.50000000000E+01 0.  1.
</event>
<event>
 4    1  0.5008549E-001  0.5000050E+01  0.7818608E-02  0.2136455E+00
        -11   -1    0    0    0    0  0.00000000000E+00  0.00000000000E+00  0.50000499739E+01  0.50000500000E+01  0.51100000000E-03 0. -1.
         11   -1    0    0    0    0 -0.00000000000E+00 -0.00000000000E+00 -0.50000499739E+01  0.50000500000E+01  0.51100000000E-03 0.  1.
     100001    1    1    2    0    0  0.18310206365E-03  0.13359751927E-01 -0.17930030733E-01  0.50000500000E+01  0.50000000000E+01 0.  0.
     100001    1    1    2    0    0 -0.18310206365E-03 -0.13359751927E-01  0.17930030733E-01  0.50000500000E+01  0.50000000000E+01 0.  0.
</event>
<event>
 4    1  0.5008549E-001  0.5000050E+01  0.7818608E-02  0.2136455E+00
        -11   -1    0    0    0    0  0.00000000000E+00  0.00000000000E+00  0.50000499739E+01  0.50000500000E+01  0.51100000000E-03 0.  1.
         11   -1    0    0    0    0 -0.00000000000E+00 -0.00000000000E+00 -0.50000499739E+01  0.50000500000E+01  0.51100000000E-03 0. -1.
     100001    1    1    2    0    0  0.35385149401E-02  0.19504410172E-01 -0.10346951041E-01  0.50000500000E+01  0.50000000000E+01 0. -1.
     100001    1    1    2    0    0 -0.35385149401E-02 -0.19504410172E-01  0.10346951041E-01  0.50000500000E+01  0.50000000000E+01 0.  1.
</event>
<event>
 4    1  0.5008549E-001  0.5000050E+01  0.7818608E-02  0.2136455E+00
        -11   -1    0    0    0    0  0.00000000000E+00  0.00000000000E+00  0.50000499739E+01  0.50000500000E+01  0.51100000000E-03 0. -1.
         11   -1    0    0    0    0 -0.00000000000E+00 -0.00000000000E+00 -0.50000499739E+01  0.50000500000E+01  0.51100000000E-03 0.  1.
     100001    1    1    2    0    0  0.79354093890E-02  0.83378282821E-02 -0.19170612858E-01  0.50000500000E+01  0.50000000000E+01 0.  0.
     100001    1    1    2    0    0 -0.79354093890E-02 -0.83378282821E-02  0.19170612858E-01  0.50000500000E+01  0.50000000000E+01 0.  0.
</event>
<event>
 4    1  0.5008549E-001  0.5000050E+01  0.7818608E-02  0.2136455E+00
        -11   -1    0    0    0    0  0.00000000000E+00  0.00000000000E+00  0.50000499739E+01  0.50000500000E+01  0.51100000000E-03 0.  1.
         11   -1    0    0    0    0 -0.00000000000E+00 -0.00000000000E+00 -0.50000499739E+01  0.50000500000E+01  0.51100000000E-03 0. -1.
     100001    1    1    2    0    0  0.16812803226E-01  0.12919369347E-01 -0.71008480727E-02  0.50000500000E+01  0.50000000000E+01 0. -1.
     100001    1    1    2    0    0 -0.16812803226E-01 -0.12919369347E-01  0.71008480727E-02  0.50000500000E+01  0.50000000000E+01 0.  1.
</event>
<event>
 4    1  0.5008549E-001  0.5000050E+01  0.7818608E-02  0.2136455E+00
        -11   -1    0    0    0    0  0.00000000000E+00  0.00000000000E+00  0.50000499739E+01  0.50000500000E+01  0.51100000000E-03 0. -1.
         11   -1    0    0    0    0 -0.00000000000E+00 -0.00000000000E+00 -0.50000499739E+01  0.50000500000E+01  0.51100000000E-03 0.  1.
     100001    1    1    2    0    0 -0.75740219883E-02 -0.19385085594E-01 -0.81764997061E-02  0.50000500000E+01  0.50000000000E+01 0. -1.
     100001    1    1    2    0    0  0.75740219883E-02  0.19385085594E-01  0.81764997061E-02  0.50000500000E+01  0.50000000000E+01 0.  1.
</event>
<event>
 4    1  0.5008549E-001  0.5000050E+01  0.7818608E-02  0.2136455E+00
        -11   -1    0    0    0    0  0.00000000000E+00  0.00000000000E+00  0.50000499739E+01  0.50000500000E+01  0.51100000000E-03 0.  1.
         11   -1    0    0    0    0 -0.00000000000E+00 -0.00000000000E+00 -0.50000499739E+01  0.50000500000E+01  0.51100000000E-03 0. -1.
     100001    1    1    2    0    0  0.97909089888E-02 -0.11975789584E-01 -0.16146859293E-01  0.50000500000E+01  0.50000000000E+01 0.  0.
     100001    1    1    2    0    0 -0.97909089888E-02  0.11975789584E-01  0.16146859293E-01  0.50000500000E+01  0.50000000000E+01 0.  1.
</event>
<event>
 4    1  0.5008549E-001  0.5000050E+01  0.7818608E-02  0.2136455E+00
        -11   -1    0    0    0    0  0.00000000000E+00  0.00000000000E+00  0.50000499739E+01  0.50000500000E+01  0.51100000000E-03 0.  1.
         11   -1    0    0    0    0 -0.00000000000E+00 -0.00000000000E+00 -0.50000499739E+01  0.50000500000E+01  0.51100000000E-03 0. -1.
     100001    1    1    2    0    0  0.79358842125E-02  0.48485020733E-02 -0.20335099444E-01  0.50000500000E+01  0.50000000000E+01 0.  0.
     100001    1    1    2    0    0 -0.79358842125E-02 -0.48485020733E-02  0.20335099444E-01  0.50000500000E+01  0.50000000000E+01 0.  1.
</event>
<event>
 4    1  0.5008549E-001  0.5000050E+01  0.7818608E-02  0.2136455E+00
        -11   -1    0    0    0    0  0.00000000000E+00  0.00000000000E+00  0.50000499739E+01  0.50000500000E+01  0.51100000000E-03 0. -1.
         11   -1    0    0    0    0 -0.00000000000E+00 -0.00000000000E+00 -0.50000499739E+01  0.50000500000E+01  0.51100000000E-03 0.  1.
     100001    1    1    2    0    0 -0.13421732992E-01  0.15459303632E-01  0.89927478960E-02  0.50000500000E+01  0.50000000000E+01 0. -1.
     100001    1    1    2    0    0  0.13421732992E-01 -0.15459303632E-01 -0.89927478961E-02  0.50000500000E+01  0.50000000000E+01 0. -1.
</event>
<event>
 4    1  0.5008549E-001  0.5000050E+01  0.7818608E-02  0.2136455E+00
        -11   -1    0    0    0    0  0.00000000000E+00  0.00000000000E+00  0.50000499739E+01  0.50000500000E+01  0.51100000000E-03 0. -1.
         11   -1    0    0    0    0 -0.00000000000E+00 -0.00000000000E+00 -0.50000499739E+01  0.50000500000E+01  0.51100000000E-03 0.  1.
     100001    1    1    2    0    0 -0.17373548415E-01 -0.11750749223E-01 -0.77512713912E-02  0.50000500000E+01  0.50000000000E+01 0.  1.
     100001    1    1    2    0    0  0.17373548415E-01  0.11750749223E-01  0.77512713912E-02  0.50000500000E+01  0.50000000000E+01 0. -1.
</event>
<event>
 4    1  0.5008549E-001  0.5000050E+01  0.7818608E-02  0.2136455E+00
        -11   -1    0    0    0    0  0.00000000000E+00  0.00000000000E+00  0.50000499739E+01  0.50000500000E+01  0.51100000000E-03 0. -1.
         11   -1    0    0    0    0 -0.00000000000E+00 -0.00000000000E+00 -0.50000499739E+01  0.50000500000E+01  0.51100000000E-03 0.  1.
     100001    1    1    2    0    0  0.22335442509E-01  0.92074423194E-03  0.53173109887E-03  0.50000500000E+01  0.50000000000E+01 0. -1.
     100001    1    1    2    0    0 -0.22335442509E-01 -0.92074423194E-03 -0.53173109887E-03  0.50000500000E+01  0.50000000000E+01 0.  1.
</event>
<event>
 4    1  0.5008549E-001  0.5000050E+01  0.7818608E-02  0.2136455E+00
        -11   -1    0    0    0    0  0.00000000000E+00  0.00000000000E+00  0.50000499739E+01  0.50000500000E+01  0.51100000000E-03 0. -1.
         11   -1    0    0    0    0 -0.00000000000E+00 -0.00000000000E+00 -0.50000499739E+01  0.50000500000E+01  0.51100000000E-03 0.  1.
     100001    1    1    2    0    0 -0.14177216521E-01 -0.87980141420E-02  0.14886368895E-01  0.50000500000E+01  0.50000000000E+01 0.  0.
     100001    1    1    2    0    0  0.14177216521E-01  0.87980141420E-02 -0.14886368895E-01  0.50000500000E+01  0.50000000000E+01 0.  0.
</event>
<event>
 4    1  0.5008549E-001  0.5000050E+01  0.7818608E-02  0.2136455E+00
        -11   -1    0    0    0    0  0.00000000000E+00  0.00000000000E+00  0.50000499739E+01  0.50000500000E+01  0.51100000000E-03 0. -1.
         11   -1    0    0    0    0 -0.00000000000E+00 -0.00000000000E+00 -0.50000499739E+01  0.50000500000E+01  0.51100000000E-03 0.  1.
     100001    1    1    2    0    0  0.59323868152E-03 -0.22351910172E-01 -0.20659018834E-03  0.50000500000E+01  0.50000000000E+01 0. -1.
     100001    1    1    2    0    0 -0.59323868152E-03  0.22351910172E-01  0.20659018834E-03  0.50000500000E+01  0.50000000000E+01 0.  1.
</event>
<event>
 4    1  0.5008549E-001  0.5000050E+01  0.7818608E-02  0.2136455E+00
        -11   -1    0    0    0    0  0.00000000000E+00  0.00000000000E+00  0.50000499739E+01  0.50000500000E+01  0.51100000000E-03 0.  1.
         11   -1    0    0    0    0 -0.00000000000E+00 -0.00000000000E+00 -0.50000499739E+01  0.50000500000E+01  0.51100000000E-03 0. -1.
     100001    1    1    2    0    0 -0.14174372898E-01 -0.15519228347E-01  0.76317235570E-02  0.50000500000E+01  0.50000000000E+01 0.  1.
     100001    1    1    2    0    0  0.14174372898E-01  0.15519228347E-01 -0.76317235570E-02  0.50000500000E+01  0.50000000000E+01 0. -1.
</event>
<event>
 4    1  0.5008549E-001  0.5000050E+01  0.7818608E-02  0.2136455E+00
        -11   -1    0    0    0    0  0.00000000000E+00  0.00000000000E+00  0.50000499739E+01  0.50000500000E+01  0.51100000000E-03 0. -1.
         11   -1    0    0    0    0 -0.00000000000E+00 -0.00000000000E+00 -0.50000499739E+01  0.50000500000E+01  0.51100000000E-03 0.  1.
     100001    1    1    2    0    0  0.22035309029E-01 -0.37211361102E-02  0.77511420492E-03  0.50000500000E+01  0.50000000000E+01 0.  1.
     100001    1    1    2    0    0 -0.22035309029E-01  0.37211361102E-02 -0.77511420492E-03  0.50000500000E+01  0.50000000000E+01 0.  0.
</event>
<event>
 4    1  0.5008549E-001  0.5000050E+01  0.7818608E-02  0.2136455E+00
        -11   -1    0    0    0    0  0.00000000000E+00  0.00000000000E+00  0.50000499739E+01  0.50000500000E+01  0.51100000000E-03 0. -1.
         11   -1    0    0    0    0 -0.00000000000E+00 -0.00000000000E+00 -0.50000499739E+01  0.50000500000E+01  0.51100000000E-03 0.  1.
     100001    1    1    2    0    0 -0.10062058383E-02  0.21602072899E-01  0.56868705154E-02  0.50000500000E+01  0.50000000000E+01 0.  1.
     100001    1    1    2    0    0  0.10062058383E-02 -0.21602072899E-01 -0.56868705154E-02  0.50000500000E+01  0.50000000000E+01 0.  1.
</event>
<event>
 4    1  0.5008549E-001  0.5000050E+01  0.7818608E-02  0.2136455E+00
        -11   -1    0    0    0    0  0.00000000000E+00  0.00000000000E+00  0.50000499739E+01  0.50000500000E+01  0.51100000000E-03 0.  1.
         11   -1    0    0    0    0 -0.00000000000E+00 -0.00000000000E+00 -0.50000499739E+01  0.50000500000E+01  0.51100000000E-03 0. -1.
     100001    1    1    2    0    0 -0.12829527195E-01  0.12157177178E-01 -0.13697035264E-01  0.50000500000E+01  0.50000000000E+01 0.  0.
     100001    1    1    2    0    0  0.12829527195E-01 -0.12157177178E-01  0.13697035264E-01  0.50000500000E+01  0.50000000000E+01 0. -1.
</event>
<event>
 4    1  0.5008549E-001  0.5000050E+01  0.7818608E-02  0.2136455E+00
        -11   -1    0    0    0    0  0.00000000000E+00  0.00000000000E+00  0.50000499739E+01  0.50000500000E+01  0.51100000000E-03 0. -1.
         11   -1    0    0    0    0 -0.00000000000E+00 -0.00000000000E+00 -0.50000499739E+01  0.50000500000E+01  0.51100000000E-03 0.  1.
     100001    1    1    2    0    0 -0.12865856727E-01 -0.32180947195E-03 -0.18285750445E-01  0.50000500000E+01  0.50000000000E+01 0.  0.
     100001    1    1    2    0    0  0.12865856727E-01  0.32180947195E-03  0.18285750445E-01  0.50000500000E+01  0.50000000000E+01 0. -1.
</event>
<event>
 4    1  0.5008549E-001  0.5000050E+01  0.7818608E-02  0.2136455E+00
        -11   -1    0    0    0    0  0.00000000000E+00  0.00000000000E+00  0.50000499739E+01  0.50000500000E+01  0.51100000000E-03 0. -1.
         11   -1    0    0    0    0 -0.00000000000E+00 -0.00000000000E+00 -0.50000499739E+01  0.50000500000E+01  0.51100000000E-03 0.  1.
     100001    1    1    2    0    0  0.27932507012E-02 -0.21130711159E-01 -0.67596816798E-02  0.50000500000E+01  0.50000000000E+01 0. -1.
     100001    1    1    2    0    0 -0.27932507012E-02  0.21130711159E-01  0.67596816798E-02  0.50000500000E+01  0.50000000000E+01 0.  1.
</event>
<event>
 4    1  0.5008549E-001  0.5000050E+01  0.7818608E-02  0.2136455E+00
        -11   -1    0    0    0    0  0.00000000000E+00  0.00000000000E+00  0.50000499739E+01  0.50000500000E+01  0.51100000000E-03 0.  1.
         11   -1    0    0    0    0 -0.00000000000E+00 -0.00000000000E+00 -0.50000499739E+01  0.50000500000E+01  0.51100000000E-03 0. -1.
     100001    1    1    2    0    0  0.71429437029E-02 -0.85335088470E-02  0.19394846790E-01  0.50000500000E+01  0.50000000000E+01 0.  1.
     100001    1    1    2    0    0 -0.71429437029E-02  0.85335088470E-02 -0.19394846790E-01  0.50000500000E+01  0.50000000000E+01 0. -1.
</event>
<event>
 4    1  0.5008549E-001  0.5000050E+01  0.7818608E-02  0.2136455E+00
        -11   -1    0    0    0    0  0.00000000000E+00  0.00000000000E+00  0.50000499739E+01  0.50000500000E+01  0.51100000000E-03 0.  1.
         11   -1    0    0    0    0 -0.00000000000E+00 -0.00000000000E+00 -0.50000499739E+01  0.50000500000E+01  0.51100000000E-03 0. -1.
     100001    1    1    2    0    0  0.74930604330E-02 -0.20577896578E-01 -0.45173795262E-02  0.50000500000E+01  0.50000000000E+01 0.  1.
     100001    1    1    2    0    0 -0.74930604330E-02  0.20577896578E-01  0.45173795262E-02  0.50000500000E+01  0.50000000000E+01 0.  0.
</event>
<event>
 4    1  0.5008549E-001  0.5000050E+01  0.7818608E-02  0.2136455E+00
        -11   -1    0    0    0    0  0.00000000000E+00  0.00000000000E+00  0.50000499739E+01  0.50000500000E+01  0.51100000000E-03 0. -1.
         11   -1    0    0    0    0 -0.00000000000E+00 -0.00000000000E+00 -0.50000499739E+01  0.50000500000E+01  0.51100000000E-03 0.  1.
     100001    1    1    2    0    0  0.13745469848E-01 -0.14186354478E-01 -0.10479117582E-01  0.50000500000E+01  0.50000000000E+01 0.  1.
     100001    1    1    2    0    0 -0.13745469848E-01  0.14186354478E-01  0.10479117582E-01  0.50000500000E+01  0.50000000000E+01 0. -1.
</event>
<event>
 4    1  0.5008549E-001  0.5000050E+01  0.7818608E-02  0.2136455E+00
        -11   -1    0    0    0    0  0.00000000000E+00  0.00000000000E+00  0.50000499739E+01  0.50000500000E+01  0.51100000000E-03 0.  1.
         11   -1    0    0    0    0 -0.00000000000E+00 -0.00000000000E+00 -0.50000499739E+01  0.50000500000E+01  0.51100000000E-03 0. -1.
     100001    1    1    2    0    0 -0.19123433283E-01 -0.10358307879E-01 -0.51963696321E-02  0.50000500000E+01  0.50000000000E+01 0. -1.
     100001    1    1    2    0    0  0.19123433283E-01  0.10358307879E-01  0.51963696321E-02  0.50000500000E+01  0.50000000000E+01 0.  1.
</event>
<event>
 4    1  0.5008549E-001  0.5000050E+01  0.7818608E-02  0.2136455E+00
        -11   -1    0    0    0    0  0.00000000000E+00  0.00000000000E+00  0.50000499739E+01  0.50000500000E+01  0.51100000000E-03 0.  1.
         11   -1    0    0    0    0 -0.00000000000E+00 -0.00000000000E+00 -0.50000499739E+01  0.50000500000E+01  0.51100000000E-03 0. -1.
     100001    1    1    2    0    0 -0.19997841896E-01  0.36054721341E-02 -0.93321696390E-02  0.50000500000E+01  0.50000000000E+01 0.  1.
     100001    1    1    2    0    0  0.19997841896E-01 -0.36054721341E-02  0.93321696390E-02  0.50000500000E+01  0.50000000000E+01 0. -1.
</event>
<event>
 4    1  0.5008549E-001  0.5000050E+01  0.7818608E-02  0.2136455E+00
        -11   -1    0    0    0    0  0.00000000000E+00  0.00000000000E+00  0.50000499739E+01  0.50000500000E+01  0.51100000000E-03 0. -1.
         11   -1    0    0    0    0 -0.00000000000E+00 -0.00000000000E+00 -0.50000499739E+01  0.50000500000E+01  0.51100000000E-03 0.  1.
     100001    1    1    2    0    0  0.18984667304E-01 -0.11754844082E-01 -0.11868226378E-02  0.50000500000E+01  0.50000000000E+01 0. -1.
     100001    1    1    2    0    0 -0.18984667304E-01  0.11754844082E-01  0.11868226378E-02  0.50000500000E+01  0.50000000000E+01 0.  1.
</event>
<event>
 4    1  0.5008549E-001  0.5000050E+01  0.7818608E-02  0.2136455E+00
        -11   -1    0    0    0    0  0.00000000000E+00  0.00000000000E+00  0.50000499739E+01  0.50000500000E+01  0.51100000000E-03 0.  1.
         11   -1    0    0    0    0 -0.00000000000E+00 -0.00000000000E+00 -0.50000499739E+01  0.50000500000E+01  0.51100000000E-03 0. -1.
     100001    1    1    2    0    0 -0.22058532863E-01  0.12456039358E-02  0.34455912044E-02  0.50000500000E+01  0.50000000000E+01 0.  0.
     100001    1    1    2    0    0  0.22058532863E-01 -0.12456039358E-02 -0.34455912044E-02  0.50000500000E+01  0.50000000000E+01 0.  0.
</event>
<event>
 4    1  0.5008549E-001  0.5000050E+01  0.7818608E-02  0.2136455E+00
        -11   -1    0    0    0    0  0.00000000000E+00  0.00000000000E+00  0.50000499739E+01  0.50000500000E+01  0.51100000000E-03 0.  1.
         11   -1    0    0    0    0 -0.00000000000E+00 -0.00000000000E+00 -0.50000499739E+01  0.50000500000E+01  0.51100000000E-03 0. -1.
     100001    1    1    2    0    0 -0.13534397017E-01 -0.33068185140E-02  0.17489641183E-01  0.50000500000E+01  0.50000000000E+01 0. -1.
     100001    1    1    2    0    0  0.13534397017E-01  0.33068185140E-02 -0.17489641183E-01  0.50000500000E+01  0.50000000000E+01 0.  1.
</event>
<event>
 4    1  0.5008549E-001  0.5000050E+01  0.7818608E-02  0.2136455E+00
        -11   -1    0    0    0    0  0.00000000000E+00  0.00000000000E+00  0.50000499739E+01  0.50000500000E+01  0.51100000000E-03 0.  1.
         11   -1    0    0    0    0 -0.00000000000E+00 -0.00000000000E+00 -0.50000499739E+01  0.50000500000E+01  0.51100000000E-03 0. -1.
     100001    1    1    2    0    0  0.10880653283E-01  0.11634997029E-01 -0.15692059402E-01  0.50000500000E+01  0.50000000000E+01 0. -1.
     100001    1    1    2    0    0 -0.10880653283E-01 -0.11634997029E-01  0.15692059402E-01  0.50000500000E+01  0.50000000000E+01 0.  1.
</event>
<event>
 4    1  0.5008549E-001  0.5000050E+01  0.7818608E-02  0.2136455E+00
        -11   -1    0    0    0    0  0.00000000000E+00  0.00000000000E+00  0.50000499739E+01  0.50000500000E+01  0.51100000000E-03 0.  1.
         11   -1    0    0    0    0 -0.00000000000E+00 -0.00000000000E+00 -0.50000499739E+01  0.50000500000E+01  0.51100000000E-03 0. -1.
     100001    1    1    2    0    0  0.14391579707E-01  0.48771248735E-02  0.16404224654E-01  0.50000500000E+01  0.50000000000E+01 0.  1.
     100001    1    1    2    0    0 -0.14391579707E-01 -0.48771248735E-02 -0.16404224654E-01  0.50000500000E+01  0.50000000000E+01 0.  1.
</event>
<event>
 4    1  0.5008549E-001  0.5000050E+01  0.7818608E-02  0.2136455E+00
        -11   -1    0    0    0    0  0.00000000000E+00  0.00000000000E+00  0.50000499739E+01  0.50000500000E+01  0.51100000000E-03 0. -1.
         11   -1    0    0    0    0 -0.00000000000E+00 -0.00000000000E+00 -0.50000499739E+01  0.50000500000E+01  0.51100000000E-03 0.  1.
     100001    1    1    2    0    0  0.19569029218E-01 -0.76259323459E-02 -0.76746824906E-02  0.50000500000E+01  0.50000000000E+01 0. -1.
     100001    1    1    2    0    0 -0.19569029218E-01  0.76259323459E-02  0.76746824906E-02  0.50000500000E+01  0.50000000000E+01 0.  0.
</event>
<event>
 4    1  0.5008549E-001  0.5000050E+01  0.7818608E-02  0.2136455E+00
        -11   -1    0    0    0    0  0.00000000000E+00  0.00000000000E+00  0.50000499739E+01  0.50000500000E+01  0.51100000000E-03 0.  1.
         11   -1    0    0    0    0 -0.00000000000E+00 -0.00000000000E+00 -0.50000499739E+01  0.50000500000E+01  0.51100000000E-03 0. -1.
     100001    1    1    2    0    0  0.71727631991E-02  0.11806826900E-01  0.17582741727E-01  0.50000500000E+01  0.50000000000E+01 0.  1.
     100001    1    1    2    0    0 -0.71727631991E-02 -0.11806826900E-01 -0.17582741727E-01  0.50000500000E+01  0.50000000000E+01 0.  1.
</event>
<event>
 4    1  0.5008549E-001  0.5000050E+01  0.7818608E-02  0.2136455E+00
        -11   -1    0    0    0    0  0.00000000000E+00  0.00000000000E+00  0.50000499739E+01  0.50000500000E+01  0.51100000000E-03 0.  1.
         11   -1    0    0    0    0 -0.00000000000E+00 -0.00000000000E+00 -0.50000499739E+01  0.50000500000E+01  0.51100000000E-03 0. -1.
     100001    1    1    2    0    0 -0.14005696515E-02 -0.52665941707E-02 -0.21686490968E-01  0.50000500000E+01  0.50000000000E+01 0.  0.
     100001    1    1    2    0    0  0.14005696515E-02  0.52665941707E-02  0.21686490968E-01  0.50000500000E+01  0.50000000000E+01 0.  1.
</event>
<event>
 4    1  0.5008549E-001  0.5000050E+01  0.7818608E-02  0.2136455E+00
        -11   -1    0    0    0    0  0.00000000000E+00  0.00000000000E+00  0.50000499739E+01  0.50000500000E+01  0.51100000000E-03 0.  1.
         11   -1    0    0    0    0 -0.00000000000E+00 -0.00000000000E+00 -0.50000499739E+01  0.50000500000E+01  0.51100000000E-03 0. -1.
     100001    1    1    2    0    0  0.13750979399E-01 -0.17542567976E-01  0.17808353090E-02  0.50000500000E+01  0.50000000000E+01 0. -1.
     100001    1    1    2    0    0 -0.13750979399E-01  0.17542567976E-01 -0.17808353090E-02  0.50000500000E+01  0.50000000000E+01 0.  0.
</event>
<event>
 4    1  0.5008549E-001  0.5000050E+01  0.7818608E-02  0.2136455E+00
        -11   -1    0    0    0    0  0.00000000000E+00  0.00000000000E+00  0.50000499739E+01  0.50000500000E+01  0.51100000000E-03 0.  1.
         11   -1    0    0    0    0 -0.00000000000E+00 -0.00000000000E+00 -0.50000499739E+01  0.50000500000E+01  0.51100000000E-03 0. -1.
     100001    1    1    2    0    0  0.15417924635E-01  0.72299558344E-02  0.14491992223E-01  0.50000500000E+01  0.50000000000E+01 0.  1.
     100001    1    1    2    0    0 -0.15417924635E-01 -0.72299558344E-02 -0.14491992223E-01  0.50000500000E+01  0.50000000000E+01 0. -1.
</event>
<event>
 4    1  0.5008549E-001  0.5000050E+01  0.7818608E-02  0.2136455E+00
        -11   -1    0    0    0    0  0.00000000000E+00  0.00000000000E+00  0.50000499739E+01  0.50000500000E+01  0.51100000000E-03 0.  1.
         11   -1    0    0    0    0 -0.00000000000E+00 -0.00000000000E+00 -0.50000499739E+01  0.50000500000E+01  0.51100000000E-03 0. -1.
     100001    1    1    2    0    0  0.83556686670E-02  0.11278751453E-01  0.17406178983E-01  0.50000500000E+01  0.50000000000E+01 0.  0.
     100001    1    1    2    0    0 -0.83556686670E-02 -0.11278751453E-01 -0.17406178983E-01  0.50000500000E+01  0.50000000000E+01 0. -1.
</event>
<event>
 4    1  0.5008549E-001  0.5000050E+01  0.7818608E-02  0.2136455E+00
        -11   -1    0    0    0    0  0.00000000000E+00  0.00000000000E+00  0.50000499739E+01  0.50000500000E+01  0.51100000000E-03 0.  1.
         11   -1    0    0    0    0 -0.00000000000E+00 -0.00000000000E+00 -0.50000499739E+01  0.50000500000E+01  0.51100000000E-03 0. -1.
     100001    1    1    2    0    0 -0.14630371632E-01 -0.16874565946E-01 -0.10971554310E-02  0.50000500000E+01  0.50000000000E+01 0.  1.
     100001    1    1    2    0    0  0.14630371632E-01  0.16874565946E-01  0.10971554310E-02  0.50000500000E+01  0.50000000000E+01 0. -1.
</event>
<event>
 4    1  0.5008549E-001  0.5000050E+01  0.7818608E-02  0.2136455E+00
        -11   -1    0    0    0    0  0.00000000000E+00  0.00000000000E+00  0.50000499739E+01  0.50000500000E+01  0.51100000000E-03 0. -1.
         11   -1    0    0    0    0 -0.00000000000E+00 -0.00000000000E+00 -0.50000499739E+01  0.50000500000E+01  0.51100000000E-03 0.  1.
     100001    1    1    2    0    0 -0.20283302170E-01  0.10968262323E-02 -0.93481081127E-02  0.50000500000E+01  0.50000000000E+01 0.  1.
     100001    1    1    2    0    0  0.20283302170E-01 -0.10968262323E-02  0.93481081127E-02  0.50000500000E+01  0.50000000000E+01 0. -1.
</event>
<event>
 4    1  0.5008549E-001  0.5000050E+01  0.7818608E-02  0.2136455E+00
        -11   -1    0    0    0    0  0.00000000000E+00  0.00000000000E+00  0.50000499739E+01  0.50000500000E+01  0.51100000000E-03 0.  1.
         11   -1    0    0    0    0 -0.00000000000E+00 -0.00000000000E+00 -0.50000499739E+01  0.50000500000E+01  0.51100000000E-03 0. -1.
     100001    1    1    2    0    0 -0.63032718925E-03 -0.16458881416E-01  0.15123174607E-01  0.50000500000E+01  0.50000000000E+01 0.  1.
     100001    1    1    2    0    0  0.63032718925E-03  0.16458881416E-01 -0.15123174607E-01  0.50000500000E+01  0.50000000000E+01 0. -1.
</event>
<event>
 4    1  0.5008549E-001  0.5000050E+01  0.7818608E-02  0.2136455E+00
        -11   -1    0    0    0    0  0.00000000000E+00  0.00000000000E+00  0.50000499739E+01  0.50000500000E+01  0.51100000000E-03 0.  1.
         11   -1    0    0    0    0 -0.00000000000E+00 -0.00000000000E+00 -0.50000499739E+01  0.50000500000E+01  0.51100000000E-03 0. -1.
     100001    1    1    2    0    0  0.20945813467E-01  0.74550656609E-02  0.23869214923E-02  0.50000500000E+01  0.50000000000E+01 0. -1.
     100001    1    1    2    0    0 -0.20945813467E-01 -0.74550656609E-02 -0.23869214923E-02  0.50000500000E+01  0.50000000000E+01 0.  1.
</event>
<event>
 4    1  0.5008549E-001  0.5000050E+01  0.7818608E-02  0.2136455E+00
        -11   -1    0    0    0    0  0.00000000000E+00  0.00000000000E+00  0.50000499739E+01  0.50000500000E+01  0.51100000000E-03 0. -1.
         11   -1    0    0    0    0 -0.00000000000E+00 -0.00000000000E+00 -0.50000499739E+01  0.50000500000E+01  0.51100000000E-03 0.  1.
     100001    1    1    2    0    0  0.56907250310E-02  0.19574761711E-01  0.91894968622E-02  0.50000500000E+01  0.50000000000E+01 0. -1.
     100001    1    1    2    0    0 -0.56907250310E-02 -0.19574761711E-01 -0.91894968622E-02  0.50000500000E+01  0.50000000000E+01 0.  1.
</event>
<event>
 4    1  0.5008549E-001  0.5000050E+01  0.7818608E-02  0.2136455E+00
        -11   -1    0    0    0    0  0.00000000000E+00  0.00000000000E+00  0.50000499739E+01  0.50000500000E+01  0.51100000000E-03 0. -1.
         11   -1    0    0    0    0 -0.00000000000E+00 -0.00000000000E+00 -0.50000499739E+01  0.50000500000E+01  0.51100000000E-03 0.  1.
     100001    1    1    2    0    0  0.37806846834E-02 -0.67394247865E-02 -0.20983066432E-01  0.50000500000E+01  0.50000000000E+01 0.  1.
     100001    1    1    2    0    0 -0.37806846834E-02  0.67394247865E-02  0.20983066432E-01  0.50000500000E+01  0.50000000000E+01 0. -1.
</event>
<event>
 4    1  0.5008549E-001  0.5000050E+01  0.7818608E-02  0.2136455E+00
        -11   -1    0    0    0    0  0.00000000000E+00  0.00000000000E+00  0.50000499739E+01  0.50000500000E+01  0.51100000000E-03 0. -1.
         11   -1    0    0    0    0 -0.00000000000E+00 -0.00000000000E+00 -0.50000499739E+01  0.50000500000E+01  0.51100000000E-03 0.  1.
     100001    1    1    2    0    0 -0.11820529297E-01 -0.39727913256E-03 -0.18976821557E-01  0.50000500000E+01  0.50000000000E+01 0. -1.
     100001    1    1    2    0    0  0.11820529297E-01  0.39727913256E-03  0.18976821557E-01  0.50000500000E+01  0.50000000000E+01 0. -1.
</event>
<event>
 4    1  0.5008549E-001  0.5000050E+01  0.7818608E-02  0.2136455E+00
        -11   -1    0    0    0    0  0.00000000000E+00  0.00000000000E+00  0.50000499739E+01  0.50000500000E+01  0.51100000000E-03 0.  1.
         11   -1    0    0    0    0 -0.00000000000E+00 -0.00000000000E+00 -0.50000499739E+01  0.50000500000E+01  0.51100000000E-03 0. -1.
     100001    1    1    2    0    0 -0.10294882950E-01  0.19747714593E-01 -0.20113809693E-02  0.50000500000E+01  0.50000000000E+01 0. -1.
     100001    1    1    2    0    0  0.10294882950E-01 -0.19747714593E-01  0.20113809693E-02  0.50000500000E+01  0.50000000000E+01 0.  1.
</event>
<event>
 4    1  0.5008549E-001  0.5000050E+01  0.7818608E-02  0.2136455E+00
        -11   -1    0    0    0    0  0.00000000000E+00  0.00000000000E+00  0.50000499739E+01  0.50000500000E+01  0.51100000000E-03 0.  1.
         11   -1    0    0    0    0 -0.00000000000E+00 -0.00000000000E+00 -0.50000499739E+01  0.50000500000E+01  0.51100000000E-03 0. -1.
     100001    1    1    2    0    0  0.18380465922E-01 -0.38615785953E-02 -0.12134627445E-01  0.50000500000E+01  0.50000000000E+01 0. -1.
     100001    1    1    2    0    0 -0.18380465922E-01  0.38615785953E-02  0.12134627445E-01  0.50000500000E+01  0.50000000000E+01 0.  1.
</event>
<event>
 4    1  0.5008549E-001  0.5000050E+01  0.7818608E-02  0.2136455E+00
        -11   -1    0    0    0    0  0.00000000000E+00  0.00000000000E+00  0.50000499739E+01  0.50000500000E+01  0.51100000000E-03 0. -1.
         11   -1    0    0    0    0 -0.00000000000E+00 -0.00000000000E+00 -0.50000499739E+01  0.50000500000E+01  0.51100000000E-03 0.  1.
     100001    1    1    2    0    0  0.15520848751E-01 -0.70043355556E-02  0.14492930603E-01  0.50000500000E+01  0.50000000000E+01 0.  0.
     100001    1    1    2    0    0 -0.15520848751E-01  0.70043355556E-02 -0.14492930603E-01  0.50000500000E+01  0.50000000000E+01 0. -1.
</event>
<event>
 4    1  0.5008549E-001  0.5000050E+01  0.7818608E-02  0.2136455E+00
        -11   -1    0    0    0    0  0.00000000000E+00  0.00000000000E+00  0.50000499739E+01  0.50000500000E+01  0.51100000000E-03 0.  1.
         11   -1    0    0    0    0 -0.00000000000E+00 -0.00000000000E+00 -0.50000499739E+01  0.50000500000E+01  0.51100000000E-03 0. -1.
     100001    1    1    2    0    0 -0.17303787628E-01 -0.11686905278E-01  0.79998549215E-02  0.50000500000E+01  0.50000000000E+01 0. -1.
     100001    1    1    2    0    0  0.17303787628E-01  0.11686905278E-01 -0.79998549215E-02  0.50000500000E+01  0.50000000000E+01 0.  0.
</event>
<event>
 4    1  0.5008549E-001  0.5000050E+01  0.7818608E-02  0.2136455E+00
        -11   -1    0    0    0    0  0.00000000000E+00  0.00000000000E+00  0.50000499739E+01  0.50000500000E+01  0.51100000000E-03 0.  1.
         11   -1    0    0    0    0 -0.00000000000E+00 -0.00000000000E+00 -0.50000499739E+01  0.50000500000E+01  0.51100000000E-03 0. -1.
     100001    1    1    2    0    0 -0.11092734750E-01  0.18052011753E-01 -0.71469299313E-02  0.50000500000E+01  0.50000000000E+01 0. -1.
     100001    1    1    2    0    0  0.11092734750E-01 -0.18052011753E-01  0.71469299313E-02  0.50000500000E+01  0.50000000000E+01 0. -1.
</event>
<event>
 4    1  0.5008549E-001  0.5000050E+01  0.7818608E-02  0.2136455E+00
        -11   -1    0    0    0    0  0.00000000000E+00  0.00000000000E+00  0.50000499739E+01  0.50000500000E+01  0.51100000000E-03 0. -1.
         11   -1    0    0    0    0 -0.00000000000E+00 -0.00000000000E+00 -0.50000499739E+01  0.50000500000E+01  0.51100000000E-03 0.  1.
     100001    1    1    2    0    0  0.21650135012E-01  0.55849544918E-02 -0.28711891266E-03  0.50000500000E+01  0.50000000000E+01 0.  1.
     100001    1    1    2    0    0 -0.21650135012E-01 -0.55849544918E-02  0.28711891266E-03  0.50000500000E+01  0.50000000000E+01 0. -1.
</event>
<event>
 4    1  0.5008549E-001  0.5000050E+01  0.7818608E-02  0.2136455E+00
        -11   -1    0    0    0    0  0.00000000000E+00  0.00000000000E+00  0.50000499739E+01  0.50000500000E+01  0.51100000000E-03 0.  1.
         11   -1    0    0    0    0 -0.00000000000E+00 -0.00000000000E+00 -0.50000499739E+01  0.50000500000E+01  0.51100000000E-03 0. -1.
     100001    1    1    2    0    0  0.89700402521E-02 -0.53228239682E-02 -0.19778989430E-01  0.50000500000E+01  0.50000000000E+01 0. -1.
     100001    1    1    2    0    0 -0.89700402521E-02  0.53228239682E-02  0.19778989430E-01  0.50000500000E+01  0.50000000000E+01 0.  0.
</event>
<event>
 4    1  0.5008549E-001  0.5000050E+01  0.7818608E-02  0.2136455E+00
        -11   -1    0    0    0    0  0.00000000000E+00  0.00000000000E+00  0.50000499739E+01  0.50000500000E+01  0.51100000000E-03 0. -1.
         11   -1    0    0    0    0 -0.00000000000E+00 -0.00000000000E+00 -0.50000499739E+01  0.50000500000E+01  0.51100000000E-03 0.  1.
     100001    1    1    2    0    0 -0.72172059517E-02 -0.18853721273E-01 -0.96151771909E-02  0.50000500000E+01  0.50000000000E+01 0. -1.
     100001    1    1    2    0    0  0.72172059517E-02  0.18853721273E-01  0.96151771909E-02  0.50000500000E+01  0.50000000000E+01 0.  0.
</event>
<event>
 4    1  0.5008549E-001  0.5000050E+01  0.7818608E-02  0.2136455E+00
        -11   -1    0    0    0    0  0.00000000000E+00  0.00000000000E+00  0.50000499739E+01  0.50000500000E+01  0.51100000000E-03 0.  1.
         11   -1    0    0    0    0 -0.00000000000E+00 -0.00000000000E+00 -0.50000499739E+01  0.50000500000E+01  0.51100000000E-03 0. -1.
     100001    1    1    2    0    0 -0.10224617352E-01 -0.45916152141E-03  0.19880866950E-01  0.50000500000E+01  0.50000000000E+01 0.  0.
     100001    1    1    2    0    0  0.10224617352E-01  0.45916152141E-03 -0.19880866950E-01  0.50000500000E+01  0.50000000000E+01 0. -1.
</event>
<event>
 4    1  0.5008549E-001  0.5000050E+01  0.7818608E-02  0.2136455E+00
        -11   -1    0    0    0    0  0.00000000000E+00  0.00000000000E+00  0.50000499739E+01  0.50000500000E+01  0.51100000000E-03 0.  1.
         11   -1    0    0    0    0 -0.00000000000E+00 -0.00000000000E+00 -0.50000499739E+01  0.50000500000E+01  0.51100000000E-03 0. -1.
     100001    1    1    2    0    0  0.48001634073E-02  0.70932736200E-02  0.20655420611E-01  0.50000500000E+01  0.50000000000E+01 0.  1.
     100001    1    1    2    0    0 -0.48001634073E-02 -0.70932736200E-02 -0.20655420611E-01  0.50000500000E+01  0.50000000000E+01 0.  0.
</event>
<event>
 4    1  0.5008549E-001  0.5000050E+01  0.7818608E-02  0.2136455E+00
        -11   -1    0    0    0    0  0.00000000000E+00  0.00000000000E+00  0.50000499739E+01  0.50000500000E+01  0.51100000000E-03 0. -1.
         11   -1    0    0    0    0 -0.00000000000E+00 -0.00000000000E+00 -0.50000499739E+01  0.50000500000E+01  0.51100000000E-03 0.  1.
     100001    1    1    2    0    0  0.10405944211E-01 -0.84001124134E-02  0.17920852003E-01  0.50000500000E+01  0.50000000000E+01 0.  0.
     100001    1    1    2    0    0 -0.10405944211E-01  0.84001124134E-02 -0.17920852003E-01  0.50000500000E+01  0.50000000000E+01 0.  1.
</event>
<event>
 4    1  0.5008549E-001  0.5000050E+01  0.7818608E-02  0.2136455E+00
        -11   -1    0    0    0    0  0.00000000000E+00  0.00000000000E+00  0.50000499739E+01  0.50000500000E+01  0.51100000000E-03 0. -1.
         11   -1    0    0    0    0 -0.00000000000E+00 -0.00000000000E+00 -0.50000499739E+01  0.50000500000E+01  0.51100000000E-03 0.  1.
     100001    1    1    2    0    0 -0.16059355428E-01 -0.66539920803E-02 -0.14064991740E-01  0.50000500000E+01  0.50000000000E+01 0.  1.
     100001    1    1    2    0    0  0.16059355428E-01  0.66539920803E-02  0.14064991740E-01  0.50000500000E+01  0.50000000000E+01 0.  1.
</event>
<event>
 4    1  0.5008549E-001  0.5000050E+01  0.7818608E-02  0.2136455E+00
        -11   -1    0    0    0    0  0.00000000000E+00  0.00000000000E+00  0.50000499739E+01  0.50000500000E+01  0.51100000000E-03 0. -1.
         11   -1    0    0    0    0 -0.00000000000E+00 -0.00000000000E+00 -0.50000499739E+01  0.50000500000E+01  0.51100000000E-03 0.  1.
     100001    1    1    2    0    0  0.93397879610E-02 -0.13929255639E-01 -0.14790087836E-01  0.50000500000E+01  0.50000000000E+01 0. -1.
     100001    1    1    2    0    0 -0.93397879610E-02  0.13929255639E-01  0.14790087836E-01  0.50000500000E+01  0.50000000000E+01 0. -1.
</event>
<event>
 4    1  0.5008549E-001  0.5000050E+01  0.7818608E-02  0.2136455E+00
        -11   -1    0    0    0    0  0.00000000000E+00  0.00000000000E+00  0.50000499739E+01  0.50000500000E+01  0.51100000000E-03 0.  1.
         11   -1    0    0    0    0 -0.00000000000E+00 -0.00000000000E+00 -0.50000499739E+01  0.50000500000E+01  0.51100000000E-03 0. -1.
     100001    1    1    2    0    0  0.63630902882E-02  0.15181317873E-01  0.15134106171E-01  0.50000500000E+01  0.50000000000E+01 0.  1.
     100001    1    1    2    0    0 -0.63630902882E-02 -0.15181317873E-01 -0.15134106171E-01  0.50000500000E+01  0.50000000000E+01 0. -1.
</event>
<event>
 4    1  0.5008549E-001  0.5000050E+01  0.7818608E-02  0.2136455E+00
        -11   -1    0    0    0    0  0.00000000000E+00  0.00000000000E+00  0.50000499739E+01  0.50000500000E+01  0.51100000000E-03 0. -1.
         11   -1    0    0    0    0 -0.00000000000E+00 -0.00000000000E+00 -0.50000499739E+01  0.50000500000E+01  0.51100000000E-03 0.  1.
     100001    1    1    2    0    0 -0.74760689720E-03 -0.15469768975E-01  0.16128540907E-01  0.50000500000E+01  0.50000000000E+01 0.  0.
     100001    1    1    2    0    0  0.74760689720E-03  0.15469768975E-01 -0.16128540907E-01  0.50000500000E+01  0.50000000000E+01 0.  0.
</event>
<event>
 4    1  0.5008549E-001  0.5000050E+01  0.7818608E-02  0.2136455E+00
        -11   -1    0    0    0    0  0.00000000000E+00  0.00000000000E+00  0.50000499739E+01  0.50000500000E+01  0.51100000000E-03 0. -1.
         11   -1    0    0    0    0 -0.00000000000E+00 -0.00000000000E+00 -0.50000499739E+01  0.50000500000E+01  0.51100000000E-03 0.  1.
     100001    1    1    2    0    0 -0.12796328796E-01  0.99962123322E-02  0.15373100154E-01  0.50000500000E+01  0.50000000000E+01 0.  0.
     100001    1    1    2    0    0  0.12796328796E-01 -0.99962123322E-02 -0.15373100154E-01  0.50000500000E+01  0.50000000000E+01 0.  0.
</event>
<event>
 4    1  0.5008549E-001  0.5000050E+01  0.7818608E-02  0.2136455E+00
        -11   -1    0    0    0    0  0.00000000000E+00  0.00000000000E+00  0.50000499739E+01  0.50000500000E+01  0.51100000000E-03 0.  1.
         11   -1    0    0    0    0 -0.00000000000E+00 -0.00000000000E+00 -0.50000499739E+01  0.50000500000E+01  0.51100000000E-03 0. -1.
     100001    1    1    2    0    0  0.20535384536E-01  0.87883422748E-02 -0.10322412616E-02  0.50000500000E+01  0.50000000000E+01 0. -1.
     100001    1    1    2    0    0 -0.20535384536E-01 -0.87883422748E-02  0.10322412616E-02  0.50000500000E+01  0.50000000000E+01 0.  0.
</event>
<event>
 4    1  0.5008549E-001  0.5000050E+01  0.7818608E-02  0.2136455E+00
        -11   -1    0    0    0    0  0.00000000000E+00  0.00000000000E+00  0.50000499739E+01  0.50000500000E+01  0.51100000000E-03 0. -1.
         11   -1    0    0    0    0 -0.00000000000E+00 -0.00000000000E+00 -0.50000499739E+01  0.50000500000E+01  0.51100000000E-03 0.  1.
     100001    1    1    2    0    0  0.18589414682E-01  0.71965899568E-02 -0.10131399447E-01  0.50000500000E+01  0.50000000000E+01 0.  0.
     100001    1    1    2    0    0 -0.18589414682E-01 -0.71965899568E-02  0.10131399447E-01  0.50000500000E+01  0.50000000000E+01 0.  0.
</event>
<event>
 4    1  0.5008549E-001  0.5000050E+01  0.7818608E-02  0.2136455E+00
        -11   -1    0    0    0    0  0.00000000000E+00  0.00000000000E+00  0.50000499739E+01  0.50000500000E+01  0.51100000000E-03 0.  1.
         11   -1    0    0    0    0 -0.00000000000E+00 -0.00000000000E+00 -0.50000499739E+01  0.50000500000E+01  0.51100000000E-03 0. -1.
     100001    1    1    2    0    0 -0.97981174878E-02  0.88517501879E-02  0.18045661869E-01  0.50000500000E+01  0.50000000000E+01 0.  0.
     100001    1    1    2    0    0  0.97981174878E-02 -0.88517501879E-02 -0.18045661869E-01  0.50000500000E+01  0.50000000000E+01 0.  0.
</event>
<event>
 4    1  0.5008549E-001  0.5000050E+01  0.7818608E-02  0.2136455E+00
        -11   -1    0    0    0    0  0.00000000000E+00  0.00000000000E+00  0.50000499739E+01  0.50000500000E+01  0.51100000000E-03 0. -1.
         11   -1    0    0    0    0 -0.00000000000E+00 -0.00000000000E+00 -0.50000499739E+01  0.50000500000E+01  0.51100000000E-03 0.  1.
     100001    1    1    2    0    0 -0.33233457815E-02 -0.11836963048E-01 -0.18677370763E-01  0.50000500000E+01  0.50000000000E+01 0.  0.
     100001    1    1    2    0    0  0.33233457815E-02  0.11836963048E-01  0.18677370763E-01  0.50000500000E+01  0.50000000000E+01 0. -1.
</event>
<event>
 4    1  0.5008549E-001  0.5000050E+01  0.7818608E-02  0.2136455E+00
        -11   -1    0    0    0    0  0.00000000000E+00  0.00000000000E+00  0.50000499739E+01  0.50000500000E+01  0.51100000000E-03 0. -1.
         11   -1    0    0    0    0 -0.00000000000E+00 -0.00000000000E+00 -0.50000499739E+01  0.50000500000E+01  0.51100000000E-03 0.  1.
     100001    1    1    2    0    0 -0.70986618856E-02 -0.20388963086E-01 -0.58225152402E-02  0.50000500000E+01  0.50000000000E+01 0.  1.
     100001    1    1    2    0    0  0.70986618856E-02  0.20388963086E-01  0.58225152402E-02  0.50000500000E+01  0.50000000000E+01 0. -1.
</event>
<event>
 4    1  0.5008549E-001  0.5000050E+01  0.7818608E-02  0.2136455E+00
        -11   -1    0    0    0    0  0.00000000000E+00  0.00000000000E+00  0.50000499739E+01  0.50000500000E+01  0.51100000000E-03 0. -1.
         11   -1    0    0    0    0 -0.00000000000E+00 -0.00000000000E+00 -0.50000499739E+01  0.50000500000E+01  0.51100000000E-03 0.  1.
     100001    1    1    2    0    0 -0.12005633016E-01 -0.15479753039E-01  0.10781675276E-01  0.50000500000E+01  0.50000000000E+01 0. -1.
     100001    1    1    2    0    0  0.12005633016E-01  0.15479753039E-01 -0.10781675276E-01  0.50000500000E+01  0.50000000000E+01 0.  1.
</event>
<event>
 4    1  0.5008549E-001  0.5000050E+01  0.7818608E-02  0.2136455E+00
        -11   -1    0    0    0    0  0.00000000000E+00  0.00000000000E+00  0.50000499739E+01  0.50000500000E+01  0.51100000000E-03 0. -1.
         11   -1    0    0    0    0 -0.00000000000E+00 -0.00000000000E+00 -0.50000499739E+01  0.50000500000E+01  0.51100000000E-03 0.  1.
     100001    1    1    2    0    0  0.86139576796E-02 -0.83816949185E-02 -0.18856018227E-01  0.50000500000E+01  0.50000000000E+01 0.  1.
     100001    1    1    2    0    0 -0.86139576796E-02  0.83816949185E-02  0.18856018227E-01  0.50000500000E+01  0.50000000000E+01 0.  0.
</event>
<event>
 4    1  0.5008549E-001  0.5000050E+01  0.7818608E-02  0.2136455E+00
        -11   -1    0    0    0    0  0.00000000000E+00  0.00000000000E+00  0.50000499739E+01  0.50000500000E+01  0.51100000000E-03 0.  1.
         11   -1    0    0    0    0 -0.00000000000E+00 -0.00000000000E+00 -0.50000499739E+01  0.50000500000E+01  0.51100000000E-03 0. -1.
     100001    1    1    2    0    0 -0.15145061275E-01  0.10154167752E-01  0.12943048182E-01  0.50000500000E+01  0.50000000000E+01 0. -1.
     100001    1    1    2    0    0  0.15145061275E-01 -0.10154167752E-01 -0.12943048182E-01  0.50000500000E+01  0.50000000000E+01 0.  0.
</event>
<event>
 4    1  0.5008549E-001  0.5000050E+01  0.7818608E-02  0.2136455E+00
        -11   -1    0    0    0    0  0.00000000000E+00  0.00000000000E+00  0.50000499739E+01  0.50000500000E+01  0.51100000000E-03 0. -1.
         11   -1    0    0    0    0 -0.00000000000E+00 -0.00000000000E+00 -0.50000499739E+01  0.50000500000E+01  0.51100000000E-03 0.  1.
     100001    1    1    2    0    0 -0.81906485087E-02  0.20570798331E-01 -0.31237850461E-02  0.50000500000E+01  0.50000000000E+01 0.  1.
     100001    1    1    2    0    0  0.81906485087E-02 -0.20570798331E-01  0.31237850461E-02  0.50000500000E+01  0.50000000000E+01 0. -1.
</event>
<event>
 4    1  0.5008549E-001  0.5000050E+01  0.7818608E-02  0.2136455E+00
        -11   -1    0    0    0    0  0.00000000000E+00  0.00000000000E+00  0.50000499739E+01  0.50000500000E+01  0.51100000000E-03 0. -1.
         11   -1    0    0    0    0 -0.00000000000E+00 -0.00000000000E+00 -0.50000499739E+01  0.50000500000E+01  0.51100000000E-03 0.  1.
     100001    1    1    2    0    0  0.99337954797E-02 -0.50797278446E-02 -0.19378301587E-01  0.50000500000E+01  0.50000000000E+01 0.  1.
     100001    1    1    2    0    0 -0.99337954797E-02  0.50797278446E-02  0.19378301587E-01  0.50000500000E+01  0.50000000000E+01 0. -1.
</event>
<event>
 4    1  0.5008549E-001  0.5000050E+01  0.7818608E-02  0.2136455E+00
        -11   -1    0    0    0    0  0.00000000000E+00  0.00000000000E+00  0.50000499739E+01  0.50000500000E+01  0.51100000000E-03 0.  1.
         11   -1    0    0    0    0 -0.00000000000E+00 -0.00000000000E+00 -0.50000499739E+01  0.50000500000E+01  0.51100000000E-03 0. -1.
     100001    1    1    2    0    0 -0.45115057020E-02 -0.20831175482E-01 -0.67609869356E-02  0.50000500000E+01  0.50000000000E+01 0. -1.
     100001    1    1    2    0    0  0.45115057020E-02  0.20831175482E-01  0.67609869356E-02  0.50000500000E+01  0.50000000000E+01 0.  1.
</event>
<event>
 4    1  0.5008549E-001  0.5000050E+01  0.7818608E-02  0.2136455E+00
        -11   -1    0    0    0    0  0.00000000000E+00  0.00000000000E+00  0.50000499739E+01  0.50000500000E+01  0.51100000000E-03 0.  1.
         11   -1    0    0    0    0 -0.00000000000E+00 -0.00000000000E+00 -0.50000499739E+01  0.50000500000E+01  0.51100000000E-03 0. -1.
     100001    1    1    2    0    0 -0.17304835069E-01 -0.51994811512E-03  0.14151849250E-01  0.50000500000E+01  0.50000000000E+01 0.  0.
     100001    1    1    2    0    0  0.17304835069E-01  0.51994811512E-03 -0.14151849250E-01  0.50000500000E+01  0.50000000000E+01 0.  0.
</event>
<event>
 4    1  0.5008549E-001  0.5000050E+01  0.7818608E-02  0.2136455E+00
        -11   -1    0    0    0    0  0.00000000000E+00  0.00000000000E+00  0.50000499739E+01  0.50000500000E+01  0.51100000000E-03 0. -1.
         11   -1    0    0    0    0 -0.00000000000E+00 -0.00000000000E+00 -0.50000499739E+01  0.50000500000E+01  0.51100000000E-03 0.  1.
     100001    1    1    2    0    0  0.19233440437E-01 -0.11064814165E-01 -0.27653492471E-02  0.50000500000E+01  0.50000000000E+01 0.  1.
     100001    1    1    2    0    0 -0.19233440437E-01  0.11064814165E-01  0.27653492471E-02  0.50000500000E+01  0.50000000000E+01 0. -1.
</event>
<event>
 4    1  0.5008549E-001  0.5000050E+01  0.7818608E-02  0.2136455E+00
        -11   -1    0    0    0    0  0.00000000000E+00  0.00000000000E+00  0.50000499739E+01  0.50000500000E+01  0.51100000000E-03 0. -1.
         11   -1    0    0    0    0 -0.00000000000E+00 -0.00000000000E+00 -0.50000499739E+01  0.50000500000E+01  0.51100000000E-03 0.  1.
     100001    1    1    2    0    0 -0.96179483041E-03 -0.21131499338E-01  0.72482540275E-02  0.50000500000E+01  0.50000000000E+01 0. -1.
     100001    1    1    2    0    0  0.96179483041E-03  0.21131499338E-01 -0.72482540275E-02  0.50000500000E+01  0.50000000000E+01 0. -1.
</event>
<event>
 4    1  0.5008549E-001  0.5000050E+01  0.7818608E-02  0.2136455E+00
        -11   -1    0    0    0    0  0.00000000000E+00  0.00000000000E+00  0.50000499739E+01  0.50000500000E+01  0.51100000000E-03 0.  1.
         11   -1    0    0    0    0 -0.00000000000E+00 -0.00000000000E+00 -0.50000499739E+01  0.50000500000E+01  0.51100000000E-03 0. -1.
     100001    1    1    2    0    0 -0.19474559572E-01 -0.86923889000E-02  0.67220833581E-02  0.50000500000E+01  0.50000000000E+01 0. -1.
     100001    1    1    2    0    0  0.19474559572E-01  0.86923889000E-02 -0.67220833581E-02  0.50000500000E+01  0.50000000000E+01 0.  1.
</event>
<event>
 4    1  0.5008549E-001  0.5000050E+01  0.7818608E-02  0.2136455E+00
        -11   -1    0    0    0    0  0.00000000000E+00  0.00000000000E+00  0.50000499739E+01  0.50000500000E+01  0.51100000000E-03 0.  1.
         11   -1    0    0    0    0 -0.00000000000E+00 -0.00000000000E+00 -0.50000499739E+01  0.50000500000E+01  0.51100000000E-03 0. -1.
     100001    1    1    2    0    0  0.92838138875E-02  0.20099258555E-01  0.31357782503E-02  0.50000500000E+01  0.50000000000E+01 0. -1.
     100001    1    1    2    0    0 -0.92838138875E-02 -0.20099258555E-01 -0.31357782503E-02  0.50000500000E+01  0.50000000000E+01 0.  0.
</event>
<event>
 4    1  0.5008549E-001  0.5000050E+01  0.7818608E-02  0.2136455E+00
        -11   -1    0    0    0    0  0.00000000000E+00  0.00000000000E+00  0.50000499739E+01  0.50000500000E+01  0.51100000000E-03 0.  1.
         11   -1    0    0    0    0 -0.00000000000E+00 -0.00000000000E+00 -0.50000499739E+01  0.50000500000E+01  0.51100000000E-03 0. -1.
     100001    1    1    2    0    0 -0.68668103481E-02  0.18363024444E-01 -0.10754010829E-01  0.50000500000E+01  0.50000000000E+01 0.  1.
     100001    1    1    2    0    0  0.68668103481E-02 -0.18363024444E-01  0.10754010829E-01  0.50000500000E+01  0.50000000000E+01 0. -1.
</event>
<event>
 4    1  0.5008549E-001  0.5000050E+01  0.7818608E-02  0.2136455E+00
        -11   -1    0    0    0    0  0.00000000000E+00  0.00000000000E+00  0.50000499739E+01  0.50000500000E+01  0.51100000000E-03 0. -1.
         11   -1    0    0    0    0 -0.00000000000E+00 -0.00000000000E+00 -0.50000499739E+01  0.50000500000E+01  0.51100000000E-03 0.  1.
     100001    1    1    2    0    0 -0.98727063876E-02 -0.12231251225E-01 -0.15903731073E-01  0.50000500000E+01  0.50000000000E+01 0.  1.
     100001    1    1    2    0    0  0.98727063876E-02  0.12231251225E-01  0.15903731073E-01  0.50000500000E+01  0.50000000000E+01 0. -1.
</event>
<event>
 4    1  0.5008549E-001  0.5000050E+01  0.7818608E-02  0.2136455E+00
        -11   -1    0    0    0    0  0.00000000000E+00  0.00000000000E+00  0.50000499739E+01  0.50000500000E+01  0.51100000000E-03 0.  1.
         11   -1    0    0    0    0 -0.00000000000E+00 -0.00000000000E+00 -0.50000499739E+01  0.50000500000E+01  0.51100000000E-03 0. -1.
     100001    1    1    2    0    0 -0.11785070778E-01  0.35915968276E-02 -0.18660520865E-01  0.50000500000E+01  0.50000000000E+01 0.  0.
     100001    1    1    2    0    0  0.11785070778E-01 -0.35915968276E-02  0.18660520865E-01  0.50000500000E+01  0.50000000000E+01 0.  1.
</event>
<event>
 4    1  0.5008549E-001  0.5000050E+01  0.7818608E-02  0.2136455E+00
        -11   -1    0    0    0    0  0.00000000000E+00  0.00000000000E+00  0.50000499739E+01  0.50000500000E+01  0.51100000000E-03 0. -1.
         11   -1    0    0    0    0 -0.00000000000E+00 -0.00000000000E+00 -0.50000499739E+01  0.50000500000E+01  0.51100000000E-03 0.  1.
     100001    1    1    2    0    0 -0.17474605173E-01  0.26507638326E-02  0.13697230564E-01  0.50000500000E+01  0.50000000000E+01 0. -1.
     100001    1    1    2    0    0  0.17474605173E-01 -0.26507638326E-02 -0.13697230564E-01  0.50000500000E+01  0.50000000000E+01 0.  1.
</event>
<event>
 4    1  0.5008549E-001  0.5000050E+01  0.7818608E-02  0.2136455E+00
        -11   -1    0    0    0    0  0.00000000000E+00  0.00000000000E+00  0.50000499739E+01  0.50000500000E+01  0.51100000000E-03 0.  1.
         11   -1    0    0    0    0 -0.00000000000E+00 -0.00000000000E+00 -0.50000499739E+01  0.50000500000E+01  0.51100000000E-03 0. -1.
     100001    1    1    2    0    0 -0.28879089755E-02 -0.18603972570E-01  0.12064604692E-01  0.50000500000E+01  0.50000000000E+01 0.  1.
     100001    1    1    2    0    0  0.28879089755E-02  0.18603972570E-01 -0.12064604692E-01  0.50000500000E+01  0.50000000000E+01 0. -1.
</event>
<event>
 4    1  0.5008549E-001  0.5000050E+01  0.7818608E-02  0.2136455E+00
        -11   -1    0    0    0    0  0.00000000000E+00  0.00000000000E+00  0.50000499739E+01  0.50000500000E+01  0.51100000000E-03 0. -1.
         11   -1    0    0    0    0 -0.00000000000E+00 -0.00000000000E+00 -0.50000499739E+01  0.50000500000E+01  0.51100000000E-03 0.  1.
     100001    1    1    2    0    0  0.21508620697E-01 -0.19353061744E-02  0.57996832424E-02  0.50000500000E+01  0.50000000000E+01 0.  1.
     100001    1    1    2    0    0 -0.21508620697E-01  0.19353061744E-02 -0.57996832424E-02  0.50000500000E+01  0.50000000000E+01 0. -1.
</event>
<event>
 4    1  0.5008549E-001  0.5000050E+01  0.7818608E-02  0.2136455E+00
        -11   -1    0    0    0    0  0.00000000000E+00  0.00000000000E+00  0.50000499739E+01  0.50000500000E+01  0.51100000000E-03 0.  1.
         11   -1    0    0    0    0 -0.00000000000E+00 -0.00000000000E+00 -0.50000499739E+01  0.50000500000E+01  0.51100000000E-03 0. -1.
     100001    1    1    2    0    0 -0.14150791288E-01  0.53058101537E-02 -0.16480472825E-01  0.50000500000E+01  0.50000000000E+01 0. -1.
     100001    1    1    2    0    0  0.14150791288E-01 -0.53058101537E-02  0.16480472825E-01  0.50000500000E+01  0.50000000000E+01 0. -1.
</event>
<event>
 4    1  0.5008549E-001  0.5000050E+01  0.7818608E-02  0.2136455E+00
        -11   -1    0    0    0    0  0.00000000000E+00  0.00000000000E+00  0.50000499739E+01  0.50000500000E+01  0.51100000000E-03 0. -1.
         11   -1    0    0    0    0 -0.00000000000E+00 -0.00000000000E+00 -0.50000499739E+01  0.50000500000E+01  0.51100000000E-03 0.  1.
     100001    1    1    2    0    0  0.89559132388E-02  0.15535292953E-01  0.13358472627E-01  0.50000500000E+01  0.50000000000E+01 0. -1.
     100001    1    1    2    0    0 -0.89559132388E-02 -0.15535292953E-01 -0.13358472627E-01  0.50000500000E+01  0.50000000000E+01 0.  1.
</event>
<event>
 4    1  0.5008549E-001  0.5000050E+01  0.7818608E-02  0.2136455E+00
        -11   -1    0    0    0    0  0.00000000000E+00  0.00000000000E+00  0.50000499739E+01  0.50000500000E+01  0.51100000000E-03 0. -1.
         11   -1    0    0    0    0 -0.00000000000E+00 -0.00000000000E+00 -0.50000499739E+01  0.50000500000E+01  0.51100000000E-03 0.  1.
     100001    1    1    2    0    0 -0.31715465313E-02 -0.43007959037E-03 -0.22130495343E-01  0.50000500000E+01  0.50000000000E+01 0.  1.
     100001    1    1    2    0    0  0.31715465313E-02  0.43007959037E-03  0.22130495343E-01  0.50000500000E+01  0.50000000000E+01 0.  0.
</event>
<event>
 4    1  0.5008549E-001  0.5000050E+01  0.7818608E-02  0.2136455E+00
        -11   -1    0    0    0    0  0.00000000000E+00  0.00000000000E+00  0.50000499739E+01  0.50000500000E+01  0.51100000000E-03 0. -1.
         11   -1    0    0    0    0 -0.00000000000E+00 -0.00000000000E+00 -0.50000499739E+01  0.50000500000E+01  0.51100000000E-03 0.  1.
     100001    1    1    2    0    0 -0.20346178111E-01 -0.87115387349E-04  0.92751251841E-02  0.50000500000E+01  0.50000000000E+01 0. -1.
     100001    1    1    2    0    0  0.20346178111E-01  0.87115387349E-04 -0.92751251841E-02  0.50000500000E+01  0.50000000000E+01 0.  1.
</event>
<event>
 4    1  0.5008549E-001  0.5000050E+01  0.7818608E-02  0.2136455E+00
        -11   -1    0    0    0    0  0.00000000000E+00  0.00000000000E+00  0.50000499739E+01  0.50000500000E+01  0.51100000000E-03 0.  1.
         11   -1    0    0    0    0 -0.00000000000E+00 -0.00000000000E+00 -0.50000499739E+01  0.50000500000E+01  0.51100000000E-03 0. -1.
     100001    1    1    2    0    0 -0.21325871101E-01 -0.50624287385E-02  0.44251030574E-02  0.50000500000E+01  0.50000000000E+01 0. -1.
     100001    1    1    2    0    0  0.21325871101E-01  0.50624287385E-02 -0.44251030574E-02  0.50000500000E+01  0.50000000000E+01 0.  1.
</event>
<event>
 4    1  0.5008549E-001  0.5000050E+01  0.7818608E-02  0.2136455E+00
        -11   -1    0    0    0    0  0.00000000000E+00  0.00000000000E+00  0.50000499739E+01  0.50000500000E+01  0.51100000000E-03 0.  1.
         11   -1    0    0    0    0 -0.00000000000E+00 -0.00000000000E+00 -0.50000499739E+01  0.50000500000E+01  0.51100000000E-03 0. -1.
     100001    1    1    2    0    0  0.38441261970E-04 -0.12412503177E-01  0.18599214692E-01  0.50000500000E+01  0.50000000000E+01 0.  1.
     100001    1    1    2    0    0 -0.38441261970E-04  0.12412503177E-01 -0.18599214692E-01  0.50000500000E+01  0.50000000000E+01 0. -1.
</event>
<event>
 4    1  0.5008549E-001  0.5000050E+01  0.7818608E-02  0.2136455E+00
        -11   -1    0    0    0    0  0.00000000000E+00  0.00000000000E+00  0.50000499739E+01  0.50000500000E+01  0.51100000000E-03 0. -1.
         11   -1    0    0    0    0 -0.00000000000E+00 -0.00000000000E+00 -0.50000499739E+01  0.50000500000E+01  0.51100000000E-03 0.  1.
     100001    1    1    2    0    0 -0.19691103402E-01 -0.40470592595E-02  0.97920507629E-02  0.50000500000E+01  0.50000000000E+01 0.  0.
     100001    1    1    2    0    0  0.19691103402E-01  0.40470592595E-02 -0.97920507629E-02  0.50000500000E+01  0.50000000000E+01 0.  0.
</event>
<event>
 4    1  0.5008549E-001  0.5000050E+01  0.7818608E-02  0.2136455E+00
        -11   -1    0    0    0    0  0.00000000000E+00  0.00000000000E+00  0.50000499739E+01  0.50000500000E+01  0.51100000000E-03 0.  1.
         11   -1    0    0    0    0 -0.00000000000E+00 -0.00000000000E+00 -0.50000499739E+01  0.50000500000E+01  0.51100000000E-03 0. -1.
     100001    1    1    2    0    0  0.21743041669E-01 -0.46720886131E-02  0.23268491491E-02  0.50000500000E+01  0.50000000000E+01 0.  1.
     100001    1    1    2    0    0 -0.21743041669E-01  0.46720886131E-02 -0.23268491491E-02  0.50000500000E+01  0.50000000000E+01 0. -1.
</event>
<event>
 4    1  0.5008549E-001  0.5000050E+01  0.7818608E-02  0.2136455E+00
        -11   -1    0    0    0    0  0.00000000000E+00  0.00000000000E+00  0.50000499739E+01  0.50000500000E+01  0.51100000000E-03 0.  1.
         11   -1    0    0    0    0 -0.00000000000E+00 -0.00000000000E+00 -0.50000499739E+01  0.50000500000E+01  0.51100000000E-03 0. -1.
     100001    1    1    2    0    0 -0.62128729556E-02 -0.19000108135E-02  0.21396090029E-01  0.50000500000E+01  0.50000000000E+01 0.  0.
     100001    1    1    2    0    0  0.62128729556E-02  0.19000108135E-02 -0.21396090029E-01  0.50000500000E+01  0.50000000000E+01 0. -1.
</event>
<event>
 4    1  0.5008549E-001  0.5000050E+01  0.7818608E-02  0.2136455E+00
        -11   -1    0    0    0    0  0.00000000000E+00  0.00000000000E+00  0.50000499739E+01  0.50000500000E+01  0.51100000000E-03 0. -1.
         11   -1    0    0    0    0 -0.00000000000E+00 -0.00000000000E+00 -0.50000499739E+01  0.50000500000E+01  0.51100000000E-03 0.  1.
     100001    1    1    2    0    0 -0.57389634557E-02 -0.18821083046E-01 -0.10622317611E-01  0.50000500000E+01  0.50000000000E+01 0.  1.
     100001    1    1    2    0    0  0.57389634557E-02  0.18821083046E-01  0.10622317611E-01  0.50000500000E+01  0.50000000000E+01 0. -1.
</event>
<event>
 4    1  0.5008549E-001  0.5000050E+01  0.7818608E-02  0.2136455E+00
        -11   -1    0    0    0    0  0.00000000000E+00  0.00000000000E+00  0.50000499739E+01  0.50000500000E+01  0.51100000000E-03 0. -1.
         11   -1    0    0    0    0 -0.00000000000E+00 -0.00000000000E+00 -0.50000499739E+01  0.50000500000E+01  0.51100000000E-03 0.  1.
     100001    1    1    2    0    0  0.16172444767E-01  0.14067153054E-01 -0.63694375911E-02  0.50000500000E+01  0.50000000000E+01 0.  1.
     100001    1    1    2    0    0 -0.16172444767E-01 -0.14067153054E-01  0.63694375911E-02  0.50000500000E+01  0.50000000000E+01 0. -1.
</event>
<event>
 4    1  0.5008549E-001  0.5000050E+01  0.7818608E-02  0.2136455E+00
        -11   -1    0    0    0    0  0.00000000000E+00  0.00000000000E+00  0.50000499739E+01  0.50000500000E+01  0.51100000000E-03 0. -1.
         11   -1    0    0    0    0 -0.00000000000E+00 -0.00000000000E+00 -0.50000499739E+01  0.50000500000E+01  0.51100000000E-03 0.  1.
     100001    1    1    2    0    0 -0.95431443804E-02 -0.12788576441E-01  0.15664712189E-01  0.50000500000E+01  0.50000000000E+01 0. -1.
     100001    1    1    2    0    0  0.95431443804E-02  0.12788576441E-01 -0.15664712189E-01  0.50000500000E+01  0.50000000000E+01 0.  0.
</event>
<event>
 4    1  0.5008549E-001  0.5000050E+01  0.7818608E-02  0.2136455E+00
        -11   -1    0    0    0    0  0.00000000000E+00  0.00000000000E+00  0.50000499739E+01  0.50000500000E+01  0.51100000000E-03 0.  1.
         11   -1    0    0    0    0 -0.00000000000E+00 -0.00000000000E+00 -0.50000499739E+01  0.50000500000E+01  0.51100000000E-03 0. -1.
     100001    1    1    2    0    0 -0.28196432918E-02  0.21494539199E-01  0.54805926994E-02  0.50000500000E+01  0.50000000000E+01 0.  1.
     100001    1    1    2    0    0  0.28196432918E-02 -0.21494539199E-01 -0.54805926994E-02  0.50000500000E+01  0.50000000000E+01 0. -1.
</event>
<event>
 4    1  0.5008549E-001  0.5000050E+01  0.7818608E-02  0.2136455E+00
        -11   -1    0    0    0    0  0.00000000000E+00  0.00000000000E+00  0.50000499739E+01  0.50000500000E+01  0.51100000000E-03 0. -1.
         11   -1    0    0    0    0 -0.00000000000E+00 -0.00000000000E+00 -0.50000499739E+01  0.50000500000E+01  0.51100000000E-03 0.  1.
     100001    1    1    2    0    0  0.76839419048E-02  0.90749299678E-02 -0.18936873630E-01  0.50000500000E+01  0.50000000000E+01 0.  1.
     100001    1    1    2    0    0 -0.76839419048E-02 -0.90749299678E-02  0.18936873630E-01  0.50000500000E+01  0.50000000000E+01 0. -1.
</event>
<event>
 4    1  0.5008549E-001  0.5000050E+01  0.7818608E-02  0.2136455E+00
        -11   -1    0    0    0    0  0.00000000000E+00  0.00000000000E+00  0.50000499739E+01  0.50000500000E+01  0.51100000000E-03 0. -1.
         11   -1    0    0    0    0 -0.00000000000E+00 -0.00000000000E+00 -0.50000499739E+01  0.50000500000E+01  0.51100000000E-03 0.  1.
     100001    1    1    2    0    0  0.17848373065E-01 -0.13046909543E-01 -0.33490640963E-02  0.50000500000E+01  0.50000000000E+01 0.  1.
     100001    1    1    2    0    0 -0.17848373065E-01  0.13046909543E-01  0.33490640963E-02  0.50000500000E+01  0.50000000000E+01 0.  0.
</event>
<event>
 4    1  0.5008549E-001  0.5000050E+01  0.7818608E-02  0.2136455E+00
        -11   -1    0    0    0    0  0.00000000000E+00  0.00000000000E+00  0.50000499739E+01  0.50000500000E+01  0.51100000000E-03 0. -1.
         11   -1    0    0    0    0 -0.00000000000E+00 -0.00000000000E+00 -0.50000499739E+01  0.50000500000E+01  0.51100000000E-03 0.  1.
     100001    1    1    2    0    0 -0.21335580476E-01 -0.42132190505E-02  0.52004125790E-02  0.50000500000E+01  0.50000000000E+01 0.  1.
     100001    1    1    2    0    0  0.21335580476E-01  0.42132190505E-02 -0.52004125790E-02  0.50000500000E+01  0.50000000000E+01 0.  0.
</event>
<event>
 4    1  0.5008549E-001  0.5000050E+01  0.7818608E-02  0.2136455E+00
        -11   -1    0    0    0    0  0.00000000000E+00  0.00000000000E+00  0.50000499739E+01  0.50000500000E+01  0.51100000000E-03 0.  1.
         11   -1    0    0    0    0 -0.00000000000E+00 -0.00000000000E+00 -0.50000499739E+01  0.50000500000E+01  0.51100000000E-03 0. -1.
     100001    1    1    2    0    0  0.16328995327E-01 -0.11663452445E-01 -0.98656114194E-02  0.50000500000E+01  0.50000000000E+01 0. -1.
     100001    1    1    2    0    0 -0.16328995327E-01  0.11663452445E-01  0.98656114194E-02  0.50000500000E+01  0.50000000000E+01 0.  1.
</event>
<event>
 4    1  0.5008549E-001  0.5000050E+01  0.7818608E-02  0.2136455E+00
        -11   -1    0    0    0    0  0.00000000000E+00  0.00000000000E+00  0.50000499739E+01  0.50000500000E+01  0.51100000000E-03 0.  1.
         11   -1    0    0    0    0 -0.00000000000E+00 -0.00000000000E+00 -0.50000499739E+01  0.50000500000E+01  0.51100000000E-03 0. -1.
     100001    1    1    2    0    0 -0.15190657605E-01 -0.52298513504E-02 -0.15552976448E-01  0.50000500000E+01  0.50000000000E+01 0. -1.
     100001    1    1    2    0    0  0.15190657605E-01  0.52298513504E-02  0.15552976448E-01  0.50000500000E+01  0.50000000000E+01 0.  1.
</event>
<event>
 4    1  0.5008549E-001  0.5000050E+01  0.7818608E-02  0.2136455E+00
        -11   -1    0    0    0    0  0.00000000000E+00  0.00000000000E+00  0.50000499739E+01  0.50000500000E+01  0.51100000000E-03 0.  1.
         11   -1    0    0    0    0 -0.00000000000E+00 -0.00000000000E+00 -0.50000499739E+01  0.50000500000E+01  0.51100000000E-03 0. -1.
     100001    1    1    2    0    0 -0.11866106418E-01 -0.10522917246E-01  0.15762811650E-01  0.50000500000E+01  0.50000000000E+01 0.  1.
     100001    1    1    2    0    0  0.11866106418E-01  0.10522917246E-01 -0.15762811650E-01  0.50000500000E+01  0.50000000000E+01 0. -1.
</event>
<event>
 4    1  0.5008549E-001  0.5000050E+01  0.7818608E-02  0.2136455E+00
        -11   -1    0    0    0    0  0.00000000000E+00  0.00000000000E+00  0.50000499739E+01  0.50000500000E+01  0.51100000000E-03 0. -1.
         11   -1    0    0    0    0 -0.00000000000E+00 -0.00000000000E+00 -0.50000499739E+01  0.50000500000E+01  0.51100000000E-03 0.  1.
     100001    1    1    2    0    0  0.46002212735E-02  0.21481029195E-01  0.41720317520E-02  0.50000500000E+01  0.50000000000E+01 0.  0.
     100001    1    1    2    0    0 -0.46002212735E-02 -0.21481029195E-01 -0.41720317520E-02  0.50000500000E+01  0.50000000000E+01 0.  0.
</event>
<event>
 4    1  0.5008549E-001  0.5000050E+01  0.7818608E-02  0.2136455E+00
        -11   -1    0    0    0    0  0.00000000000E+00  0.00000000000E+00  0.50000499739E+01  0.50000500000E+01  0.51100000000E-03 0.  1.
         11   -1    0    0    0    0 -0.00000000000E+00 -0.00000000000E+00 -0.50000499739E+01  0.50000500000E+01  0.51100000000E-03 0. -1.
     100001    1    1    2    0    0 -0.10226123295E-01  0.86880456473E-02 -0.17887055800E-01  0.50000500000E+01  0.50000000000E+01 0. -1.
     100001    1    1    2    0    0  0.10226123295E-01 -0.86880456473E-02  0.17887055800E-01  0.50000500000E+01  0.50000000000E+01 0.  0.
</event>
<event>
 4    1  0.5008549E-001  0.5000050E+01  0.7818608E-02  0.2136455E+00
        -11   -1    0    0    0    0  0.00000000000E+00  0.00000000000E+00  0.50000499739E+01  0.50000500000E+01  0.51100000000E-03 0. -1.
         11   -1    0    0    0    0 -0.00000000000E+00 -0.00000000000E+00 -0.50000499739E+01  0.50000500000E+01  0.51100000000E-03 0.  1.
     100001    1    1    2    0    0 -0.16201406991E-02 -0.19567563358E-01  0.10699911604E-01  0.50000500000E+01  0.50000000000E+01 0. -1.
     100001    1    1    2    0    0  0.16201406991E-02  0.19567563358E-01 -0.10699911604E-01  0.50000500000E+01  0.50000000000E+01 0.  1.
</event>
<event>
 4    1  0.5008549E-001  0.5000050E+01  0.7818608E-02  0.2136455E+00
        -11   -1    0    0    0    0  0.00000000000E+00  0.00000000000E+00  0.50000499739E+01  0.50000500000E+01  0.51100000000E-03 0.  1.
         11   -1    0    0    0    0 -0.00000000000E+00 -0.00000000000E+00 -0.50000499739E+01  0.50000500000E+01  0.51100000000E-03 0. -1.
     100001    1    1    2    0    0  0.11713065119E-01 -0.52923734599E-03 -0.19040129027E-01  0.50000500000E+01  0.50000000000E+01 0. -1.
     100001    1    1    2    0    0 -0.11713065119E-01  0.52923734599E-03  0.19040129027E-01  0.50000500000E+01  0.50000000000E+01 0.  1.
</event>
<event>
 4    1  0.5008549E-001  0.5000050E+01  0.7818608E-02  0.2136455E+00
        -11   -1    0    0    0    0  0.00000000000E+00  0.00000000000E+00  0.50000499739E+01  0.50000500000E+01  0.51100000000E-03 0.  1.
         11   -1    0    0    0    0 -0.00000000000E+00 -0.00000000000E+00 -0.50000499739E+01  0.50000500000E+01  0.51100000000E-03 0. -1.
     100001    1    1    2    0    0  0.21587572314E-01 -0.58002903011E-02  0.57952912177E-03  0.50000500000E+01  0.50000000000E+01 0. -1.
     100001    1    1    2    0    0 -0.21587572314E-01  0.58002903011E-02 -0.57952912177E-03  0.50000500000E+01  0.50000000000E+01 0.  1.
</event>
<event>
 4    1  0.5008549E-001  0.5000050E+01  0.7818608E-02  0.2136455E+00
        -11   -1    0    0    0    0  0.00000000000E+00  0.00000000000E+00  0.50000499739E+01  0.50000500000E+01  0.51100000000E-03 0. -1.
         11   -1    0    0    0    0 -0.00000000000E+00 -0.00000000000E+00 -0.50000499739E+01  0.50000500000E+01  0.51100000000E-03 0.  1.
     100001    1    1    2    0    0 -0.18447435792E-01  0.32526609773E-02  0.12211257481E-01  0.50000500000E+01  0.50000000000E+01 0.  0.
     100001    1    1    2    0    0  0.18447435792E-01 -0.32526609773E-02 -0.12211257481E-01  0.50000500000E+01  0.50000000000E+01 0.  0.
</event>
<event>
 4    1  0.5008549E-001  0.5000050E+01  0.7818608E-02  0.2136455E+00
        -11   -1    0    0    0    0  0.00000000000E+00  0.00000000000E+00  0.50000499739E+01  0.50000500000E+01  0.51100000000E-03 0.  1.
         11   -1    0    0    0    0 -0.00000000000E+00 -0.00000000000E+00 -0.50000499739E+01  0.50000500000E+01  0.51100000000E-03 0. -1.
     100001    1    1    2    0    0  0.12890747613E-02 -0.82083917265E-02 -0.20759650564E-01  0.50000500000E+01  0.50000000000E+01 0.  0.
     100001    1    1    2    0    0 -0.12890747613E-02  0.82083917265E-02  0.20759650564E-01  0.50000500000E+01  0.50000000000E+01 0.  1.
</event>
<event>
 4    1  0.5008549E-001  0.5000050E+01  0.7818608E-02  0.2136455E+00
        -11   -1    0    0    0    0  0.00000000000E+00  0.00000000000E+00  0.50000499739E+01  0.50000500000E+01  0.51100000000E-03 0. -1.
         11   -1    0    0    0    0 -0.00000000000E+00 -0.00000000000E+00 -0.50000499739E+01  0.50000500000E+01  0.51100000000E-03 0.  1.
     100001    1    1    2    0    0 -0.20892347587E-01  0.73039160354E-02 -0.31882789764E-02  0.50000500000E+01  0.50000000000E+01 0.  1.
     100001    1    1    2    0    0  0.20892347587E-01 -0.73039160354E-02  0.31882789764E-02  0.50000500000E+01  0.50000000000E+01 0. -1.
</event>
<event>
 4    1  0.5008549E-001  0.5000050E+01  0.7818608E-02  0.2136455E+00
        -11   -1    0    0    0    0  0.00000000000E+00  0.00000000000E+00  0.50000499739E+01  0.50000500000E+01  0.51100000000E-03 0.  1.
         11   -1    0    0    0    0 -0.00000000000E+00 -0.00000000000E+00 -0.50000499739E+01  0.50000500000E+01  0.51100000000E-03 0. -1.
     100001    1    1    2    0    0 -0.20110896107E-01  0.56909474533E-02 -0.79477968564E-02  0.50000500000E+01  0.50000000000E+01 0.  0.
     100001    1    1    2    0    0  0.20110896107E-01 -0.56909474533E-02  0.79477968564E-02  0.50000500000E+01  0.50000000000E+01 0. -1.
</event>
<event>
 4    1  0.5008549E-001  0.5000050E+01  0.7818608E-02  0.2136455E+00
        -11   -1    0    0    0    0  0.00000000000E+00  0.00000000000E+00  0.50000499739E+01  0.50000500000E+01  0.51100000000E-03 0. -1.
         11   -1    0    0    0    0 -0.00000000000E+00 -0.00000000000E+00 -0.50000499739E+01  0.50000500000E+01  0.51100000000E-03 0.  1.
     100001    1    1    2    0    0 -0.16913683497E-01  0.14034010073E-01 -0.41202392934E-02  0.50000500000E+01  0.50000000000E+01 0.  1.
     100001    1    1    2    0    0  0.16913683497E-01 -0.14034010073E-01  0.41202392934E-02  0.50000500000E+01  0.50000000000E+01 0. -1.
</event>
<event>
 4    1  0.5008549E-001  0.5000050E+01  0.7818608E-02  0.2136455E+00
        -11   -1    0    0    0    0  0.00000000000E+00  0.00000000000E+00  0.50000499739E+01  0.50000500000E+01  0.51100000000E-03 0. -1.
         11   -1    0    0    0    0 -0.00000000000E+00 -0.00000000000E+00 -0.50000499739E+01  0.50000500000E+01  0.51100000000E-03 0.  1.
     100001    1    1    2    0    0  0.97733153893E-02  0.69293729267E-02  0.18880375980E-01  0.50000500000E+01  0.50000000000E+01 0. -1.
     100001    1    1    2    0    0 -0.97733153893E-02 -0.69293729267E-02 -0.18880375980E-01  0.50000500000E+01  0.50000000000E+01 0.  0.
</event>
<event>
 4    1  0.5008549E-001  0.5000050E+01  0.7818608E-02  0.2136455E+00
        -11   -1    0    0    0    0  0.00000000000E+00  0.00000000000E+00  0.50000499739E+01  0.50000500000E+01  0.51100000000E-03 0.  1.
         11   -1    0    0    0    0 -0.00000000000E+00 -0.00000000000E+00 -0.50000499739E+01  0.50000500000E+01  0.51100000000E-03 0. -1.
     100001    1    1    2    0    0 -0.18386466304E-01 -0.67060855359E-02 -0.10815210291E-01  0.50000500000E+01  0.50000000000E+01 0. -1.
     100001    1    1    2    0    0  0.18386466304E-01  0.67060855359E-02  0.10815210291E-01  0.50000500000E+01  0.50000000000E+01 0.  1.
</event>
<event>
 4    1  0.5008549E-001  0.5000050E+01  0.7818608E-02  0.2136455E+00
        -11   -1    0    0    0    0  0.00000000000E+00  0.00000000000E+00  0.50000499739E+01  0.50000500000E+01  0.51100000000E-03 0. -1.
         11   -1    0    0    0    0 -0.00000000000E+00 -0.00000000000E+00 -0.50000499739E+01  0.50000500000E+01  0.51100000000E-03 0.  1.
     100001    1    1    2    0    0 -0.20569709943E-01 -0.69124155008E-02 -0.53951871876E-02  0.50000500000E+01  0.50000000000E+01 0.  1.
     100001    1    1    2    0    0  0.20569709943E-01  0.69124155008E-02  0.53951871876E-02  0.50000500000E+01  0.50000000000E+01 0. -1.
</event>
<event>
 4    1  0.5008549E-001  0.5000050E+01  0.7818608E-02  0.2136455E+00
        -11   -1    0    0    0    0  0.00000000000E+00  0.00000000000E+00  0.50000499739E+01  0.50000500000E+01  0.51100000000E-03 0.  1.
         11   -1    0    0    0    0 -0.00000000000E+00 -0.00000000000E+00 -0.50000499739E+01  0.50000500000E+01  0.51100000000E-03 0. -1.
     100001    1    1    2    0    0  0.40722641783E-02 -0.34417510354E-02  0.21715743466E-01  0.50000500000E+01  0.50000000000E+01 0.  1.
     100001    1    1    2    0    0 -0.40722641783E-02  0.34417510354E-02 -0.21715743466E-01  0.50000500000E+01  0.50000000000E+01 0.  0.
</event>
<event>
 4    1  0.5008549E-001  0.5000050E+01  0.7818608E-02  0.2136455E+00
        -11   -1    0    0    0    0  0.00000000000E+00  0.00000000000E+00  0.50000499739E+01  0.50000500000E+01  0.51100000000E-03 0.  1.
         11   -1    0    0    0    0 -0.00000000000E+00 -0.00000000000E+00 -0.50000499739E+01  0.50000500000E+01  0.51100000000E-03 0. -1.
     100001    1    1    2    0    0  0.15692307654E-01 -0.15652936878E-01 -0.29562725828E-02  0.50000500000E+01  0.50000000000E+01 0.  1.
     100001    1    1    2    0    0 -0.15692307654E-01  0.15652936878E-01  0.29562725828E-02  0.50000500000E+01  0.50000000000E+01 0.  0.
</event>
<event>
 4    1  0.5008549E-001  0.5000050E+01  0.7818608E-02  0.2136455E+00
        -11   -1    0    0    0    0  0.00000000000E+00  0.00000000000E+00  0.50000499739E+01  0.50000500000E+01  0.51100000000E-03 0.  1.
         11   -1    0    0    0    0 -0.00000000000E+00 -0.00000000000E+00 -0.50000499739E+01  0.50000500000E+01  0.51100000000E-03 0. -1.
     100001    1    1    2    0    0 -0.10477173915E-01 -0.87842895591E-02  0.17693715938E-01  0.50000500000E+01  0.50000000000E+01 0.  0.
     100001    1    1    2    0    0  0.10477173915E-01  0.87842895591E-02 -0.17693715938E-01  0.50000500000E+01  0.50000000000E+01 0.  0.
</event>
<event>
 4    1  0.5008549E-001  0.5000050E+01  0.7818608E-02  0.2136455E+00
        -11   -1    0    0    0    0  0.00000000000E+00  0.00000000000E+00  0.50000499739E+01  0.50000500000E+01  0.51100000000E-03 0. -1.
         11   -1    0    0    0    0 -0.00000000000E+00 -0.00000000000E+00 -0.50000499739E+01  0.50000500000E+01  0.51100000000E-03 0.  1.
     100001    1    1    2    0    0 -0.68252737097E-03  0.90076637046E-02 -0.20454795305E-01  0.50000500000E+01  0.50000000000E+01 0.  1.
     100001    1    1    2    0    0  0.68252737097E-03 -0.90076637046E-02  0.20454795305E-01  0.50000500000E+01  0.50000000000E+01 0.  0.
</event>
<event>
 4    1  0.5008549E-001  0.5000050E+01  0.7818608E-02  0.2136455E+00
        -11   -1    0    0    0    0  0.00000000000E+00  0.00000000000E+00  0.50000499739E+01  0.50000500000E+01  0.51100000000E-03 0. -1.
         11   -1    0    0    0    0 -0.00000000000E+00 -0.00000000000E+00 -0.50000499739E+01  0.50000500000E+01  0.51100000000E-03 0.  1.
     100001    1    1    2    0    0 -0.34247261784E-03 -0.47183756652E-02  0.21854568026E-01  0.50000500000E+01  0.50000000000E+01 0.  0.
     100001    1    1    2    0    0  0.34247261784E-03  0.47183756652E-02 -0.21854568026E-01  0.50000500000E+01  0.50000000000E+01 0.  1.
</event>
<event>
 4    1  0.5008549E-001  0.5000050E+01  0.7818608E-02  0.2136455E+00
        -11   -1    0    0    0    0  0.00000000000E+00  0.00000000000E+00  0.50000499739E+01  0.50000500000E+01  0.51100000000E-03 0.  1.
         11   -1    0    0    0    0 -0.00000000000E+00 -0.00000000000E+00 -0.50000499739E+01  0.50000500000E+01  0.51100000000E-03 0. -1.
     100001    1    1    2    0    0 -0.18252807186E-01 -0.46312957706E-02 -0.12057720735E-01  0.50000500000E+01  0.50000000000E+01 0. -1.
     100001    1    1    2    0    0  0.18252807186E-01  0.46312957706E-02  0.12057720735E-01  0.50000500000E+01  0.50000000000E+01 0.  1.
</event>
<event>
 4    1  0.5008549E-001  0.5000050E+01  0.7818608E-02  0.2136455E+00
        -11   -1    0    0    0    0  0.00000000000E+00  0.00000000000E+00  0.50000499739E+01  0.50000500000E+01  0.51100000000E-03 0. -1.
         11   -1    0    0    0    0 -0.00000000000E+00 -0.00000000000E+00 -0.50000499739E+01  0.50000500000E+01  0.51100000000E-03 0.  1.
     100001    1    1    2    0    0 -0.22532795738E-02 -0.11666170275E-01 -0.18942695222E-01  0.50000500000E+01  0.50000000000E+01 0.  0.
     100001    1    1    2    0    0  0.22532795738E-02  0.11666170275E-01  0.18942695222E-01  0.50000500000E+01  0.50000000000E+01 0.  0.
</event>
<event>
 4    1  0.5008549E-001  0.5000050E+01  0.7818608E-02  0.2136455E+00
        -11   -1    0    0    0    0  0.00000000000E+00  0.00000000000E+00  0.50000499739E+01  0.50000500000E+01  0.51100000000E-03 0. -1.
         11   -1    0    0    0    0 -0.00000000000E+00 -0.00000000000E+00 -0.50000499739E+01  0.50000500000E+01  0.51100000000E-03 0.  1.
     100001    1    1    2    0    0 -0.14166906289E-01 -0.53549777337E-02 -0.16450698456E-01  0.50000500000E+01  0.50000000000E+01 0.  1.
     100001    1    1    2    0    0  0.14166906289E-01  0.53549777337E-02  0.16450698456E-01  0.50000500000E+01  0.50000000000E+01 0. -1.
</event>
<event>
 4    1  0.5008549E-001  0.5000050E+01  0.7818608E-02  0.2136455E+00
        -11   -1    0    0    0    0  0.00000000000E+00  0.00000000000E+00  0.50000499739E+01  0.50000500000E+01  0.51100000000E-03 0.  1.
         11   -1    0    0    0    0 -0.00000000000E+00 -0.00000000000E+00 -0.50000499739E+01  0.50000500000E+01  0.51100000000E-03 0. -1.
     100001    1    1    2    0    0 -0.11513843476E-01  0.15821094083E-01 -0.10822517750E-01  0.50000500000E+01  0.50000000000E+01 0.  1.
     100001    1    1    2    0    0  0.11513843476E-01 -0.15821094083E-01  0.10822517750E-01  0.50000500000E+01  0.50000000000E+01 0.  0.
</event>
<event>
 4    1  0.5008549E-001  0.5000050E+01  0.7818608E-02  0.2136455E+00
        -11   -1    0    0    0    0  0.00000000000E+00  0.00000000000E+00  0.50000499739E+01  0.50000500000E+01  0.51100000000E-03 0.  1.
         11   -1    0    0    0    0 -0.00000000000E+00 -0.00000000000E+00 -0.50000499739E+01  0.50000500000E+01  0.51100000000E-03 0. -1.
     100001    1    1    2    0    0  0.12709872645E-01 -0.15896568749E-02 -0.18328519536E-01  0.50000500000E+01  0.50000000000E+01 0. -1.
     100001    1    1    2    0    0 -0.12709872645E-01  0.15896568749E-02  0.18328519536E-01  0.50000500000E+01  0.50000000000E+01 0.  1.
</event>
<event>
 4    1  0.5008549E-001  0.5000050E+01  0.7818608E-02  0.2136455E+00
        -11   -1    0    0    0    0  0.00000000000E+00  0.00000000000E+00  0.50000499739E+01  0.50000500000E+01  0.51100000000E-03 0.  1.
         11   -1    0    0    0    0 -0.00000000000E+00 -0.00000000000E+00 -0.50000499739E+01  0.50000500000E+01  0.51100000000E-03 0. -1.
     100001    1    1    2    0    0  0.21333998577E-01  0.16616093171E-02  0.64886099568E-02  0.50000500000E+01  0.50000000000E+01 0.  1.
     100001    1    1    2    0    0 -0.21333998577E-01 -0.16616093171E-02 -0.64886099568E-02  0.50000500000E+01  0.50000000000E+01 0. -1.
</event>
<event>
 4    1  0.5008549E-001  0.5000050E+01  0.7818608E-02  0.2136455E+00
        -11   -1    0    0    0    0  0.00000000000E+00  0.00000000000E+00  0.50000499739E+01  0.50000500000E+01  0.51100000000E-03 0.  1.
         11   -1    0    0    0    0 -0.00000000000E+00 -0.00000000000E+00 -0.50000499739E+01  0.50000500000E+01  0.51100000000E-03 0. -1.
     100001    1    1    2    0    0  0.77199688455E-02 -0.19576920232E-01 -0.75596808949E-02  0.50000500000E+01  0.50000000000E+01 0. -1.
     100001    1    1    2    0    0 -0.77199688455E-02  0.19576920232E-01  0.75596808949E-02  0.50000500000E+01  0.50000000000E+01 0.  1.
</event>
<event>
 4    1  0.5008549E-001  0.5000050E+01  0.7818608E-02  0.2136455E+00
        -11   -1    0    0    0    0  0.00000000000E+00  0.00000000000E+00  0.50000499739E+01  0.50000500000E+01  0.51100000000E-03 0.  1.
         11   -1    0    0    0    0 -0.00000000000E+00 -0.00000000000E+00 -0.50000499739E+01  0.50000500000E+01  0.51100000000E-03 0. -1.
     100001    1    1    2    0    0 -0.41865408050E-02 -0.17680097853E-01  0.13034167254E-01  0.50000500000E+01  0.50000000000E+01 0.  0.
     100001    1    1    2    0    0  0.41865408050E-02  0.17680097853E-01 -0.13034167254E-01  0.50000500000E+01  0.50000000000E+01 0.  1.
</event>
<event>
 4    1  0.5008549E-001  0.5000050E+01  0.7818608E-02  0.2136455E+00
        -11   -1    0    0    0    0  0.00000000000E+00  0.00000000000E+00  0.50000499739E+01  0.50000500000E+01  0.51100000000E-03 0. -1.
         11   -1    0    0    0    0 -0.00000000000E+00 -0.00000000000E+00 -0.50000499739E+01  0.50000500000E+01  0.51100000000E-03 0.  1.
     100001    1    1    2    0    0 -0.80538503171E-02 -0.16371287910E-01 -0.12927448597E-01  0.50000500000E+01  0.50000000000E+01 0. -1.
     100001    1    1    2    0    0  0.80538503171E-02  0.16371287910E-01  0.12927448597E-01  0.50000500000E+01  0.50000000000E+01 0. -1.
</event>
<event>
 4    1  0.5008549E-001  0.5000050E+01  0.7818608E-02  0.2136455E+00
        -11   -1    0    0    0    0  0.00000000000E+00  0.00000000000E+00  0.50000499739E+01  0.50000500000E+01  0.51100000000E-03 0. -1.
         11   -1    0    0    0    0 -0.00000000000E+00 -0.00000000000E+00 -0.50000499739E+01  0.50000500000E+01  0.51100000000E-03 0.  1.
     100001    1    1    2    0    0 -0.14275111237E-01 -0.17167848825E-01 -0.12201089667E-02  0.50000500000E+01  0.50000000000E+01 0. -1.
     100001    1    1    2    0    0  0.14275111237E-01  0.17167848825E-01  0.12201089667E-02  0.50000500000E+01  0.50000000000E+01 0.  1.
</event>
<event>
 4    1  0.5008549E-001  0.5000050E+01  0.7818608E-02  0.2136455E+00
        -11   -1    0    0    0    0  0.00000000000E+00  0.00000000000E+00  0.50000499739E+01  0.50000500000E+01  0.51100000000E-03 0.  1.
         11   -1    0    0    0    0 -0.00000000000E+00 -0.00000000000E+00 -0.50000499739E+01  0.50000500000E+01  0.51100000000E-03 0. -1.
     100001    1    1    2    0    0 -0.49317339389E-02  0.21175357154E-01 -0.52234806149E-02  0.50000500000E+01  0.50000000000E+01 0.  1.
     100001    1    1    2    0    0  0.49317339389E-02 -0.21175357154E-01  0.52234806149E-02  0.50000500000E+01  0.50000000000E+01 0. -1.
</event>
<event>
 4    1  0.5008549E-001  0.5000050E+01  0.7818608E-02  0.2136455E+00
        -11   -1    0    0    0    0  0.00000000000E+00  0.00000000000E+00  0.50000499739E+01  0.50000500000E+01  0.51100000000E-03 0.  1.
         11   -1    0    0    0    0 -0.00000000000E+00 -0.00000000000E+00 -0.50000499739E+01  0.50000500000E+01  0.51100000000E-03 0. -1.
     100001    1    1    2    0    0  0.17582733281E-01  0.75708044416E-03 -0.13794086398E-01  0.50000500000E+01  0.50000000000E+01 0.  1.
     100001    1    1    2    0    0 -0.17582733281E-01 -0.75708044416E-03  0.13794086398E-01  0.50000500000E+01  0.50000000000E+01 0.  0.
</event>
<event>
 4    1  0.5008549E-001  0.5000050E+01  0.7818608E-02  0.2136455E+00
        -11   -1    0    0    0    0  0.00000000000E+00  0.00000000000E+00  0.50000499739E+01  0.50000500000E+01  0.51100000000E-03 0.  1.
         11   -1    0    0    0    0 -0.00000000000E+00 -0.00000000000E+00 -0.50000499739E+01  0.50000500000E+01  0.51100000000E-03 0. -1.
     100001    1    1    2    0    0 -0.21150253472E-01 -0.59064852843E-02  0.42169550214E-02  0.50000500000E+01  0.50000000000E+01 0. -1.
     100001    1    1    2    0    0  0.21150253472E-01  0.59064852843E-02 -0.42169550214E-02  0.50000500000E+01  0.50000000000E+01 0.  1.
</event>
<event>
 4    1  0.5008549E-001  0.5000050E+01  0.7818608E-02  0.2136455E+00
        -11   -1    0    0    0    0  0.00000000000E+00  0.00000000000E+00  0.50000499739E+01  0.50000500000E+01  0.51100000000E-03 0. -1.
         11   -1    0    0    0    0 -0.00000000000E+00 -0.00000000000E+00 -0.50000499739E+01  0.50000500000E+01  0.51100000000E-03 0.  1.
     100001    1    1    2    0    0 -0.84218154282E-02  0.13469133916E-01 -0.15737152107E-01  0.50000500000E+01  0.50000000000E+01 0.  1.
     100001    1    1    2    0    0  0.84218154282E-02 -0.13469133916E-01  0.15737152107E-01  0.50000500000E+01  0.50000000000E+01 0. -1.
</event>
<event>
 4    1  0.5008549E-001  0.5000050E+01  0.7818608E-02  0.2136455E+00
        -11   -1    0    0    0    0  0.00000000000E+00  0.00000000000E+00  0.50000499739E+01  0.50000500000E+01  0.51100000000E-03 0. -1.
         11   -1    0    0    0    0 -0.00000000000E+00 -0.00000000000E+00 -0.50000499739E+01  0.50000500000E+01  0.51100000000E-03 0.  1.
     100001    1    1    2    0    0 -0.16389529280E-01 -0.57386209313E-02  0.14087372352E-01  0.50000500000E+01  0.50000000000E+01 0.  1.
     100001    1    1    2    0    0  0.16389529280E-01  0.57386209313E-02 -0.14087372352E-01  0.50000500000E+01  0.50000000000E+01 0.  0.
</event>
<event>
 4    1  0.5008549E-001  0.5000050E+01  0.7818608E-02  0.2136455E+00
        -11   -1    0    0    0    0  0.00000000000E+00  0.00000000000E+00  0.50000499739E+01  0.50000500000E+01  0.51100000000E-03 0. -1.
         11   -1    0    0    0    0 -0.00000000000E+00 -0.00000000000E+00 -0.50000499739E+01  0.50000500000E+01  0.51100000000E-03 0.  1.
     100001    1    1    2    0    0 -0.13155244810E-01  0.75996465418E-02 -0.16406931658E-01  0.50000500000E+01  0.50000000000E+01 0.  1.
     100001    1    1    2    0    0  0.13155244810E-01 -0.75996465418E-02  0.16406931658E-01  0.50000500000E+01  0.50000000000E+01 0. -1.
</event>
<event>
 4    1  0.5008549E-001  0.5000050E+01  0.7818608E-02  0.2136455E+00
        -11   -1    0    0    0    0  0.00000000000E+00  0.00000000000E+00  0.50000499739E+01  0.50000500000E+01  0.51100000000E-03 0. -1.
         11   -1    0    0    0    0 -0.00000000000E+00 -0.00000000000E+00 -0.50000499739E+01  0.50000500000E+01  0.51100000000E-03 0.  1.
     100001    1    1    2    0    0  0.19503772426E-01 -0.45474483272E-02  0.99461587998E-02  0.50000500000E+01  0.50000000000E+01 0. -1.
     100001    1    1    2    0    0 -0.19503772426E-01  0.45474483272E-02 -0.99461587998E-02  0.50000500000E+01  0.50000000000E+01 0.  1.
</event>
<event>
 4    1  0.5008549E-001  0.5000050E+01  0.7818608E-02  0.2136455E+00
        -11   -1    0    0    0    0  0.00000000000E+00  0.00000000000E+00  0.50000499739E+01  0.50000500000E+01  0.51100000000E-03 0.  1.
         11   -1    0    0    0    0 -0.00000000000E+00 -0.00000000000E+00 -0.50000499739E+01  0.50000500000E+01  0.51100000000E-03 0. -1.
     100001    1    1    2    0    0 -0.93335472100E-02  0.12770764346E-01 -0.15804903495E-01  0.50000500000E+01  0.50000000000E+01 0. -1.
     100001    1    1    2    0    0  0.93335472100E-02 -0.12770764346E-01  0.15804903495E-01  0.50000500000E+01  0.50000000000E+01 0.  1.
</event>
<event>
 4    1  0.5008549E-001  0.5000050E+01  0.7818608E-02  0.2136455E+00
        -11   -1    0    0    0    0  0.00000000000E+00  0.00000000000E+00  0.50000499739E+01  0.50000500000E+01  0.51100000000E-03 0.  1.
         11   -1    0    0    0    0 -0.00000000000E+00 -0.00000000000E+00 -0.50000499739E+01  0.50000500000E+01  0.51100000000E-03 0. -1.
     100001    1    1    2    0    0 -0.80206324576E-02 -0.54418153566E-02  0.20150895777E-01  0.50000500000E+01  0.50000000000E+01 0.  0.
     100001    1    1    2    0    0  0.80206324576E-02  0.54418153566E-02 -0.20150895777E-01  0.50000500000E+01  0.50000000000E+01 0. -1.
</event>
<event>
 4    1  0.5008549E-001  0.5000050E+01  0.7818608E-02  0.2136455E+00
        -11   -1    0    0    0    0  0.00000000000E+00  0.00000000000E+00  0.50000499739E+01  0.50000500000E+01  0.51100000000E-03 0.  1.
         11   -1    0    0    0    0 -0.00000000000E+00 -0.00000000000E+00 -0.50000499739E+01  0.50000500000E+01  0.51100000000E-03 0. -1.
     100001    1    1    2    0    0  0.16121955901E-01 -0.63824214870E-02  0.14119126527E-01  0.50000500000E+01  0.50000000000E+01 0.  1.
     100001    1    1    2    0    0 -0.16121955901E-01  0.63824214870E-02 -0.14119126527E-01  0.50000500000E+01  0.50000000000E+01 0. -1.
</event>
<event>
 4    1  0.5008549E-001  0.5000050E+01  0.7818608E-02  0.2136455E+00
        -11   -1    0    0    0    0  0.00000000000E+00  0.00000000000E+00  0.50000499739E+01  0.50000500000E+01  0.51100000000E-03 0. -1.
         11   -1    0    0    0    0 -0.00000000000E+00 -0.00000000000E+00 -0.50000499739E+01  0.50000500000E+01  0.51100000000E-03 0.  1.
     100001    1    1    2    0    0  0.42486096217E-03  0.12314089653E-01  0.18659721037E-01  0.50000500000E+01  0.50000000000E+01 0. -1.
     100001    1    1    2    0    0 -0.42486096217E-03 -0.12314089653E-01 -0.18659721037E-01  0.50000500000E+01  0.50000000000E+01 0.  1.
</event>
<event>
 4    1  0.5008549E-001  0.5000050E+01  0.7818608E-02  0.2136455E+00
        -11   -1    0    0    0    0  0.00000000000E+00  0.00000000000E+00  0.50000499739E+01  0.50000500000E+01  0.51100000000E-03 0.  1.
         11   -1    0    0    0    0 -0.00000000000E+00 -0.00000000000E+00 -0.50000499739E+01  0.50000500000E+01  0.51100000000E-03 0. -1.
     100001    1    1    2    0    0 -0.77985322081E-02  0.17764750775E-01 -0.11117509851E-01  0.50000500000E+01  0.50000000000E+01 0.  1.
     100001    1    1    2    0    0  0.77985322081E-02 -0.17764750775E-01  0.11117509851E-01  0.50000500000E+01  0.50000000000E+01 0.  0.
</event>
<event>
 4    1  0.5008549E-001  0.5000050E+01  0.7818608E-02  0.2136455E+00
        -11   -1    0    0    0    0  0.00000000000E+00  0.00000000000E+00  0.50000499739E+01  0.50000500000E+01  0.51100000000E-03 0. -1.
         11   -1    0    0    0    0 -0.00000000000E+00 -0.00000000000E+00 -0.50000499739E+01  0.50000500000E+01  0.51100000000E-03 0.  1.
     100001    1    1    2    0    0  0.18085982051E-01 -0.97965758921E-02 -0.87707955190E-02  0.50000500000E+01  0.50000000000E+01 0.  0.
     100001    1    1    2    0    0 -0.18085982051E-01  0.97965758921E-02  0.87707955190E-02  0.50000500000E+01  0.50000000000E+01 0.  0.
</event>
<event>
 4    1  0.5008549E-001  0.5000050E+01  0.7818608E-02  0.2136455E+00
        -11   -1    0    0    0    0  0.00000000000E+00  0.00000000000E+00  0.50000499739E+01  0.50000500000E+01  0.51100000000E-03 0.  1.
         11   -1    0    0    0    0 -0.00000000000E+00 -0.00000000000E+00 -0.50000499739E+01  0.50000500000E+01  0.51100000000E-03 0. -1.
     100001    1    1    2    0    0 -0.19119957065E-01  0.11523761538E-01  0.12777565635E-02  0.50000500000E+01  0.50000000000E+01 0. -1.
     100001    1    1    2    0    0  0.19119957065E-01 -0.11523761538E-01 -0.12777565635E-02  0.50000500000E+01  0.50000000000E+01 0.  1.
</event>
<event>
 4    1  0.5008549E-001  0.5000050E+01  0.7818608E-02  0.2136455E+00
        -11   -1    0    0    0    0  0.00000000000E+00  0.00000000000E+00  0.50000499739E+01  0.50000500000E+01  0.51100000000E-03 0.  1.
         11   -1    0    0    0    0 -0.00000000000E+00 -0.00000000000E+00 -0.50000499739E+01  0.50000500000E+01  0.51100000000E-03 0. -1.
     100001    1    1    2    0    0  0.13473618001E-01 -0.15355478158E-01 -0.90924918740E-02  0.50000500000E+01  0.50000000000E+01 0.  1.
     100001    1    1    2    0    0 -0.13473618001E-01  0.15355478158E-01  0.90924918740E-02  0.50000500000E+01  0.50000000000E+01 0.  0.
</event>
<event>
 4    1  0.5008549E-001  0.5000050E+01  0.7818608E-02  0.2136455E+00
        -11   -1    0    0    0    0  0.00000000000E+00  0.00000000000E+00  0.50000499739E+01  0.50000500000E+01  0.51100000000E-03 0. -1.
         11   -1    0    0    0    0 -0.00000000000E+00 -0.00000000000E+00 -0.50000499739E+01  0.50000500000E+01  0.51100000000E-03 0.  1.
     100001    1    1    2    0    0 -0.18770652407E-01  0.12135702029E-01  0.62437527681E-03  0.50000500000E+01  0.50000000000E+01 0.  0.
     100001    1    1    2    0    0  0.18770652407E-01 -0.12135702029E-01 -0.62437527681E-03  0.50000500000E+01  0.50000000000E+01 0. -1.
</event>
<event>
 4    1  0.5008549E-001  0.5000050E+01  0.7818608E-02  0.2136455E+00
        -11   -1    0    0    0    0  0.00000000000E+00  0.00000000000E+00  0.50000499739E+01  0.50000500000E+01  0.51100000000E-03 0. -1.
         11   -1    0    0    0    0 -0.00000000000E+00 -0.00000000000E+00 -0.50000499739E+01  0.50000500000E+01  0.51100000000E-03 0.  1.
     100001    1    1    2    0    0  0.24049203453E-02 -0.20370772142E-01  0.89022750159E-02  0.50000500000E+01  0.50000000000E+01 0.  0.
     100001    1    1    2    0    0 -0.24049203453E-02  0.20370772142E-01 -0.89022750159E-02  0.50000500000E+01  0.50000000000E+01 0. -1.
</event>
<event>
 4    1  0.5008549E-001  0.5000050E+01  0.7818608E-02  0.2136455E+00
        -11   -1    0    0    0    0  0.00000000000E+00  0.00000000000E+00  0.50000499739E+01  0.50000500000E+01  0.51100000000E-03 0.  1.
         11   -1    0    0    0    0 -0.00000000000E+00 -0.00000000000E+00 -0.50000499739E+01  0.50000500000E+01  0.51100000000E-03 0. -1.
     100001    1    1    2    0    0  0.42301537631E-02 -0.88022952752E-02 -0.20115364700E-01  0.50000500000E+01  0.50000000000E+01 0.  0.
     100001    1    1    2    0    0 -0.42301537631E-02  0.88022952752E-02  0.20115364700E-01  0.50000500000E+01  0.50000000000E+01 0.  1.
</event>
<event>
 4    1  0.5008549E-001  0.5000050E+01  0.7818608E-02  0.2136455E+00
        -11   -1    0    0    0    0  0.00000000000E+00  0.00000000000E+00  0.50000499739E+01  0.50000500000E+01  0.51100000000E-03 0.  1.
         11   -1    0    0    0    0 -0.00000000000E+00 -0.00000000000E+00 -0.50000499739E+01  0.50000500000E+01  0.51100000000E-03 0. -1.
     100001    1    1    2    0    0  0.15565783359E-01  0.14820467210E-01 -0.61694926956E-02  0.50000500000E+01  0.50000000000E+01 0. -1.
     100001    1    1    2    0    0 -0.15565783359E-01 -0.14820467210E-01  0.61694926956E-02  0.50000500000E+01  0.50000000000E+01 0.  1.
</event>
<event>
 4    1  0.5008549E-001  0.5000050E+01  0.7818608E-02  0.2136455E+00
        -11   -1    0    0    0    0  0.00000000000E+00  0.00000000000E+00  0.50000499739E+01  0.50000500000E+01  0.51100000000E-03 0. -1.
         11   -1    0    0    0    0 -0.00000000000E+00 -0.00000000000E+00 -0.50000499739E+01  0.50000500000E+01  0.51100000000E-03 0.  1.
     100001    1    1    2    0    0  0.21775746586E-01  0.25564032746E-02  0.43913736961E-02  0.50000500000E+01  0.50000000000E+01 0.  1.
     100001    1    1    2    0    0 -0.21775746586E-01 -0.25564032746E-02 -0.43913736961E-02  0.50000500000E+01  0.50000000000E+01 0.  0.
</event>
<event>
 4    1  0.5008549E-001  0.5000050E+01  0.7818608E-02  0.2136455E+00
        -11   -1    0    0    0    0  0.00000000000E+00  0.00000000000E+00  0.50000499739E+01  0.50000500000E+01  0.51100000000E-03 0.  1.
         11   -1    0    0    0    0 -0.00000000000E+00 -0.00000000000E+00 -0.50000499739E+01  0.50000500000E+01  0.51100000000E-03 0. -1.
     100001    1    1    2    0    0  0.77662528365E-02 -0.18640891325E-01 -0.96023428129E-02  0.50000500000E+01  0.50000000000E+01 0.  1.
     100001    1    1    2    0    0 -0.77662528365E-02  0.18640891325E-01  0.96023428129E-02  0.50000500000E+01  0.50000000000E+01 0. -1.
</event>
<event>
 4    1  0.5008549E-001  0.5000050E+01  0.7818608E-02  0.2136455E+00
        -11   -1    0    0    0    0  0.00000000000E+00  0.00000000000E+00  0.50000499739E+01  0.50000500000E+01  0.51100000000E-03 0.  1.
         11   -1    0    0    0    0 -0.00000000000E+00 -0.00000000000E+00 -0.50000499739E+01  0.50000500000E+01  0.51100000000E-03 0. -1.
     100001    1    1    2    0    0  0.16143864528E-01 -0.15460633253E-01  0.58903099951E-03  0.50000500000E+01  0.50000000000E+01 0. -1.
     100001    1    1    2    0    0 -0.16143864528E-01  0.15460633253E-01 -0.58903099951E-03  0.50000500000E+01  0.50000000000E+01 0.  0.
</event>
<event>
 4    1  0.5008549E-001  0.5000050E+01  0.7818608E-02  0.2136455E+00
        -11   -1    0    0    0    0  0.00000000000E+00  0.00000000000E+00  0.50000499739E+01  0.50000500000E+01  0.51100000000E-03 0.  1.
         11   -1    0    0    0    0 -0.00000000000E+00 -0.00000000000E+00 -0.50000499739E+01  0.50000500000E+01  0.51100000000E-03 0. -1.
     100001    1    1    2    0    0 -0.21899473649E-01 -0.31138057526E-02 -0.32741056235E-02  0.50000500000E+01  0.50000000000E+01 0.  1.
     100001    1    1    2    0    0  0.21899473649E-01  0.31138057526E-02  0.32741056235E-02  0.50000500000E+01  0.50000000000E+01 0. -1.
</event>
<event>
 4    1  0.5008549E-001  0.5000050E+01  0.7818608E-02  0.2136455E+00
        -11   -1    0    0    0    0  0.00000000000E+00  0.00000000000E+00  0.50000499739E+01  0.50000500000E+01  0.51100000000E-03 0.  1.
         11   -1    0    0    0    0 -0.00000000000E+00 -0.00000000000E+00 -0.50000499739E+01  0.50000500000E+01  0.51100000000E-03 0. -1.
     100001    1    1    2    0    0 -0.53273657318E-02  0.14740716018E-01  0.15947820090E-01  0.50000500000E+01  0.50000000000E+01 0.  1.
     100001    1    1    2    0    0  0.53273657318E-02 -0.14740716018E-01 -0.15947820090E-01  0.50000500000E+01  0.50000000000E+01 0. -1.
</event>
<event>
 4    1  0.5008549E-001  0.5000050E+01  0.7818608E-02  0.2136455E+00
        -11   -1    0    0    0    0  0.00000000000E+00  0.00000000000E+00  0.50000499739E+01  0.50000500000E+01  0.51100000000E-03 0. -1.
         11   -1    0    0    0    0 -0.00000000000E+00 -0.00000000000E+00 -0.50000499739E+01  0.50000500000E+01  0.51100000000E-03 0.  1.
     100001    1    1    2    0    0  0.23929298229E-02  0.18261927026E-01 -0.12679842591E-01  0.50000500000E+01  0.50000000000E+01 0.  1.
     100001    1    1    2    0    0 -0.23929298229E-02 -0.18261927026E-01  0.12679842591E-01  0.50000500000E+01  0.50000000000E+01 0. -1.
</event>
<event>
 4    1  0.5008549E-001  0.5000050E+01  0.7818608E-02  0.2136455E+00
        -11   -1    0    0    0    0  0.00000000000E+00  0.00000000000E+00  0.50000499739E+01  0.50000500000E+01  0.51100000000E-03 0.  1.
         11   -1    0    0    0    0 -0.00000000000E+00 -0.00000000000E+00 -0.50000499739E+01  0.50000500000E+01  0.51100000000E-03 0. -1.
     100001    1    1    2    0    0 -0.37881438306E-02  0.69685546714E-02 -0.20906738438E-01  0.50000500000E+01  0.50000000000E+01 0. -1.
     100001    1    1    2    0    0  0.37881438306E-02 -0.69685546714E-02  0.20906738438E-01  0.50000500000E+01  0.50000000000E+01 0.  0.
</event>
<event>
 4    1  0.5008549E-001  0.5000050E+01  0.7818608E-02  0.2136455E+00
        -11   -1    0    0    0    0  0.00000000000E+00  0.00000000000E+00  0.50000499739E+01  0.50000500000E+01  0.51100000000E-03 0.  1.
         11   -1    0    0    0    0 -0.00000000000E+00 -0.00000000000E+00 -0.50000499739E+01  0.50000500000E+01  0.51100000000E-03 0. -1.
     100001    1    1    2    0    0 -0.68489066999E-02  0.14379062013E-01  0.15695144237E-01  0.50000500000E+01  0.50000000000E+01 0.  0.
     100001    1    1    2    0    0  0.68489066999E-02 -0.14379062013E-01 -0.15695144237E-01  0.50000500000E+01  0.50000000000E+01 0.  1.
</event>
<event>
 4    1  0.5008549E-001  0.5000050E+01  0.7818608E-02  0.2136455E+00
        -11   -1    0    0    0    0  0.00000000000E+00  0.00000000000E+00  0.50000499739E+01  0.50000500000E+01  0.51100000000E-03 0.  1.
         11   -1    0    0    0    0 -0.00000000000E+00 -0.00000000000E+00 -0.50000499739E+01  0.50000500000E+01  0.51100000000E-03 0. -1.
     100001    1    1    2    0    0  0.11403615907E-01  0.12891422164E-01 -0.14274847769E-01  0.50000500000E+01  0.50000000000E+01 0.  0.
     100001    1    1    2    0    0 -0.11403615907E-01 -0.12891422164E-01  0.14274847769E-01  0.50000500000E+01  0.50000000000E+01 0.  0.
</event>
<event>
 4    1  0.5008549E-001  0.5000050E+01  0.7818608E-02  0.2136455E+00
        -11   -1    0    0    0    0  0.00000000000E+00  0.00000000000E+00  0.50000499739E+01  0.50000500000E+01  0.51100000000E-03 0. -1.
         11   -1    0    0    0    0 -0.00000000000E+00 -0.00000000000E+00 -0.50000499739E+01  0.50000500000E+01  0.51100000000E-03 0.  1.
     100001    1    1    2    0    0 -0.17248491521E-01  0.98932933659E-02 -0.10228137007E-01  0.50000500000E+01  0.50000000000E+01 0. -1.
     100001    1    1    2    0    0  0.17248491521E-01 -0.98932933659E-02  0.10228137007E-01  0.50000500000E+01  0.50000000000E+01 0.  1.
</event>
<event>
 4    1  0.5008549E-001  0.5000050E+01  0.7818608E-02  0.2136455E+00
        -11   -1    0    0    0    0  0.00000000000E+00  0.00000000000E+00  0.50000499739E+01  0.50000500000E+01  0.51100000000E-03 0. -1.
         11   -1    0    0    0    0 -0.00000000000E+00 -0.00000000000E+00 -0.50000499739E+01  0.50000500000E+01  0.51100000000E-03 0.  1.
     100001    1    1    2    0    0  0.15893439343E-01  0.15466479084E-01  0.28616622080E-02  0.50000500000E+01  0.50000000000E+01 0.  1.
     100001    1    1    2    0    0 -0.15893439343E-01 -0.15466479084E-01 -0.28616622080E-02  0.50000500000E+01  0.50000000000E+01 0.  0.
</event>
<event>
 4    1  0.5008549E-001  0.5000050E+01  0.7818608E-02  0.2136455E+00
        -11   -1    0    0    0    0  0.00000000000E+00  0.00000000000E+00  0.50000499739E+01  0.50000500000E+01  0.51100000000E-03 0.  1.
         11   -1    0    0    0    0 -0.00000000000E+00 -0.00000000000E+00 -0.50000499739E+01  0.50000500000E+01  0.51100000000E-03 0. -1.
     100001    1    1    2    0    0  0.29764931129E-02  0.43144504886E-02 -0.21737720803E-01  0.50000500000E+01  0.50000000000E+01 0. -1.
     100001    1    1    2    0    0 -0.29764931129E-02 -0.43144504886E-02  0.21737720803E-01  0.50000500000E+01  0.50000000000E+01 0.  0.
</event>
<event>
 4    1  0.5008549E-001  0.5000050E+01  0.7818608E-02  0.2136455E+00
        -11   -1    0    0    0    0  0.00000000000E+00  0.00000000000E+00  0.50000499739E+01  0.50000500000E+01  0.51100000000E-03 0.  1.
         11   -1    0    0    0    0 -0.00000000000E+00 -0.00000000000E+00 -0.50000499739E+01  0.50000500000E+01  0.51100000000E-03 0. -1.
     100001    1    1    2    0    0  0.10763973004E-01  0.12188349524E-01 -0.15348730275E-01  0.50000500000E+01  0.50000000000E+01 0.  0.
     100001    1    1    2    0    0 -0.10763973004E-01 -0.12188349524E-01  0.15348730275E-01  0.50000500000E+01  0.50000000000E+01 0.  1.
</event>
<event>
 4    1  0.5008549E-001  0.5000050E+01  0.7818608E-02  0.2136455E+00
        -11   -1    0    0    0    0  0.00000000000E+00  0.00000000000E+00  0.50000499739E+01  0.50000500000E+01  0.51100000000E-03 0.  1.
         11   -1    0    0    0    0 -0.00000000000E+00 -0.00000000000E+00 -0.50000499739E+01  0.50000500000E+01  0.51100000000E-03 0. -1.
     100001    1    1    2    0    0  0.91586107483E-02  0.20235763659E-01  0.25760858461E-02  0.50000500000E+01  0.50000000000E+01 0.  1.
     100001    1    1    2    0    0 -0.91586107483E-02 -0.20235763659E-01 -0.25760858461E-02  0.50000500000E+01  0.50000000000E+01 0.  0.
</event>
<event>
 4    1  0.5008549E-001  0.5000050E+01  0.7818608E-02  0.2136455E+00
        -11   -1    0    0    0    0  0.00000000000E+00  0.00000000000E+00  0.50000499739E+01  0.50000500000E+01  0.51100000000E-03 0. -1.
         11   -1    0    0    0    0 -0.00000000000E+00 -0.00000000000E+00 -0.50000499739E+01  0.50000500000E+01  0.51100000000E-03 0.  1.
     100001    1    1    2    0    0  0.18543800374E-01  0.73870006279E-02 -0.10077806775E-01  0.50000500000E+01  0.50000000000E+01 0.  0.
     100001    1    1    2    0    0 -0.18543800374E-01 -0.73870006279E-02  0.10077806775E-01  0.50000500000E+01  0.50000000000E+01 0.  1.
</event>
<event>
 4    1  0.5008549E-001  0.5000050E+01  0.7818608E-02  0.2136455E+00
        -11   -1    0    0    0    0  0.00000000000E+00  0.00000000000E+00  0.50000499739E+01  0.50000500000E+01  0.51100000000E-03 0. -1.
         11   -1    0    0    0    0 -0.00000000000E+00 -0.00000000000E+00 -0.50000499739E+01  0.50000500000E+01  0.51100000000E-03 0.  1.
     100001    1    1    2    0    0 -0.93514236977E-02  0.18074904607E-01 -0.92655921698E-02  0.50000500000E+01  0.50000000000E+01 0. -1.
     100001    1    1    2    0    0  0.93514236977E-02 -0.18074904607E-01  0.92655921698E-02  0.50000500000E+01  0.50000000000E+01 0.  0.
</event>
<event>
 4    1  0.5008549E-001  0.5000050E+01  0.7818608E-02  0.2136455E+00
        -11   -1    0    0    0    0  0.00000000000E+00  0.00000000000E+00  0.50000499739E+01  0.50000500000E+01  0.51100000000E-03 0. -1.
         11   -1    0    0    0    0 -0.00000000000E+00 -0.00000000000E+00 -0.50000499739E+01  0.50000500000E+01  0.51100000000E-03 0.  1.
     100001    1    1    2    0    0  0.98810635244E-02 -0.15757836430E-01  0.12411997207E-01  0.50000500000E+01  0.50000000000E+01 0. -1.
     100001    1    1    2    0    0 -0.98810635244E-02  0.15757836430E-01 -0.12411997207E-01  0.50000500000E+01  0.50000000000E+01 0.  1.
</event>
<event>
 4    1  0.5008549E-001  0.5000050E+01  0.7818608E-02  0.2136455E+00
        -11   -1    0    0    0    0  0.00000000000E+00  0.00000000000E+00  0.50000499739E+01  0.50000500000E+01  0.51100000000E-03 0. -1.
         11   -1    0    0    0    0 -0.00000000000E+00 -0.00000000000E+00 -0.50000499739E+01  0.50000500000E+01  0.51100000000E-03 0.  1.
     100001    1    1    2    0    0  0.39300835110E-03 -0.21520497190E-01 -0.60593931318E-02  0.50000500000E+01  0.50000000000E+01 0.  0.
     100001    1    1    2    0    0 -0.39300835110E-03  0.21520497190E-01  0.60593931318E-02  0.50000500000E+01  0.50000000000E+01 0.  1.
</event>
<event>
 4    1  0.5008549E-001  0.5000050E+01  0.7818608E-02  0.2136455E+00
        -11   -1    0    0    0    0  0.00000000000E+00  0.00000000000E+00  0.50000499739E+01  0.50000500000E+01  0.51100000000E-03 0.  1.
         11   -1    0    0    0    0 -0.00000000000E+00 -0.00000000000E+00 -0.50000499739E+01  0.50000500000E+01  0.51100000000E-03 0. -1.
     100001    1    1    2    0    0  0.15934066682E-01 -0.10798015197E-01  0.11380285005E-01  0.50000500000E+01  0.50000000000E+01 0.  0.
     100001    1    1    2    0    0 -0.15934066682E-01  0.10798015197E-01 -0.11380285005E-01  0.50000500000E+01  0.50000000000E+01 0.  0.
</event>
<event>
 4    1  0.5008549E-001  0.5000050E+01  0.7818608E-02  0.2136455E+00
        -11   -1    0    0    0    0  0.00000000000E+00  0.00000000000E+00  0.50000499739E+01  0.50000500000E+01  0.51100000000E-03 0.  1.
         11   -1    0    0    0    0 -0.00000000000E+00 -0.00000000000E+00 -0.50000499739E+01  0.50000500000E+01  0.51100000000E-03 0. -1.
     100001    1    1    2    0    0 -0.10175327229E-01 -0.53551807365E-02 -0.19177780243E-01  0.50000500000E+01  0.50000000000E+01 0.  0.
     100001    1    1    2    0    0  0.10175327229E-01  0.53551807365E-02  0.19177780243E-01  0.50000500000E+01  0.50000000000E+01 0.  1.
</event>
<event>
 4    1  0.5008549E-001  0.5000050E+01  0.7818608E-02  0.2136455E+00
        -11   -1    0    0    0    0  0.00000000000E+00  0.00000000000E+00  0.50000499739E+01  0.50000500000E+01  0.51100000000E-03 0. -1.
         11   -1    0    0    0    0 -0.00000000000E+00 -0.00000000000E+00 -0.50000499739E+01  0.50000500000E+01  0.51100000000E-03 0.  1.
     100001    1    1    2    0    0  0.18923169231E-02 -0.18982806791E-01  0.11665105357E-01  0.50000500000E+01  0.50000000000E+01 0. -1.
     100001    1    1    2    0    0 -0.18923169231E-02  0.18982806791E-01 -0.11665105357E-01  0.50000500000E+01  0.50000000000E+01 0.  1.
</event>
<event>
 4    1  0.5008549E-001  0.5000050E+01  0.7818608E-02  0.2136455E+00
        -11   -1    0    0    0    0  0.00000000000E+00  0.00000000000E+00  0.50000499739E+01  0.50000500000E+01  0.51100000000E-03 0. -1.
         11   -1    0    0    0    0 -0.00000000000E+00 -0.00000000000E+00 -0.50000499739E+01  0.50000500000E+01  0.51100000000E-03 0.  1.
     100001    1    1    2    0    0 -0.14589453803E-01 -0.16846940593E-01  0.18250836702E-02  0.50000500000E+01  0.50000000000E+01 0.  1.
     100001    1    1    2    0    0  0.14589453803E-01  0.16846940593E-01 -0.18250836702E-02  0.50000500000E+01  0.50000000000E+01 0.  0.
</event>
<event>
 4    1  0.5008549E-001  0.5000050E+01  0.7818608E-02  0.2136455E+00
        -11   -1    0    0    0    0  0.00000000000E+00  0.00000000000E+00  0.50000499739E+01  0.50000500000E+01  0.51100000000E-03 0.  1.
         11   -1    0    0    0    0 -0.00000000000E+00 -0.00000000000E+00 -0.50000499739E+01  0.50000500000E+01  0.51100000000E-03 0. -1.
     100001    1    1    2    0    0  0.18348462058E-01 -0.11372174139E-01 -0.58318175092E-02  0.50000500000E+01  0.50000000000E+01 0. -1.
     100001    1    1    2    0    0 -0.18348462058E-01  0.11372174139E-01  0.58318175092E-02  0.50000500000E+01  0.50000000000E+01 0.  1.
</event>
<event>
 4    1  0.5008549E-001  0.5000050E+01  0.7818608E-02  0.2136455E+00
        -11   -1    0    0    0    0  0.00000000000E+00  0.00000000000E+00  0.50000499739E+01  0.50000500000E+01  0.51100000000E-03 0.  1.
         11   -1    0    0    0    0 -0.00000000000E+00 -0.00000000000E+00 -0.50000499739E+01  0.50000500000E+01  0.51100000000E-03 0. -1.
     100001    1    1    2    0    0  0.10849409966E-01  0.15444174925E-01  0.11990423857E-01  0.50000500000E+01  0.50000000000E+01 0. -1.
     100001    1    1    2    0    0 -0.10849409966E-01 -0.15444174925E-01 -0.11990423857E-01  0.50000500000E+01  0.50000000000E+01 0. -1.
</event>
<event>
 4    1  0.5008549E-001  0.5000050E+01  0.7818608E-02  0.2136455E+00
        -11   -1    0    0    0    0  0.00000000000E+00  0.00000000000E+00  0.50000499739E+01  0.50000500000E+01  0.51100000000E-03 0.  1.
         11   -1    0    0    0    0 -0.00000000000E+00 -0.00000000000E+00 -0.50000499739E+01  0.50000500000E+01  0.51100000000E-03 0. -1.
     100001    1    1    2    0    0  0.20711497534E-01 -0.83824666743E-02  0.87785098566E-03  0.50000500000E+01  0.50000000000E+01 0.  1.
     100001    1    1    2    0    0 -0.20711497534E-01  0.83824666743E-02 -0.87785098566E-03  0.50000500000E+01  0.50000000000E+01 0.  0.
</event>
<event>
 4    1  0.5008549E-001  0.5000050E+01  0.7818608E-02  0.2136455E+00
        -11   -1    0    0    0    0  0.00000000000E+00  0.00000000000E+00  0.50000499739E+01  0.50000500000E+01  0.51100000000E-03 0. -1.
         11   -1    0    0    0    0 -0.00000000000E+00 -0.00000000000E+00 -0.50000499739E+01  0.50000500000E+01  0.51100000000E-03 0.  1.
     100001    1    1    2    0    0 -0.63432054611E-02 -0.69742800603E-02 -0.20276233923E-01  0.50000500000E+01  0.50000000000E+01 0.  1.
     100001    1    1    2    0    0  0.63432054611E-02  0.69742800603E-02  0.20276233923E-01  0.50000500000E+01  0.50000000000E+01 0.  0.
</event>
<event>
 4    1  0.5008549E-001  0.5000050E+01  0.7818608E-02  0.2136455E+00
        -11   -1    0    0    0    0  0.00000000000E+00  0.00000000000E+00  0.50000499739E+01  0.50000500000E+01  0.51100000000E-03 0.  1.
         11   -1    0    0    0    0 -0.00000000000E+00 -0.00000000000E+00 -0.50000499739E+01  0.50000500000E+01  0.51100000000E-03 0. -1.
     100001    1    1    2    0    0 -0.15188658474E-01  0.16650466182E-02  0.16325892732E-01  0.50000500000E+01  0.50000000000E+01 0. -1.
     100001    1    1    2    0    0  0.15188658474E-01 -0.16650466182E-02 -0.16325892732E-01  0.50000500000E+01  0.50000000000E+01 0. -1.
</event>
<event>
 4    1  0.5008549E-001  0.5000050E+01  0.7818608E-02  0.2136455E+00
        -11   -1    0    0    0    0  0.00000000000E+00  0.00000000000E+00  0.50000499739E+01  0.50000500000E+01  0.51100000000E-03 0.  1.
         11   -1    0    0    0    0 -0.00000000000E+00 -0.00000000000E+00 -0.50000499739E+01  0.50000500000E+01  0.51100000000E-03 0. -1.
     100001    1    1    2    0    0 -0.18205458588E-01  0.12495596308E-01 -0.35247482912E-02  0.50000500000E+01  0.50000000000E+01 0. -1.
     100001    1    1    2    0    0  0.18205458588E-01 -0.12495596308E-01  0.35247482912E-02  0.50000500000E+01  0.50000000000E+01 0.  1.
</event>
<event>
 4    1  0.5008549E-001  0.5000050E+01  0.7818608E-02  0.2136455E+00
        -11   -1    0    0    0    0  0.00000000000E+00  0.00000000000E+00  0.50000499739E+01  0.50000500000E+01  0.51100000000E-03 0.  1.
         11   -1    0    0    0    0 -0.00000000000E+00 -0.00000000000E+00 -0.50000499739E+01  0.50000500000E+01  0.51100000000E-03 0. -1.
     100001    1    1    2    0    0 -0.18803106392E-01  0.11621146642E-01  0.33755948714E-02  0.50000500000E+01  0.50000000000E+01 0. -1.
     100001    1    1    2    0    0  0.18803106392E-01 -0.11621146642E-01 -0.33755948714E-02  0.50000500000E+01  0.50000000000E+01 0.  1.
</event>
<event>
 4    1  0.5008549E-001  0.5000050E+01  0.7818608E-02  0.2136455E+00
        -11   -1    0    0    0    0  0.00000000000E+00  0.00000000000E+00  0.50000499739E+01  0.50000500000E+01  0.51100000000E-03 0. -1.
         11   -1    0    0    0    0 -0.00000000000E+00 -0.00000000000E+00 -0.50000499739E+01  0.50000500000E+01  0.51100000000E-03 0.  1.
     100001    1    1    2    0    0 -0.56326837790E-02 -0.11056991858E-01  0.18601567259E-01  0.50000500000E+01  0.50000000000E+01 0.  0.
     100001    1    1    2    0    0  0.56326837790E-02  0.11056991858E-01 -0.18601567259E-01  0.50000500000E+01  0.50000000000E+01 0.  0.
</event>
<event>
 4    1  0.5008549E-001  0.5000050E+01  0.7818608E-02  0.2136455E+00
        -11   -1    0    0    0    0  0.00000000000E+00  0.00000000000E+00  0.50000499739E+01  0.50000500000E+01  0.51100000000E-03 0. -1.
         11   -1    0    0    0    0 -0.00000000000E+00 -0.00000000000E+00 -0.50000499739E+01  0.50000500000E+01  0.51100000000E-03 0.  1.
     100001    1    1    2    0    0  0.21970906261E-01 -0.14788445715E-02 -0.38852022868E-02  0.50000500000E+01  0.50000000000E+01 0.  1.
     100001    1    1    2    0    0 -0.21970906261E-01  0.14788445715E-02  0.38852022868E-02  0.50000500000E+01  0.50000000000E+01 0. -1.
</event>
<event>
 4    1  0.5008549E-001  0.5000050E+01  0.7818608E-02  0.2136455E+00
        -11   -1    0    0    0    0  0.00000000000E+00  0.00000000000E+00  0.50000499739E+01  0.50000500000E+01  0.51100000000E-03 0.  1.
         11   -1    0    0    0    0 -0.00000000000E+00 -0.00000000000E+00 -0.50000499739E+01  0.50000500000E+01  0.51100000000E-03 0. -1.
     100001    1    1    2    0    0  0.13974714381E-01  0.92961653649E-02 -0.14774679945E-01  0.50000500000E+01  0.50000000000E+01 0. -1.
     100001    1    1    2    0    0 -0.13974714381E-01 -0.92961653649E-02  0.14774679945E-01  0.50000500000E+01  0.50000000000E+01 0. -1.
</event>
<event>
 4    1  0.5008549E-001  0.5000050E+01  0.7818608E-02  0.2136455E+00
        -11   -1    0    0    0    0  0.00000000000E+00  0.00000000000E+00  0.50000499739E+01  0.50000500000E+01  0.51100000000E-03 0.  1.
         11   -1    0    0    0    0 -0.00000000000E+00 -0.00000000000E+00 -0.50000499739E+01  0.50000500000E+01  0.51100000000E-03 0. -1.
     100001    1    1    2    0    0  0.81273359952E-02 -0.20831439774E-01 -0.51541669190E-05  0.50000500000E+01  0.50000000000E+01 0.  1.
     100001    1    1    2    0    0 -0.81273359952E-02  0.20831439774E-01  0.51541669190E-05  0.50000500000E+01  0.50000000000E+01 0. -1.
</event>
<event>
 4    1  0.5008549E-001  0.5000050E+01  0.7818608E-02  0.2136455E+00
        -11   -1    0    0    0    0  0.00000000000E+00  0.00000000000E+00  0.50000499739E+01  0.50000500000E+01  0.51100000000E-03 0.  1.
         11   -1    0    0    0    0 -0.00000000000E+00 -0.00000000000E+00 -0.50000499739E+01  0.50000500000E+01  0.51100000000E-03 0. -1.
     100001    1    1    2    0    0 -0.20796113944E-01 -0.76540812688E-02 -0.29898469459E-02  0.50000500000E+01  0.50000000000E+01 0. -1.
     100001    1    1    2    0    0  0.20796113944E-01  0.76540812688E-02  0.29898469459E-02  0.50000500000E+01  0.50000000000E+01 0.  1.
</event>
<event>
 4    1  0.5008549E-001  0.5000050E+01  0.7818608E-02  0.2136455E+00
        -11   -1    0    0    0    0  0.00000000000E+00  0.00000000000E+00  0.50000499739E+01  0.50000500000E+01  0.51100000000E-03 0.  1.
         11   -1    0    0    0    0 -0.00000000000E+00 -0.00000000000E+00 -0.50000499739E+01  0.50000500000E+01  0.51100000000E-03 0. -1.
     100001    1    1    2    0    0 -0.21615982695E-01  0.75340554888E-03 -0.56731095725E-02  0.50000500000E+01  0.50000000000E+01 0. -1.
     100001    1    1    2    0    0  0.21615982695E-01 -0.75340554888E-03  0.56731095725E-02  0.50000500000E+01  0.50000000000E+01 0.  1.
</event>
<event>
 4    1  0.5008549E-001  0.5000050E+01  0.7818608E-02  0.2136455E+00
        -11   -1    0    0    0    0  0.00000000000E+00  0.00000000000E+00  0.50000499739E+01  0.50000500000E+01  0.51100000000E-03 0.  1.
         11   -1    0    0    0    0 -0.00000000000E+00 -0.00000000000E+00 -0.50000499739E+01  0.50000500000E+01  0.51100000000E-03 0. -1.
     100001    1    1    2    0    0 -0.14022283067E-01 -0.17242014923E-01  0.24679949316E-02  0.50000500000E+01  0.50000000000E+01 0.  0.
     100001    1    1    2    0    0  0.14022283067E-01  0.17242014923E-01 -0.24679949316E-02  0.50000500000E+01  0.50000000000E+01 0.  1.
</event>
<event>
 4    1  0.5008549E-001  0.5000050E+01  0.7818608E-02  0.2136455E+00
        -11   -1    0    0    0    0  0.00000000000E+00  0.00000000000E+00  0.50000499739E+01  0.50000500000E+01  0.51100000000E-03 0. -1.
         11   -1    0    0    0    0 -0.00000000000E+00 -0.00000000000E+00 -0.50000499739E+01  0.50000500000E+01  0.51100000000E-03 0.  1.
     100001    1    1    2    0    0  0.22824299896E-02  0.18053401409E-01 -0.12994910962E-01  0.50000500000E+01  0.50000000000E+01 0.  1.
     100001    1    1    2    0    0 -0.22824299896E-02 -0.18053401409E-01  0.12994910962E-01  0.50000500000E+01  0.50000000000E+01 0.  1.
</event>
<event>
 4    1  0.5008549E-001  0.5000050E+01  0.7818608E-02  0.2136455E+00
        -11   -1    0    0    0    0  0.00000000000E+00  0.00000000000E+00  0.50000499739E+01  0.50000500000E+01  0.51100000000E-03 0.  1.
         11   -1    0    0    0    0 -0.00000000000E+00 -0.00000000000E+00 -0.50000499739E+01  0.50000500000E+01  0.51100000000E-03 0. -1.
     100001    1    1    2    0    0  0.14152486092E-01  0.16300055847E-01 -0.58324794722E-02  0.50000500000E+01  0.50000000000E+01 0. -1.
     100001    1    1    2    0    0 -0.14152486092E-01 -0.16300055847E-01  0.58324794722E-02  0.50000500000E+01  0.50000000000E+01 0.  1.
</event>
<event>
 4    1  0.5008549E-001  0.5000050E+01  0.7818608E-02  0.2136455E+00
        -11   -1    0    0    0    0  0.00000000000E+00  0.00000000000E+00  0.50000499739E+01  0.50000500000E+01  0.51100000000E-03 0.  1.
         11   -1    0    0    0    0 -0.00000000000E+00 -0.00000000000E+00 -0.50000499739E+01  0.50000500000E+01  0.51100000000E-03 0. -1.
     100001    1    1    2    0    0  0.13117920478E-01  0.22345930869E-02 -0.17970232499E-01  0.50000500000E+01  0.50000000000E+01 0.  0.
     100001    1    1    2    0    0 -0.13117920478E-01 -0.22345930869E-02  0.17970232499E-01  0.50000500000E+01  0.50000000000E+01 0.  0.
</event>
<event>
 4    1  0.5008549E-001  0.5000050E+01  0.7818608E-02  0.2136455E+00
        -11   -1    0    0    0    0  0.00000000000E+00  0.00000000000E+00  0.50000499739E+01  0.50000500000E+01  0.51100000000E-03 0.  1.
         11   -1    0    0    0    0 -0.00000000000E+00 -0.00000000000E+00 -0.50000499739E+01  0.50000500000E+01  0.51100000000E-03 0. -1.
     100001    1    1    2    0    0  0.30605387912E-02  0.22086775762E-01  0.16762871859E-02  0.50000500000E+01  0.50000000000E+01 0.  1.
     100001    1    1    2    0    0 -0.30605387912E-02 -0.22086775762E-01 -0.16762871859E-02  0.50000500000E+01  0.50000000000E+01 0.  0.
</event>
<event>
 4    1  0.5008549E-001  0.5000050E+01  0.7818608E-02  0.2136455E+00
        -11   -1    0    0    0    0  0.00000000000E+00  0.00000000000E+00  0.50000499739E+01  0.50000500000E+01  0.51100000000E-03 0. -1.
         11   -1    0    0    0    0 -0.00000000000E+00 -0.00000000000E+00 -0.50000499739E+01  0.50000500000E+01  0.51100000000E-03 0.  1.
     100001    1    1    2    0    0 -0.11648839191E-01  0.11654579522E-01  0.15115482846E-01  0.50000500000E+01  0.50000000000E+01 0.  1.
     100001    1    1    2    0    0  0.11648839191E-01 -0.11654579522E-01 -0.15115482846E-01  0.50000500000E+01  0.50000000000E+01 0.  1.
</event>
<event>
 4    1  0.5008549E-001  0.5000050E+01  0.7818608E-02  0.2136455E+00
        -11   -1    0    0    0    0  0.00000000000E+00  0.00000000000E+00  0.50000499739E+01  0.50000500000E+01  0.51100000000E-03 0. -1.
         11   -1    0    0    0    0 -0.00000000000E+00 -0.00000000000E+00 -0.50000499739E+01  0.50000500000E+01  0.51100000000E-03 0.  1.
     100001    1    1    2    0    0 -0.10706060376E-01 -0.10866077473E-02  0.19601072798E-01  0.50000500000E+01  0.50000000000E+01 0. -1.
     100001    1    1    2    0    0  0.10706060376E-01  0.10866077473E-02 -0.19601072798E-01  0.50000500000E+01  0.50000000000E+01 0.  0.
</event>
<event>
 4    1  0.5008549E-001  0.5000050E+01  0.7818608E-02  0.2136455E+00
        -11   -1    0    0    0    0  0.00000000000E+00  0.00000000000E+00  0.50000499739E+01  0.50000500000E+01  0.51100000000E-03 0.  1.
         11   -1    0    0    0    0 -0.00000000000E+00 -0.00000000000E+00 -0.50000499739E+01  0.50000500000E+01  0.51100000000E-03 0. -1.
     100001    1    1    2    0    0  0.39853589862E-02  0.21944665698E-01 -0.15972041607E-02  0.50000500000E+01  0.50000000000E+01 0.  1.
     100001    1    1    2    0    0 -0.39853589862E-02 -0.21944665698E-01  0.15972041607E-02  0.50000500000E+01  0.50000000000E+01 0. -1.
</event>
<event>
 4    1  0.5008549E-001  0.5000050E+01  0.7818608E-02  0.2136455E+00
        -11   -1    0    0    0    0  0.00000000000E+00  0.00000000000E+00  0.50000499739E+01  0.50000500000E+01  0.51100000000E-03 0.  1.
         11   -1    0    0    0    0 -0.00000000000E+00 -0.00000000000E+00 -0.50000499739E+01  0.50000500000E+01  0.51100000000E-03 0. -1.
     100001    1    1    2    0    0  0.19835801715E-01 -0.34773629076E-03  0.10316130563E-01  0.50000500000E+01  0.50000000000E+01 0. -1.
     100001    1    1    2    0    0 -0.19835801715E-01  0.34773629076E-03 -0.10316130563E-01  0.50000500000E+01  0.50000000000E+01 0.  0.
</event>
<event>
 4    1  0.5008549E-001  0.5000050E+01  0.7818608E-02  0.2136455E+00
        -11   -1    0    0    0    0  0.00000000000E+00  0.00000000000E+00  0.50000499739E+01  0.50000500000E+01  0.51100000000E-03 0.  1.
         11   -1    0    0    0    0 -0.00000000000E+00 -0.00000000000E+00 -0.50000499739E+01  0.50000500000E+01  0.51100000000E-03 0. -1.
     100001    1    1    2    0    0 -0.74941836500E-02 -0.19846144517E-01  0.70689645075E-02  0.50000500000E+01  0.50000000000E+01 0.  1.
     100001    1    1    2    0    0  0.74941836500E-02  0.19846144517E-01 -0.70689645075E-02  0.50000500000E+01  0.50000000000E+01 0. -1.
</event>
<event>
 4    1  0.5008549E-001  0.5000050E+01  0.7818608E-02  0.2136455E+00
        -11   -1    0    0    0    0  0.00000000000E+00  0.00000000000E+00  0.50000499739E+01  0.50000500000E+01  0.51100000000E-03 0.  1.
         11   -1    0    0    0    0 -0.00000000000E+00 -0.00000000000E+00 -0.50000499739E+01  0.50000500000E+01  0.51100000000E-03 0. -1.
     100001    1    1    2    0    0  0.19640655966E-01 -0.49706211178E-02  0.94625609066E-02  0.50000500000E+01  0.50000000000E+01 0. -1.
     100001    1    1    2    0    0 -0.19640655966E-01  0.49706211178E-02 -0.94625609066E-02  0.50000500000E+01  0.50000000000E+01 0.  0.
</event>
<event>
 4    1  0.5008549E-001  0.5000050E+01  0.7818608E-02  0.2136455E+00
        -11   -1    0    0    0    0  0.00000000000E+00  0.00000000000E+00  0.50000499739E+01  0.50000500000E+01  0.51100000000E-03 0. -1.
         11   -1    0    0    0    0 -0.00000000000E+00 -0.00000000000E+00 -0.50000499739E+01  0.50000500000E+01  0.51100000000E-03 0.  1.
     100001    1    1    2    0    0  0.11452725329E-01 -0.17852753447E-01 -0.70793203709E-02  0.50000500000E+01  0.50000000000E+01 0.  1.
     100001    1    1    2    0    0 -0.11452725329E-01  0.17852753447E-01  0.70793203709E-02  0.50000500000E+01  0.50000000000E+01 0. -1.
</event>
<event>
 4    1  0.5008549E-001  0.5000050E+01  0.7818608E-02  0.2136455E+00
        -11   -1    0    0    0    0  0.00000000000E+00  0.00000000000E+00  0.50000499739E+01  0.50000500000E+01  0.51100000000E-03 0. -1.
         11   -1    0    0    0    0 -0.00000000000E+00 -0.00000000000E+00 -0.50000499739E+01  0.50000500000E+01  0.51100000000E-03 0.  1.
     100001    1    1    2    0    0 -0.14017011888E-01 -0.27837046682E-03 -0.17419770022E-01  0.50000500000E+01  0.50000000000E+01 0.  0.
     100001    1    1    2    0    0  0.14017011888E-01  0.27837046682E-03  0.17419770022E-01  0.50000500000E+01  0.50000000000E+01 0.  0.
</event>
<event>
 4    1  0.5008549E-001  0.5000050E+01  0.7818608E-02  0.2136455E+00
        -11   -1    0    0    0    0  0.00000000000E+00  0.00000000000E+00  0.50000499739E+01  0.50000500000E+01  0.51100000000E-03 0.  1.
         11   -1    0    0    0    0 -0.00000000000E+00 -0.00000000000E+00 -0.50000499739E+01  0.50000500000E+01  0.51100000000E-03 0. -1.
     100001    1    1    2    0    0  0.17849728165E-01 -0.13369630232E-01 -0.16256358487E-02  0.50000500000E+01  0.50000000000E+01 0.  0.
     100001    1    1    2    0    0 -0.17849728165E-01  0.13369630232E-01  0.16256358487E-02  0.50000500000E+01  0.50000000000E+01 0.  1.
</event>
<event>
 4    1  0.5008549E-001  0.5000050E+01  0.7818608E-02  0.2136455E+00
        -11   -1    0    0    0    0  0.00000000000E+00  0.00000000000E+00  0.50000499739E+01  0.50000500000E+01  0.51100000000E-03 0.  1.
         11   -1    0    0    0    0 -0.00000000000E+00 -0.00000000000E+00 -0.50000499739E+01  0.50000500000E+01  0.51100000000E-03 0. -1.
     100001    1    1    2    0    0 -0.83342955618E-02 -0.19848727012E-01  0.60473178744E-02  0.50000500000E+01  0.50000000000E+01 0.  0.
     100001    1    1    2    0    0  0.83342955618E-02  0.19848727012E-01 -0.60473178744E-02  0.50000500000E+01  0.50000000000E+01 0.  0.
</event>
<event>
 4    1  0.5008549E-001  0.5000050E+01  0.7818608E-02  0.2136455E+00
        -11   -1    0    0    0    0  0.00000000000E+00  0.00000000000E+00  0.50000499739E+01  0.50000500000E+01  0.51100000000E-03 0.  1.
         11   -1    0    0    0    0 -0.00000000000E+00 -0.00000000000E+00 -0.50000499739E+01  0.50000500000E+01  0.51100000000E-03 0. -1.
     100001    1    1    2    0    0  0.22007971598E-01 -0.38769444281E-02  0.78802795403E-03  0.50000500000E+01  0.50000000000E+01 0. -1.
     100001    1    1    2    0    0 -0.22007971598E-01  0.38769444281E-02 -0.78802795403E-03  0.50000500000E+01  0.50000000000E+01 0.  1.
</event>
<event>
 4    1  0.5008549E-001  0.5000050E+01  0.7818608E-02  0.2136455E+00
        -11   -1    0    0    0    0  0.00000000000E+00  0.00000000000E+00  0.50000499739E+01  0.50000500000E+01  0.51100000000E-03 0.  1.
         11   -1    0    0    0    0 -0.00000000000E+00 -0.00000000000E+00 -0.50000499739E+01  0.50000500000E+01  0.51100000000E-03 0. -1.
     100001    1    1    2    0    0  0.18764872194E-02  0.22268331582E-01 -0.77634028944E-03  0.50000500000E+01  0.50000000000E+01 0.  0.
     100001    1    1    2    0    0 -0.18764872194E-02 -0.22268331582E-01  0.77634028944E-03  0.50000500000E+01  0.50000000000E+01 0.  1.
</event>
<event>
 4    1  0.5008549E-001  0.5000050E+01  0.7818608E-02  0.2136455E+00
        -11   -1    0    0    0    0  0.00000000000E+00  0.00000000000E+00  0.50000499739E+01  0.50000500000E+01  0.51100000000E-03 0. -1.
         11   -1    0    0    0    0 -0.00000000000E+00 -0.00000000000E+00 -0.50000499739E+01  0.50000500000E+01  0.51100000000E-03 0.  1.
     100001    1    1    2    0    0 -0.17259209049E-01 -0.14141501382E-01  0.14629223054E-02  0.50000500000E+01  0.50000000000E+01 0.  0.
     100001    1    1    2    0    0  0.17259209049E-01  0.14141501382E-01 -0.14629223054E-02  0.50000500000E+01  0.50000000000E+01 0.  1.
</event>
<event>
 4    1  0.5008549E-001  0.5000050E+01  0.7818608E-02  0.2136455E+00
        -11   -1    0    0    0    0  0.00000000000E+00  0.00000000000E+00  0.50000499739E+01  0.50000500000E+01  0.51100000000E-03 0. -1.
         11   -1    0    0    0    0 -0.00000000000E+00 -0.00000000000E+00 -0.50000499739E+01  0.50000500000E+01  0.51100000000E-03 0.  1.
     100001    1    1    2    0    0 -0.13162337172E-01  0.50609539361E-02  0.17353447076E-01  0.50000500000E+01  0.50000000000E+01 0. -1.
     100001    1    1    2    0    0  0.13162337172E-01 -0.50609539361E-02 -0.17353447076E-01  0.50000500000E+01  0.50000000000E+01 0.  1.
</event>
<event>
 4    1  0.5008549E-001  0.5000050E+01  0.7818608E-02  0.2136455E+00
        -11   -1    0    0    0    0  0.00000000000E+00  0.00000000000E+00  0.50000499739E+01  0.50000500000E+01  0.51100000000E-03 0.  1.
         11   -1    0    0    0    0 -0.00000000000E+00 -0.00000000000E+00 -0.50000499739E+01  0.50000500000E+01  0.51100000000E-03 0. -1.
     100001    1    1    2    0    0  0.22219808305E-01 -0.66425162758E-03 -0.24168964958E-02  0.50000500000E+01  0.50000000000E+01 0.  1.
     100001    1    1    2    0    0 -0.22219808305E-01  0.66425162758E-03  0.24168964958E-02  0.50000500000E+01  0.50000000000E+01 0. -1.
</event>
<event>
 4    1  0.5008549E-001  0.5000050E+01  0.7818608E-02  0.2136455E+00
        -11   -1    0    0    0    0  0.00000000000E+00  0.00000000000E+00  0.50000499739E+01  0.50000500000E+01  0.51100000000E-03 0. -1.
         11   -1    0    0    0    0 -0.00000000000E+00 -0.00000000000E+00 -0.50000499739E+01  0.50000500000E+01  0.51100000000E-03 0.  1.
     100001    1    1    2    0    0 -0.38040774707E-02  0.22003218028E-01  0.11789363882E-02  0.50000500000E+01  0.50000000000E+01 0. -1.
     100001    1    1    2    0    0  0.38040774707E-02 -0.22003218028E-01 -0.11789363882E-02  0.50000500000E+01  0.50000000000E+01 0.  1.
</event>
<event>
 4    1  0.5008549E-001  0.5000050E+01  0.7818608E-02  0.2136455E+00
        -11   -1    0    0    0    0  0.00000000000E+00  0.00000000000E+00  0.50000499739E+01  0.50000500000E+01  0.51100000000E-03 0.  1.
         11   -1    0    0    0    0 -0.00000000000E+00 -0.00000000000E+00 -0.50000499739E+01  0.50000500000E+01  0.51100000000E-03 0. -1.
     100001    1    1    2    0    0  0.12880963153E-01 -0.17991275733E-01  0.32244822476E-02  0.50000500000E+01  0.50000000000E+01 0. -1.
     100001    1    1    2    0    0 -0.12880963153E-01  0.17991275733E-01 -0.32244822476E-02  0.50000500000E+01  0.50000000000E+01 0.  1.
</event>
<event>
 4    1  0.5008549E-001  0.5000050E+01  0.7818608E-02  0.2136455E+00
        -11   -1    0    0    0    0  0.00000000000E+00  0.00000000000E+00  0.50000499739E+01  0.50000500000E+01  0.51100000000E-03 0. -1.
         11   -1    0    0    0    0 -0.00000000000E+00 -0.00000000000E+00 -0.50000499739E+01  0.50000500000E+01  0.51100000000E-03 0.  1.
     100001    1    1    2    0    0  0.13708107752E-01 -0.52041717356E-02  0.16882146736E-01  0.50000500000E+01  0.50000000000E+01 0. -1.
     100001    1    1    2    0    0 -0.13708107752E-01  0.52041717356E-02 -0.16882146736E-01  0.50000500000E+01  0.50000000000E+01 0.  0.
</event>
<event>
 4    1  0.5008549E-001  0.5000050E+01  0.7818608E-02  0.2136455E+00
        -11   -1    0    0    0    0  0.00000000000E+00  0.00000000000E+00  0.50000499739E+01  0.50000500000E+01  0.51100000000E-03 0.  1.
         11   -1    0    0    0    0 -0.00000000000E+00 -0.00000000000E+00 -0.50000499739E+01  0.50000500000E+01  0.51100000000E-03 0. -1.
     100001    1    1    2    0    0 -0.13573956424E-01 -0.85580907918E-02  0.15572709751E-01  0.50000500000E+01  0.50000000000E+01 0.  0.
     100001    1    1    2    0    0  0.13573956424E-01  0.85580907918E-02 -0.15572709751E-01  0.50000500000E+01  0.50000000000E+01 0.  0.
</event>
<event>
 4    1  0.5008549E-001  0.5000050E+01  0.7818608E-02  0.2136455E+00
        -11   -1    0    0    0    0  0.00000000000E+00  0.00000000000E+00  0.50000499739E+01  0.50000500000E+01  0.51100000000E-03 0.  1.
         11   -1    0    0    0    0 -0.00000000000E+00 -0.00000000000E+00 -0.50000499739E+01  0.50000500000E+01  0.51100000000E-03 0. -1.
     100001    1    1    2    0    0  0.12761097152E-01 -0.11259713602E-01 -0.14504335527E-01  0.50000500000E+01  0.50000000000E+01 0. -1.
     100001    1    1    2    0    0 -0.12761097152E-01  0.11259713602E-01  0.14504335527E-01  0.50000500000E+01  0.50000000000E+01 0. -1.
</event>
<event>
 4    1  0.5008549E-001  0.5000050E+01  0.7818608E-02  0.2136455E+00
        -11   -1    0    0    0    0  0.00000000000E+00  0.00000000000E+00  0.50000499739E+01  0.50000500000E+01  0.51100000000E-03 0.  1.
         11   -1    0    0    0    0 -0.00000000000E+00 -0.00000000000E+00 -0.50000499739E+01  0.50000500000E+01  0.51100000000E-03 0. -1.
     100001    1    1    2    0    0  0.13238197106E-01 -0.40758787199E-02 -0.17553912671E-01  0.50000500000E+01  0.50000000000E+01 0.  0.
     100001    1    1    2    0    0 -0.13238197106E-01  0.40758787199E-02  0.17553912671E-01  0.50000500000E+01  0.50000000000E+01 0. -1.
</event>
<event>
 4    1  0.5008549E-001  0.5000050E+01  0.7818608E-02  0.2136455E+00
        -11   -1    0    0    0    0  0.00000000000E+00  0.00000000000E+00  0.50000499739E+01  0.50000500000E+01  0.51100000000E-03 0. -1.
         11   -1    0    0    0    0 -0.00000000000E+00 -0.00000000000E+00 -0.50000499739E+01  0.50000500000E+01  0.51100000000E-03 0.  1.
     100001    1    1    2    0    0 -0.18371839413E-01  0.49246443672E-02  0.11756950899E-01  0.50000500000E+01  0.50000000000E+01 0. -1.
     100001    1    1    2    0    0  0.18371839413E-01 -0.49246443672E-02 -0.11756950899E-01  0.50000500000E+01  0.50000000000E+01 0.  1.
</event>
<event>
 4    1  0.5008549E-001  0.5000050E+01  0.7818608E-02  0.2136455E+00
        -11   -1    0    0    0    0  0.00000000000E+00  0.00000000000E+00  0.50000499739E+01  0.50000500000E+01  0.51100000000E-03 0.  1.
         11   -1    0    0    0    0 -0.00000000000E+00 -0.00000000000E+00 -0.50000499739E+01  0.50000500000E+01  0.51100000000E-03 0. -1.
     100001    1    1    2    0    0  0.52776213703E-02  0.37864618976E-03 -0.21725695380E-01  0.50000500000E+01  0.50000000000E+01 0. -1.
     100001    1    1    2    0    0 -0.52776213703E-02 -0.37864618976E-03  0.21725695380E-01  0.50000500000E+01  0.50000000000E+01 0.  0.
</event>
<event>
 4    1  0.5008549E-001  0.5000050E+01  0.7818608E-02  0.2136455E+00
        -11   -1    0    0    0    0  0.00000000000E+00  0.00000000000E+00  0.50000499739E+01  0.50000500000E+01  0.51100000000E-03 0. -1.
         11   -1    0    0    0    0 -0.00000000000E+00 -0.00000000000E+00 -0.50000499739E+01  0.50000500000E+01  0.51100000000E-03 0.  1.
     100001    1    1    2    0    0 -0.80415836052E-02  0.19743499887E-01 -0.67475658814E-02  0.50000500000E+01  0.50000000000E+01 0. -1.
     100001    1    1    2    0    0  0.80415836052E-02 -0.19743499887E-01  0.67475658814E-02  0.50000500000E+01  0.50000000000E+01 0.  0.
</event>
<event>
 4    1  0.5008549E-001  0.5000050E+01  0.7818608E-02  0.2136455E+00
        -11   -1    0    0    0    0  0.00000000000E+00  0.00000000000E+00  0.50000499739E+01  0.50000500000E+01  0.51100000000E-03 0.  1.
         11   -1    0    0    0    0 -0.00000000000E+00 -0.00000000000E+00 -0.50000499739E+01  0.50000500000E+01  0.51100000000E-03 0. -1.
     100001    1    1    2    0    0  0.19712519831E-01  0.30861398152E-02 -0.10094295564E-01  0.50000500000E+01  0.50000000000E+01 0.  0.
     100001    1    1    2    0    0 -0.19712519831E-01 -0.30861398152E-02  0.10094295564E-01  0.50000500000E+01  0.50000000000E+01 0.  0.
</event>
<event>
 4    1  0.5008549E-001  0.5000050E+01  0.7818608E-02  0.2136455E+00
        -11   -1    0    0    0    0  0.00000000000E+00  0.00000000000E+00  0.50000499739E+01  0.50000500000E+01  0.51100000000E-03 0.  1.
         11   -1    0    0    0    0 -0.00000000000E+00 -0.00000000000E+00 -0.50000499739E+01  0.50000500000E+01  0.51100000000E-03 0. -1.
     100001    1    1    2    0    0  0.22439663779E-02 -0.14581449957E-01 -0.16803226834E-01  0.50000500000E+01  0.50000000000E+01 0.  0.
     100001    1    1    2    0    0 -0.22439663779E-02  0.14581449957E-01  0.16803226834E-01  0.50000500000E+01  0.50000000000E+01 0.  0.
</event>
<event>
 4    1  0.5008549E-001  0.5000050E+01  0.7818608E-02  0.2136455E+00
        -11   -1    0    0    0    0  0.00000000000E+00  0.00000000000E+00  0.50000499739E+01  0.50000500000E+01  0.51100000000E-03 0. -1.
         11   -1    0    0    0    0 -0.00000000000E+00 -0.00000000000E+00 -0.50000499739E+01  0.50000500000E+01  0.51100000000E-03 0.  1.
     100001    1    1    2    0    0  0.22017008090E-01 -0.27395272969E-02 -0.27836747171E-02  0.50000500000E+01  0.50000000000E+01 0.  1.
     100001    1    1    2    0    0 -0.22017008090E-01  0.27395272969E-02  0.27836747171E-02  0.50000500000E+01  0.50000000000E+01 0.  1.
</event>
<event>
 4    1  0.5008549E-001  0.5000050E+01  0.7818608E-02  0.2136455E+00
        -11   -1    0    0    0    0  0.00000000000E+00  0.00000000000E+00  0.50000499739E+01  0.50000500000E+01  0.51100000000E-03 0. -1.
         11   -1    0    0    0    0 -0.00000000000E+00 -0.00000000000E+00 -0.50000499739E+01  0.50000500000E+01  0.51100000000E-03 0.  1.
     100001    1    1    2    0    0 -0.57303998190E-02  0.17029592756E-01  0.13310070942E-01  0.50000500000E+01  0.50000000000E+01 0.  0.
     100001    1    1    2    0    0  0.57303998190E-02 -0.17029592756E-01 -0.13310070942E-01  0.50000500000E+01  0.50000000000E+01 0. -1.
</event>
<event>
 4    1  0.5008549E-001  0.5000050E+01  0.7818608E-02  0.2136455E+00
        -11   -1    0    0    0    0  0.00000000000E+00  0.00000000000E+00  0.50000499739E+01  0.50000500000E+01  0.51100000000E-03 0. -1.
         11   -1    0    0    0    0 -0.00000000000E+00 -0.00000000000E+00 -0.50000499739E+01  0.50000500000E+01  0.51100000000E-03 0.  1.
     100001    1    1    2    0    0 -0.87401435773E-02  0.12463485115E-01  0.16379069846E-01  0.50000500000E+01  0.50000000000E+01 0. -1.
     100001    1    1    2    0    0  0.87401435773E-02 -0.12463485115E-01 -0.16379069846E-01  0.50000500000E+01  0.50000000000E+01 0.  1.
</event>
<event>
 4    1  0.5008549E-001  0.5000050E+01  0.7818608E-02  0.2136455E+00
        -11   -1    0    0    0    0  0.00000000000E+00  0.00000000000E+00  0.50000499739E+01  0.50000500000E+01  0.51100000000E-03 0.  1.
         11   -1    0    0    0    0 -0.00000000000E+00 -0.00000000000E+00 -0.50000499739E+01  0.50000500000E+01  0.51100000000E-03 0. -1.
     100001    1    1    2    0    0  0.50909447183E-02 -0.19949727739E-01 -0.87231384834E-02  0.50000500000E+01  0.50000000000E+01 0. -1.
     100001    1    1    2    0    0 -0.50909447183E-02  0.19949727739E-01  0.87231384834E-02  0.50000500000E+01  0.50000000000E+01 0.  1.
</event>
<event>
 4    1  0.5008549E-001  0.5000050E+01  0.7818608E-02  0.2136455E+00
        -11   -1    0    0    0    0  0.00000000000E+00  0.00000000000E+00  0.50000499739E+01  0.50000500000E+01  0.51100000000E-03 0. -1.
         11   -1    0    0    0    0 -0.00000000000E+00 -0.00000000000E+00 -0.50000499739E+01  0.50000500000E+01  0.51100000000E-03 0.  1.
     100001    1    1    2    0    0 -0.41930860275E-02  0.19025200629E-01  0.10975530537E-01  0.50000500000E+01  0.50000000000E+01 0.  0.
     100001    1    1    2    0    0  0.41930860275E-02 -0.19025200629E-01 -0.10975530537E-01  0.50000500000E+01  0.50000000000E+01 0.  0.
</event>
<event>
 4    1  0.5008549E-001  0.5000050E+01  0.7818608E-02  0.2136455E+00
        -11   -1    0    0    0    0  0.00000000000E+00  0.00000000000E+00  0.50000499739E+01  0.50000500000E+01  0.51100000000E-03 0.  1.
         11   -1    0    0    0    0 -0.00000000000E+00 -0.00000000000E+00 -0.50000499739E+01  0.50000500000E+01  0.51100000000E-03 0. -1.
     100001    1    1    2    0    0 -0.43684112765E-02  0.11500158542E-01  0.18672595867E-01  0.50000500000E+01  0.50000000000E+01 0. -1.
     100001    1    1    2    0    0  0.43684112765E-02 -0.11500158542E-01 -0.18672595867E-01  0.50000500000E+01  0.50000000000E+01 0. -1.
</event>
<event>
 4    1  0.5008549E-001  0.5000050E+01  0.7818608E-02  0.2136455E+00
        -11   -1    0    0    0    0  0.00000000000E+00  0.00000000000E+00  0.50000499739E+01  0.50000500000E+01  0.51100000000E-03 0. -1.
         11   -1    0    0    0    0 -0.00000000000E+00 -0.00000000000E+00 -0.50000499739E+01  0.50000500000E+01  0.51100000000E-03 0.  1.
     100001    1    1    2    0    0  0.75183269935E-02  0.20805527868E-01 -0.32568803123E-02  0.50000500000E+01  0.50000000000E+01 0.  0.
     100001    1    1    2    0    0 -0.75183269935E-02 -0.20805527868E-01  0.32568803123E-02  0.50000500000E+01  0.50000000000E+01 0.  1.
</event>
<event>
 4    1  0.5008549E-001  0.5000050E+01  0.7818608E-02  0.2136455E+00
        -11   -1    0    0    0    0  0.00000000000E+00  0.00000000000E+00  0.50000499739E+01  0.50000500000E+01  0.51100000000E-03 0.  1.
         11   -1    0    0    0    0 -0.00000000000E+00 -0.00000000000E+00 -0.50000499739E+01  0.50000500000E+01  0.51100000000E-03 0. -1.
     100001    1    1    2    0    0  0.70660728613E-02  0.19868859571E-01 -0.74365000945E-02  0.50000500000E+01  0.50000000000E+01 0. -1.
     100001    1    1    2    0    0 -0.70660728613E-02 -0.19868859571E-01  0.74365000945E-02  0.50000500000E+01  0.50000000000E+01 0.  1.
</event>
<event>
 4    1  0.5008549E-001  0.5000050E+01  0.7818608E-02  0.2136455E+00
        -11   -1    0    0    0    0  0.00000000000E+00  0.00000000000E+00  0.50000499739E+01  0.50000500000E+01  0.51100000000E-03 0.  1.
         11   -1    0    0    0    0 -0.00000000000E+00 -0.00000000000E+00 -0.50000499739E+01  0.50000500000E+01  0.51100000000E-03 0. -1.
     100001    1    1    2    0    0  0.21488235482E-01 -0.56368168304E-02 -0.25464744059E-02  0.50000500000E+01  0.50000000000E+01 0.  1.
     100001    1    1    2    0    0 -0.21488235482E-01  0.56368168304E-02  0.25464744059E-02  0.50000500000E+01  0.50000000000E+01 0. -1.
</event>
<event>
 4    1  0.5008549E-001  0.5000050E+01  0.7818608E-02  0.2136455E+00
        -11   -1    0    0    0    0  0.00000000000E+00  0.00000000000E+00  0.50000499739E+01  0.50000500000E+01  0.51100000000E-03 0.  1.
         11   -1    0    0    0    0 -0.00000000000E+00 -0.00000000000E+00 -0.50000499739E+01  0.50000500000E+01  0.51100000000E-03 0. -1.
     100001    1    1    2    0    0 -0.21823735244E-01  0.42439798593E-02  0.23907561452E-02  0.50000500000E+01  0.50000000000E+01 0. -1.
     100001    1    1    2    0    0  0.21823735244E-01 -0.42439798593E-02 -0.23907561452E-02  0.50000500000E+01  0.50000000000E+01 0.  1.
</event>
<event>
 4    1  0.5008549E-001  0.5000050E+01  0.7818608E-02  0.2136455E+00
        -11   -1    0    0    0    0  0.00000000000E+00  0.00000000000E+00  0.50000499739E+01  0.50000500000E+01  0.51100000000E-03 0.  1.
         11   -1    0    0    0    0 -0.00000000000E+00 -0.00000000000E+00 -0.50000499739E+01  0.50000500000E+01  0.51100000000E-03 0. -1.
     100001    1    1    2    0    0 -0.11806324362E-01  0.13266526674E-01 -0.13587217341E-01  0.50000500000E+01  0.50000000000E+01 0.  1.
     100001    1    1    2    0    0  0.11806324362E-01 -0.13266526674E-01  0.13587217341E-01  0.50000500000E+01  0.50000000000E+01 0.  0.
</event>
<event>
 4    1  0.5008549E-001  0.5000050E+01  0.7818608E-02  0.2136455E+00
        -11   -1    0    0    0    0  0.00000000000E+00  0.00000000000E+00  0.50000499739E+01  0.50000500000E+01  0.51100000000E-03 0. -1.
         11   -1    0    0    0    0 -0.00000000000E+00 -0.00000000000E+00 -0.50000499739E+01  0.50000500000E+01  0.51100000000E-03 0.  1.
     100001    1    1    2    0    0 -0.19610094521E-01  0.83755680790E-02  0.67302713345E-02  0.50000500000E+01  0.50000000000E+01 0. -1.
     100001    1    1    2    0    0  0.19610094521E-01 -0.83755680790E-02 -0.67302713345E-02  0.50000500000E+01  0.50000000000E+01 0.  1.
</event>
<event>
 4    1  0.5008549E-001  0.5000050E+01  0.7818608E-02  0.2136455E+00
        -11   -1    0    0    0    0  0.00000000000E+00  0.00000000000E+00  0.50000499739E+01  0.50000500000E+01  0.51100000000E-03 0.  1.
         11   -1    0    0    0    0 -0.00000000000E+00 -0.00000000000E+00 -0.50000499739E+01  0.50000500000E+01  0.51100000000E-03 0. -1.
     100001    1    1    2    0    0 -0.56210337032E-02 -0.17180476486E-02 -0.21574401322E-01  0.50000500000E+01  0.50000000000E+01 0. -1.
     100001    1    1    2    0    0  0.56210337032E-02  0.17180476486E-02  0.21574401322E-01  0.50000500000E+01  0.50000000000E+01 0.  0.
</event>
<event>
 4    1  0.5008549E-001  0.5000050E+01  0.7818608E-02  0.2136455E+00
        -11   -1    0    0    0    0  0.00000000000E+00  0.00000000000E+00  0.50000499739E+01  0.50000500000E+01  0.51100000000E-03 0. -1.
         11   -1    0    0    0    0 -0.00000000000E+00 -0.00000000000E+00 -0.50000499739E+01  0.50000500000E+01  0.51100000000E-03 0.  1.
     100001    1    1    2    0    0  0.39969930012E-02 -0.18813447457E-01  0.11405294460E-01  0.50000500000E+01  0.50000000000E+01 0. -1.
     100001    1    1    2    0    0 -0.39969930012E-02  0.18813447457E-01 -0.11405294460E-01  0.50000500000E+01  0.50000000000E+01 0.  1.
</event>
<event>
 4    1  0.5008549E-001  0.5000050E+01  0.7818608E-02  0.2136455E+00
        -11   -1    0    0    0    0  0.00000000000E+00  0.00000000000E+00  0.50000499739E+01  0.50000500000E+01  0.51100000000E-03 0.  1.
         11   -1    0    0    0    0 -0.00000000000E+00 -0.00000000000E+00 -0.50000499739E+01  0.50000500000E+01  0.51100000000E-03 0. -1.
     100001    1    1    2    0    0 -0.43862770935E-02  0.17538129949E-01 -0.13159675952E-01  0.50000500000E+01  0.50000000000E+01 0.  0.
     100001    1    1    2    0    0  0.43862770935E-02 -0.17538129949E-01  0.13159675952E-01  0.50000500000E+01  0.50000000000E+01 0.  0.
</event>
<event>
 4    1  0.5008549E-001  0.5000050E+01  0.7818608E-02  0.2136455E+00
        -11   -1    0    0    0    0  0.00000000000E+00  0.00000000000E+00  0.50000499739E+01  0.50000500000E+01  0.51100000000E-03 0. -1.
         11   -1    0    0    0    0 -0.00000000000E+00 -0.00000000000E+00 -0.50000499739E+01  0.50000500000E+01  0.51100000000E-03 0.  1.
     100001    1    1    2    0    0 -0.16977336617E-01  0.60979098911E-02 -0.13213176618E-01  0.50000500000E+01  0.50000000000E+01 0. -1.
     100001    1    1    2    0    0  0.16977336617E-01 -0.60979098911E-02  0.13213176618E-01  0.50000500000E+01  0.50000000000E+01 0.  0.
</event>
<event>
 4    1  0.5008549E-001  0.5000050E+01  0.7818608E-02  0.2136455E+00
        -11   -1    0    0    0    0  0.00000000000E+00  0.00000000000E+00  0.50000499739E+01  0.50000500000E+01  0.51100000000E-03 0.  1.
         11   -1    0    0    0    0 -0.00000000000E+00 -0.00000000000E+00 -0.50000499739E+01  0.50000500000E+01  0.51100000000E-03 0. -1.
     100001    1    1    2    0    0  0.22132390365E-01  0.26001010191E-02  0.18437113207E-02  0.50000500000E+01  0.50000000000E+01 0. -1.
     100001    1    1    2    0    0 -0.22132390365E-01 -0.26001010191E-02 -0.18437113207E-02  0.50000500000E+01  0.50000000000E+01 0.  0.
</event>
<event>
 4    1  0.5008549E-001  0.5000050E+01  0.7818608E-02  0.2136455E+00
        -11   -1    0    0    0    0  0.00000000000E+00  0.00000000000E+00  0.50000499739E+01  0.50000500000E+01  0.51100000000E-03 0. -1.
         11   -1    0    0    0    0 -0.00000000000E+00 -0.00000000000E+00 -0.50000499739E+01  0.50000500000E+01  0.51100000000E-03 0.  1.
     100001    1    1    2    0    0 -0.13082180396E-01 -0.37156250653E-02  0.17749737644E-01  0.50000500000E+01  0.50000000000E+01 0.  0.
     100001    1    1    2    0    0  0.13082180396E-01  0.37156250653E-02 -0.17749737644E-01  0.50000500000E+01  0.50000000000E+01 0.  0.
</event>
<event>
 4    1  0.5008549E-001  0.5000050E+01  0.7818608E-02  0.2136455E+00
        -11   -1    0    0    0    0  0.00000000000E+00  0.00000000000E+00  0.50000499739E+01  0.50000500000E+01  0.51100000000E-03 0. -1.
         11   -1    0    0    0    0 -0.00000000000E+00 -0.00000000000E+00 -0.50000499739E+01  0.50000500000E+01  0.51100000000E-03 0.  1.
     100001    1    1    2    0    0 -0.19738487578E-01 -0.25780670914E-02  0.10185684965E-01  0.50000500000E+01  0.50000000000E+01 0.  1.
     100001    1    1    2    0    0  0.19738487578E-01  0.25780670914E-02 -0.10185684965E-01  0.50000500000E+01  0.50000000000E+01 0.  0.
</event>
<event>
 4    1  0.5008549E-001  0.5000050E+01  0.7818608E-02  0.2136455E+00
        -11   -1    0    0    0    0  0.00000000000E+00  0.00000000000E+00  0.50000499739E+01  0.50000500000E+01  0.51100000000E-03 0.  1.
         11   -1    0    0    0    0 -0.00000000000E+00 -0.00000000000E+00 -0.50000499739E+01  0.50000500000E+01  0.51100000000E-03 0. -1.
     100001    1    1    2    0    0 -0.11761122264E-01 -0.18533390267E-01 -0.42652020236E-02  0.50000500000E+01  0.50000000000E+01 0.  1.
     100001    1    1    2    0    0  0.11761122264E-01  0.18533390267E-01  0.42652020236E-02  0.50000500000E+01  0.50000000000E+01 0. -1.
</event>
<event>
 4    1  0.5008549E-001  0.5000050E+01  0.7818608E-02  0.2136455E+00
        -11   -1    0    0    0    0  0.00000000000E+00  0.00000000000E+00  0.50000499739E+01  0.50000500000E+01  0.51100000000E-03 0. -1.
         11   -1    0    0    0    0 -0.00000000000E+00 -0.00000000000E+00 -0.50000499739E+01  0.50000500000E+01  0.51100000000E-03 0.  1.
     100001    1    1    2    0    0  0.20255712512E-01  0.88824160567E-02 -0.32880534703E-02  0.50000500000E+01  0.50000000000E+01 0.  1.
     100001    1    1    2    0    0 -0.20255712512E-01 -0.88824160567E-02  0.32880534703E-02  0.50000500000E+01  0.50000000000E+01 0. -1.
</event>
<event>
 4    1  0.5008549E-001  0.5000050E+01  0.7818608E-02  0.2136455E+00
        -11   -1    0    0    0    0  0.00000000000E+00  0.00000000000E+00  0.50000499739E+01  0.50000500000E+01  0.51100000000E-03 0. -1.
         11   -1    0    0    0    0 -0.00000000000E+00 -0.00000000000E+00 -0.50000499739E+01  0.50000500000E+01  0.51100000000E-03 0.  1.
     100001    1    1    2    0    0  0.10969749123E-01  0.10485791810E-01  0.16423010513E-01  0.50000500000E+01  0.50000000000E+01 0. -1.
     100001    1    1    2    0    0 -0.10969749123E-01 -0.10485791810E-01 -0.16423010513E-01  0.50000500000E+01  0.50000000000E+01 0.  0.
</event>
<event>
 4    1  0.5008549E-001  0.5000050E+01  0.7818608E-02  0.2136455E+00
        -11   -1    0    0    0    0  0.00000000000E+00  0.00000000000E+00  0.50000499739E+01  0.50000500000E+01  0.51100000000E-03 0.  1.
         11   -1    0    0    0    0 -0.00000000000E+00 -0.00000000000E+00 -0.50000499739E+01  0.50000500000E+01  0.51100000000E-03 0. -1.
     100001    1    1    2    0    0 -0.14786814444E-01  0.16571937307E-01 -0.25929736762E-02  0.50000500000E+01  0.50000000000E+01 0. -1.
     100001    1    1    2    0    0  0.14786814444E-01 -0.16571937307E-01  0.25929736762E-02  0.50000500000E+01  0.50000000000E+01 0.  1.
</event>
<event>
 4    1  0.5008549E-001  0.5000050E+01  0.7818608E-02  0.2136455E+00
        -11   -1    0    0    0    0  0.00000000000E+00  0.00000000000E+00  0.50000499739E+01  0.50000500000E+01  0.51100000000E-03 0.  1.
         11   -1    0    0    0    0 -0.00000000000E+00 -0.00000000000E+00 -0.50000499739E+01  0.50000500000E+01  0.51100000000E-03 0. -1.
     100001    1    1    2    0    0 -0.16846651607E-01  0.76434460416E-03 -0.14683616958E-01  0.50000500000E+01  0.50000000000E+01 0.  0.
     100001    1    1    2    0    0  0.16846651607E-01 -0.76434460416E-03  0.14683616958E-01  0.50000500000E+01  0.50000000000E+01 0.  0.
</event>
<event>
 4    1  0.5008549E-001  0.5000050E+01  0.7818608E-02  0.2136455E+00
        -11   -1    0    0    0    0  0.00000000000E+00  0.00000000000E+00  0.50000499739E+01  0.50000500000E+01  0.51100000000E-03 0.  1.
         11   -1    0    0    0    0 -0.00000000000E+00 -0.00000000000E+00 -0.50000499739E+01  0.50000500000E+01  0.51100000000E-03 0. -1.
     100001    1    1    2    0    0 -0.93044704824E-02 -0.13110698693E-01 -0.15541522089E-01  0.50000500000E+01  0.50000000000E+01 0.  0.
     100001    1    1    2    0    0  0.93044704824E-02  0.13110698693E-01  0.15541522089E-01  0.50000500000E+01  0.50000000000E+01 0. -1.
</event>
<event>
 4    1  0.5008549E-001  0.5000050E+01  0.7818608E-02  0.2136455E+00
        -11   -1    0    0    0    0  0.00000000000E+00  0.00000000000E+00  0.50000499739E+01  0.50000500000E+01  0.51100000000E-03 0.  1.
         11   -1    0    0    0    0 -0.00000000000E+00 -0.00000000000E+00 -0.50000499739E+01  0.50000500000E+01  0.51100000000E-03 0. -1.
     100001    1    1    2    0    0 -0.16649010819E-01 -0.13605191723E-01 -0.61409850132E-02  0.50000500000E+01  0.50000000000E+01 0. -1.
     100001    1    1    2    0    0  0.16649010819E-01  0.13605191723E-01  0.61409850132E-02  0.50000500000E+01  0.50000000000E+01 0.  1.
</event>
<event>
 4    1  0.5008549E-001  0.5000050E+01  0.7818608E-02  0.2136455E+00
        -11   -1    0    0    0    0  0.00000000000E+00  0.00000000000E+00  0.50000499739E+01  0.50000500000E+01  0.51100000000E-03 0.  1.
         11   -1    0    0    0    0 -0.00000000000E+00 -0.00000000000E+00 -0.50000499739E+01  0.50000500000E+01  0.51100000000E-03 0. -1.
     100001    1    1    2    0    0 -0.20111865952E-01  0.97451925764E-02 -0.73930343504E-03  0.50000500000E+01  0.50000000000E+01 0.  1.
     100001    1    1    2    0    0  0.20111865952E-01 -0.97451925764E-02  0.73930343504E-03  0.50000500000E+01  0.50000000000E+01 0. -1.
</event>
<event>
 4    1  0.5008549E-001  0.5000050E+01  0.7818608E-02  0.2136455E+00
        -11   -1    0    0    0    0  0.00000000000E+00  0.00000000000E+00  0.50000499739E+01  0.50000500000E+01  0.51100000000E-03 0.  1.
         11   -1    0    0    0    0 -0.00000000000E+00 -0.00000000000E+00 -0.50000499739E+01  0.50000500000E+01  0.51100000000E-03 0. -1.
     100001    1    1    2    0    0  0.20816053243E-01 -0.12076910851E-02 -0.80768749904E-02  0.50000500000E+01  0.50000000000E+01 0.  0.
     100001    1    1    2    0    0 -0.20816053243E-01  0.12076910851E-02  0.80768749904E-02  0.50000500000E+01  0.50000000000E+01 0.  0.
</event>
<event>
 4    1  0.5008549E-001  0.5000050E+01  0.7818608E-02  0.2136455E+00
        -11   -1    0    0    0    0  0.00000000000E+00  0.00000000000E+00  0.50000499739E+01  0.50000500000E+01  0.51100000000E-03 0.  1.
         11   -1    0    0    0    0 -0.00000000000E+00 -0.00000000000E+00 -0.50000499739E+01  0.50000500000E+01  0.51100000000E-03 0. -1.
     100001    1    1    2    0    0  0.18661655133E-01 -0.39520018311E-02  0.11667339423E-01  0.50000500000E+01  0.50000000000E+01 0.  0.
     100001    1    1    2    0    0 -0.18661655133E-01  0.39520018311E-02 -0.11667339423E-01  0.50000500000E+01  0.50000000000E+01 0.  0.
</event>
<event>
 4    1  0.5008549E-001  0.5000050E+01  0.7818608E-02  0.2136455E+00
        -11   -1    0    0    0    0  0.00000000000E+00  0.00000000000E+00  0.50000499739E+01  0.50000500000E+01  0.51100000000E-03 0. -1.
         11   -1    0    0    0    0 -0.00000000000E+00 -0.00000000000E+00 -0.50000499739E+01  0.50000500000E+01  0.51100000000E-03 0.  1.
     100001    1    1    2    0    0  0.53822274732E-03 -0.18100607253E-01 -0.13117958429E-01  0.50000500000E+01  0.50000000000E+01 0.  1.
     100001    1    1    2    0    0 -0.53822274732E-03  0.18100607253E-01  0.13117958429E-01  0.50000500000E+01  0.50000000000E+01 0. -1.
</event>
<event>
 4    1  0.5008549E-001  0.5000050E+01  0.7818608E-02  0.2136455E+00
        -11   -1    0    0    0    0  0.00000000000E+00  0.00000000000E+00  0.50000499739E+01  0.50000500000E+01  0.51100000000E-03 0. -1.
         11   -1    0    0    0    0 -0.00000000000E+00 -0.00000000000E+00 -0.50000499739E+01  0.50000500000E+01  0.51100000000E-03 0.  1.
     100001    1    1    2    0    0 -0.58805393806E-02 -0.21062512858E-01 -0.46682232921E-02  0.50000500000E+01  0.50000000000E+01 0.  1.
     100001    1    1    2    0    0  0.58805393806E-02  0.21062512858E-01  0.46682232921E-02  0.50000500000E+01  0.50000000000E+01 0. -1.
</event>
<event>
 4    1  0.5008549E-001  0.5000050E+01  0.7818608E-02  0.2136455E+00
        -11   -1    0    0    0    0  0.00000000000E+00  0.00000000000E+00  0.50000499739E+01  0.50000500000E+01  0.51100000000E-03 0.  1.
         11   -1    0    0    0    0 -0.00000000000E+00 -0.00000000000E+00 -0.50000499739E+01  0.50000500000E+01  0.51100000000E-03 0. -1.
     100001    1    1    2    0    0  0.21622662666E-01  0.11694862105E-02  0.55763125132E-02  0.50000500000E+01  0.50000000000E+01 0.  0.
     100001    1    1    2    0    0 -0.21622662666E-01 -0.11694862105E-02 -0.55763125132E-02  0.50000500000E+01  0.50000000000E+01 0. -1.
</event>
<event>
 4    1  0.5008549E-001  0.5000050E+01  0.7818608E-02  0.2136455E+00
        -11   -1    0    0    0    0  0.00000000000E+00  0.00000000000E+00  0.50000499739E+01  0.50000500000E+01  0.51100000000E-03 0. -1.
         11   -1    0    0    0    0 -0.00000000000E+00 -0.00000000000E+00 -0.50000499739E+01  0.50000500000E+01  0.51100000000E-03 0.  1.
     100001    1    1    2    0    0  0.22076632507E-01  0.10905872899E-03  0.35514649574E-02  0.50000500000E+01  0.50000000000E+01 0.  0.
     100001    1    1    2    0    0 -0.22076632507E-01 -0.10905872899E-03 -0.35514649574E-02  0.50000500000E+01  0.50000000000E+01 0. -1.
</event>
<event>
 4    1  0.5008549E-001  0.5000050E+01  0.7818608E-02  0.2136455E+00
        -11   -1    0    0    0    0  0.00000000000E+00  0.00000000000E+00  0.50000499739E+01  0.50000500000E+01  0.51100000000E-03 0.  1.
         11   -1    0    0    0    0 -0.00000000000E+00 -0.00000000000E+00 -0.50000499739E+01  0.50000500000E+01  0.51100000000E-03 0. -1.
     100001    1    1    2    0    0 -0.62584255038E-02  0.18213890833E-01  0.11361724823E-01  0.50000500000E+01  0.50000000000E+01 0.  1.
     100001    1    1    2    0    0  0.62584255038E-02 -0.18213890833E-01 -0.11361724823E-01  0.50000500000E+01  0.50000000000E+01 0. -1.
</event>
<event>
 4    1  0.5008549E-001  0.5000050E+01  0.7818608E-02  0.2136455E+00
        -11   -1    0    0    0    0  0.00000000000E+00  0.00000000000E+00  0.50000499739E+01  0.50000500000E+01  0.51100000000E-03 0.  1.
         11   -1    0    0    0    0 -0.00000000000E+00 -0.00000000000E+00 -0.50000499739E+01  0.50000500000E+01  0.51100000000E-03 0. -1.
     100001    1    1    2    0    0  0.15656168909E-01  0.98397754401E-02  0.12572418000E-01  0.50000500000E+01  0.50000000000E+01 0.  1.
     100001    1    1    2    0    0 -0.15656168909E-01 -0.98397754401E-02 -0.12572418000E-01  0.50000500000E+01  0.50000000000E+01 0. -1.
</event>
<event>
 4    1  0.5008549E-001  0.5000050E+01  0.7818608E-02  0.2136455E+00
        -11   -1    0    0    0    0  0.00000000000E+00  0.00000000000E+00  0.50000499739E+01  0.50000500000E+01  0.51100000000E-03 0. -1.
         11   -1    0    0    0    0 -0.00000000000E+00 -0.00000000000E+00 -0.50000499739E+01  0.50000500000E+01  0.51100000000E-03 0.  1.
     100001    1    1    2    0    0  0.68904239468E-02  0.20414064291E-01  0.59825192826E-02  0.50000500000E+01  0.50000000000E+01 0.  0.
     100001    1    1    2    0    0 -0.68904239468E-02 -0.20414064291E-01 -0.59825192826E-02  0.50000500000E+01  0.50000000000E+01 0. -1.
</event>
<event>
 4    1  0.5008549E-001  0.5000050E+01  0.7818608E-02  0.2136455E+00
        -11   -1    0    0    0    0  0.00000000000E+00  0.00000000000E+00  0.50000499739E+01  0.50000500000E+01  0.51100000000E-03 0. -1.
         11   -1    0    0    0    0 -0.00000000000E+00 -0.00000000000E+00 -0.50000499739E+01  0.50000500000E+01  0.51100000000E-03 0.  1.
     100001    1    1    2    0    0 -0.17469271265E-01 -0.13484789985E-01 -0.36038174944E-02  0.50000500000E+01  0.50000000000E+01 0.  1.
     100001    1    1    2    0    0  0.17469271265E-01  0.13484789985E-01  0.36038174944E-02  0.50000500000E+01  0.50000000000E+01 0. -1.
</event>
<event>
 4    1  0.5008549E-001  0.5000050E+01  0.7818608E-02  0.2136455E+00
        -11   -1    0    0    0    0  0.00000000000E+00  0.00000000000E+00  0.50000499739E+01  0.50000500000E+01  0.51100000000E-03 0.  1.
         11   -1    0    0    0    0 -0.00000000000E+00 -0.00000000000E+00 -0.50000499739E+01  0.50000500000E+01  0.51100000000E-03 0. -1.
     100001    1    1    2    0    0  0.92851668326E-02  0.20341426323E-01 -0.12063175655E-03  0.50000500000E+01  0.50000000000E+01 0.  1.
     100001    1    1    2    0    0 -0.92851668326E-02 -0.20341426323E-01  0.12063175655E-03  0.50000500000E+01  0.50000000000E+01 0. -1.
</event>
<event>
 4    1  0.5008549E-001  0.5000050E+01  0.7818608E-02  0.2136455E+00
        -11   -1    0    0    0    0  0.00000000000E+00  0.00000000000E+00  0.50000499739E+01  0.50000500000E+01  0.51100000000E-03 0.  1.
         11   -1    0    0    0    0 -0.00000000000E+00 -0.00000000000E+00 -0.50000499739E+01  0.50000500000E+01  0.51100000000E-03 0. -1.
     100001    1    1    2    0    0 -0.95309480572E-02 -0.44714201112E-02  0.19727390383E-01  0.50000500000E+01  0.50000000000E+01 0.  1.
     100001    1    1    2    0    0  0.95309480572E-02  0.44714201112E-02 -0.19727390383E-01  0.50000500000E+01  0.50000000000E+01 0.  0.
</event>
<event>
 4    1  0.5008549E-001  0.5000050E+01  0.7818608E-02  0.2136455E+00
        -11   -1    0    0    0    0  0.00000000000E+00  0.00000000000E+00  0.50000499739E+01  0.50000500000E+01  0.51100000000E-03 0.  1.
         11   -1    0    0    0    0 -0.00000000000E+00 -0.00000000000E+00 -0.50000499739E+01  0.50000500000E+01  0.51100000000E-03 0. -1.
     100001    1    1    2    0    0 -0.60650790471E-02 -0.88734137048E-02 -0.19608157623E-01  0.50000500000E+01  0.50000000000E+01 0.  1.
     100001    1    1    2    0    0  0.60650790471E-02  0.88734137048E-02  0.19608157623E-01  0.50000500000E+01  0.50000000000E+01 0.  1.
</event>
<event>
 4    1  0.5008549E-001  0.5000050E+01  0.7818608E-02  0.2136455E+00
        -11   -1    0    0    0    0  0.00000000000E+00  0.00000000000E+00  0.50000499739E+01  0.50000500000E+01  0.51100000000E-03 0.  1.
         11   -1    0    0    0    0 -0.00000000000E+00 -0.00000000000E+00 -0.50000499739E+01  0.50000500000E+01  0.51100000000E-03 0. -1.
     100001    1    1    2    0    0 -0.21257822473E-01 -0.69321198664E-02 -0.23064659366E-03  0.50000500000E+01  0.50000000000E+01 0.  0.
     100001    1    1    2    0    0  0.21257822473E-01  0.69321198664E-02  0.23064659366E-03  0.50000500000E+01  0.50000000000E+01 0. -1.
</event>
<event>
 4    1  0.5008549E-001  0.5000050E+01  0.7818608E-02  0.2136455E+00
        -11   -1    0    0    0    0  0.00000000000E+00  0.00000000000E+00  0.50000499739E+01  0.50000500000E+01  0.51100000000E-03 0. -1.
         11   -1    0    0    0    0 -0.00000000000E+00 -0.00000000000E+00 -0.50000499739E+01  0.50000500000E+01  0.51100000000E-03 0.  1.
     100001    1    1    2    0    0 -0.15517738136E-01  0.13009470181E-01  0.94845131002E-02  0.50000500000E+01  0.50000000000E+01 0. -1.
     100001    1    1    2    0    0  0.15517738136E-01 -0.13009470181E-01 -0.94845131002E-02  0.50000500000E+01  0.50000000000E+01 0.  1.
</event>
<event>
 4    1  0.5008549E-001  0.5000050E+01  0.7818608E-02  0.2136455E+00
        -11   -1    0    0    0    0  0.00000000000E+00  0.00000000000E+00  0.50000499739E+01  0.50000500000E+01  0.51100000000E-03 0.  1.
         11   -1    0    0    0    0 -0.00000000000E+00 -0.00000000000E+00 -0.50000499739E+01  0.50000500000E+01  0.51100000000E-03 0. -1.
     100001    1    1    2    0    0  0.35814894306E-02 -0.16974668361E-01 -0.14108014300E-01  0.50000500000E+01  0.50000000000E+01 0.  0.
     100001    1    1    2    0    0 -0.35814894306E-02  0.16974668361E-01  0.14108014300E-01  0.50000500000E+01  0.50000000000E+01 0.  0.
</event>
<event>
 4    1  0.5008549E-001  0.5000050E+01  0.7818608E-02  0.2136455E+00
        -11   -1    0    0    0    0  0.00000000000E+00  0.00000000000E+00  0.50000499739E+01  0.50000500000E+01  0.51100000000E-03 0.  1.
         11   -1    0    0    0    0 -0.00000000000E+00 -0.00000000000E+00 -0.50000499739E+01  0.50000500000E+01  0.51100000000E-03 0. -1.
     100001    1    1    2    0    0  0.48880349509E-03 -0.20820681845E-01 -0.81401952458E-02  0.50000500000E+01  0.50000000000E+01 0. -1.
     100001    1    1    2    0    0 -0.48880349509E-03  0.20820681845E-01  0.81401952458E-02  0.50000500000E+01  0.50000000000E+01 0.  1.
</event>
<event>
 4    1  0.5008549E-001  0.5000050E+01  0.7818608E-02  0.2136455E+00
        -11   -1    0    0    0    0  0.00000000000E+00  0.00000000000E+00  0.50000499739E+01  0.50000500000E+01  0.51100000000E-03 0. -1.
         11   -1    0    0    0    0 -0.00000000000E+00 -0.00000000000E+00 -0.50000499739E+01  0.50000500000E+01  0.51100000000E-03 0.  1.
     100001    1    1    2    0    0 -0.12045430185E-01  0.18824437378E-01 -0.74207077807E-03  0.50000500000E+01  0.50000000000E+01 0.  0.
     100001    1    1    2    0    0  0.12045430185E-01 -0.18824437378E-01  0.74207077807E-03  0.50000500000E+01  0.50000000000E+01 0. -1.
</event>
<event>
 4    1  0.5008549E-001  0.5000050E+01  0.7818608E-02  0.2136455E+00
        -11   -1    0    0    0    0  0.00000000000E+00  0.00000000000E+00  0.50000499739E+01  0.50000500000E+01  0.51100000000E-03 0.  1.
         11   -1    0    0    0    0 -0.00000000000E+00 -0.00000000000E+00 -0.50000499739E+01  0.50000500000E+01  0.51100000000E-03 0. -1.
     100001    1    1    2    0    0 -0.12430726028E-01  0.18579833820E-01 -0.51896593137E-03  0.50000500000E+01  0.50000000000E+01 0.  1.
     100001    1    1    2    0    0  0.12430726028E-01 -0.18579833820E-01  0.51896593137E-03  0.50000500000E+01  0.50000000000E+01 0.  0.
</event>
<event>
 4    1  0.5008549E-001  0.5000050E+01  0.7818608E-02  0.2136455E+00
        -11   -1    0    0    0    0  0.00000000000E+00  0.00000000000E+00  0.50000499739E+01  0.50000500000E+01  0.51100000000E-03 0. -1.
         11   -1    0    0    0    0 -0.00000000000E+00 -0.00000000000E+00 -0.50000499739E+01  0.50000500000E+01  0.51100000000E-03 0.  1.
     100001    1    1    2    0    0  0.90786066905E-02 -0.16808113967E-01 -0.11621906274E-01  0.50000500000E+01  0.50000000000E+01 0.  0.
     100001    1    1    2    0    0 -0.90786066905E-02  0.16808113967E-01  0.11621906274E-01  0.50000500000E+01  0.50000000000E+01 0.  1.
</event>
