<event>
 4    1  0.4521369E-004  0.6500000E+04  0.7818608E-02  0.7223770E-01
         52   -1    0    0    0    0  0.00000000000E+00  0.00000000000E+00  0.64930732323E+04  0.65000000000E+04  0.30000000000E+03 0. -1.
        -52   -1    0    0    0    0 -0.00000000000E+00 -0.00000000000E+00 -0.64930732323E+04  0.65000000000E+04  0.30000000000E+03 0.  1.
     100001    1    1    2    0    0 -0.33341446759E+03 -0.21360619241E+03 -0.64861820000E+04  0.65000000000E+04  0.15050000000E+03 0.  1.
     100001    1    1    2    0    0  0.33341446759E+03  0.21360619241E+03  0.64861820000E+04  0.65000000000E+04  0.15050000000E+03 0. -1.
</event>
<event>
 4    1  0.4521369E-004  0.6500000E+04  0.7818608E-02  0.7223770E-01
         52   -1    0    0    0    0  0.00000000000E+00  0.00000000000E+00  0.64930732323E+04  0.65000000000E+04  0.30000000000E+03 0.  1.
        -52   -1    0    0    0    0 -0.00000000000E+00 -0.00000000000E+00 -0.64930732323E+04  0.65000000000E+04  0.30000000000E+03 0. -1.
     100001    1    1    2    0    0 -0.26844336259E+04 -0.39948569789E+04  0.43660375143E+04  0.65000000000E+04  0.15050000000E+03 0.  1.
     100001    1    1    2    0    0  0.26844336259E+04  0.39948569789E+04 -0.43660375143E+04  0.65000000000E+04  0.15050000000E+03 0. -1.
</event>
<event>
 4    1  0.4521369E-004  0.6500000E+04  0.7818608E-02  0.7223770E-01
         52   -1    0    0    0    0  0.00000000000E+00  0.00000000000E+00  0.64930732323E+04  0.65000000000E+04  0.30000000000E+03 0. -1.
        -52   -1    0    0    0    0 -0.00000000000E+00 -0.00000000000E+00 -0.64930732323E+04  0.65000000000E+04  0.30000000000E+03 0. -1.
     100001    1    1    2    0    0 -0.28790623686E+04 -0.13121277500E+04 -0.56759730791E+04  0.65000000000E+04  0.15050000000E+03 0. -1.
     100001    1    1    2    0    0  0.28790623686E+04  0.13121277500E+04  0.56759730791E+04  0.65000000000E+04  0.15050000000E+03 0. -1.
</event>
<event>
 4    1  0.4521369E-004  0.6500000E+04  0.7818608E-02  0.7223770E-01
         52   -1    0    0    0    0  0.00000000000E+00  0.00000000000E+00  0.64930732323E+04  0.65000000000E+04  0.30000000000E+03 0.  1.
        -52   -1    0    0    0    0 -0.00000000000E+00 -0.00000000000E+00 -0.64930732323E+04  0.65000000000E+04  0.30000000000E+03 0. -1.
     100001    1    1    2    0    0 -0.35259499402E+04  0.29594199254E+04 -0.45865957391E+04  0.65000000000E+04  0.15050000000E+03 0. -1.
     100001    1    1    2    0    0  0.35259499402E+04 -0.29594199254E+04  0.45865957391E+04  0.65000000000E+04  0.15050000000E+03 0.  1.
</event>
<event>
 4    1  0.4521369E-004  0.6500000E+04  0.7818608E-02  0.7223770E-01
         52   -1    0    0    0    0  0.00000000000E+00  0.00000000000E+00  0.64930732323E+04  0.65000000000E+04  0.30000000000E+03 0. -1.
        -52   -1    0    0    0    0 -0.00000000000E+00 -0.00000000000E+00 -0.64930732323E+04  0.65000000000E+04  0.30000000000E+03 0.  1.
     100001    1    1    2    0    0  0.32132342625E+04  0.12328624197E+04  0.55120346133E+04  0.65000000000E+04  0.15050000000E+03 0. -1.
     100001    1    1    2    0    0 -0.32132342625E+04 -0.12328624197E+04 -0.55120346133E+04  0.65000000000E+04  0.15050000000E+03 0.  1.
</event>
<event>
 4    1  0.4521369E-004  0.6500000E+04  0.7818608E-02  0.7223770E-01
         52   -1    0    0    0    0  0.00000000000E+00  0.00000000000E+00  0.64930732323E+04  0.65000000000E+04  0.30000000000E+03 0.  1.
        -52   -1    0    0    0    0 -0.00000000000E+00 -0.00000000000E+00 -0.64930732323E+04  0.65000000000E+04  0.30000000000E+03 0. -1.
     100001    1    1    2    0    0 -0.24451671646E+03  0.41829080934E+04 -0.49669750561E+04  0.65000000000E+04  0.15050000000E+03 0. -1.
     100001    1    1    2    0    0  0.24451671646E+03 -0.41829080934E+04  0.49669750561E+04  0.65000000000E+04  0.15050000000E+03 0.  1.
</event>
<event>
 4    1  0.4521369E-004  0.6500000E+04  0.7818608E-02  0.7223770E-01
         52   -1    0    0    0    0  0.00000000000E+00  0.00000000000E+00  0.64930732323E+04  0.65000000000E+04  0.30000000000E+03 0.  1.
        -52   -1    0    0    0    0 -0.00000000000E+00 -0.00000000000E+00 -0.64930732323E+04  0.65000000000E+04  0.30000000000E+03 0. -1.
     100001    1    1    2    0    0 -0.59322039836E+03  0.99063389140E+02  0.64703651948E+04  0.65000000000E+04  0.15050000000E+03 0.  1.
     100001    1    1    2    0    0  0.59322039836E+03 -0.99063389140E+02 -0.64703651948E+04  0.65000000000E+04  0.15050000000E+03 0. -1.
</event>
<event>
 4    1  0.4521369E-004  0.6500000E+04  0.7818608E-02  0.7223770E-01
         52   -1    0    0    0    0  0.00000000000E+00  0.00000000000E+00  0.64930732323E+04  0.65000000000E+04  0.30000000000E+03 0.  1.
        -52   -1    0    0    0    0 -0.00000000000E+00 -0.00000000000E+00 -0.64930732323E+04  0.65000000000E+04  0.30000000000E+03 0. -1.
     100001    1    1    2    0    0 -0.18260802697E+03 -0.30155125593E+04  0.57533197429E+04  0.65000000000E+04  0.15050000000E+03 0.  1.
     100001    1    1    2    0    0  0.18260802697E+03  0.30155125593E+04 -0.57533197429E+04  0.65000000000E+04  0.15050000000E+03 0. -1.
</event>
<event>
 4    1  0.4521369E-004  0.6500000E+04  0.7818608E-02  0.7223770E-01
         52   -1    0    0    0    0  0.00000000000E+00  0.00000000000E+00  0.64930732323E+04  0.65000000000E+04  0.30000000000E+03 0.  1.
        -52   -1    0    0    0    0 -0.00000000000E+00 -0.00000000000E+00 -0.64930732323E+04  0.65000000000E+04  0.30000000000E+03 0. -1.
     100001    1    1    2    0    0 -0.48146563611E+03 -0.13783252478E+04 -0.63321212956E+04  0.65000000000E+04  0.15050000000E+03 0. -1.
     100001    1    1    2    0    0  0.48146563611E+03  0.13783252478E+04  0.63321212956E+04  0.65000000000E+04  0.15050000000E+03 0.  1.
</event>
<event>
 4    1  0.4521369E-004  0.6500000E+04  0.7818608E-02  0.7223770E-01
         52   -1    0    0    0    0  0.00000000000E+00  0.00000000000E+00  0.64930732323E+04  0.65000000000E+04  0.30000000000E+03 0.  1.
        -52   -1    0    0    0    0 -0.00000000000E+00 -0.00000000000E+00 -0.64930732323E+04  0.65000000000E+04  0.30000000000E+03 0.  1.
     100001    1    1    2    0    0 -0.10756934685E+04  0.21708837553E+04 -0.60297178236E+04  0.65000000000E+04  0.15050000000E+03 0.  1.
     100001    1    1    2    0    0  0.10756934685E+04 -0.21708837553E+04  0.60297178236E+04  0.65000000000E+04  0.15050000000E+03 0.  1.
</event>
<event>
 4    1  0.4521369E-004  0.6500000E+04  0.7818608E-02  0.7223770E-01
         52   -1    0    0    0    0  0.00000000000E+00  0.00000000000E+00  0.64930732323E+04  0.65000000000E+04  0.30000000000E+03 0. -1.
        -52   -1    0    0    0    0 -0.00000000000E+00 -0.00000000000E+00 -0.64930732323E+04  0.65000000000E+04  0.30000000000E+03 0.  1.
     100001    1    1    2    0    0 -0.10027253995E+04 -0.75545253072E+03  0.63758280244E+04  0.65000000000E+04  0.15050000000E+03 0. -1.
     100001    1    1    2    0    0  0.10027253995E+04  0.75545253072E+03 -0.63758280244E+04  0.65000000000E+04  0.15050000000E+03 0.  1.
</event>
<event>
 4    1  0.4521369E-004  0.6500000E+04  0.7818608E-02  0.7223770E-01
         52   -1    0    0    0    0  0.00000000000E+00  0.00000000000E+00  0.64930732323E+04  0.65000000000E+04  0.30000000000E+03 0.  1.
        -52   -1    0    0    0    0 -0.00000000000E+00 -0.00000000000E+00 -0.64930732323E+04  0.65000000000E+04  0.30000000000E+03 0.  1.
     100001    1    1    2    0    0  0.33950085520E+03  0.45391320847E+03  0.64734883732E+04  0.65000000000E+04  0.15050000000E+03 0.  1.
     100001    1    1    2    0    0 -0.33950085520E+03 -0.45391320847E+03 -0.64734883732E+04  0.65000000000E+04  0.15050000000E+03 0.  1.
</event>
<event>
 4    1  0.4521369E-004  0.6500000E+04  0.7818608E-02  0.7223770E-01
         52   -1    0    0    0    0  0.00000000000E+00  0.00000000000E+00  0.64930732323E+04  0.65000000000E+04  0.30000000000E+03 0. -1.
        -52   -1    0    0    0    0 -0.00000000000E+00 -0.00000000000E+00 -0.64930732323E+04  0.65000000000E+04  0.30000000000E+03 0.  1.
     100001    1    1    2    0    0  0.55599140293E+03 -0.11038355933E+04  0.63796371600E+04  0.65000000000E+04  0.15050000000E+03 0. -1.
     100001    1    1    2    0    0 -0.55599140293E+03  0.11038355933E+04 -0.63796371600E+04  0.65000000000E+04  0.15050000000E+03 0.  1.
</event>
<event>
 4    1  0.4521369E-004  0.6500000E+04  0.7818608E-02  0.7223770E-01
         52   -1    0    0    0    0  0.00000000000E+00  0.00000000000E+00  0.64930732323E+04  0.65000000000E+04  0.30000000000E+03 0.  1.
        -52   -1    0    0    0    0 -0.00000000000E+00 -0.00000000000E+00 -0.64930732323E+04  0.65000000000E+04  0.30000000000E+03 0. -1.
     100001    1    1    2    0    0 -0.28096116329E+04  0.21501788713E+04 -0.54507029862E+04  0.65000000000E+04  0.15050000000E+03 0. -1.
     100001    1    1    2    0    0  0.28096116329E+04 -0.21501788713E+04  0.54507029862E+04  0.65000000000E+04  0.15050000000E+03 0.  1.
</event>
<event>
 4    1  0.4521369E-004  0.6500000E+04  0.7818608E-02  0.7223770E-01
         52   -1    0    0    0    0  0.00000000000E+00  0.00000000000E+00  0.64930732323E+04  0.65000000000E+04  0.30000000000E+03 0. -1.
        -52   -1    0    0    0    0 -0.00000000000E+00 -0.00000000000E+00 -0.64930732323E+04  0.65000000000E+04  0.30000000000E+03 0.  1.
     100001    1    1    2    0    0  0.79966884133E+03 -0.29896487528E+03  0.64419329007E+04  0.65000000000E+04  0.15050000000E+03 0. -1.
     100001    1    1    2    0    0 -0.79966884133E+03  0.29896487528E+03 -0.64419329007E+04  0.65000000000E+04  0.15050000000E+03 0.  1.
</event>
<event>
 4    1  0.4521369E-004  0.6500000E+04  0.7818608E-02  0.7223770E-01
         52   -1    0    0    0    0  0.00000000000E+00  0.00000000000E+00  0.64930732323E+04  0.65000000000E+04  0.30000000000E+03 0.  1.
        -52   -1    0    0    0    0 -0.00000000000E+00 -0.00000000000E+00 -0.64930732323E+04  0.65000000000E+04  0.30000000000E+03 0. -1.
     100001    1    1    2    0    0 -0.55326549359E+04  0.30067496962E+04 -0.16051589872E+04  0.65000000000E+04  0.15050000000E+03 0. -1.
     100001    1    1    2    0    0  0.55326549359E+04 -0.30067496962E+04  0.16051589872E+04  0.65000000000E+04  0.15050000000E+03 0.  1.
</event>
<event>
 4    1  0.4521369E-004  0.6500000E+04  0.7818608E-02  0.7223770E-01
         52   -1    0    0    0    0  0.00000000000E+00  0.00000000000E+00  0.64930732323E+04  0.65000000000E+04  0.30000000000E+03 0. -1.
        -52   -1    0    0    0    0 -0.00000000000E+00 -0.00000000000E+00 -0.64930732323E+04  0.65000000000E+04  0.30000000000E+03 0. -1.
     100001    1    1    2    0    0  0.19876303574E+03  0.35857358577E+03 -0.64853117110E+04  0.65000000000E+04  0.15050000000E+03 0. -1.
     100001    1    1    2    0    0 -0.19876303574E+03 -0.35857358577E+03  0.64853117110E+04  0.65000000000E+04  0.15050000000E+03 0. -1.
</event>
<event>
 4    1  0.4521369E-004  0.6500000E+04  0.7818608E-02  0.7223770E-01
         52   -1    0    0    0    0  0.00000000000E+00  0.00000000000E+00  0.64930732323E+04  0.65000000000E+04  0.30000000000E+03 0.  1.
        -52   -1    0    0    0    0 -0.00000000000E+00 -0.00000000000E+00 -0.64930732323E+04  0.65000000000E+04  0.30000000000E+03 0. -1.
     100001    1    1    2    0    0 -0.50485942666E+03  0.65336182608E+03 -0.64455864771E+04  0.65000000000E+04  0.15050000000E+03 0. -1.
     100001    1    1    2    0    0  0.50485942666E+03 -0.65336182608E+03  0.64455864771E+04  0.65000000000E+04  0.15050000000E+03 0.  1.
</event>
<event>
 4    1  0.4521369E-004  0.6500000E+04  0.7818608E-02  0.7223770E-01
         52   -1    0    0    0    0  0.00000000000E+00  0.00000000000E+00  0.64930732323E+04  0.65000000000E+04  0.30000000000E+03 0.  1.
        -52   -1    0    0    0    0 -0.00000000000E+00 -0.00000000000E+00 -0.64930732323E+04  0.65000000000E+04  0.30000000000E+03 0. -1.
     100001    1    1    2    0    0  0.10548024760E+04  0.20138091535E+04  0.60876361734E+04  0.65000000000E+04  0.15050000000E+03 0.  1.
     100001    1    1    2    0    0 -0.10548024760E+04 -0.20138091535E+04 -0.60876361734E+04  0.65000000000E+04  0.15050000000E+03 0. -1.
</event>
<event>
 4    1  0.4521369E-004  0.6500000E+04  0.7818608E-02  0.7223770E-01
         52   -1    0    0    0    0  0.00000000000E+00  0.00000000000E+00  0.64930732323E+04  0.65000000000E+04  0.30000000000E+03 0.  1.
        -52   -1    0    0    0    0 -0.00000000000E+00 -0.00000000000E+00 -0.64930732323E+04  0.65000000000E+04  0.30000000000E+03 0.  1.
     100001    1    1    2    0    0  0.39825364259E+03  0.33506076527E+03 -0.64773820383E+04  0.65000000000E+04  0.15050000000E+03 0.  1.
     100001    1    1    2    0    0 -0.39825364259E+03 -0.33506076527E+03  0.64773820383E+04  0.65000000000E+04  0.15050000000E+03 0.  1.
</event>
<event>
 4    1  0.4521369E-004  0.6500000E+04  0.7818608E-02  0.7223770E-01
         52   -1    0    0    0    0  0.00000000000E+00  0.00000000000E+00  0.64930732323E+04  0.65000000000E+04  0.30000000000E+03 0. -1.
        -52   -1    0    0    0    0 -0.00000000000E+00 -0.00000000000E+00 -0.64930732323E+04  0.65000000000E+04  0.30000000000E+03 0.  1.
     100001    1    1    2    0    0 -0.14490158933E+03  0.15679878635E+04 -0.63045830425E+04  0.65000000000E+04  0.15050000000E+03 0.  1.
     100001    1    1    2    0    0  0.14490158933E+03 -0.15679878635E+04  0.63045830425E+04  0.65000000000E+04  0.15050000000E+03 0. -1.
</event>
<event>
 4    1  0.4521369E-004  0.6500000E+04  0.7818608E-02  0.7223770E-01
         52   -1    0    0    0    0  0.00000000000E+00  0.00000000000E+00  0.64930732323E+04  0.65000000000E+04  0.30000000000E+03 0. -1.
        -52   -1    0    0    0    0 -0.00000000000E+00 -0.00000000000E+00 -0.64930732323E+04  0.65000000000E+04  0.30000000000E+03 0.  1.
     100001    1    1    2    0    0 -0.32616574365E+04 -0.94670338405E+03 -0.55400986651E+04  0.65000000000E+04  0.15050000000E+03 0.  1.
     100001    1    1    2    0    0  0.32616574365E+04  0.94670338405E+03  0.55400986651E+04  0.65000000000E+04  0.15050000000E+03 0. -1.
</event>
<event>
 4    1  0.4521369E-004  0.6500000E+04  0.7818608E-02  0.7223770E-01
         52   -1    0    0    0    0  0.00000000000E+00  0.00000000000E+00  0.64930732323E+04  0.65000000000E+04  0.30000000000E+03 0. -1.
        -52   -1    0    0    0    0 -0.00000000000E+00 -0.00000000000E+00 -0.64930732323E+04  0.65000000000E+04  0.30000000000E+03 0.  1.
     100001    1    1    2    0    0 -0.16834403129E+04 -0.21537035238E+04 -0.58953320173E+04  0.65000000000E+04  0.15050000000E+03 0.  1.
     100001    1    1    2    0    0  0.16834403129E+04  0.21537035238E+04  0.58953320173E+04  0.65000000000E+04  0.15050000000E+03 0. -1.
</event>
<event>
 4    1  0.4521369E-004  0.6500000E+04  0.7818608E-02  0.7223770E-01
         52   -1    0    0    0    0  0.00000000000E+00  0.00000000000E+00  0.64930732323E+04  0.65000000000E+04  0.30000000000E+03 0. -1.
        -52   -1    0    0    0    0 -0.00000000000E+00 -0.00000000000E+00 -0.64930732323E+04  0.65000000000E+04  0.30000000000E+03 0.  1.
     100001    1    1    2    0    0  0.49725374156E+03 -0.90515098743E+03  0.64156675535E+04  0.65000000000E+04  0.15050000000E+03 0. -1.
     100001    1    1    2    0    0 -0.49725374156E+03  0.90515098743E+03 -0.64156675535E+04  0.65000000000E+04  0.15050000000E+03 0.  1.
</event>
<event>
 4    1  0.4521369E-004  0.6500000E+04  0.7818608E-02  0.7223770E-01
         52   -1    0    0    0    0  0.00000000000E+00  0.00000000000E+00  0.64930732323E+04  0.65000000000E+04  0.30000000000E+03 0. -1.
        -52   -1    0    0    0    0 -0.00000000000E+00 -0.00000000000E+00 -0.64930732323E+04  0.65000000000E+04  0.30000000000E+03 0.  1.
     100001    1    1    2    0    0  0.13150267463E+03 -0.34640925986E+03  0.64876850587E+04  0.65000000000E+04  0.15050000000E+03 0. -1.
     100001    1    1    2    0    0 -0.13150267463E+03  0.34640925986E+03 -0.64876850587E+04  0.65000000000E+04  0.15050000000E+03 0.  1.
</event>
<event>
 4    1  0.8003539E-004  0.6500000E+04  0.7818608E-02  0.7223770E-01
         52   -1    0    0    0    0  0.00000000000E+00  0.00000000000E+00  0.64930732323E+04  0.65000000000E+04  0.30000000000E+03 0. -1.
        -52   -1    0    0    0    0 -0.00000000000E+00 -0.00000000000E+00 -0.64930732323E+04  0.65000000000E+04  0.30000000000E+03 0. -1.
     100001    1    1    2    0    0  0.91348526817E+00  0.44457162394E+01  0.64982558545E+04  0.65000000000E+04  0.15050000000E+03 0. -1.
     100001    1    1    2    0    0 -0.91348526817E+00 -0.44457162394E+01 -0.64982558545E+04  0.65000000000E+04  0.15050000000E+03 0. -1.
</event>
<event>
 4    1  0.4521369E-004  0.6500000E+04  0.7818608E-02  0.7223770E-01
         52   -1    0    0    0    0  0.00000000000E+00  0.00000000000E+00  0.64930732323E+04  0.65000000000E+04  0.30000000000E+03 0.  1.
        -52   -1    0    0    0    0 -0.00000000000E+00 -0.00000000000E+00 -0.64930732323E+04  0.65000000000E+04  0.30000000000E+03 0. -1.
     100001    1    1    2    0    0  0.89892841293E+03 -0.55845290399E+03  0.64115058927E+04  0.65000000000E+04  0.15050000000E+03 0.  1.
     100001    1    1    2    0    0 -0.89892841293E+03  0.55845290399E+03 -0.64115058927E+04  0.65000000000E+04  0.15050000000E+03 0. -1.
</event>
<event>
 4    1  0.4521369E-004  0.6500000E+04  0.7818608E-02  0.7223770E-01
         52   -1    0    0    0    0  0.00000000000E+00  0.00000000000E+00  0.64930732323E+04  0.65000000000E+04  0.30000000000E+03 0. -1.
        -52   -1    0    0    0    0 -0.00000000000E+00 -0.00000000000E+00 -0.64930732323E+04  0.65000000000E+04  0.30000000000E+03 0.  1.
     100001    1    1    2    0    0  0.20752085223E+04 -0.31788938908E+03 -0.61497809453E+04  0.65000000000E+04  0.15050000000E+03 0.  1.
     100001    1    1    2    0    0 -0.20752085223E+04  0.31788938908E+03  0.61497809453E+04  0.65000000000E+04  0.15050000000E+03 0. -1.
</event>
<event>
 4    1  0.4521369E-004  0.6500000E+04  0.7818608E-02  0.7223770E-01
         52   -1    0    0    0    0  0.00000000000E+00  0.00000000000E+00  0.64930732323E+04  0.65000000000E+04  0.30000000000E+03 0. -1.
        -52   -1    0    0    0    0 -0.00000000000E+00 -0.00000000000E+00 -0.64930732323E+04  0.65000000000E+04  0.30000000000E+03 0.  1.
     100001    1    1    2    0    0  0.50564567530E+04 -0.87294315137E+03  0.39871750789E+04  0.65000000000E+04  0.15050000000E+03 0. -1.
     100001    1    1    2    0    0 -0.50564567530E+04  0.87294315137E+03 -0.39871750789E+04  0.65000000000E+04  0.15050000000E+03 0.  1.
</event>
<event>
 4    1  0.4521369E-004  0.6500000E+04  0.7818608E-02  0.7223770E-01
         52   -1    0    0    0    0  0.00000000000E+00  0.00000000000E+00  0.64930732323E+04  0.65000000000E+04  0.30000000000E+03 0.  1.
        -52   -1    0    0    0    0 -0.00000000000E+00 -0.00000000000E+00 -0.64930732323E+04  0.65000000000E+04  0.30000000000E+03 0. -1.
     100001    1    1    2    0    0  0.11801040831E+04  0.12548923945E+04  0.62657760239E+04  0.65000000000E+04  0.15050000000E+03 0.  1.
     100001    1    1    2    0    0 -0.11801040831E+04 -0.12548923945E+04 -0.62657760239E+04  0.65000000000E+04  0.15050000000E+03 0. -1.
</event>
<event>
 4    1  0.4521369E-004  0.6500000E+04  0.7818608E-02  0.7223770E-01
         52   -1    0    0    0    0  0.00000000000E+00  0.00000000000E+00  0.64930732323E+04  0.65000000000E+04  0.30000000000E+03 0. -1.
        -52   -1    0    0    0    0 -0.00000000000E+00 -0.00000000000E+00 -0.64930732323E+04  0.65000000000E+04  0.30000000000E+03 0.  1.
     100001    1    1    2    0    0 -0.73631701732E+03  0.39875032648E+03 -0.64440814068E+04  0.65000000000E+04  0.15050000000E+03 0.  1.
     100001    1    1    2    0    0  0.73631701732E+03 -0.39875032648E+03  0.64440814068E+04  0.65000000000E+04  0.15050000000E+03 0. -1.
</event>
<event>
 4    1  0.4521369E-004  0.6500000E+04  0.7818608E-02  0.7223770E-01
         52   -1    0    0    0    0  0.00000000000E+00  0.00000000000E+00  0.64930732323E+04  0.65000000000E+04  0.30000000000E+03 0.  1.
        -52   -1    0    0    0    0 -0.00000000000E+00 -0.00000000000E+00 -0.64930732323E+04  0.65000000000E+04  0.30000000000E+03 0. -1.
     100001    1    1    2    0    0 -0.24177641607E+04 -0.12615341162E+04 -0.58983300931E+04  0.65000000000E+04  0.15050000000E+03 0. -1.
     100001    1    1    2    0    0  0.24177641607E+04  0.12615341162E+04  0.58983300931E+04  0.65000000000E+04  0.15050000000E+03 0.  1.
</event>
<event>
 4    1  0.4521369E-004  0.6500000E+04  0.7818608E-02  0.7223770E-01
         52   -1    0    0    0    0  0.00000000000E+00  0.00000000000E+00  0.64930732323E+04  0.65000000000E+04  0.30000000000E+03 0.  1.
        -52   -1    0    0    0    0 -0.00000000000E+00 -0.00000000000E+00 -0.64930732323E+04  0.65000000000E+04  0.30000000000E+03 0.  1.
     100001    1    1    2    0    0  0.30245216723E+03  0.43449155910E+04  0.48226114237E+04  0.65000000000E+04  0.15050000000E+03 0.  1.
     100001    1    1    2    0    0 -0.30245216723E+03 -0.43449155910E+04 -0.48226114237E+04  0.65000000000E+04  0.15050000000E+03 0.  1.
</event>
<event>
 4    1  0.4521369E-004  0.6500000E+04  0.7818608E-02  0.7223770E-01
         52   -1    0    0    0    0  0.00000000000E+00  0.00000000000E+00  0.64930732323E+04  0.65000000000E+04  0.30000000000E+03 0.  1.
        -52   -1    0    0    0    0 -0.00000000000E+00 -0.00000000000E+00 -0.64930732323E+04  0.65000000000E+04  0.30000000000E+03 0. -1.
     100001    1    1    2    0    0 -0.19581758736E+04 -0.35750802029E+04  0.50608001878E+04  0.65000000000E+04  0.15050000000E+03 0.  1.
     100001    1    1    2    0    0  0.19581758736E+04  0.35750802029E+04 -0.50608001878E+04  0.65000000000E+04  0.15050000000E+03 0. -1.
</event>
<event>
 4    1  0.7334794E-004  0.6500000E+04  0.7818608E-02  0.7223770E-01
         52   -1    0    0    0    0  0.00000000000E+00  0.00000000000E+00  0.64930732323E+04  0.65000000000E+04  0.30000000000E+03 0. -1.
        -52   -1    0    0    0    0 -0.00000000000E+00 -0.00000000000E+00 -0.64930732323E+04  0.65000000000E+04  0.30000000000E+03 0. -1.
     100001    1    1    2    0    0  0.62837202144E+02  0.88214039485E+02  0.64973548094E+04  0.65000000000E+04  0.15050000000E+03 0. -1.
     100001    1    1    2    0    0 -0.62837202144E+02 -0.88214039485E+02 -0.64973548094E+04  0.65000000000E+04  0.15050000000E+03 0. -1.
</event>
<event>
 4    1  0.4521369E-004  0.6500000E+04  0.7818608E-02  0.7223770E-01
         52   -1    0    0    0    0  0.00000000000E+00  0.00000000000E+00  0.64930732323E+04  0.65000000000E+04  0.30000000000E+03 0.  1.
        -52   -1    0    0    0    0 -0.00000000000E+00 -0.00000000000E+00 -0.64930732323E+04  0.65000000000E+04  0.30000000000E+03 0. -1.
     100001    1    1    2    0    0 -0.43378847892E+03  0.40503752888E+03  0.64710989720E+04  0.65000000000E+04  0.15050000000E+03 0.  1.
     100001    1    1    2    0    0  0.43378847892E+03 -0.40503752888E+03 -0.64710989720E+04  0.65000000000E+04  0.15050000000E+03 0. -1.
</event>
<event>
 4    1  0.4521369E-004  0.6500000E+04  0.7818608E-02  0.7223770E-01
         52   -1    0    0    0    0  0.00000000000E+00  0.00000000000E+00  0.64930732323E+04  0.65000000000E+04  0.30000000000E+03 0. -1.
        -52   -1    0    0    0    0 -0.00000000000E+00 -0.00000000000E+00 -0.64930732323E+04  0.65000000000E+04  0.30000000000E+03 0.  1.
     100001    1    1    2    0    0  0.53284955801E+03  0.46250962601E+03  0.64598379194E+04  0.65000000000E+04  0.15050000000E+03 0. -1.
     100001    1    1    2    0    0 -0.53284955801E+03 -0.46250962601E+03 -0.64598379194E+04  0.65000000000E+04  0.15050000000E+03 0.  1.
</event>
<event>
 4    1  0.4521369E-004  0.6500000E+04  0.7818608E-02  0.7223770E-01
         52   -1    0    0    0    0  0.00000000000E+00  0.00000000000E+00  0.64930732323E+04  0.65000000000E+04  0.30000000000E+03 0.  1.
        -52   -1    0    0    0    0 -0.00000000000E+00 -0.00000000000E+00 -0.64930732323E+04  0.65000000000E+04  0.30000000000E+03 0.  1.
     100001    1    1    2    0    0 -0.40704238789E+01 -0.23057361054E+03 -0.64941642258E+04  0.65000000000E+04  0.15050000000E+03 0.  1.
     100001    1    1    2    0    0  0.40704238789E+01  0.23057361054E+03  0.64941642258E+04  0.65000000000E+04  0.15050000000E+03 0.  1.
</event>
<event>
 4    1  0.4521369E-004  0.6500000E+04  0.7818608E-02  0.7223770E-01
         52   -1    0    0    0    0  0.00000000000E+00  0.00000000000E+00  0.64930732323E+04  0.65000000000E+04  0.30000000000E+03 0. -1.
        -52   -1    0    0    0    0 -0.00000000000E+00 -0.00000000000E+00 -0.64930732323E+04  0.65000000000E+04  0.30000000000E+03 0. -1.
     100001    1    1    2    0    0  0.16269164745E+03  0.24211029294E+03  0.64917073089E+04  0.65000000000E+04  0.15050000000E+03 0. -1.
     100001    1    1    2    0    0 -0.16269164745E+03 -0.24211029294E+03 -0.64917073089E+04  0.65000000000E+04  0.15050000000E+03 0. -1.
</event>
<event>
 4    1  0.4521369E-004  0.6500000E+04  0.7818608E-02  0.7223770E-01
         52   -1    0    0    0    0  0.00000000000E+00  0.00000000000E+00  0.64930732323E+04  0.65000000000E+04  0.30000000000E+03 0.  1.
        -52   -1    0    0    0    0 -0.00000000000E+00 -0.00000000000E+00 -0.64930732323E+04  0.65000000000E+04  0.30000000000E+03 0. -1.
     100001    1    1    2    0    0 -0.30767661435E+02  0.47622024316E+03  0.64807111786E+04  0.65000000000E+04  0.15050000000E+03 0.  1.
     100001    1    1    2    0    0  0.30767661435E+02 -0.47622024316E+03 -0.64807111786E+04  0.65000000000E+04  0.15050000000E+03 0. -1.
</event>
<event>
 4    1  0.4521369E-004  0.6500000E+04  0.7818608E-02  0.7223770E-01
         52   -1    0    0    0    0  0.00000000000E+00  0.00000000000E+00  0.64930732323E+04  0.65000000000E+04  0.30000000000E+03 0.  1.
        -52   -1    0    0    0    0 -0.00000000000E+00 -0.00000000000E+00 -0.64930732323E+04  0.65000000000E+04  0.30000000000E+03 0. -1.
     100001    1    1    2    0    0 -0.25401186822E+04  0.37916524792E+03  0.59692026725E+04  0.65000000000E+04  0.15050000000E+03 0.  1.
     100001    1    1    2    0    0  0.25401186822E+04 -0.37916524792E+03 -0.59692026725E+04  0.65000000000E+04  0.15050000000E+03 0. -1.
</event>
<event>
 4    1  0.4521369E-004  0.6500000E+04  0.7818608E-02  0.7223770E-01
         52   -1    0    0    0    0  0.00000000000E+00  0.00000000000E+00  0.64930732323E+04  0.65000000000E+04  0.30000000000E+03 0. -1.
        -52   -1    0    0    0    0 -0.00000000000E+00 -0.00000000000E+00 -0.64930732323E+04  0.65000000000E+04  0.30000000000E+03 0.  1.
     100001    1    1    2    0    0  0.10752649891E+04 -0.14327774630E+04  0.62464632949E+04  0.65000000000E+04  0.15050000000E+03 0. -1.
     100001    1    1    2    0    0 -0.10752649891E+04  0.14327774630E+04 -0.62464632949E+04  0.65000000000E+04  0.15050000000E+03 0.  1.
</event>
<event>
 4    1  0.4521369E-004  0.6500000E+04  0.7818608E-02  0.7223770E-01
         52   -1    0    0    0    0  0.00000000000E+00  0.00000000000E+00  0.64930732323E+04  0.65000000000E+04  0.30000000000E+03 0. -1.
        -52   -1    0    0    0    0 -0.00000000000E+00 -0.00000000000E+00 -0.64930732323E+04  0.65000000000E+04  0.30000000000E+03 0.  1.
     100001    1    1    2    0    0  0.44156754724E+04 -0.73960842647E+03  0.47097918476E+04  0.65000000000E+04  0.15050000000E+03 0. -1.
     100001    1    1    2    0    0 -0.44156754724E+04  0.73960842647E+03 -0.47097918476E+04  0.65000000000E+04  0.15050000000E+03 0.  1.
</event>
<event>
 4    1  0.4521369E-004  0.6500000E+04  0.7818608E-02  0.7223770E-01
         52   -1    0    0    0    0  0.00000000000E+00  0.00000000000E+00  0.64930732323E+04  0.65000000000E+04  0.30000000000E+03 0.  1.
        -52   -1    0    0    0    0 -0.00000000000E+00 -0.00000000000E+00 -0.64930732323E+04  0.65000000000E+04  0.30000000000E+03 0. -1.
     100001    1    1    2    0    0  0.38753274854E+03  0.17016823031E+04 -0.62595084039E+04  0.65000000000E+04  0.15050000000E+03 0. -1.
     100001    1    1    2    0    0 -0.38753274854E+03 -0.17016823031E+04  0.62595084039E+04  0.65000000000E+04  0.15050000000E+03 0.  1.
</event>
<event>
 4    1  0.4521369E-004  0.6500000E+04  0.7818608E-02  0.7223770E-01
         52   -1    0    0    0    0  0.00000000000E+00  0.00000000000E+00  0.64930732323E+04  0.65000000000E+04  0.30000000000E+03 0. -1.
        -52   -1    0    0    0    0 -0.00000000000E+00 -0.00000000000E+00 -0.64930732323E+04  0.65000000000E+04  0.30000000000E+03 0. -1.
     100001    1    1    2    0    0 -0.58330441669E+04  0.22424831580E+04 -0.17816326173E+04  0.65000000000E+04  0.15050000000E+03 0. -1.
     100001    1    1    2    0    0  0.58330441669E+04 -0.22424831580E+04  0.17816326173E+04  0.65000000000E+04  0.15050000000E+03 0. -1.
</event>
<event>
 4    1  0.4521369E-004  0.6500000E+04  0.7818608E-02  0.7223770E-01
         52   -1    0    0    0    0  0.00000000000E+00  0.00000000000E+00  0.64930732323E+04  0.65000000000E+04  0.30000000000E+03 0.  1.
        -52   -1    0    0    0    0 -0.00000000000E+00 -0.00000000000E+00 -0.64930732323E+04  0.65000000000E+04  0.30000000000E+03 0. -1.
     100001    1    1    2    0    0  0.65714218729E+03 -0.60192146325E+04  0.23589338913E+04  0.65000000000E+04  0.15050000000E+03 0. -1.
     100001    1    1    2    0    0 -0.65714218729E+03  0.60192146325E+04 -0.23589338913E+04  0.65000000000E+04  0.15050000000E+03 0.  1.
</event>
<event>
 4    1  0.4521369E-004  0.6500000E+04  0.7818608E-02  0.7223770E-01
         52   -1    0    0    0    0  0.00000000000E+00  0.00000000000E+00  0.64930732323E+04  0.65000000000E+04  0.30000000000E+03 0.  1.
        -52   -1    0    0    0    0 -0.00000000000E+00 -0.00000000000E+00 -0.64930732323E+04  0.65000000000E+04  0.30000000000E+03 0. -1.
     100001    1    1    2    0    0  0.49374042611E+03  0.10761862685E+04 -0.63894751942E+04  0.65000000000E+04  0.15050000000E+03 0. -1.
     100001    1    1    2    0    0 -0.49374042611E+03 -0.10761862685E+04  0.63894751942E+04  0.65000000000E+04  0.15050000000E+03 0.  1.
</event>
<event>
 4    1  0.4521369E-004  0.6500000E+04  0.7818608E-02  0.7223770E-01
         52   -1    0    0    0    0  0.00000000000E+00  0.00000000000E+00  0.64930732323E+04  0.65000000000E+04  0.30000000000E+03 0.  1.
        -52   -1    0    0    0    0 -0.00000000000E+00 -0.00000000000E+00 -0.64930732323E+04  0.65000000000E+04  0.30000000000E+03 0.  1.
     100001    1    1    2    0    0  0.32755274084E+03  0.28978087117E+03  0.64835241959E+04  0.65000000000E+04  0.15050000000E+03 0.  1.
     100001    1    1    2    0    0 -0.32755274084E+03 -0.28978087117E+03 -0.64835241959E+04  0.65000000000E+04  0.15050000000E+03 0.  1.
</event>
<event>
 4    1  0.4909078E-004  0.6500000E+04  0.7818608E-02  0.7223770E-01
         52   -1    0    0    0    0  0.00000000000E+00  0.00000000000E+00  0.64930732323E+04  0.65000000000E+04  0.30000000000E+03 0. -1.
        -52   -1    0    0    0    0 -0.00000000000E+00 -0.00000000000E+00 -0.64930732323E+04  0.65000000000E+04  0.30000000000E+03 0.  1.
     100001    1    1    2    0    0  0.20327387979E+03 -0.16439530878E+03 -0.64929965087E+04  0.65000000000E+04  0.15050000000E+03 0.  1.
     100001    1    1    2    0    0 -0.20327387979E+03  0.16439530878E+03  0.64929965087E+04  0.65000000000E+04  0.15050000000E+03 0. -1.
</event>
<event>
 4    1  0.4521369E-004  0.6500000E+04  0.7818608E-02  0.7223770E-01
         52   -1    0    0    0    0  0.00000000000E+00  0.00000000000E+00  0.64930732323E+04  0.65000000000E+04  0.30000000000E+03 0. -1.
        -52   -1    0    0    0    0 -0.00000000000E+00 -0.00000000000E+00 -0.64930732323E+04  0.65000000000E+04  0.30000000000E+03 0. -1.
     100001    1    1    2    0    0 -0.11462978228E+03  0.70666600922E+02 -0.64968620114E+04  0.65000000000E+04  0.15050000000E+03 0. -1.
     100001    1    1    2    0    0  0.11462978228E+03 -0.70666600922E+02  0.64968620114E+04  0.65000000000E+04  0.15050000000E+03 0. -1.
</event>
<event>
 4    1  0.4521369E-004  0.6500000E+04  0.7818608E-02  0.7223770E-01
         52   -1    0    0    0    0  0.00000000000E+00  0.00000000000E+00  0.64930732323E+04  0.65000000000E+04  0.30000000000E+03 0. -1.
        -52   -1    0    0    0    0 -0.00000000000E+00 -0.00000000000E+00 -0.64930732323E+04  0.65000000000E+04  0.30000000000E+03 0.  1.
     100001    1    1    2    0    0 -0.79276990991E+03  0.11761712754E+04  0.63415681618E+04  0.65000000000E+04  0.15050000000E+03 0. -1.
     100001    1    1    2    0    0  0.79276990991E+03 -0.11761712754E+04 -0.63415681618E+04  0.65000000000E+04  0.15050000000E+03 0.  1.
</event>
<event>
 4    1  0.4521369E-004  0.6500000E+04  0.7818608E-02  0.7223770E-01
         52   -1    0    0    0    0  0.00000000000E+00  0.00000000000E+00  0.64930732323E+04  0.65000000000E+04  0.30000000000E+03 0. -1.
        -52   -1    0    0    0    0 -0.00000000000E+00 -0.00000000000E+00 -0.64930732323E+04  0.65000000000E+04  0.30000000000E+03 0.  1.
     100001    1    1    2    0    0  0.65351160286E+03  0.24699149067E+03 -0.64605934355E+04  0.65000000000E+04  0.15050000000E+03 0.  1.
     100001    1    1    2    0    0 -0.65351160286E+03 -0.24699149067E+03  0.64605934355E+04  0.65000000000E+04  0.15050000000E+03 0. -1.
</event>
<event>
 4    1  0.4521369E-004  0.6500000E+04  0.7818608E-02  0.7223770E-01
         52   -1    0    0    0    0  0.00000000000E+00  0.00000000000E+00  0.64930732323E+04  0.65000000000E+04  0.30000000000E+03 0.  1.
        -52   -1    0    0    0    0 -0.00000000000E+00 -0.00000000000E+00 -0.64930732323E+04  0.65000000000E+04  0.30000000000E+03 0. -1.
     100001    1    1    2    0    0 -0.34533603990E+04 -0.83089233330E+03 -0.54416238050E+04  0.65000000000E+04  0.15050000000E+03 0. -1.
     100001    1    1    2    0    0  0.34533603990E+04  0.83089233330E+03  0.54416238050E+04  0.65000000000E+04  0.15050000000E+03 0.  1.
</event>
<event>
 4    1  0.4521369E-004  0.6500000E+04  0.7818608E-02  0.7223770E-01
         52   -1    0    0    0    0  0.00000000000E+00  0.00000000000E+00  0.64930732323E+04  0.65000000000E+04  0.30000000000E+03 0. -1.
        -52   -1    0    0    0    0 -0.00000000000E+00 -0.00000000000E+00 -0.64930732323E+04  0.65000000000E+04  0.30000000000E+03 0. -1.
     100001    1    1    2    0    0 -0.32856175370E+02  0.65954458822E+02  0.64978396588E+04  0.65000000000E+04  0.15050000000E+03 0. -1.
     100001    1    1    2    0    0  0.32856175370E+02 -0.65954458822E+02 -0.64978396588E+04  0.65000000000E+04  0.15050000000E+03 0. -1.
</event>
<event>
 4    1  0.4521369E-004  0.6500000E+04  0.7818608E-02  0.7223770E-01
         52   -1    0    0    0    0  0.00000000000E+00  0.00000000000E+00  0.64930732323E+04  0.65000000000E+04  0.30000000000E+03 0.  1.
        -52   -1    0    0    0    0 -0.00000000000E+00 -0.00000000000E+00 -0.64930732323E+04  0.65000000000E+04  0.30000000000E+03 0. -1.
     100001    1    1    2    0    0 -0.13181889355E+04 -0.33409874760E+03 -0.63543768937E+04  0.65000000000E+04  0.15050000000E+03 0. -1.
     100001    1    1    2    0    0  0.13181889355E+04  0.33409874760E+03  0.63543768937E+04  0.65000000000E+04  0.15050000000E+03 0.  1.
</event>
<event>
 4    1  0.4521369E-004  0.6500000E+04  0.7818608E-02  0.7223770E-01
         52   -1    0    0    0    0  0.00000000000E+00  0.00000000000E+00  0.64930732323E+04  0.65000000000E+04  0.30000000000E+03 0. -1.
        -52   -1    0    0    0    0 -0.00000000000E+00 -0.00000000000E+00 -0.64930732323E+04  0.65000000000E+04  0.30000000000E+03 0. -1.
     100001    1    1    2    0    0 -0.35310492216E+01 -0.42524666514E+03 -0.64843274559E+04  0.65000000000E+04  0.15050000000E+03 0. -1.
     100001    1    1    2    0    0  0.35310492216E+01  0.42524666514E+03  0.64843274559E+04  0.65000000000E+04  0.15050000000E+03 0. -1.
</event>
<event>
 4    1  0.4521369E-004  0.6500000E+04  0.7818608E-02  0.7223770E-01
         52   -1    0    0    0    0  0.00000000000E+00  0.00000000000E+00  0.64930732323E+04  0.65000000000E+04  0.30000000000E+03 0. -1.
        -52   -1    0    0    0    0 -0.00000000000E+00 -0.00000000000E+00 -0.64930732323E+04  0.65000000000E+04  0.30000000000E+03 0.  1.
     100001    1    1    2    0    0  0.87272832253E+03  0.72777804341E+03 -0.63981273936E+04  0.65000000000E+04  0.15050000000E+03 0.  1.
     100001    1    1    2    0    0 -0.87272832253E+03 -0.72777804341E+03  0.63981273936E+04  0.65000000000E+04  0.15050000000E+03 0. -1.
</event>
<event>
 4    1  0.4521369E-004  0.6500000E+04  0.7818608E-02  0.7223770E-01
         52   -1    0    0    0    0  0.00000000000E+00  0.00000000000E+00  0.64930732323E+04  0.65000000000E+04  0.30000000000E+03 0.  1.
        -52   -1    0    0    0    0 -0.00000000000E+00 -0.00000000000E+00 -0.64930732323E+04  0.65000000000E+04  0.30000000000E+03 0.  1.
     100001    1    1    2    0    0 -0.55451371081E+02 -0.12996509737E+03  0.64967210167E+04  0.65000000000E+04  0.15050000000E+03 0.  1.
     100001    1    1    2    0    0  0.55451371081E+02  0.12996509737E+03 -0.64967210167E+04  0.65000000000E+04  0.15050000000E+03 0.  1.
</event>
<event>
 4    1  0.4521369E-004  0.6500000E+04  0.7818608E-02  0.7223770E-01
         52   -1    0    0    0    0  0.00000000000E+00  0.00000000000E+00  0.64930732323E+04  0.65000000000E+04  0.30000000000E+03 0.  1.
        -52   -1    0    0    0    0 -0.00000000000E+00 -0.00000000000E+00 -0.64930732323E+04  0.65000000000E+04  0.30000000000E+03 0. -1.
     100001    1    1    2    0    0  0.21644265132E+04  0.21780103066E+03 -0.61233300034E+04  0.65000000000E+04  0.15050000000E+03 0. -1.
     100001    1    1    2    0    0 -0.21644265132E+04 -0.21780103066E+03  0.61233300034E+04  0.65000000000E+04  0.15050000000E+03 0.  1.
</event>
<event>
 4    1  0.4521369E-004  0.6500000E+04  0.7818608E-02  0.7223770E-01
         52   -1    0    0    0    0  0.00000000000E+00  0.00000000000E+00  0.64930732323E+04  0.65000000000E+04  0.30000000000E+03 0.  1.
        -52   -1    0    0    0    0 -0.00000000000E+00 -0.00000000000E+00 -0.64930732323E+04  0.65000000000E+04  0.30000000000E+03 0. -1.
     100001    1    1    2    0    0  0.43133473903E+04  0.35228833196E+03  0.48475021373E+04  0.65000000000E+04  0.15050000000E+03 0.  1.
     100001    1    1    2    0    0 -0.43133473903E+04 -0.35228833196E+03 -0.48475021373E+04  0.65000000000E+04  0.15050000000E+03 0. -1.
</event>
<event>
 4    1  0.4521369E-004  0.6500000E+04  0.7818608E-02  0.7223770E-01
         52   -1    0    0    0    0  0.00000000000E+00  0.00000000000E+00  0.64930732323E+04  0.65000000000E+04  0.30000000000E+03 0.  1.
        -52   -1    0    0    0    0 -0.00000000000E+00 -0.00000000000E+00 -0.64930732323E+04  0.65000000000E+04  0.30000000000E+03 0. -1.
     100001    1    1    2    0    0  0.54610241081E+03 -0.10278377951E+04 -0.63931738107E+04  0.65000000000E+04  0.15050000000E+03 0. -1.
     100001    1    1    2    0    0 -0.54610241081E+03  0.10278377951E+04  0.63931738107E+04  0.65000000000E+04  0.15050000000E+03 0.  1.
</event>
<event>
 4    1  0.4521369E-004  0.6500000E+04  0.7818608E-02  0.7223770E-01
         52   -1    0    0    0    0  0.00000000000E+00  0.00000000000E+00  0.64930732323E+04  0.65000000000E+04  0.30000000000E+03 0. -1.
        -52   -1    0    0    0    0 -0.00000000000E+00 -0.00000000000E+00 -0.64930732323E+04  0.65000000000E+04  0.30000000000E+03 0.  1.
     100001    1    1    2    0    0 -0.90951199678E+03 -0.62486928421E+03 -0.64038797658E+04  0.65000000000E+04  0.15050000000E+03 0.  1.
     100001    1    1    2    0    0  0.90951199678E+03  0.62486928421E+03  0.64038797658E+04  0.65000000000E+04  0.15050000000E+03 0. -1.
</event>
<event>
 4    1  0.4521369E-004  0.6500000E+04  0.7818608E-02  0.7223770E-01
         52   -1    0    0    0    0  0.00000000000E+00  0.00000000000E+00  0.64930732323E+04  0.65000000000E+04  0.30000000000E+03 0. -1.
        -52   -1    0    0    0    0 -0.00000000000E+00 -0.00000000000E+00 -0.64930732323E+04  0.65000000000E+04  0.30000000000E+03 0.  1.
     100001    1    1    2    0    0  0.34793172136E+04 -0.53101242549E+04 -0.13871848740E+04  0.65000000000E+04  0.15050000000E+03 0.  1.
     100001    1    1    2    0    0 -0.34793172136E+04  0.53101242549E+04  0.13871848740E+04  0.65000000000E+04  0.15050000000E+03 0. -1.
</event>
<event>
 4    1  0.4521369E-004  0.6500000E+04  0.7818608E-02  0.7223770E-01
         52   -1    0    0    0    0  0.00000000000E+00  0.00000000000E+00  0.64930732323E+04  0.65000000000E+04  0.30000000000E+03 0.  1.
        -52   -1    0    0    0    0 -0.00000000000E+00 -0.00000000000E+00 -0.64930732323E+04  0.65000000000E+04  0.30000000000E+03 0. -1.
     100001    1    1    2    0    0  0.14862500244E+04 -0.91343839107E+03  0.62597157220E+04  0.65000000000E+04  0.15050000000E+03 0.  1.
     100001    1    1    2    0    0 -0.14862500244E+04  0.91343839107E+03 -0.62597157220E+04  0.65000000000E+04  0.15050000000E+03 0. -1.
</event>
<event>
 4    1  0.4521369E-004  0.6500000E+04  0.7818608E-02  0.7223770E-01
         52   -1    0    0    0    0  0.00000000000E+00  0.00000000000E+00  0.64930732323E+04  0.65000000000E+04  0.30000000000E+03 0. -1.
        -52   -1    0    0    0    0 -0.00000000000E+00 -0.00000000000E+00 -0.64930732323E+04  0.65000000000E+04  0.30000000000E+03 0.  1.
     100001    1    1    2    0    0 -0.40780617624E+03 -0.39667892936E+03  0.64733059328E+04  0.65000000000E+04  0.15050000000E+03 0. -1.
     100001    1    1    2    0    0  0.40780617624E+03  0.39667892936E+03 -0.64733059328E+04  0.65000000000E+04  0.15050000000E+03 0.  1.
</event>
<event>
 4    1  0.4521369E-004  0.6500000E+04  0.7818608E-02  0.7223770E-01
         52   -1    0    0    0    0  0.00000000000E+00  0.00000000000E+00  0.64930732323E+04  0.65000000000E+04  0.30000000000E+03 0.  1.
        -52   -1    0    0    0    0 -0.00000000000E+00 -0.00000000000E+00 -0.64930732323E+04  0.65000000000E+04  0.30000000000E+03 0. -1.
     100001    1    1    2    0    0  0.16896678109E+04  0.60284082617E+04  0.17408808889E+04  0.65000000000E+04  0.15050000000E+03 0.  1.
     100001    1    1    2    0    0 -0.16896678109E+04 -0.60284082617E+04 -0.17408808889E+04  0.65000000000E+04  0.15050000000E+03 0. -1.
</event>
<event>
 4    1  0.4521369E-004  0.6500000E+04  0.7818608E-02  0.7223770E-01
         52   -1    0    0    0    0  0.00000000000E+00  0.00000000000E+00  0.64930732323E+04  0.65000000000E+04  0.30000000000E+03 0. -1.
        -52   -1    0    0    0    0 -0.00000000000E+00 -0.00000000000E+00 -0.64930732323E+04  0.65000000000E+04  0.30000000000E+03 0.  1.
     100001    1    1    2    0    0 -0.15049944410E+03  0.24143602615E+03  0.64920265182E+04  0.65000000000E+04  0.15050000000E+03 0. -1.
     100001    1    1    2    0    0  0.15049944410E+03 -0.24143602615E+03 -0.64920265182E+04  0.65000000000E+04  0.15050000000E+03 0.  1.
</event>
<event>
 4    1  0.4521369E-004  0.6500000E+04  0.7818608E-02  0.7223770E-01
         52   -1    0    0    0    0  0.00000000000E+00  0.00000000000E+00  0.64930732323E+04  0.65000000000E+04  0.30000000000E+03 0. -1.
        -52   -1    0    0    0    0 -0.00000000000E+00 -0.00000000000E+00 -0.64930732323E+04  0.65000000000E+04  0.30000000000E+03 0.  1.
     100001    1    1    2    0    0  0.69319672311E+02  0.35127538170E+04  0.54665441692E+04  0.65000000000E+04  0.15050000000E+03 0. -1.
     100001    1    1    2    0    0 -0.69319672311E+02 -0.35127538170E+04 -0.54665441692E+04  0.65000000000E+04  0.15050000000E+03 0.  1.
</event>
<event>
 4    1  0.4521369E-004  0.6500000E+04  0.7818608E-02  0.7223770E-01
         52   -1    0    0    0    0  0.00000000000E+00  0.00000000000E+00  0.64930732323E+04  0.65000000000E+04  0.30000000000E+03 0. -1.
        -52   -1    0    0    0    0 -0.00000000000E+00 -0.00000000000E+00 -0.64930732323E+04  0.65000000000E+04  0.30000000000E+03 0.  1.
     100001    1    1    2    0    0 -0.16184340021E+04  0.28250984842E+03  0.62871463572E+04  0.65000000000E+04  0.15050000000E+03 0. -1.
     100001    1    1    2    0    0  0.16184340021E+04 -0.28250984842E+03 -0.62871463572E+04  0.65000000000E+04  0.15050000000E+03 0.  1.
</event>
<event>
 4    1  0.4521369E-004  0.6500000E+04  0.7818608E-02  0.7223770E-01
         52   -1    0    0    0    0  0.00000000000E+00  0.00000000000E+00  0.64930732323E+04  0.65000000000E+04  0.30000000000E+03 0. -1.
        -52   -1    0    0    0    0 -0.00000000000E+00 -0.00000000000E+00 -0.64930732323E+04  0.65000000000E+04  0.30000000000E+03 0.  1.
     100001    1    1    2    0    0 -0.41278010779E+02 -0.80470453733E+03 -0.64481079770E+04  0.65000000000E+04  0.15050000000E+03 0.  1.
     100001    1    1    2    0    0  0.41278010779E+02  0.80470453733E+03  0.64481079770E+04  0.65000000000E+04  0.15050000000E+03 0. -1.
</event>
<event>
 4    1  0.4521369E-004  0.6500000E+04  0.7818608E-02  0.7223770E-01
         52   -1    0    0    0    0  0.00000000000E+00  0.00000000000E+00  0.64930732323E+04  0.65000000000E+04  0.30000000000E+03 0. -1.
        -52   -1    0    0    0    0 -0.00000000000E+00 -0.00000000000E+00 -0.64930732323E+04  0.65000000000E+04  0.30000000000E+03 0.  1.
     100001    1    1    2    0    0  0.61323278674E+03 -0.16857188935E+04  0.62457703377E+04  0.65000000000E+04  0.15050000000E+03 0. -1.
     100001    1    1    2    0    0 -0.61323278674E+03  0.16857188935E+04 -0.62457703377E+04  0.65000000000E+04  0.15050000000E+03 0.  1.
</event>
<event>
 4    1  0.4521369E-004  0.6500000E+04  0.7818608E-02  0.7223770E-01
         52   -1    0    0    0    0  0.00000000000E+00  0.00000000000E+00  0.64930732323E+04  0.65000000000E+04  0.30000000000E+03 0. -1.
        -52   -1    0    0    0    0 -0.00000000000E+00 -0.00000000000E+00 -0.64930732323E+04  0.65000000000E+04  0.30000000000E+03 0.  1.
     100001    1    1    2    0    0 -0.13163867063E+04  0.18498209322E+04  0.60887304349E+04  0.65000000000E+04  0.15050000000E+03 0. -1.
     100001    1    1    2    0    0  0.13163867063E+04 -0.18498209322E+04 -0.60887304349E+04  0.65000000000E+04  0.15050000000E+03 0.  1.
</event>
<event>
 4    1  0.4521369E-004  0.6500000E+04  0.7818608E-02  0.7223770E-01
         52   -1    0    0    0    0  0.00000000000E+00  0.00000000000E+00  0.64930732323E+04  0.65000000000E+04  0.30000000000E+03 0.  1.
        -52   -1    0    0    0    0 -0.00000000000E+00 -0.00000000000E+00 -0.64930732323E+04  0.65000000000E+04  0.30000000000E+03 0. -1.
     100001    1    1    2    0    0  0.10788548457E+04 -0.25633253260E+04  0.58730558694E+04  0.65000000000E+04  0.15050000000E+03 0.  1.
     100001    1    1    2    0    0 -0.10788548457E+04  0.25633253260E+04 -0.58730558694E+04  0.65000000000E+04  0.15050000000E+03 0. -1.
</event>
<event>
 4    1  0.4521369E-004  0.6500000E+04  0.7818608E-02  0.7223770E-01
         52   -1    0    0    0    0  0.00000000000E+00  0.00000000000E+00  0.64930732323E+04  0.65000000000E+04  0.30000000000E+03 0. -1.
        -52   -1    0    0    0    0 -0.00000000000E+00 -0.00000000000E+00 -0.64930732323E+04  0.65000000000E+04  0.30000000000E+03 0. -1.
     100001    1    1    2    0    0 -0.51852440746E+02 -0.10286549651E+03  0.64972363174E+04  0.65000000000E+04  0.15050000000E+03 0. -1.
     100001    1    1    2    0    0  0.51852440746E+02  0.10286549651E+03 -0.64972363174E+04  0.65000000000E+04  0.15050000000E+03 0. -1.
</event>
<event>
 4    1  0.4521369E-004  0.6500000E+04  0.7818608E-02  0.7223770E-01
         52   -1    0    0    0    0  0.00000000000E+00  0.00000000000E+00  0.64930732323E+04  0.65000000000E+04  0.30000000000E+03 0.  1.
        -52   -1    0    0    0    0 -0.00000000000E+00 -0.00000000000E+00 -0.64930732323E+04  0.65000000000E+04  0.30000000000E+03 0. -1.
     100001    1    1    2    0    0  0.21714036102E+04 -0.31733432408E+04 -0.52385349849E+04  0.65000000000E+04  0.15050000000E+03 0. -1.
     100001    1    1    2    0    0 -0.21714036102E+04  0.31733432408E+04  0.52385349849E+04  0.65000000000E+04  0.15050000000E+03 0.  1.
</event>
<event>
 4    1  0.4521369E-004  0.6500000E+04  0.7818608E-02  0.7223770E-01
         52   -1    0    0    0    0  0.00000000000E+00  0.00000000000E+00  0.64930732323E+04  0.65000000000E+04  0.30000000000E+03 0. -1.
        -52   -1    0    0    0    0 -0.00000000000E+00 -0.00000000000E+00 -0.64930732323E+04  0.65000000000E+04  0.30000000000E+03 0.  1.
     100001    1    1    2    0    0  0.30591600262E+03  0.37810391723E+04 -0.52761262235E+04  0.65000000000E+04  0.15050000000E+03 0.  1.
     100001    1    1    2    0    0 -0.30591600262E+03 -0.37810391723E+04  0.52761262235E+04  0.65000000000E+04  0.15050000000E+03 0. -1.
</event>
<event>
 4    1  0.4521369E-004  0.6500000E+04  0.7818608E-02  0.7223770E-01
         52   -1    0    0    0    0  0.00000000000E+00  0.00000000000E+00  0.64930732323E+04  0.65000000000E+04  0.30000000000E+03 0.  1.
        -52   -1    0    0    0    0 -0.00000000000E+00 -0.00000000000E+00 -0.64930732323E+04  0.65000000000E+04  0.30000000000E+03 0. -1.
     100001    1    1    2    0    0  0.12723407671E+04 -0.53532084882E+03 -0.63499551425E+04  0.65000000000E+04  0.15050000000E+03 0. -1.
     100001    1    1    2    0    0 -0.12723407671E+04  0.53532084882E+03  0.63499551425E+04  0.65000000000E+04  0.15050000000E+03 0.  1.
</event>
<event>
 4    1  0.4521369E-004  0.6500000E+04  0.7818608E-02  0.7223770E-01
         52   -1    0    0    0    0  0.00000000000E+00  0.00000000000E+00  0.64930732323E+04  0.65000000000E+04  0.30000000000E+03 0.  1.
        -52   -1    0    0    0    0 -0.00000000000E+00 -0.00000000000E+00 -0.64930732323E+04  0.65000000000E+04  0.30000000000E+03 0. -1.
     100001    1    1    2    0    0 -0.40146404783E+04 -0.16883300081E+04  0.48228159165E+04  0.65000000000E+04  0.15050000000E+03 0.  1.
     100001    1    1    2    0    0  0.40146404783E+04  0.16883300081E+04 -0.48228159165E+04  0.65000000000E+04  0.15050000000E+03 0. -1.
</event>
<event>
 4    1  0.4521369E-004  0.6500000E+04  0.7818608E-02  0.7223770E-01
         52   -1    0    0    0    0  0.00000000000E+00  0.00000000000E+00  0.64930732323E+04  0.65000000000E+04  0.30000000000E+03 0.  1.
        -52   -1    0    0    0    0 -0.00000000000E+00 -0.00000000000E+00 -0.64930732323E+04  0.65000000000E+04  0.30000000000E+03 0. -1.
     100001    1    1    2    0    0  0.46571908084E+04  0.39712848493E+04 -0.21833048733E+04  0.65000000000E+04  0.15050000000E+03 0. -1.
     100001    1    1    2    0    0 -0.46571908084E+04 -0.39712848493E+04  0.21833048733E+04  0.65000000000E+04  0.15050000000E+03 0.  1.
</event>
<event>
 4    1  0.4521369E-004  0.6500000E+04  0.7818608E-02  0.7223770E-01
         52   -1    0    0    0    0  0.00000000000E+00  0.00000000000E+00  0.64930732323E+04  0.65000000000E+04  0.30000000000E+03 0.  1.
        -52   -1    0    0    0    0 -0.00000000000E+00 -0.00000000000E+00 -0.64930732323E+04  0.65000000000E+04  0.30000000000E+03 0. -1.
     100001    1    1    2    0    0 -0.34498468208E+04 -0.26005338171E+04  0.48541869071E+04  0.65000000000E+04  0.15050000000E+03 0.  1.
     100001    1    1    2    0    0  0.34498468208E+04  0.26005338171E+04 -0.48541869071E+04  0.65000000000E+04  0.15050000000E+03 0. -1.
</event>
<event>
 4    1  0.4521369E-004  0.6500000E+04  0.7818608E-02  0.7223770E-01
         52   -1    0    0    0    0  0.00000000000E+00  0.00000000000E+00  0.64930732323E+04  0.65000000000E+04  0.30000000000E+03 0. -1.
        -52   -1    0    0    0    0 -0.00000000000E+00 -0.00000000000E+00 -0.64930732323E+04  0.65000000000E+04  0.30000000000E+03 0.  1.
     100001    1    1    2    0    0 -0.28853291160E+04  0.57457657616E+03 -0.57941425078E+04  0.65000000000E+04  0.15050000000E+03 0.  1.
     100001    1    1    2    0    0  0.28853291160E+04 -0.57457657616E+03  0.57941425078E+04  0.65000000000E+04  0.15050000000E+03 0. -1.
</event>
<event>
 4    1  0.4521369E-004  0.6500000E+04  0.7818608E-02  0.7223770E-01
         52   -1    0    0    0    0  0.00000000000E+00  0.00000000000E+00  0.64930732323E+04  0.65000000000E+04  0.30000000000E+03 0. -1.
        -52   -1    0    0    0    0 -0.00000000000E+00 -0.00000000000E+00 -0.64930732323E+04  0.65000000000E+04  0.30000000000E+03 0.  1.
     100001    1    1    2    0    0  0.50438933537E+04 -0.19188693383E+04  0.36200041504E+04  0.65000000000E+04  0.15050000000E+03 0. -1.
     100001    1    1    2    0    0 -0.50438933537E+04  0.19188693383E+04 -0.36200041504E+04  0.65000000000E+04  0.15050000000E+03 0.  1.
</event>
<event>
 4    1  0.4521369E-004  0.6500000E+04  0.7818608E-02  0.7223770E-01
         52   -1    0    0    0    0  0.00000000000E+00  0.00000000000E+00  0.64930732323E+04  0.65000000000E+04  0.30000000000E+03 0. -1.
        -52   -1    0    0    0    0 -0.00000000000E+00 -0.00000000000E+00 -0.64930732323E+04  0.65000000000E+04  0.30000000000E+03 0.  1.
     100001    1    1    2    0    0 -0.45439075297E+04 -0.16268938228E+04  0.43512608059E+04  0.65000000000E+04  0.15050000000E+03 0. -1.
     100001    1    1    2    0    0  0.45439075297E+04  0.16268938228E+04 -0.43512608059E+04  0.65000000000E+04  0.15050000000E+03 0.  1.
</event>
<event>
 4    1  0.4521369E-004  0.6500000E+04  0.7818608E-02  0.7223770E-01
         52   -1    0    0    0    0  0.00000000000E+00  0.00000000000E+00  0.64930732323E+04  0.65000000000E+04  0.30000000000E+03 0.  1.
        -52   -1    0    0    0    0 -0.00000000000E+00 -0.00000000000E+00 -0.64930732323E+04  0.65000000000E+04  0.30000000000E+03 0. -1.
     100001    1    1    2    0    0 -0.13831609122E+03  0.43595199062E+03  0.64821419508E+04  0.65000000000E+04  0.15050000000E+03 0.  1.
     100001    1    1    2    0    0  0.13831609122E+03 -0.43595199062E+03 -0.64821419508E+04  0.65000000000E+04  0.15050000000E+03 0. -1.
</event>
<event>
 4    1  0.4521369E-004  0.6500000E+04  0.7818608E-02  0.7223770E-01
         52   -1    0    0    0    0  0.00000000000E+00  0.00000000000E+00  0.64930732323E+04  0.65000000000E+04  0.30000000000E+03 0. -1.
        -52   -1    0    0    0    0 -0.00000000000E+00 -0.00000000000E+00 -0.64930732323E+04  0.65000000000E+04  0.30000000000E+03 0. -1.
     100001    1    1    2    0    0  0.26744175397E+03 -0.20342614757E+03  0.64895641195E+04  0.65000000000E+04  0.15050000000E+03 0. -1.
     100001    1    1    2    0    0 -0.26744175397E+03  0.20342614757E+03 -0.64895641195E+04  0.65000000000E+04  0.15050000000E+03 0. -1.
</event>
<event>
 4    1  0.4521369E-004  0.6500000E+04  0.7818608E-02  0.7223770E-01
         52   -1    0    0    0    0  0.00000000000E+00  0.00000000000E+00  0.64930732323E+04  0.65000000000E+04  0.30000000000E+03 0. -1.
        -52   -1    0    0    0    0 -0.00000000000E+00 -0.00000000000E+00 -0.64930732323E+04  0.65000000000E+04  0.30000000000E+03 0.  1.
     100001    1    1    2    0    0 -0.35364010794E+03  0.19533992402E+03 -0.64856866050E+04  0.65000000000E+04  0.15050000000E+03 0.  1.
     100001    1    1    2    0    0  0.35364010794E+03 -0.19533992402E+03  0.64856866050E+04  0.65000000000E+04  0.15050000000E+03 0. -1.
</event>
<event>
 4    1  0.4521369E-004  0.6500000E+04  0.7818608E-02  0.7223770E-01
         52   -1    0    0    0    0  0.00000000000E+00  0.00000000000E+00  0.64930732323E+04  0.65000000000E+04  0.30000000000E+03 0.  1.
        -52   -1    0    0    0    0 -0.00000000000E+00 -0.00000000000E+00 -0.64930732323E+04  0.65000000000E+04  0.30000000000E+03 0. -1.
     100001    1    1    2    0    0 -0.53483192397E+04  0.30076405713E+04 -0.21393759029E+04  0.65000000000E+04  0.15050000000E+03 0. -1.
     100001    1    1    2    0    0  0.53483192397E+04 -0.30076405713E+04  0.21393759029E+04  0.65000000000E+04  0.15050000000E+03 0.  1.
</event>
<event>
 4    1  0.4521369E-004  0.6500000E+04  0.7818608E-02  0.7223770E-01
         52   -1    0    0    0    0  0.00000000000E+00  0.00000000000E+00  0.64930732323E+04  0.65000000000E+04  0.30000000000E+03 0. -1.
        -52   -1    0    0    0    0 -0.00000000000E+00 -0.00000000000E+00 -0.64930732323E+04  0.65000000000E+04  0.30000000000E+03 0.  1.
     100001    1    1    2    0    0 -0.30568988756E+04 -0.12492929347E+04 -0.55966048796E+04  0.65000000000E+04  0.15050000000E+03 0.  1.
     100001    1    1    2    0    0  0.30568988756E+04  0.12492929347E+04  0.55966048796E+04  0.65000000000E+04  0.15050000000E+03 0. -1.
</event>
<event>
 4    1  0.4521369E-004  0.6500000E+04  0.7818608E-02  0.7223770E-01
         52   -1    0    0    0    0  0.00000000000E+00  0.00000000000E+00  0.64930732323E+04  0.65000000000E+04  0.30000000000E+03 0.  1.
        -52   -1    0    0    0    0 -0.00000000000E+00 -0.00000000000E+00 -0.64930732323E+04  0.65000000000E+04  0.30000000000E+03 0. -1.
     100001    1    1    2    0    0 -0.28870799822E+04 -0.35053101816E+04 -0.46481092346E+04  0.65000000000E+04  0.15050000000E+03 0. -1.
     100001    1    1    2    0    0  0.28870799822E+04  0.35053101816E+04  0.46481092346E+04  0.65000000000E+04  0.15050000000E+03 0.  1.
</event>
<event>
 4    1  0.4521369E-004  0.6500000E+04  0.7818608E-02  0.7223770E-01
         52   -1    0    0    0    0  0.00000000000E+00  0.00000000000E+00  0.64930732323E+04  0.65000000000E+04  0.30000000000E+03 0. -1.
        -52   -1    0    0    0    0 -0.00000000000E+00 -0.00000000000E+00 -0.64930732323E+04  0.65000000000E+04  0.30000000000E+03 0.  1.
     100001    1    1    2    0    0  0.61522818872E+04  0.20658152803E+04 -0.33043086649E+03  0.65000000000E+04  0.15050000000E+03 0. -1.
     100001    1    1    2    0    0 -0.61522818872E+04 -0.20658152803E+04  0.33043086649E+03  0.65000000000E+04  0.15050000000E+03 0.  1.
</event>
<event>
 4    1  0.4521369E-004  0.6500000E+04  0.7818608E-02  0.7223770E-01
         52   -1    0    0    0    0  0.00000000000E+00  0.00000000000E+00  0.64930732323E+04  0.65000000000E+04  0.30000000000E+03 0. -1.
        -52   -1    0    0    0    0 -0.00000000000E+00 -0.00000000000E+00 -0.64930732323E+04  0.65000000000E+04  0.30000000000E+03 0.  1.
     100001    1    1    2    0    0  0.40699382286E+02 -0.72114936264E+03 -0.64579901600E+04  0.65000000000E+04  0.15050000000E+03 0.  1.
     100001    1    1    2    0    0 -0.40699382286E+02  0.72114936264E+03  0.64579901600E+04  0.65000000000E+04  0.15050000000E+03 0. -1.
</event>
<event>
 4    1  0.4521369E-004  0.6500000E+04  0.7818608E-02  0.7223770E-01
         52   -1    0    0    0    0  0.00000000000E+00  0.00000000000E+00  0.64930732323E+04  0.65000000000E+04  0.30000000000E+03 0.  1.
        -52   -1    0    0    0    0 -0.00000000000E+00 -0.00000000000E+00 -0.64930732323E+04  0.65000000000E+04  0.30000000000E+03 0. -1.
     100001    1    1    2    0    0  0.16435378328E+04 -0.26804335719E+04  0.56869507655E+04  0.65000000000E+04  0.15050000000E+03 0.  1.
     100001    1    1    2    0    0 -0.16435378328E+04  0.26804335719E+04 -0.56869507655E+04  0.65000000000E+04  0.15050000000E+03 0. -1.
</event>
<event>
 4    1  0.4521369E-004  0.6500000E+04  0.7818608E-02  0.7223770E-01
         52   -1    0    0    0    0  0.00000000000E+00  0.00000000000E+00  0.64930732323E+04  0.65000000000E+04  0.30000000000E+03 0.  1.
        -52   -1    0    0    0    0 -0.00000000000E+00 -0.00000000000E+00 -0.64930732323E+04  0.65000000000E+04  0.30000000000E+03 0. -1.
     100001    1    1    2    0    0  0.23369538770E+03 -0.26312006120E+04  0.59371305826E+04  0.65000000000E+04  0.15050000000E+03 0.  1.
     100001    1    1    2    0    0 -0.23369538770E+03  0.26312006120E+04 -0.59371305826E+04  0.65000000000E+04  0.15050000000E+03 0. -1.
</event>
<event>
 4    1  0.4521369E-004  0.6500000E+04  0.7818608E-02  0.7223770E-01
         52   -1    0    0    0    0  0.00000000000E+00  0.00000000000E+00  0.64930732323E+04  0.65000000000E+04  0.30000000000E+03 0.  1.
        -52   -1    0    0    0    0 -0.00000000000E+00 -0.00000000000E+00 -0.64930732323E+04  0.65000000000E+04  0.30000000000E+03 0.  1.
     100001    1    1    2    0    0 -0.43957195741E+03  0.66950369669E+02 -0.64830273709E+04  0.65000000000E+04  0.15050000000E+03 0.  1.
     100001    1    1    2    0    0  0.43957195741E+03 -0.66950369669E+02  0.64830273709E+04  0.65000000000E+04  0.15050000000E+03 0.  1.
</event>
<event>
 4    1  0.4521369E-004  0.6500000E+04  0.7818608E-02  0.7223770E-01
         52   -1    0    0    0    0  0.00000000000E+00  0.00000000000E+00  0.64930732323E+04  0.65000000000E+04  0.30000000000E+03 0. -1.
        -52   -1    0    0    0    0 -0.00000000000E+00 -0.00000000000E+00 -0.64930732323E+04  0.65000000000E+04  0.30000000000E+03 0.  1.
     100001    1    1    2    0    0  0.52604076810E+02  0.61858534344E+03 -0.64685342029E+04  0.65000000000E+04  0.15050000000E+03 0.  1.
     100001    1    1    2    0    0 -0.52604076810E+02 -0.61858534344E+03  0.64685342029E+04  0.65000000000E+04  0.15050000000E+03 0. -1.
</event>
<event>
 4    1  0.4521369E-004  0.6500000E+04  0.7818608E-02  0.7223770E-01
         52   -1    0    0    0    0  0.00000000000E+00  0.00000000000E+00  0.64930732323E+04  0.65000000000E+04  0.30000000000E+03 0. -1.
        -52   -1    0    0    0    0 -0.00000000000E+00 -0.00000000000E+00 -0.64930732323E+04  0.65000000000E+04  0.30000000000E+03 0.  1.
     100001    1    1    2    0    0  0.65826686382E+03  0.67070217080E+03 -0.64299450296E+04  0.65000000000E+04  0.15050000000E+03 0.  1.
     100001    1    1    2    0    0 -0.65826686382E+03 -0.67070217080E+03  0.64299450296E+04  0.65000000000E+04  0.15050000000E+03 0. -1.
</event>
<event>
 4    1  0.4521369E-004  0.6500000E+04  0.7818608E-02  0.7223770E-01
         52   -1    0    0    0    0  0.00000000000E+00  0.00000000000E+00  0.64930732323E+04  0.65000000000E+04  0.30000000000E+03 0. -1.
        -52   -1    0    0    0    0 -0.00000000000E+00 -0.00000000000E+00 -0.64930732323E+04  0.65000000000E+04  0.30000000000E+03 0.  1.
     100001    1    1    2    0    0 -0.24011533652E+03  0.11286547022E+03 -0.64928388060E+04  0.65000000000E+04  0.15050000000E+03 0.  1.
     100001    1    1    2    0    0  0.24011533652E+03 -0.11286547022E+03  0.64928388060E+04  0.65000000000E+04  0.15050000000E+03 0. -1.
</event>
<event>
 4    1  0.4521369E-004  0.6500000E+04  0.7818608E-02  0.7223770E-01
         52   -1    0    0    0    0  0.00000000000E+00  0.00000000000E+00  0.64930732323E+04  0.65000000000E+04  0.30000000000E+03 0.  1.
        -52   -1    0    0    0    0 -0.00000000000E+00 -0.00000000000E+00 -0.64930732323E+04  0.65000000000E+04  0.30000000000E+03 0. -1.
     100001    1    1    2    0    0  0.34600670988E+03 -0.31593657406E+04 -0.56679835236E+04  0.65000000000E+04  0.15050000000E+03 0. -1.
     100001    1    1    2    0    0 -0.34600670988E+03  0.31593657406E+04  0.56679835236E+04  0.65000000000E+04  0.15050000000E+03 0.  1.
</event>
<event>
 4    1  0.4521369E-004  0.6500000E+04  0.7818608E-02  0.7223770E-01
         52   -1    0    0    0    0  0.00000000000E+00  0.00000000000E+00  0.64930732323E+04  0.65000000000E+04  0.30000000000E+03 0.  1.
        -52   -1    0    0    0    0 -0.00000000000E+00 -0.00000000000E+00 -0.64930732323E+04  0.65000000000E+04  0.30000000000E+03 0. -1.
     100001    1    1    2    0    0 -0.16566884327E+04  0.63462208450E+03  0.62513988832E+04  0.65000000000E+04  0.15050000000E+03 0.  1.
     100001    1    1    2    0    0  0.16566884327E+04 -0.63462208450E+03 -0.62513988832E+04  0.65000000000E+04  0.15050000000E+03 0. -1.
</event>
<event>
 4    1  0.4521369E-004  0.6500000E+04  0.7818608E-02  0.7223770E-01
         52   -1    0    0    0    0  0.00000000000E+00  0.00000000000E+00  0.64930732323E+04  0.65000000000E+04  0.30000000000E+03 0. -1.
        -52   -1    0    0    0    0 -0.00000000000E+00 -0.00000000000E+00 -0.64930732323E+04  0.65000000000E+04  0.30000000000E+03 0.  1.
     100001    1    1    2    0    0  0.88542091191E+03  0.11791000476E+04 -0.63287520600E+04  0.65000000000E+04  0.15050000000E+03 0.  1.
     100001    1    1    2    0    0 -0.88542091191E+03 -0.11791000476E+04  0.63287520600E+04  0.65000000000E+04  0.15050000000E+03 0. -1.
</event>
<event>
 4    1  0.4521369E-004  0.6500000E+04  0.7818608E-02  0.7223770E-01
         52   -1    0    0    0    0  0.00000000000E+00  0.00000000000E+00  0.64930732323E+04  0.65000000000E+04  0.30000000000E+03 0.  1.
        -52   -1    0    0    0    0 -0.00000000000E+00 -0.00000000000E+00 -0.64930732323E+04  0.65000000000E+04  0.30000000000E+03 0. -1.
     100001    1    1    2    0    0 -0.22238793605E+04  0.16472483679E+04  0.58794798371E+04  0.65000000000E+04  0.15050000000E+03 0.  1.
     100001    1    1    2    0    0  0.22238793605E+04 -0.16472483679E+04 -0.58794798371E+04  0.65000000000E+04  0.15050000000E+03 0. -1.
</event>
<event>
 4    1  0.4521369E-004  0.6500000E+04  0.7818608E-02  0.7223770E-01
         52   -1    0    0    0    0  0.00000000000E+00  0.00000000000E+00  0.64930732323E+04  0.65000000000E+04  0.30000000000E+03 0.  1.
        -52   -1    0    0    0    0 -0.00000000000E+00 -0.00000000000E+00 -0.64930732323E+04  0.65000000000E+04  0.30000000000E+03 0. -1.
     100001    1    1    2    0    0 -0.49899353703E+03 -0.30112537600E+03  0.64720691211E+04  0.65000000000E+04  0.15050000000E+03 0.  1.
     100001    1    1    2    0    0  0.49899353703E+03  0.30112537600E+03 -0.64720691211E+04  0.65000000000E+04  0.15050000000E+03 0. -1.
</event>
<event>
 4    1  0.4521369E-004  0.6500000E+04  0.7818608E-02  0.7223770E-01
         52   -1    0    0    0    0  0.00000000000E+00  0.00000000000E+00  0.64930732323E+04  0.65000000000E+04  0.30000000000E+03 0. -1.
        -52   -1    0    0    0    0 -0.00000000000E+00 -0.00000000000E+00 -0.64930732323E+04  0.65000000000E+04  0.30000000000E+03 0.  1.
     100001    1    1    2    0    0  0.53978778889E+04  0.23507544821E+04  0.27503122389E+04  0.65000000000E+04  0.15050000000E+03 0.  1.
     100001    1    1    2    0    0 -0.53978778889E+04 -0.23507544821E+04 -0.27503122389E+04  0.65000000000E+04  0.15050000000E+03 0. -1.
</event>
<event>
 4    1  0.4521369E-004  0.6500000E+04  0.7818608E-02  0.7223770E-01
         52   -1    0    0    0    0  0.00000000000E+00  0.00000000000E+00  0.64930732323E+04  0.65000000000E+04  0.30000000000E+03 0. -1.
        -52   -1    0    0    0    0 -0.00000000000E+00 -0.00000000000E+00 -0.64930732323E+04  0.65000000000E+04  0.30000000000E+03 0. -1.
     100001    1    1    2    0    0 -0.33345278186E+03 -0.25340909132E+03 -0.64847469361E+04  0.65000000000E+04  0.15050000000E+03 0. -1.
     100001    1    1    2    0    0  0.33345278186E+03  0.25340909132E+03  0.64847469361E+04  0.65000000000E+04  0.15050000000E+03 0. -1.
</event>
<event>
 4    1  0.4521369E-004  0.6500000E+04  0.7818608E-02  0.7223770E-01
         52   -1    0    0    0    0  0.00000000000E+00  0.00000000000E+00  0.64930732323E+04  0.65000000000E+04  0.30000000000E+03 0.  1.
        -52   -1    0    0    0    0 -0.00000000000E+00 -0.00000000000E+00 -0.64930732323E+04  0.65000000000E+04  0.30000000000E+03 0. -1.
     100001    1    1    2    0    0  0.32900125553E+03  0.11524852461E+04 -0.63867742783E+04  0.65000000000E+04  0.15050000000E+03 0. -1.
     100001    1    1    2    0    0 -0.32900125553E+03 -0.11524852461E+04  0.63867742783E+04  0.65000000000E+04  0.15050000000E+03 0.  1.
</event>
<event>
 4    1  0.4521369E-004  0.6500000E+04  0.7818608E-02  0.7223770E-01
         52   -1    0    0    0    0  0.00000000000E+00  0.00000000000E+00  0.64930732323E+04  0.65000000000E+04  0.30000000000E+03 0.  1.
        -52   -1    0    0    0    0 -0.00000000000E+00 -0.00000000000E+00 -0.64930732323E+04  0.65000000000E+04  0.30000000000E+03 0. -1.
     100001    1    1    2    0    0 -0.25448083323E+03  0.46179228884E+02  0.64931084031E+04  0.65000000000E+04  0.15050000000E+03 0.  1.
     100001    1    1    2    0    0  0.25448083323E+03 -0.46179228884E+02 -0.64931084031E+04  0.65000000000E+04  0.15050000000E+03 0. -1.
</event>
<event>
 4    1  0.4521369E-004  0.6500000E+04  0.7818608E-02  0.7223770E-01
         52   -1    0    0    0    0  0.00000000000E+00  0.00000000000E+00  0.64930732323E+04  0.65000000000E+04  0.30000000000E+03 0. -1.
        -52   -1    0    0    0    0 -0.00000000000E+00 -0.00000000000E+00 -0.64930732323E+04  0.65000000000E+04  0.30000000000E+03 0.  1.
     100001    1    1    2    0    0 -0.36677683887E+04 -0.36226449245E+04  0.39561684176E+04  0.65000000000E+04  0.15050000000E+03 0. -1.
     100001    1    1    2    0    0  0.36677683887E+04  0.36226449245E+04 -0.39561684176E+04  0.65000000000E+04  0.15050000000E+03 0.  1.
</event>
<event>
 4    1  0.4521369E-004  0.6500000E+04  0.7818608E-02  0.7223770E-01
         52   -1    0    0    0    0  0.00000000000E+00  0.00000000000E+00  0.64930732323E+04  0.65000000000E+04  0.30000000000E+03 0. -1.
        -52   -1    0    0    0    0 -0.00000000000E+00 -0.00000000000E+00 -0.64930732323E+04  0.65000000000E+04  0.30000000000E+03 0. -1.
     100001    1    1    2    0    0 -0.28116021272E+02 -0.47151023564E+02 -0.64980255478E+04  0.65000000000E+04  0.15050000000E+03 0. -1.
     100001    1    1    2    0    0  0.28116021272E+02  0.47151023564E+02  0.64980255478E+04  0.65000000000E+04  0.15050000000E+03 0. -1.
</event>
<event>
 4    1  0.4521369E-004  0.6500000E+04  0.7818608E-02  0.7223770E-01
         52   -1    0    0    0    0  0.00000000000E+00  0.00000000000E+00  0.64930732323E+04  0.65000000000E+04  0.30000000000E+03 0.  1.
        -52   -1    0    0    0    0 -0.00000000000E+00 -0.00000000000E+00 -0.64930732323E+04  0.65000000000E+04  0.30000000000E+03 0.  1.
     100001    1    1    2    0    0  0.87645908452E+03 -0.39003252023E+03 -0.64270556133E+04  0.65000000000E+04  0.15050000000E+03 0.  1.
     100001    1    1    2    0    0 -0.87645908452E+03  0.39003252023E+03  0.64270556133E+04  0.65000000000E+04  0.15050000000E+03 0.  1.
</event>
<event>
 4    1  0.4521369E-004  0.6500000E+04  0.7818608E-02  0.7223770E-01
         52   -1    0    0    0    0  0.00000000000E+00  0.00000000000E+00  0.64930732323E+04  0.65000000000E+04  0.30000000000E+03 0.  1.
        -52   -1    0    0    0    0 -0.00000000000E+00 -0.00000000000E+00 -0.64930732323E+04  0.65000000000E+04  0.30000000000E+03 0. -1.
     100001    1    1    2    0    0 -0.84293295105E+03 -0.50242099970E+04  0.40341204365E+04  0.65000000000E+04  0.15050000000E+03 0.  1.
     100001    1    1    2    0    0  0.84293295105E+03  0.50242099970E+04 -0.40341204365E+04  0.65000000000E+04  0.15050000000E+03 0. -1.
</event>
<event>
 4    1  0.4521369E-004  0.6500000E+04  0.7818608E-02  0.7223770E-01
         52   -1    0    0    0    0  0.00000000000E+00  0.00000000000E+00  0.64930732323E+04  0.65000000000E+04  0.30000000000E+03 0. -1.
        -52   -1    0    0    0    0 -0.00000000000E+00 -0.00000000000E+00 -0.64930732323E+04  0.65000000000E+04  0.30000000000E+03 0.  1.
     100001    1    1    2    0    0 -0.68630721662E+03  0.28301061835E+03  0.64557135271E+04  0.65000000000E+04  0.15050000000E+03 0. -1.
     100001    1    1    2    0    0  0.68630721662E+03 -0.28301061835E+03 -0.64557135271E+04  0.65000000000E+04  0.15050000000E+03 0.  1.
</event>
<event>
 4    1  0.4521369E-004  0.6500000E+04  0.7818608E-02  0.7223770E-01
         52   -1    0    0    0    0  0.00000000000E+00  0.00000000000E+00  0.64930732323E+04  0.65000000000E+04  0.30000000000E+03 0. -1.
        -52   -1    0    0    0    0 -0.00000000000E+00 -0.00000000000E+00 -0.64930732323E+04  0.65000000000E+04  0.30000000000E+03 0.  1.
     100001    1    1    2    0    0  0.12942040460E+03  0.26955839433E+03  0.64913741520E+04  0.65000000000E+04  0.15050000000E+03 0. -1.
     100001    1    1    2    0    0 -0.12942040460E+03 -0.26955839433E+03 -0.64913741520E+04  0.65000000000E+04  0.15050000000E+03 0.  1.
</event>
<event>
 4    1  0.4521369E-004  0.6500000E+04  0.7818608E-02  0.7223770E-01
         52   -1    0    0    0    0  0.00000000000E+00  0.00000000000E+00  0.64930732323E+04  0.65000000000E+04  0.30000000000E+03 0. -1.
        -52   -1    0    0    0    0 -0.00000000000E+00 -0.00000000000E+00 -0.64930732323E+04  0.65000000000E+04  0.30000000000E+03 0.  1.
     100001    1    1    2    0    0 -0.33963053899E+04 -0.50366130506E+04  0.23075936443E+04  0.65000000000E+04  0.15050000000E+03 0. -1.
     100001    1    1    2    0    0  0.33963053899E+04  0.50366130506E+04 -0.23075936443E+04  0.65000000000E+04  0.15050000000E+03 0.  1.
</event>
<event>
 4    1  0.4521369E-004  0.6500000E+04  0.7818608E-02  0.7223770E-01
         52   -1    0    0    0    0  0.00000000000E+00  0.00000000000E+00  0.64930732323E+04  0.65000000000E+04  0.30000000000E+03 0.  1.
        -52   -1    0    0    0    0 -0.00000000000E+00 -0.00000000000E+00 -0.64930732323E+04  0.65000000000E+04  0.30000000000E+03 0. -1.
     100001    1    1    2    0    0  0.54795202379E+03  0.10997587792E+04  0.63810366679E+04  0.65000000000E+04  0.15050000000E+03 0.  1.
     100001    1    1    2    0    0 -0.54795202379E+03 -0.10997587792E+04 -0.63810366679E+04  0.65000000000E+04  0.15050000000E+03 0. -1.
</event>
<event>
 4    1  0.4521369E-004  0.6500000E+04  0.7818608E-02  0.7223770E-01
         52   -1    0    0    0    0  0.00000000000E+00  0.00000000000E+00  0.64930732323E+04  0.65000000000E+04  0.30000000000E+03 0. -1.
        -52   -1    0    0    0    0 -0.00000000000E+00 -0.00000000000E+00 -0.64930732323E+04  0.65000000000E+04  0.30000000000E+03 0.  1.
     100001    1    1    2    0    0  0.24845780467E+04 -0.97284279419E+03  0.59251834214E+04  0.65000000000E+04  0.15050000000E+03 0. -1.
     100001    1    1    2    0    0 -0.24845780467E+04  0.97284279419E+03 -0.59251834214E+04  0.65000000000E+04  0.15050000000E+03 0.  1.
</event>
<event>
 4    1  0.4521369E-004  0.6500000E+04  0.7818608E-02  0.7223770E-01
         52   -1    0    0    0    0  0.00000000000E+00  0.00000000000E+00  0.64930732323E+04  0.65000000000E+04  0.30000000000E+03 0. -1.
        -52   -1    0    0    0    0 -0.00000000000E+00 -0.00000000000E+00 -0.64930732323E+04  0.65000000000E+04  0.30000000000E+03 0.  1.
     100001    1    1    2    0    0 -0.34700120875E+04  0.26951608825E+04 -0.47877420232E+04  0.65000000000E+04  0.15050000000E+03 0.  1.
     100001    1    1    2    0    0  0.34700120875E+04 -0.26951608825E+04  0.47877420232E+04  0.65000000000E+04  0.15050000000E+03 0. -1.
</event>
<event>
 4    1  0.4521369E-004  0.6500000E+04  0.7818608E-02  0.7223770E-01
         52   -1    0    0    0    0  0.00000000000E+00  0.00000000000E+00  0.64930732323E+04  0.65000000000E+04  0.30000000000E+03 0. -1.
        -52   -1    0    0    0    0 -0.00000000000E+00 -0.00000000000E+00 -0.64930732323E+04  0.65000000000E+04  0.30000000000E+03 0. -1.
     100001    1    1    2    0    0  0.12144376203E+03 -0.35166099045E+03 -0.64875986089E+04  0.65000000000E+04  0.15050000000E+03 0. -1.
     100001    1    1    2    0    0 -0.12144376203E+03  0.35166099045E+03  0.64875986089E+04  0.65000000000E+04  0.15050000000E+03 0. -1.
</event>
<event>
 4    1  0.4521369E-004  0.6500000E+04  0.7818608E-02  0.7223770E-01
         52   -1    0    0    0    0  0.00000000000E+00  0.00000000000E+00  0.64930732323E+04  0.65000000000E+04  0.30000000000E+03 0.  1.
        -52   -1    0    0    0    0 -0.00000000000E+00 -0.00000000000E+00 -0.64930732323E+04  0.65000000000E+04  0.30000000000E+03 0. -1.
     100001    1    1    2    0    0 -0.60473261891E+03 -0.19979740552E+04  0.61538400925E+04  0.65000000000E+04  0.15050000000E+03 0.  1.
     100001    1    1    2    0    0  0.60473261891E+03  0.19979740552E+04 -0.61538400925E+04  0.65000000000E+04  0.15050000000E+03 0. -1.
</event>
<event>
 4    1  0.4521369E-004  0.6500000E+04  0.7818608E-02  0.7223770E-01
         52   -1    0    0    0    0  0.00000000000E+00  0.00000000000E+00  0.64930732323E+04  0.65000000000E+04  0.30000000000E+03 0. -1.
        -52   -1    0    0    0    0 -0.00000000000E+00 -0.00000000000E+00 -0.64930732323E+04  0.65000000000E+04  0.30000000000E+03 0.  1.
     100001    1    1    2    0    0 -0.48946780207E+03  0.25214700613E+04  0.59690836609E+04  0.65000000000E+04  0.15050000000E+03 0. -1.
     100001    1    1    2    0    0  0.48946780207E+03 -0.25214700613E+04 -0.59690836609E+04  0.65000000000E+04  0.15050000000E+03 0.  1.
</event>
<event>
 4    1  0.4521369E-004  0.6500000E+04  0.7818608E-02  0.7223770E-01
         52   -1    0    0    0    0  0.00000000000E+00  0.00000000000E+00  0.64930732323E+04  0.65000000000E+04  0.30000000000E+03 0.  1.
        -52   -1    0    0    0    0 -0.00000000000E+00 -0.00000000000E+00 -0.64930732323E+04  0.65000000000E+04  0.30000000000E+03 0. -1.
     100001    1    1    2    0    0  0.70606911776E+03  0.52218057879E+03  0.64386445463E+04  0.65000000000E+04  0.15050000000E+03 0.  1.
     100001    1    1    2    0    0 -0.70606911776E+03 -0.52218057879E+03 -0.64386445463E+04  0.65000000000E+04  0.15050000000E+03 0. -1.
</event>
<event>
 4    1  0.4521369E-004  0.6500000E+04  0.7818608E-02  0.7223770E-01
         52   -1    0    0    0    0  0.00000000000E+00  0.00000000000E+00  0.64930732323E+04  0.65000000000E+04  0.30000000000E+03 0. -1.
        -52   -1    0    0    0    0 -0.00000000000E+00 -0.00000000000E+00 -0.64930732323E+04  0.65000000000E+04  0.30000000000E+03 0.  1.
     100001    1    1    2    0    0 -0.50758716095E+04 -0.40564095477E+04  0.91753663676E+02  0.65000000000E+04  0.15050000000E+03 0.  1.
     100001    1    1    2    0    0  0.50758716095E+04  0.40564095477E+04 -0.91753663676E+02  0.65000000000E+04  0.15050000000E+03 0. -1.
</event>
<event>
 4    1  0.4521369E-004  0.6500000E+04  0.7818608E-02  0.7223770E-01
         52   -1    0    0    0    0  0.00000000000E+00  0.00000000000E+00  0.64930732323E+04  0.65000000000E+04  0.30000000000E+03 0.  1.
        -52   -1    0    0    0    0 -0.00000000000E+00 -0.00000000000E+00 -0.64930732323E+04  0.65000000000E+04  0.30000000000E+03 0. -1.
     100001    1    1    2    0    0  0.61849053389E+04 -0.22489458207E+03 -0.19808377333E+04  0.65000000000E+04  0.15050000000E+03 0. -1.
     100001    1    1    2    0    0 -0.61849053389E+04  0.22489458207E+03  0.19808377333E+04  0.65000000000E+04  0.15050000000E+03 0.  1.
</event>
<event>
 4    1  0.4521369E-004  0.6500000E+04  0.7818608E-02  0.7223770E-01
         52   -1    0    0    0    0  0.00000000000E+00  0.00000000000E+00  0.64930732323E+04  0.65000000000E+04  0.30000000000E+03 0.  1.
        -52   -1    0    0    0    0 -0.00000000000E+00 -0.00000000000E+00 -0.64930732323E+04  0.65000000000E+04  0.30000000000E+03 0. -1.
     100001    1    1    2    0    0 -0.11818569554E+04  0.14309223997E+03  0.63882774281E+04  0.65000000000E+04  0.15050000000E+03 0.  1.
     100001    1    1    2    0    0  0.11818569554E+04 -0.14309223997E+03 -0.63882774281E+04  0.65000000000E+04  0.15050000000E+03 0. -1.
</event>
<event>
 4    1  0.4521369E-004  0.6500000E+04  0.7818608E-02  0.7223770E-01
         52   -1    0    0    0    0  0.00000000000E+00  0.00000000000E+00  0.64930732323E+04  0.65000000000E+04  0.30000000000E+03 0. -1.
        -52   -1    0    0    0    0 -0.00000000000E+00 -0.00000000000E+00 -0.64930732323E+04  0.65000000000E+04  0.30000000000E+03 0.  1.
     100001    1    1    2    0    0  0.18775119255E+03 -0.46077380973E+03  0.64791810236E+04  0.65000000000E+04  0.15050000000E+03 0. -1.
     100001    1    1    2    0    0 -0.18775119255E+03  0.46077380973E+03 -0.64791810236E+04  0.65000000000E+04  0.15050000000E+03 0.  1.
</event>
<event>
 4    1  0.4521369E-004  0.6500000E+04  0.7818608E-02  0.7223770E-01
         52   -1    0    0    0    0  0.00000000000E+00  0.00000000000E+00  0.64930732323E+04  0.65000000000E+04  0.30000000000E+03 0.  1.
        -52   -1    0    0    0    0 -0.00000000000E+00 -0.00000000000E+00 -0.64930732323E+04  0.65000000000E+04  0.30000000000E+03 0. -1.
     100001    1    1    2    0    0  0.13652305097E+04 -0.65874872607E+03  0.63189829499E+04  0.65000000000E+04  0.15050000000E+03 0.  1.
     100001    1    1    2    0    0 -0.13652305097E+04  0.65874872607E+03 -0.63189829499E+04  0.65000000000E+04  0.15050000000E+03 0. -1.
</event>
<event>
 4    1  0.4521369E-004  0.6500000E+04  0.7818608E-02  0.7223770E-01
         52   -1    0    0    0    0  0.00000000000E+00  0.00000000000E+00  0.64930732323E+04  0.65000000000E+04  0.30000000000E+03 0. -1.
        -52   -1    0    0    0    0 -0.00000000000E+00 -0.00000000000E+00 -0.64930732323E+04  0.65000000000E+04  0.30000000000E+03 0.  1.
     100001    1    1    2    0    0 -0.43003258876E+03 -0.22210360368E+03  0.64802076905E+04  0.65000000000E+04  0.15050000000E+03 0. -1.
     100001    1    1    2    0    0  0.43003258876E+03  0.22210360368E+03 -0.64802076905E+04  0.65000000000E+04  0.15050000000E+03 0.  1.
</event>
<event>
 4    1  0.4521369E-004  0.6500000E+04  0.7818608E-02  0.7223770E-01
         52   -1    0    0    0    0  0.00000000000E+00  0.00000000000E+00  0.64930732323E+04  0.65000000000E+04  0.30000000000E+03 0. -1.
        -52   -1    0    0    0    0 -0.00000000000E+00 -0.00000000000E+00 -0.64930732323E+04  0.65000000000E+04  0.30000000000E+03 0.  1.
     100001    1    1    2    0    0 -0.35207298152E+04 -0.43461204515E+04 -0.33080278626E+04  0.65000000000E+04  0.15050000000E+03 0.  1.
     100001    1    1    2    0    0  0.35207298152E+04  0.43461204515E+04  0.33080278626E+04  0.65000000000E+04  0.15050000000E+03 0. -1.
</event>
<event>
 4    1  0.4521369E-004  0.6500000E+04  0.7818608E-02  0.7223770E-01
         52   -1    0    0    0    0  0.00000000000E+00  0.00000000000E+00  0.64930732323E+04  0.65000000000E+04  0.30000000000E+03 0.  1.
        -52   -1    0    0    0    0 -0.00000000000E+00 -0.00000000000E+00 -0.64930732323E+04  0.65000000000E+04  0.30000000000E+03 0. -1.
     100001    1    1    2    0    0 -0.41479271465E+03  0.11558231705E+03 -0.64839754381E+04  0.65000000000E+04  0.15050000000E+03 0. -1.
     100001    1    1    2    0    0  0.41479271465E+03 -0.11558231705E+03  0.64839754381E+04  0.65000000000E+04  0.15050000000E+03 0.  1.
</event>
<event>
 4    1  0.4521369E-004  0.6500000E+04  0.7818608E-02  0.7223770E-01
         52   -1    0    0    0    0  0.00000000000E+00  0.00000000000E+00  0.64930732323E+04  0.65000000000E+04  0.30000000000E+03 0.  1.
        -52   -1    0    0    0    0 -0.00000000000E+00 -0.00000000000E+00 -0.64930732323E+04  0.65000000000E+04  0.30000000000E+03 0. -1.
     100001    1    1    2    0    0  0.37118702124E+04  0.31119520784E+04  0.43318729827E+04  0.65000000000E+04  0.15050000000E+03 0.  1.
     100001    1    1    2    0    0 -0.37118702124E+04 -0.31119520784E+04 -0.43318729827E+04  0.65000000000E+04  0.15050000000E+03 0. -1.
</event>
<event>
 4    1  0.4521369E-004  0.6500000E+04  0.7818608E-02  0.7223770E-01
         52   -1    0    0    0    0  0.00000000000E+00  0.00000000000E+00  0.64930732323E+04  0.65000000000E+04  0.30000000000E+03 0.  1.
        -52   -1    0    0    0    0 -0.00000000000E+00 -0.00000000000E+00 -0.64930732323E+04  0.65000000000E+04  0.30000000000E+03 0. -1.
     100001    1    1    2    0    0 -0.21949973101E+04  0.12890375766E+04 -0.59789395953E+04  0.65000000000E+04  0.15050000000E+03 0. -1.
     100001    1    1    2    0    0  0.21949973101E+04 -0.12890375766E+04  0.59789395953E+04  0.65000000000E+04  0.15050000000E+03 0.  1.
</event>
<event>
 4    1  0.4521369E-004  0.6500000E+04  0.7818608E-02  0.7223770E-01
         52   -1    0    0    0    0  0.00000000000E+00  0.00000000000E+00  0.64930732323E+04  0.65000000000E+04  0.30000000000E+03 0. -1.
        -52   -1    0    0    0    0 -0.00000000000E+00 -0.00000000000E+00 -0.64930732323E+04  0.65000000000E+04  0.30000000000E+03 0. -1.
     100001    1    1    2    0    0  0.61214514553E+01  0.36480484514E+03 -0.64880066047E+04  0.65000000000E+04  0.15050000000E+03 0. -1.
     100001    1    1    2    0    0 -0.61214514553E+01 -0.36480484514E+03  0.64880066047E+04  0.65000000000E+04  0.15050000000E+03 0. -1.
</event>
<event>
 4    1  0.4521369E-004  0.6500000E+04  0.7818608E-02  0.7223770E-01
         52   -1    0    0    0    0  0.00000000000E+00  0.00000000000E+00  0.64930732323E+04  0.65000000000E+04  0.30000000000E+03 0.  1.
        -52   -1    0    0    0    0 -0.00000000000E+00 -0.00000000000E+00 -0.64930732323E+04  0.65000000000E+04  0.30000000000E+03 0. -1.
     100001    1    1    2    0    0  0.20237481099E+04 -0.30383857911E+03  0.61676150541E+04  0.65000000000E+04  0.15050000000E+03 0.  1.
     100001    1    1    2    0    0 -0.20237481099E+04  0.30383857911E+03 -0.61676150541E+04  0.65000000000E+04  0.15050000000E+03 0. -1.
</event>
<event>
 4    1  0.4521369E-004  0.6500000E+04  0.7818608E-02  0.7223770E-01
         52   -1    0    0    0    0  0.00000000000E+00  0.00000000000E+00  0.64930732323E+04  0.65000000000E+04  0.30000000000E+03 0. -1.
        -52   -1    0    0    0    0 -0.00000000000E+00 -0.00000000000E+00 -0.64930732323E+04  0.65000000000E+04  0.30000000000E+03 0. -1.
     100001    1    1    2    0    0  0.11802244975E+03 -0.59249380328E+03  0.64701137196E+04  0.65000000000E+04  0.15050000000E+03 0. -1.
     100001    1    1    2    0    0 -0.11802244975E+03  0.59249380328E+03 -0.64701137196E+04  0.65000000000E+04  0.15050000000E+03 0. -1.
</event>
<event>
 4    1  0.4521369E-004  0.6500000E+04  0.7818608E-02  0.7223770E-01
         52   -1    0    0    0    0  0.00000000000E+00  0.00000000000E+00  0.64930732323E+04  0.65000000000E+04  0.30000000000E+03 0. -1.
        -52   -1    0    0    0    0 -0.00000000000E+00 -0.00000000000E+00 -0.64930732323E+04  0.65000000000E+04  0.30000000000E+03 0.  1.
     100001    1    1    2    0    0  0.15510932353E+04 -0.23999607675E+03  0.63058592919E+04  0.65000000000E+04  0.15050000000E+03 0. -1.
     100001    1    1    2    0    0 -0.15510932353E+04  0.23999607675E+03 -0.63058592919E+04  0.65000000000E+04  0.15050000000E+03 0.  1.
</event>
<event>
 4    1  0.4521369E-004  0.6500000E+04  0.7818608E-02  0.7223770E-01
         52   -1    0    0    0    0  0.00000000000E+00  0.00000000000E+00  0.64930732323E+04  0.65000000000E+04  0.30000000000E+03 0.  1.
        -52   -1    0    0    0    0 -0.00000000000E+00 -0.00000000000E+00 -0.64930732323E+04  0.65000000000E+04  0.30000000000E+03 0. -1.
     100001    1    1    2    0    0  0.45989258040E+04 -0.11430961253E+04 -0.44464100629E+04  0.65000000000E+04  0.15050000000E+03 0. -1.
     100001    1    1    2    0    0 -0.45989258040E+04  0.11430961253E+04  0.44464100629E+04  0.65000000000E+04  0.15050000000E+03 0.  1.
</event>
<event>
 4    1  0.4521369E-004  0.6500000E+04  0.7818608E-02  0.7223770E-01
         52   -1    0    0    0    0  0.00000000000E+00  0.00000000000E+00  0.64930732323E+04  0.65000000000E+04  0.30000000000E+03 0.  1.
        -52   -1    0    0    0    0 -0.00000000000E+00 -0.00000000000E+00 -0.64930732323E+04  0.65000000000E+04  0.30000000000E+03 0. -1.
     100001    1    1    2    0    0 -0.35110514194E+03  0.28389945716E+02  0.64887031786E+04  0.65000000000E+04  0.15050000000E+03 0.  1.
     100001    1    1    2    0    0  0.35110514194E+03 -0.28389945716E+02 -0.64887031786E+04  0.65000000000E+04  0.15050000000E+03 0. -1.
</event>
<event>
 4    1  0.4521369E-004  0.6500000E+04  0.7818608E-02  0.7223770E-01
         52   -1    0    0    0    0  0.00000000000E+00  0.00000000000E+00  0.64930732323E+04  0.65000000000E+04  0.30000000000E+03 0. -1.
        -52   -1    0    0    0    0 -0.00000000000E+00 -0.00000000000E+00 -0.64930732323E+04  0.65000000000E+04  0.30000000000E+03 0.  1.
     100001    1    1    2    0    0 -0.29606276116E+04 -0.42385665136E+04 -0.39365705640E+04  0.65000000000E+04  0.15050000000E+03 0.  1.
     100001    1    1    2    0    0  0.29606276116E+04  0.42385665136E+04  0.39365705640E+04  0.65000000000E+04  0.15050000000E+03 0. -1.
</event>
<event>
 4    1  0.4521369E-004  0.6500000E+04  0.7818608E-02  0.7223770E-01
         52   -1    0    0    0    0  0.00000000000E+00  0.00000000000E+00  0.64930732323E+04  0.65000000000E+04  0.30000000000E+03 0. -1.
        -52   -1    0    0    0    0 -0.00000000000E+00 -0.00000000000E+00 -0.64930732323E+04  0.65000000000E+04  0.30000000000E+03 0.  1.
     100001    1    1    2    0    0 -0.17299463920E+04  0.30819470187E+02  0.62636798602E+04  0.65000000000E+04  0.15050000000E+03 0. -1.
     100001    1    1    2    0    0  0.17299463920E+04 -0.30819470187E+02 -0.62636798602E+04  0.65000000000E+04  0.15050000000E+03 0.  1.
</event>
<event>
 4    1  0.4521369E-004  0.6500000E+04  0.7818608E-02  0.7223770E-01
         52   -1    0    0    0    0  0.00000000000E+00  0.00000000000E+00  0.64930732323E+04  0.65000000000E+04  0.30000000000E+03 0.  1.
        -52   -1    0    0    0    0 -0.00000000000E+00 -0.00000000000E+00 -0.64930732323E+04  0.65000000000E+04  0.30000000000E+03 0. -1.
     100001    1    1    2    0    0 -0.26890712481E+04 -0.21543087795E+03 -0.59118385558E+04  0.65000000000E+04  0.15050000000E+03 0. -1.
     100001    1    1    2    0    0  0.26890712481E+04  0.21543087795E+03  0.59118385558E+04  0.65000000000E+04  0.15050000000E+03 0.  1.
</event>
<event>
 4    1  0.4521369E-004  0.6500000E+04  0.7818608E-02  0.7223770E-01
         52   -1    0    0    0    0  0.00000000000E+00  0.00000000000E+00  0.64930732323E+04  0.65000000000E+04  0.30000000000E+03 0.  1.
        -52   -1    0    0    0    0 -0.00000000000E+00 -0.00000000000E+00 -0.64930732323E+04  0.65000000000E+04  0.30000000000E+03 0. -1.
     100001    1    1    2    0    0  0.13766512084E+04 -0.49840622048E+04  0.39358995337E+04  0.65000000000E+04  0.15050000000E+03 0.  1.
     100001    1    1    2    0    0 -0.13766512084E+04  0.49840622048E+04 -0.39358995337E+04  0.65000000000E+04  0.15050000000E+03 0. -1.
</event>
<event>
 4    1  0.4521369E-004  0.6500000E+04  0.7818608E-02  0.7223770E-01
         52   -1    0    0    0    0  0.00000000000E+00  0.00000000000E+00  0.64930732323E+04  0.65000000000E+04  0.30000000000E+03 0.  1.
        -52   -1    0    0    0    0 -0.00000000000E+00 -0.00000000000E+00 -0.64930732323E+04  0.65000000000E+04  0.30000000000E+03 0. -1.
     100001    1    1    2    0    0 -0.41497285707E+03  0.62660636258E+03 -0.64546503967E+04  0.65000000000E+04  0.15050000000E+03 0. -1.
     100001    1    1    2    0    0  0.41497285707E+03 -0.62660636258E+03  0.64546503967E+04  0.65000000000E+04  0.15050000000E+03 0.  1.
</event>
<event>
 4    1  0.4521369E-004  0.6500000E+04  0.7818608E-02  0.7223770E-01
         52   -1    0    0    0    0  0.00000000000E+00  0.00000000000E+00  0.64930732323E+04  0.65000000000E+04  0.30000000000E+03 0.  1.
        -52   -1    0    0    0    0 -0.00000000000E+00 -0.00000000000E+00 -0.64930732323E+04  0.65000000000E+04  0.30000000000E+03 0. -1.
     100001    1    1    2    0    0  0.33934118018E+04  0.70418965439E+03 -0.54969285082E+04  0.65000000000E+04  0.15050000000E+03 0. -1.
     100001    1    1    2    0    0 -0.33934118018E+04 -0.70418965439E+03  0.54969285082E+04  0.65000000000E+04  0.15050000000E+03 0.  1.
</event>
<event>
 4    1  0.4521369E-004  0.6500000E+04  0.7818608E-02  0.7223770E-01
         52   -1    0    0    0    0  0.00000000000E+00  0.00000000000E+00  0.64930732323E+04  0.65000000000E+04  0.30000000000E+03 0. -1.
        -52   -1    0    0    0    0 -0.00000000000E+00 -0.00000000000E+00 -0.64930732323E+04  0.65000000000E+04  0.30000000000E+03 0. -1.
     100001    1    1    2    0    0  0.48869401902E+01  0.47612718052E+03 -0.64807892093E+04  0.65000000000E+04  0.15050000000E+03 0. -1.
     100001    1    1    2    0    0 -0.48869401902E+01 -0.47612718052E+03  0.64807892093E+04  0.65000000000E+04  0.15050000000E+03 0. -1.
</event>
<event>
 4    1  0.4521369E-004  0.6500000E+04  0.7818608E-02  0.7223770E-01
         52   -1    0    0    0    0  0.00000000000E+00  0.00000000000E+00  0.64930732323E+04  0.65000000000E+04  0.30000000000E+03 0.  1.
        -52   -1    0    0    0    0 -0.00000000000E+00 -0.00000000000E+00 -0.64930732323E+04  0.65000000000E+04  0.30000000000E+03 0. -1.
     100001    1    1    2    0    0 -0.47294605534E+03  0.44383660123E+04 -0.47227723764E+04  0.65000000000E+04  0.15050000000E+03 0. -1.
     100001    1    1    2    0    0  0.47294605534E+03 -0.44383660123E+04  0.47227723764E+04  0.65000000000E+04  0.15050000000E+03 0.  1.
</event>
<event>
 4    1  0.4521369E-004  0.6500000E+04  0.7818608E-02  0.7223770E-01
         52   -1    0    0    0    0  0.00000000000E+00  0.00000000000E+00  0.64930732323E+04  0.65000000000E+04  0.30000000000E+03 0. -1.
        -52   -1    0    0    0    0 -0.00000000000E+00 -0.00000000000E+00 -0.64930732323E+04  0.65000000000E+04  0.30000000000E+03 0. -1.
     100001    1    1    2    0    0 -0.13286204034E+03 -0.25983786937E+03 -0.64917009874E+04  0.65000000000E+04  0.15050000000E+03 0. -1.
     100001    1    1    2    0    0  0.13286204034E+03  0.25983786937E+03  0.64917009874E+04  0.65000000000E+04  0.15050000000E+03 0. -1.
</event>
<event>
 4    1  0.4521369E-004  0.6500000E+04  0.7818608E-02  0.7223770E-01
         52   -1    0    0    0    0  0.00000000000E+00  0.00000000000E+00  0.64930732323E+04  0.65000000000E+04  0.30000000000E+03 0.  1.
        -52   -1    0    0    0    0 -0.00000000000E+00 -0.00000000000E+00 -0.64930732323E+04  0.65000000000E+04  0.30000000000E+03 0.  1.
     100001    1    1    2    0    0  0.11347770785E+04 -0.35409501001E+04 -0.53292872995E+04  0.65000000000E+04  0.15050000000E+03 0.  1.
     100001    1    1    2    0    0 -0.11347770785E+04  0.35409501001E+04  0.53292872995E+04  0.65000000000E+04  0.15050000000E+03 0.  1.
</event>
<event>
 4    1  0.4521369E-004  0.6500000E+04  0.7818608E-02  0.7223770E-01
         52   -1    0    0    0    0  0.00000000000E+00  0.00000000000E+00  0.64930732323E+04  0.65000000000E+04  0.30000000000E+03 0. -1.
        -52   -1    0    0    0    0 -0.00000000000E+00 -0.00000000000E+00 -0.64930732323E+04  0.65000000000E+04  0.30000000000E+03 0.  1.
     100001    1    1    2    0    0 -0.13189715096E+04  0.12293821160E+03  0.63618039975E+04  0.65000000000E+04  0.15050000000E+03 0. -1.
     100001    1    1    2    0    0  0.13189715096E+04 -0.12293821160E+03 -0.63618039975E+04  0.65000000000E+04  0.15050000000E+03 0.  1.
</event>
<event>
 4    1  0.4521369E-004  0.6500000E+04  0.7818608E-02  0.7223770E-01
         52   -1    0    0    0    0  0.00000000000E+00  0.00000000000E+00  0.64930732323E+04  0.65000000000E+04  0.30000000000E+03 0.  1.
        -52   -1    0    0    0    0 -0.00000000000E+00 -0.00000000000E+00 -0.64930732323E+04  0.65000000000E+04  0.30000000000E+03 0. -1.
     100001    1    1    2    0    0 -0.10925780631E+04  0.19967578738E+04 -0.60865902539E+04  0.65000000000E+04  0.15050000000E+03 0. -1.
     100001    1    1    2    0    0  0.10925780631E+04 -0.19967578738E+04  0.60865902539E+04  0.65000000000E+04  0.15050000000E+03 0.  1.
</event>
<event>
 4    1  0.4521369E-004  0.6500000E+04  0.7818608E-02  0.7223770E-01
         52   -1    0    0    0    0  0.00000000000E+00  0.00000000000E+00  0.64930732323E+04  0.65000000000E+04  0.30000000000E+03 0. -1.
        -52   -1    0    0    0    0 -0.00000000000E+00 -0.00000000000E+00 -0.64930732323E+04  0.65000000000E+04  0.30000000000E+03 0.  1.
     100001    1    1    2    0    0  0.46554182540E+04 -0.15748995776E+04  0.42513670684E+04  0.65000000000E+04  0.15050000000E+03 0. -1.
     100001    1    1    2    0    0 -0.46554182540E+04  0.15748995776E+04 -0.42513670684E+04  0.65000000000E+04  0.15050000000E+03 0.  1.
</event>
<event>
 4    1  0.4521369E-004  0.6500000E+04  0.7818608E-02  0.7223770E-01
         52   -1    0    0    0    0  0.00000000000E+00  0.00000000000E+00  0.64930732323E+04  0.65000000000E+04  0.30000000000E+03 0. -1.
        -52   -1    0    0    0    0 -0.00000000000E+00 -0.00000000000E+00 -0.64930732323E+04  0.65000000000E+04  0.30000000000E+03 0.  1.
     100001    1    1    2    0    0  0.50223901286E+04  0.18996925931E+04  0.36597971526E+04  0.65000000000E+04  0.15050000000E+03 0.  1.
     100001    1    1    2    0    0 -0.50223901286E+04 -0.18996925931E+04 -0.36597971526E+04  0.65000000000E+04  0.15050000000E+03 0. -1.
</event>
<event>
 4    1  0.4521369E-004  0.6500000E+04  0.7818608E-02  0.7223770E-01
         52   -1    0    0    0    0  0.00000000000E+00  0.00000000000E+00  0.64930732323E+04  0.65000000000E+04  0.30000000000E+03 0. -1.
        -52   -1    0    0    0    0 -0.00000000000E+00 -0.00000000000E+00 -0.64930732323E+04  0.65000000000E+04  0.30000000000E+03 0. -1.
     100001    1    1    2    0    0  0.76328260146E+02  0.62831944621E+03 -0.64673594627E+04  0.65000000000E+04  0.15050000000E+03 0. -1.
     100001    1    1    2    0    0 -0.76328260146E+02 -0.62831944621E+03  0.64673594627E+04  0.65000000000E+04  0.15050000000E+03 0. -1.
</event>
<event>
 4    1  0.4521369E-004  0.6500000E+04  0.7818608E-02  0.7223770E-01
         52   -1    0    0    0    0  0.00000000000E+00  0.00000000000E+00  0.64930732323E+04  0.65000000000E+04  0.30000000000E+03 0.  1.
        -52   -1    0    0    0    0 -0.00000000000E+00 -0.00000000000E+00 -0.64930732323E+04  0.65000000000E+04  0.30000000000E+03 0. -1.
     100001    1    1    2    0    0  0.39082004333E+03 -0.11837843471E+04  0.63775594128E+04  0.65000000000E+04  0.15050000000E+03 0.  1.
     100001    1    1    2    0    0 -0.39082004333E+03  0.11837843471E+04 -0.63775594128E+04  0.65000000000E+04  0.15050000000E+03 0. -1.
</event>
<event>
 4    1  0.4521369E-004  0.6500000E+04  0.7818608E-02  0.7223770E-01
         52   -1    0    0    0    0  0.00000000000E+00  0.00000000000E+00  0.64930732323E+04  0.65000000000E+04  0.30000000000E+03 0. -1.
        -52   -1    0    0    0    0 -0.00000000000E+00 -0.00000000000E+00 -0.64930732323E+04  0.65000000000E+04  0.30000000000E+03 0.  1.
     100001    1    1    2    0    0  0.36654155788E+04 -0.70484438535E+03 -0.53193301061E+04  0.65000000000E+04  0.15050000000E+03 0.  1.
     100001    1    1    2    0    0 -0.36654155788E+04  0.70484438535E+03  0.53193301061E+04  0.65000000000E+04  0.15050000000E+03 0. -1.
</event>
<event>
 4    1  0.4521369E-004  0.6500000E+04  0.7818608E-02  0.7223770E-01
         52   -1    0    0    0    0  0.00000000000E+00  0.00000000000E+00  0.64930732323E+04  0.65000000000E+04  0.30000000000E+03 0. -1.
        -52   -1    0    0    0    0 -0.00000000000E+00 -0.00000000000E+00 -0.64930732323E+04  0.65000000000E+04  0.30000000000E+03 0.  1.
     100001    1    1    2    0    0 -0.12489678052E+04 -0.17722894141E+04  0.61258811125E+04  0.65000000000E+04  0.15050000000E+03 0. -1.
     100001    1    1    2    0    0  0.12489678052E+04  0.17722894141E+04 -0.61258811125E+04  0.65000000000E+04  0.15050000000E+03 0.  1.
</event>
<event>
 4    1  0.4521369E-004  0.6500000E+04  0.7818608E-02  0.7223770E-01
         52   -1    0    0    0    0  0.00000000000E+00  0.00000000000E+00  0.64930732323E+04  0.65000000000E+04  0.30000000000E+03 0. -1.
        -52   -1    0    0    0    0 -0.00000000000E+00 -0.00000000000E+00 -0.64930732323E+04  0.65000000000E+04  0.30000000000E+03 0.  1.
     100001    1    1    2    0    0  0.49127795717E+04 -0.37456743446E+03  0.42369382656E+04  0.65000000000E+04  0.15050000000E+03 0. -1.
     100001    1    1    2    0    0 -0.49127795717E+04  0.37456743446E+03 -0.42369382656E+04  0.65000000000E+04  0.15050000000E+03 0.  1.
</event>
<event>
 4    1  0.4521369E-004  0.6500000E+04  0.7818608E-02  0.7223770E-01
         52   -1    0    0    0    0  0.00000000000E+00  0.00000000000E+00  0.64930732323E+04  0.65000000000E+04  0.30000000000E+03 0. -1.
        -52   -1    0    0    0    0 -0.00000000000E+00 -0.00000000000E+00 -0.64930732323E+04  0.65000000000E+04  0.30000000000E+03 0.  1.
     100001    1    1    2    0    0  0.43110184690E+04  0.27692193303E+04 -0.39967353941E+04  0.65000000000E+04  0.15050000000E+03 0.  1.
     100001    1    1    2    0    0 -0.43110184690E+04 -0.27692193303E+04  0.39967353941E+04  0.65000000000E+04  0.15050000000E+03 0. -1.
</event>
<event>
 4    1  0.4521369E-004  0.6500000E+04  0.7818608E-02  0.7223770E-01
         52   -1    0    0    0    0  0.00000000000E+00  0.00000000000E+00  0.64930732323E+04  0.65000000000E+04  0.30000000000E+03 0. -1.
        -52   -1    0    0    0    0 -0.00000000000E+00 -0.00000000000E+00 -0.64930732323E+04  0.65000000000E+04  0.30000000000E+03 0.  1.
     100001    1    1    2    0    0  0.56265439412E+04  0.27743602047E+02 -0.32509357608E+04  0.65000000000E+04  0.15050000000E+03 0.  1.
     100001    1    1    2    0    0 -0.56265439412E+04 -0.27743602047E+02  0.32509357608E+04  0.65000000000E+04  0.15050000000E+03 0. -1.
</event>
<event>
 4    1  0.4521369E-004  0.6500000E+04  0.7818608E-02  0.7223770E-01
         52   -1    0    0    0    0  0.00000000000E+00  0.00000000000E+00  0.64930732323E+04  0.65000000000E+04  0.30000000000E+03 0.  1.
        -52   -1    0    0    0    0 -0.00000000000E+00 -0.00000000000E+00 -0.64930732323E+04  0.65000000000E+04  0.30000000000E+03 0.  1.
     100001    1    1    2    0    0 -0.23154908421E+04  0.28977586009E+04 -0.53356205826E+04  0.65000000000E+04  0.15050000000E+03 0.  1.
     100001    1    1    2    0    0  0.23154908421E+04 -0.28977586009E+04  0.53356205826E+04  0.65000000000E+04  0.15050000000E+03 0.  1.
</event>
<event>
 4    1  0.4521369E-004  0.6500000E+04  0.7818608E-02  0.7223770E-01
         52   -1    0    0    0    0  0.00000000000E+00  0.00000000000E+00  0.64930732323E+04  0.65000000000E+04  0.30000000000E+03 0.  1.
        -52   -1    0    0    0    0 -0.00000000000E+00 -0.00000000000E+00 -0.64930732323E+04  0.65000000000E+04  0.30000000000E+03 0. -1.
     100001    1    1    2    0    0  0.47179386033E+04  0.28923419196E+04 -0.34062829162E+04  0.65000000000E+04  0.15050000000E+03 0. -1.
     100001    1    1    2    0    0 -0.47179386033E+04 -0.28923419196E+04  0.34062829162E+04  0.65000000000E+04  0.15050000000E+03 0.  1.
</event>
<event>
 4    1  0.4521369E-004  0.6500000E+04  0.7818608E-02  0.7223770E-01
         52   -1    0    0    0    0  0.00000000000E+00  0.00000000000E+00  0.64930732323E+04  0.65000000000E+04  0.30000000000E+03 0.  1.
        -52   -1    0    0    0    0 -0.00000000000E+00 -0.00000000000E+00 -0.64930732323E+04  0.65000000000E+04  0.30000000000E+03 0. -1.
     100001    1    1    2    0    0 -0.73686391943E+03 -0.18330175253E+03  0.64537416885E+04  0.65000000000E+04  0.15050000000E+03 0.  1.
     100001    1    1    2    0    0  0.73686391943E+03  0.18330175253E+03 -0.64537416885E+04  0.65000000000E+04  0.15050000000E+03 0. -1.
</event>
<event>
 4    1  0.4521369E-004  0.6500000E+04  0.7818608E-02  0.7223770E-01
         52   -1    0    0    0    0  0.00000000000E+00  0.00000000000E+00  0.64930732323E+04  0.65000000000E+04  0.30000000000E+03 0. -1.
        -52   -1    0    0    0    0 -0.00000000000E+00 -0.00000000000E+00 -0.64930732323E+04  0.65000000000E+04  0.30000000000E+03 0.  1.
     100001    1    1    2    0    0 -0.57396826130E+03  0.69206888387E+03 -0.64357556545E+04  0.65000000000E+04  0.15050000000E+03 0.  1.
     100001    1    1    2    0    0  0.57396826130E+03 -0.69206888387E+03  0.64357556545E+04  0.65000000000E+04  0.15050000000E+03 0. -1.
</event>
<event>
 4    1  0.4521369E-004  0.6500000E+04  0.7818608E-02  0.7223770E-01
         52   -1    0    0    0    0  0.00000000000E+00  0.00000000000E+00  0.64930732323E+04  0.65000000000E+04  0.30000000000E+03 0. -1.
        -52   -1    0    0    0    0 -0.00000000000E+00 -0.00000000000E+00 -0.64930732323E+04  0.65000000000E+04  0.30000000000E+03 0.  1.
     100001    1    1    2    0    0  0.13550298377E+04 -0.15206269579E+03  0.63535911755E+04  0.65000000000E+04  0.15050000000E+03 0. -1.
     100001    1    1    2    0    0 -0.13550298377E+04  0.15206269579E+03 -0.63535911755E+04  0.65000000000E+04  0.15050000000E+03 0.  1.
</event>
<event>
 4    1  0.4521369E-004  0.6500000E+04  0.7818608E-02  0.7223770E-01
         52   -1    0    0    0    0  0.00000000000E+00  0.00000000000E+00  0.64930732323E+04  0.65000000000E+04  0.30000000000E+03 0. -1.
        -52   -1    0    0    0    0 -0.00000000000E+00 -0.00000000000E+00 -0.64930732323E+04  0.65000000000E+04  0.30000000000E+03 0.  1.
     100001    1    1    2    0    0  0.28690047901E+03 -0.10740941052E+04 -0.64024495092E+04  0.65000000000E+04  0.15050000000E+03 0.  1.
     100001    1    1    2    0    0 -0.28690047901E+03  0.10740941052E+04  0.64024495092E+04  0.65000000000E+04  0.15050000000E+03 0. -1.
</event>
<event>
 4    1  0.4521369E-004  0.6500000E+04  0.7818608E-02  0.7223770E-01
         52   -1    0    0    0    0  0.00000000000E+00  0.00000000000E+00  0.64930732323E+04  0.65000000000E+04  0.30000000000E+03 0.  1.
        -52   -1    0    0    0    0 -0.00000000000E+00 -0.00000000000E+00 -0.64930732323E+04  0.65000000000E+04  0.30000000000E+03 0. -1.
     100001    1    1    2    0    0 -0.30629473438E+04  0.15123596554E+04 -0.55279717430E+04  0.65000000000E+04  0.15050000000E+03 0. -1.
     100001    1    1    2    0    0  0.30629473438E+04 -0.15123596554E+04  0.55279717430E+04  0.65000000000E+04  0.15050000000E+03 0.  1.
</event>
<event>
 4    1  0.4521369E-004  0.6500000E+04  0.7818608E-02  0.7223770E-01
         52   -1    0    0    0    0  0.00000000000E+00  0.00000000000E+00  0.64930732323E+04  0.65000000000E+04  0.30000000000E+03 0.  1.
        -52   -1    0    0    0    0 -0.00000000000E+00 -0.00000000000E+00 -0.64930732323E+04  0.65000000000E+04  0.30000000000E+03 0. -1.
     100001    1    1    2    0    0 -0.20419765173E+04 -0.45646756973E+04  0.41498695680E+04  0.65000000000E+04  0.15050000000E+03 0.  1.
     100001    1    1    2    0    0  0.20419765173E+04  0.45646756973E+04 -0.41498695680E+04  0.65000000000E+04  0.15050000000E+03 0. -1.
</event>
<event>
 4    1  0.4521369E-004  0.6500000E+04  0.7818608E-02  0.7223770E-01
         52   -1    0    0    0    0  0.00000000000E+00  0.00000000000E+00  0.64930732323E+04  0.65000000000E+04  0.30000000000E+03 0.  1.
        -52   -1    0    0    0    0 -0.00000000000E+00 -0.00000000000E+00 -0.64930732323E+04  0.65000000000E+04  0.30000000000E+03 0. -1.
     100001    1    1    2    0    0 -0.10124876610E+04 -0.16664951082E+04  0.61987912161E+04  0.65000000000E+04  0.15050000000E+03 0.  1.
     100001    1    1    2    0    0  0.10124876610E+04  0.16664951082E+04 -0.61987912161E+04  0.65000000000E+04  0.15050000000E+03 0. -1.
</event>
<event>
 4    1  0.6791964E-004  0.6500000E+04  0.7818608E-02  0.7223770E-01
         52   -1    0    0    0    0  0.00000000000E+00  0.00000000000E+00  0.64930732323E+04  0.65000000000E+04  0.30000000000E+03 0. -1.
        -52   -1    0    0    0    0 -0.00000000000E+00 -0.00000000000E+00 -0.64930732323E+04  0.65000000000E+04  0.30000000000E+03 0. -1.
     100001    1    1    2    0    0  0.89172103609E+02  0.11007003029E+03 -0.64967132209E+04  0.65000000000E+04  0.15050000000E+03 0. -1.
     100001    1    1    2    0    0 -0.89172103609E+02 -0.11007003029E+03  0.64967132209E+04  0.65000000000E+04  0.15050000000E+03 0. -1.
</event>
<event>
 4    1  0.4521369E-004  0.6500000E+04  0.7818608E-02  0.7223770E-01
         52   -1    0    0    0    0  0.00000000000E+00  0.00000000000E+00  0.64930732323E+04  0.65000000000E+04  0.30000000000E+03 0. -1.
        -52   -1    0    0    0    0 -0.00000000000E+00 -0.00000000000E+00 -0.64930732323E+04  0.65000000000E+04  0.30000000000E+03 0.  1.
     100001    1    1    2    0    0  0.60549409468E+04  0.48521214021E+03  0.23085946070E+04  0.65000000000E+04  0.15050000000E+03 0. -1.
     100001    1    1    2    0    0 -0.60549409468E+04 -0.48521214021E+03 -0.23085946070E+04  0.65000000000E+04  0.15050000000E+03 0.  1.
</event>
<event>
 4    1  0.4521369E-004  0.6500000E+04  0.7818608E-02  0.7223770E-01
         52   -1    0    0    0    0  0.00000000000E+00  0.00000000000E+00  0.64930732323E+04  0.65000000000E+04  0.30000000000E+03 0.  1.
        -52   -1    0    0    0    0 -0.00000000000E+00 -0.00000000000E+00 -0.64930732323E+04  0.65000000000E+04  0.30000000000E+03 0.  1.
     100001    1    1    2    0    0 -0.25476088022E+03 -0.16725286679E+03 -0.64911072339E+04  0.65000000000E+04  0.15050000000E+03 0.  1.
     100001    1    1    2    0    0  0.25476088022E+03  0.16725286679E+03  0.64911072339E+04  0.65000000000E+04  0.15050000000E+03 0.  1.
</event>
<event>
 4    1  0.4521369E-004  0.6500000E+04  0.7818608E-02  0.7223770E-01
         52   -1    0    0    0    0  0.00000000000E+00  0.00000000000E+00  0.64930732323E+04  0.65000000000E+04  0.30000000000E+03 0. -1.
        -52   -1    0    0    0    0 -0.00000000000E+00 -0.00000000000E+00 -0.64930732323E+04  0.65000000000E+04  0.30000000000E+03 0.  1.
     100001    1    1    2    0    0  0.11266419458E+03 -0.42639595899E+03 -0.64832740969E+04  0.65000000000E+04  0.15050000000E+03 0.  1.
     100001    1    1    2    0    0 -0.11266419458E+03  0.42639595899E+03  0.64832740969E+04  0.65000000000E+04  0.15050000000E+03 0. -1.
</event>
<event>
 4    1  0.4521369E-004  0.6500000E+04  0.7818608E-02  0.7223770E-01
         52   -1    0    0    0    0  0.00000000000E+00  0.00000000000E+00  0.64930732323E+04  0.65000000000E+04  0.30000000000E+03 0.  1.
        -52   -1    0    0    0    0 -0.00000000000E+00 -0.00000000000E+00 -0.64930732323E+04  0.65000000000E+04  0.30000000000E+03 0. -1.
     100001    1    1    2    0    0 -0.16365803939E+04 -0.33014178088E+04  0.53525316268E+04  0.65000000000E+04  0.15050000000E+03 0.  1.
     100001    1    1    2    0    0  0.16365803939E+04  0.33014178088E+04 -0.53525316268E+04  0.65000000000E+04  0.15050000000E+03 0. -1.
</event>
<event>
 4    1  0.4521369E-004  0.6500000E+04  0.7818608E-02  0.7223770E-01
         52   -1    0    0    0    0  0.00000000000E+00  0.00000000000E+00  0.64930732323E+04  0.65000000000E+04  0.30000000000E+03 0.  1.
        -52   -1    0    0    0    0 -0.00000000000E+00 -0.00000000000E+00 -0.64930732323E+04  0.65000000000E+04  0.30000000000E+03 0. -1.
     100001    1    1    2    0    0 -0.53998613036E+03  0.75985112185E+03  0.64310489814E+04  0.65000000000E+04  0.15050000000E+03 0.  1.
     100001    1    1    2    0    0  0.53998613036E+03 -0.75985112185E+03 -0.64310489814E+04  0.65000000000E+04  0.15050000000E+03 0. -1.
</event>
<event>
 4    1  0.4521369E-004  0.6500000E+04  0.7818608E-02  0.7223770E-01
         52   -1    0    0    0    0  0.00000000000E+00  0.00000000000E+00  0.64930732323E+04  0.65000000000E+04  0.30000000000E+03 0.  1.
        -52   -1    0    0    0    0 -0.00000000000E+00 -0.00000000000E+00 -0.64930732323E+04  0.65000000000E+04  0.30000000000E+03 0. -1.
     100001    1    1    2    0    0  0.36074485991E+01 -0.78632234295E+03  0.64505064847E+04  0.65000000000E+04  0.15050000000E+03 0.  1.
     100001    1    1    2    0    0 -0.36074485991E+01  0.78632234295E+03 -0.64505064847E+04  0.65000000000E+04  0.15050000000E+03 0. -1.
</event>
<event>
 4    1  0.4521369E-004  0.6500000E+04  0.7818608E-02  0.7223770E-01
         52   -1    0    0    0    0  0.00000000000E+00  0.00000000000E+00  0.64930732323E+04  0.65000000000E+04  0.30000000000E+03 0.  1.
        -52   -1    0    0    0    0 -0.00000000000E+00 -0.00000000000E+00 -0.64930732323E+04  0.65000000000E+04  0.30000000000E+03 0.  1.
     100001    1    1    2    0    0  0.77421318645E+03  0.52540815373E+03 -0.64305435201E+04  0.65000000000E+04  0.15050000000E+03 0.  1.
     100001    1    1    2    0    0 -0.77421318645E+03 -0.52540815373E+03  0.64305435201E+04  0.65000000000E+04  0.15050000000E+03 0.  1.
</event>
<event>
 4    1  0.4521369E-004  0.6500000E+04  0.7818608E-02  0.7223770E-01
         52   -1    0    0    0    0  0.00000000000E+00  0.00000000000E+00  0.64930732323E+04  0.65000000000E+04  0.30000000000E+03 0. -1.
        -52   -1    0    0    0    0 -0.00000000000E+00 -0.00000000000E+00 -0.64930732323E+04  0.65000000000E+04  0.30000000000E+03 0.  1.
     100001    1    1    2    0    0 -0.40529509416E+04 -0.20828194196E+04 -0.46327963133E+04  0.65000000000E+04  0.15050000000E+03 0.  1.
     100001    1    1    2    0    0  0.40529509416E+04  0.20828194196E+04  0.46327963133E+04  0.65000000000E+04  0.15050000000E+03 0. -1.
</event>
<event>
 4    1  0.4521369E-004  0.6500000E+04  0.7818608E-02  0.7223770E-01
         52   -1    0    0    0    0  0.00000000000E+00  0.00000000000E+00  0.64930732323E+04  0.65000000000E+04  0.30000000000E+03 0. -1.
        -52   -1    0    0    0    0 -0.00000000000E+00 -0.00000000000E+00 -0.64930732323E+04  0.65000000000E+04  0.30000000000E+03 0.  1.
     100001    1    1    2    0    0  0.13801172800E+04 -0.78629945429E+03  0.63011395169E+04  0.65000000000E+04  0.15050000000E+03 0. -1.
     100001    1    1    2    0    0 -0.13801172800E+04  0.78629945429E+03 -0.63011395169E+04  0.65000000000E+04  0.15050000000E+03 0.  1.
</event>
<event>
 4    1  0.4521369E-004  0.6500000E+04  0.7818608E-02  0.7223770E-01
         52   -1    0    0    0    0  0.00000000000E+00  0.00000000000E+00  0.64930732323E+04  0.65000000000E+04  0.30000000000E+03 0. -1.
        -52   -1    0    0    0    0 -0.00000000000E+00 -0.00000000000E+00 -0.64930732323E+04  0.65000000000E+04  0.30000000000E+03 0.  1.
     100001    1    1    2    0    0 -0.50172064237E+03  0.12706572798E+04  0.63530351978E+04  0.65000000000E+04  0.15050000000E+03 0. -1.
     100001    1    1    2    0    0  0.50172064237E+03 -0.12706572798E+04 -0.63530351978E+04  0.65000000000E+04  0.15050000000E+03 0.  1.
</event>
<event>
 4    1  0.4521369E-004  0.6500000E+04  0.7818608E-02  0.7223770E-01
         52   -1    0    0    0    0  0.00000000000E+00  0.00000000000E+00  0.64930732323E+04  0.65000000000E+04  0.30000000000E+03 0. -1.
        -52   -1    0    0    0    0 -0.00000000000E+00 -0.00000000000E+00 -0.64930732323E+04  0.65000000000E+04  0.30000000000E+03 0.  1.
     100001    1    1    2    0    0  0.21897656366E+03  0.48366242477E+04 -0.43343355778E+04  0.65000000000E+04  0.15050000000E+03 0.  1.
     100001    1    1    2    0    0 -0.21897656366E+03 -0.48366242477E+04  0.43343355778E+04  0.65000000000E+04  0.15050000000E+03 0. -1.
</event>
<event>
 4    1  0.4521369E-004  0.6500000E+04  0.7818608E-02  0.7223770E-01
         52   -1    0    0    0    0  0.00000000000E+00  0.00000000000E+00  0.64930732323E+04  0.65000000000E+04  0.30000000000E+03 0. -1.
        -52   -1    0    0    0    0 -0.00000000000E+00 -0.00000000000E+00 -0.64930732323E+04  0.65000000000E+04  0.30000000000E+03 0.  1.
     100001    1    1    2    0    0  0.11160322514E+04 -0.54942254274E+02 -0.64014688246E+04  0.65000000000E+04  0.15050000000E+03 0.  1.
     100001    1    1    2    0    0 -0.11160322514E+04  0.54942254274E+02  0.64014688246E+04  0.65000000000E+04  0.15050000000E+03 0. -1.
</event>
<event>
 4    1  0.4521369E-004  0.6500000E+04  0.7818608E-02  0.7223770E-01
         52   -1    0    0    0    0  0.00000000000E+00  0.00000000000E+00  0.64930732323E+04  0.65000000000E+04  0.30000000000E+03 0.  1.
        -52   -1    0    0    0    0 -0.00000000000E+00 -0.00000000000E+00 -0.64930732323E+04  0.65000000000E+04  0.30000000000E+03 0. -1.
     100001    1    1    2    0    0  0.19756416367E+03  0.15801398472E+04 -0.63001171588E+04  0.65000000000E+04  0.15050000000E+03 0. -1.
     100001    1    1    2    0    0 -0.19756416367E+03 -0.15801398472E+04  0.63001171588E+04  0.65000000000E+04  0.15050000000E+03 0.  1.
</event>
<event>
 4    1  0.4521369E-004  0.6500000E+04  0.7818608E-02  0.7223770E-01
         52   -1    0    0    0    0  0.00000000000E+00  0.00000000000E+00  0.64930732323E+04  0.65000000000E+04  0.30000000000E+03 0.  1.
        -52   -1    0    0    0    0 -0.00000000000E+00 -0.00000000000E+00 -0.64930732323E+04  0.65000000000E+04  0.30000000000E+03 0. -1.
     100001    1    1    2    0    0  0.28713514379E+04 -0.33597081081E+03  0.58197778552E+04  0.65000000000E+04  0.15050000000E+03 0.  1.
     100001    1    1    2    0    0 -0.28713514379E+04  0.33597081081E+03 -0.58197778552E+04  0.65000000000E+04  0.15050000000E+03 0. -1.
</event>
<event>
 4    1  0.4521369E-004  0.6500000E+04  0.7818608E-02  0.7223770E-01
         52   -1    0    0    0    0  0.00000000000E+00  0.00000000000E+00  0.64930732323E+04  0.65000000000E+04  0.30000000000E+03 0.  1.
        -52   -1    0    0    0    0 -0.00000000000E+00 -0.00000000000E+00 -0.64930732323E+04  0.65000000000E+04  0.30000000000E+03 0. -1.
     100001    1    1    2    0    0  0.10009238775E+04 -0.32728930570E+03 -0.64123617218E+04  0.65000000000E+04  0.15050000000E+03 0. -1.
     100001    1    1    2    0    0 -0.10009238775E+04  0.32728930570E+03  0.64123617218E+04  0.65000000000E+04  0.15050000000E+03 0.  1.
</event>
<event>
 4    1  0.6655355E-004  0.6500000E+04  0.7818608E-02  0.7223770E-01
         52   -1    0    0    0    0  0.00000000000E+00  0.00000000000E+00  0.64930732323E+04  0.65000000000E+04  0.30000000000E+03 0. -1.
        -52   -1    0    0    0    0 -0.00000000000E+00 -0.00000000000E+00 -0.64930732323E+04  0.65000000000E+04  0.30000000000E+03 0. -1.
     100001    1    1    2    0    0  0.14614558117E+03  0.40990245579E+02 -0.64964845123E+04  0.65000000000E+04  0.15050000000E+03 0. -1.
     100001    1    1    2    0    0 -0.14614558117E+03 -0.40990245579E+02  0.64964845123E+04  0.65000000000E+04  0.15050000000E+03 0. -1.
</event>
<event>
 4    1  0.4521369E-004  0.6500000E+04  0.7818608E-02  0.7223770E-01
         52   -1    0    0    0    0  0.00000000000E+00  0.00000000000E+00  0.64930732323E+04  0.65000000000E+04  0.30000000000E+03 0. -1.
        -52   -1    0    0    0    0 -0.00000000000E+00 -0.00000000000E+00 -0.64930732323E+04  0.65000000000E+04  0.30000000000E+03 0.  1.
     100001    1    1    2    0    0 -0.28250195636E+04  0.38776882527E+04  0.43829382872E+04  0.65000000000E+04  0.15050000000E+03 0. -1.
     100001    1    1    2    0    0  0.28250195636E+04 -0.38776882527E+04 -0.43829382872E+04  0.65000000000E+04  0.15050000000E+03 0.  1.
</event>
<event>
 4    1  0.4521369E-004  0.6500000E+04  0.7818608E-02  0.7223770E-01
         52   -1    0    0    0    0  0.00000000000E+00  0.00000000000E+00  0.64930732323E+04  0.65000000000E+04  0.30000000000E+03 0. -1.
        -52   -1    0    0    0    0 -0.00000000000E+00 -0.00000000000E+00 -0.64930732323E+04  0.65000000000E+04  0.30000000000E+03 0.  1.
     100001    1    1    2    0    0  0.46912794255E+03  0.65298726612E+03  0.64483235305E+04  0.65000000000E+04  0.15050000000E+03 0. -1.
     100001    1    1    2    0    0 -0.46912794255E+03 -0.65298726612E+03 -0.64483235305E+04  0.65000000000E+04  0.15050000000E+03 0.  1.
</event>
<event>
 4    1  0.4521369E-004  0.6500000E+04  0.7818608E-02  0.7223770E-01
         52   -1    0    0    0    0  0.00000000000E+00  0.00000000000E+00  0.64930732323E+04  0.65000000000E+04  0.30000000000E+03 0. -1.
        -52   -1    0    0    0    0 -0.00000000000E+00 -0.00000000000E+00 -0.64930732323E+04  0.65000000000E+04  0.30000000000E+03 0.  1.
     100001    1    1    2    0    0 -0.50492537381E+04 -0.21826555317E+04 -0.34595377246E+04  0.65000000000E+04  0.15050000000E+03 0.  1.
     100001    1    1    2    0    0  0.50492537381E+04  0.21826555317E+04  0.34595377246E+04  0.65000000000E+04  0.15050000000E+03 0. -1.
</event>
<event>
 4    1  0.4521369E-004  0.6500000E+04  0.7818608E-02  0.7223770E-01
         52   -1    0    0    0    0  0.00000000000E+00  0.00000000000E+00  0.64930732323E+04  0.65000000000E+04  0.30000000000E+03 0. -1.
        -52   -1    0    0    0    0 -0.00000000000E+00 -0.00000000000E+00 -0.64930732323E+04  0.65000000000E+04  0.30000000000E+03 0.  1.
     100001    1    1    2    0    0  0.15408061474E+03  0.13315278986E+03  0.64950657617E+04  0.65000000000E+04  0.15050000000E+03 0. -1.
     100001    1    1    2    0    0 -0.15408061474E+03 -0.13315278986E+03 -0.64950657617E+04  0.65000000000E+04  0.15050000000E+03 0.  1.
</event>
<event>
 4    1  0.4521369E-004  0.6500000E+04  0.7818608E-02  0.7223770E-01
         52   -1    0    0    0    0  0.00000000000E+00  0.00000000000E+00  0.64930732323E+04  0.65000000000E+04  0.30000000000E+03 0. -1.
        -52   -1    0    0    0    0 -0.00000000000E+00 -0.00000000000E+00 -0.64930732323E+04  0.65000000000E+04  0.30000000000E+03 0.  1.
     100001    1    1    2    0    0  0.56146347789E+04 -0.16119650558E+02  0.32715388132E+04  0.65000000000E+04  0.15050000000E+03 0. -1.
     100001    1    1    2    0    0 -0.56146347789E+04  0.16119650558E+02 -0.32715388132E+04  0.65000000000E+04  0.15050000000E+03 0.  1.
</event>
<event>
 4    1  0.4521369E-004  0.6500000E+04  0.7818608E-02  0.7223770E-01
         52   -1    0    0    0    0  0.00000000000E+00  0.00000000000E+00  0.64930732323E+04  0.65000000000E+04  0.30000000000E+03 0. -1.
        -52   -1    0    0    0    0 -0.00000000000E+00 -0.00000000000E+00 -0.64930732323E+04  0.65000000000E+04  0.30000000000E+03 0. -1.
     100001    1    1    2    0    0  0.74670075902E+03  0.99486988810E+02 -0.64544473091E+04  0.65000000000E+04  0.15050000000E+03 0. -1.
     100001    1    1    2    0    0 -0.74670075902E+03 -0.99486988810E+02  0.64544473091E+04  0.65000000000E+04  0.15050000000E+03 0. -1.
</event>
<event>
 4    1  0.4521369E-004  0.6500000E+04  0.7818608E-02  0.7223770E-01
         52   -1    0    0    0    0  0.00000000000E+00  0.00000000000E+00  0.64930732323E+04  0.65000000000E+04  0.30000000000E+03 0. -1.
        -52   -1    0    0    0    0 -0.00000000000E+00 -0.00000000000E+00 -0.64930732323E+04  0.65000000000E+04  0.30000000000E+03 0.  1.
     100001    1    1    2    0    0 -0.33235207689E+03 -0.66952519783E+03  0.64551241550E+04  0.65000000000E+04  0.15050000000E+03 0. -1.
     100001    1    1    2    0    0  0.33235207689E+03  0.66952519783E+03 -0.64551241550E+04  0.65000000000E+04  0.15050000000E+03 0.  1.
</event>
<event>
 4    1  0.4521369E-004  0.6500000E+04  0.7818608E-02  0.7223770E-01
         52   -1    0    0    0    0  0.00000000000E+00  0.00000000000E+00  0.64930732323E+04  0.65000000000E+04  0.30000000000E+03 0. -1.
        -52   -1    0    0    0    0 -0.00000000000E+00 -0.00000000000E+00 -0.64930732323E+04  0.65000000000E+04  0.30000000000E+03 0.  1.
     100001    1    1    2    0    0  0.45083347166E+03  0.72615872596E+03  0.64418004033E+04  0.65000000000E+04  0.15050000000E+03 0. -1.
     100001    1    1    2    0    0 -0.45083347166E+03 -0.72615872596E+03 -0.64418004033E+04  0.65000000000E+04  0.15050000000E+03 0.  1.
</event>
<event>
 4    1  0.4521369E-004  0.6500000E+04  0.7818608E-02  0.7223770E-01
         52   -1    0    0    0    0  0.00000000000E+00  0.00000000000E+00  0.64930732323E+04  0.65000000000E+04  0.30000000000E+03 0.  1.
        -52   -1    0    0    0    0 -0.00000000000E+00 -0.00000000000E+00 -0.64930732323E+04  0.65000000000E+04  0.30000000000E+03 0. -1.
     100001    1    1    2    0    0  0.72265675356E+02  0.31715571067E+03  0.64901109141E+04  0.65000000000E+04  0.15050000000E+03 0.  1.
     100001    1    1    2    0    0 -0.72265675356E+02 -0.31715571067E+03 -0.64901109141E+04  0.65000000000E+04  0.15050000000E+03 0. -1.
</event>
<event>
 4    1  0.5566440E-004  0.6500000E+04  0.7818608E-02  0.7223770E-01
         52   -1    0    0    0    0  0.00000000000E+00  0.00000000000E+00  0.64930732323E+04  0.65000000000E+04  0.30000000000E+03 0. -1.
        -52   -1    0    0    0    0 -0.00000000000E+00 -0.00000000000E+00 -0.64930732323E+04  0.65000000000E+04  0.30000000000E+03 0.  1.
     100001    1    1    2    0    0 -0.16528924942E+03  0.14170599461E+03 -0.64946091973E+04  0.65000000000E+04  0.15050000000E+03 0.  1.
     100001    1    1    2    0    0  0.16528924942E+03 -0.14170599461E+03  0.64946091973E+04  0.65000000000E+04  0.15050000000E+03 0. -1.
</event>
<event>
 4    1  0.4521369E-004  0.6500000E+04  0.7818608E-02  0.7223770E-01
         52   -1    0    0    0    0  0.00000000000E+00  0.00000000000E+00  0.64930732323E+04  0.65000000000E+04  0.30000000000E+03 0.  1.
        -52   -1    0    0    0    0 -0.00000000000E+00 -0.00000000000E+00 -0.64930732323E+04  0.65000000000E+04  0.30000000000E+03 0. -1.
     100001    1    1    2    0    0 -0.55954606522E+03  0.33875078238E+04  0.55171594770E+04  0.65000000000E+04  0.15050000000E+03 0.  1.
     100001    1    1    2    0    0  0.55954606522E+03 -0.33875078238E+04 -0.55171594770E+04  0.65000000000E+04  0.15050000000E+03 0. -1.
</event>
<event>
 4    1  0.4521369E-004  0.6500000E+04  0.7818608E-02  0.7223770E-01
         52   -1    0    0    0    0  0.00000000000E+00  0.00000000000E+00  0.64930732323E+04  0.65000000000E+04  0.30000000000E+03 0. -1.
        -52   -1    0    0    0    0 -0.00000000000E+00 -0.00000000000E+00 -0.64930732323E+04  0.65000000000E+04  0.30000000000E+03 0.  1.
     100001    1    1    2    0    0  0.53112202895E+03  0.19427910574E+04  0.61782539643E+04  0.65000000000E+04  0.15050000000E+03 0. -1.
     100001    1    1    2    0    0 -0.53112202895E+03 -0.19427910574E+04 -0.61782539643E+04  0.65000000000E+04  0.15050000000E+03 0.  1.
</event>
<event>
 4    1  0.4521369E-004  0.6500000E+04  0.7818608E-02  0.7223770E-01
         52   -1    0    0    0    0  0.00000000000E+00  0.00000000000E+00  0.64930732323E+04  0.65000000000E+04  0.30000000000E+03 0. -1.
        -52   -1    0    0    0    0 -0.00000000000E+00 -0.00000000000E+00 -0.64930732323E+04  0.65000000000E+04  0.30000000000E+03 0.  1.
     100001    1    1    2    0    0 -0.32674719715E+03  0.10563580042E+03 -0.64891776903E+04  0.65000000000E+04  0.15050000000E+03 0.  1.
     100001    1    1    2    0    0  0.32674719715E+03 -0.10563580042E+03  0.64891776903E+04  0.65000000000E+04  0.15050000000E+03 0. -1.
</event>
<event>
 4    1  0.4521369E-004  0.6500000E+04  0.7818608E-02  0.7223770E-01
         52   -1    0    0    0    0  0.00000000000E+00  0.00000000000E+00  0.64930732323E+04  0.65000000000E+04  0.30000000000E+03 0.  1.
        -52   -1    0    0    0    0 -0.00000000000E+00 -0.00000000000E+00 -0.64930732323E+04  0.65000000000E+04  0.30000000000E+03 0.  1.
     100001    1    1    2    0    0 -0.61005565591E+03 -0.11932819608E+04  0.63585580133E+04  0.65000000000E+04  0.15050000000E+03 0.  1.
     100001    1    1    2    0    0  0.61005565591E+03  0.11932819608E+04 -0.63585580133E+04  0.65000000000E+04  0.15050000000E+03 0.  1.
</event>
<event>
 4    1  0.4521369E-004  0.6500000E+04  0.7818608E-02  0.7223770E-01
         52   -1    0    0    0    0  0.00000000000E+00  0.00000000000E+00  0.64930732323E+04  0.65000000000E+04  0.30000000000E+03 0. -1.
        -52   -1    0    0    0    0 -0.00000000000E+00 -0.00000000000E+00 -0.64930732323E+04  0.65000000000E+04  0.30000000000E+03 0.  1.
     100001    1    1    2    0    0 -0.41650685739E+04  0.48135062403E+04  0.13075592529E+04  0.65000000000E+04  0.15050000000E+03 0. -1.
     100001    1    1    2    0    0  0.41650685739E+04 -0.48135062403E+04 -0.13075592529E+04  0.65000000000E+04  0.15050000000E+03 0.  1.
</event>
<event>
 4    1  0.4521369E-004  0.6500000E+04  0.7818608E-02  0.7223770E-01
         52   -1    0    0    0    0  0.00000000000E+00  0.00000000000E+00  0.64930732323E+04  0.65000000000E+04  0.30000000000E+03 0. -1.
        -52   -1    0    0    0    0 -0.00000000000E+00 -0.00000000000E+00 -0.64930732323E+04  0.65000000000E+04  0.30000000000E+03 0.  1.
     100001    1    1    2    0    0 -0.12193355526E+04  0.17834309953E+04 -0.61286168460E+04  0.65000000000E+04  0.15050000000E+03 0.  1.
     100001    1    1    2    0    0  0.12193355526E+04 -0.17834309953E+04  0.61286168460E+04  0.65000000000E+04  0.15050000000E+03 0. -1.
</event>
<event>
 4    1  0.4521369E-004  0.6500000E+04  0.7818608E-02  0.7223770E-01
         52   -1    0    0    0    0  0.00000000000E+00  0.00000000000E+00  0.64930732323E+04  0.65000000000E+04  0.30000000000E+03 0. -1.
        -52   -1    0    0    0    0 -0.00000000000E+00 -0.00000000000E+00 -0.64930732323E+04  0.65000000000E+04  0.30000000000E+03 0.  1.
     100001    1    1    2    0    0 -0.61071389922E+03  0.37730139034E+03  0.64584844928E+04  0.65000000000E+04  0.15050000000E+03 0. -1.
     100001    1    1    2    0    0  0.61071389922E+03 -0.37730139034E+03 -0.64584844928E+04  0.65000000000E+04  0.15050000000E+03 0.  1.
</event>
<event>
 4    1  0.4521369E-004  0.6500000E+04  0.7818608E-02  0.7223770E-01
         52   -1    0    0    0    0  0.00000000000E+00  0.00000000000E+00  0.64930732323E+04  0.65000000000E+04  0.30000000000E+03 0. -1.
        -52   -1    0    0    0    0 -0.00000000000E+00 -0.00000000000E+00 -0.64930732323E+04  0.65000000000E+04  0.30000000000E+03 0. -1.
     100001    1    1    2    0    0  0.55726354767E+03 -0.16114532699E+02  0.64742989899E+04  0.65000000000E+04  0.15050000000E+03 0. -1.
     100001    1    1    2    0    0 -0.55726354767E+03  0.16114532699E+02 -0.64742989899E+04  0.65000000000E+04  0.15050000000E+03 0. -1.
</event>
<event>
 4    1  0.4521369E-004  0.6500000E+04  0.7818608E-02  0.7223770E-01
         52   -1    0    0    0    0  0.00000000000E+00  0.00000000000E+00  0.64930732323E+04  0.65000000000E+04  0.30000000000E+03 0.  1.
        -52   -1    0    0    0    0 -0.00000000000E+00 -0.00000000000E+00 -0.64930732323E+04  0.65000000000E+04  0.30000000000E+03 0. -1.
     100001    1    1    2    0    0 -0.32840655176E+03  0.40097977334E+03  0.64775546395E+04  0.65000000000E+04  0.15050000000E+03 0.  1.
     100001    1    1    2    0    0  0.32840655176E+03 -0.40097977334E+03 -0.64775546395E+04  0.65000000000E+04  0.15050000000E+03 0. -1.
</event>
<event>
 4    1  0.4521369E-004  0.6500000E+04  0.7818608E-02  0.7223770E-01
         52   -1    0    0    0    0  0.00000000000E+00  0.00000000000E+00  0.64930732323E+04  0.65000000000E+04  0.30000000000E+03 0.  1.
        -52   -1    0    0    0    0 -0.00000000000E+00 -0.00000000000E+00 -0.64930732323E+04  0.65000000000E+04  0.30000000000E+03 0. -1.
     100001    1    1    2    0    0  0.63620388602E+03  0.20085745418E+03 -0.64639191400E+04  0.65000000000E+04  0.15050000000E+03 0. -1.
     100001    1    1    2    0    0 -0.63620388602E+03 -0.20085745418E+03  0.64639191400E+04  0.65000000000E+04  0.15050000000E+03 0.  1.
</event>
<event>
 4    1  0.4521369E-004  0.6500000E+04  0.7818608E-02  0.7223770E-01
         52   -1    0    0    0    0  0.00000000000E+00  0.00000000000E+00  0.64930732323E+04  0.65000000000E+04  0.30000000000E+03 0. -1.
        -52   -1    0    0    0    0 -0.00000000000E+00 -0.00000000000E+00 -0.64930732323E+04  0.65000000000E+04  0.30000000000E+03 0.  1.
     100001    1    1    2    0    0 -0.64129491232E+03 -0.24784664578E+04 -0.59727124996E+04  0.65000000000E+04  0.15050000000E+03 0.  1.
     100001    1    1    2    0    0  0.64129491232E+03  0.24784664578E+04  0.59727124996E+04  0.65000000000E+04  0.15050000000E+03 0. -1.
</event>
<event>
 4    1  0.4521369E-004  0.6500000E+04  0.7818608E-02  0.7223770E-01
         52   -1    0    0    0    0  0.00000000000E+00  0.00000000000E+00  0.64930732323E+04  0.65000000000E+04  0.30000000000E+03 0.  1.
        -52   -1    0    0    0    0 -0.00000000000E+00 -0.00000000000E+00 -0.64930732323E+04  0.65000000000E+04  0.30000000000E+03 0.  1.
     100001    1    1    2    0    0 -0.34838340351E+03 -0.76454860915E+03 -0.64437135394E+04  0.65000000000E+04  0.15050000000E+03 0.  1.
     100001    1    1    2    0    0  0.34838340351E+03  0.76454860915E+03  0.64437135394E+04  0.65000000000E+04  0.15050000000E+03 0.  1.
</event>
<event>
 4    1  0.4521369E-004  0.6500000E+04  0.7818608E-02  0.7223770E-01
         52   -1    0    0    0    0  0.00000000000E+00  0.00000000000E+00  0.64930732323E+04  0.65000000000E+04  0.30000000000E+03 0.  1.
        -52   -1    0    0    0    0 -0.00000000000E+00 -0.00000000000E+00 -0.64930732323E+04  0.65000000000E+04  0.30000000000E+03 0. -1.
     100001    1    1    2    0    0 -0.11718587959E+03  0.61060874519E+03 -0.64684444946E+04  0.65000000000E+04  0.15050000000E+03 0. -1.
     100001    1    1    2    0    0  0.11718587959E+03 -0.61060874519E+03  0.64684444946E+04  0.65000000000E+04  0.15050000000E+03 0.  1.
</event>
<event>
 4    1  0.4521369E-004  0.6500000E+04  0.7818608E-02  0.7223770E-01
         52   -1    0    0    0    0  0.00000000000E+00  0.00000000000E+00  0.64930732323E+04  0.65000000000E+04  0.30000000000E+03 0.  1.
        -52   -1    0    0    0    0 -0.00000000000E+00 -0.00000000000E+00 -0.64930732323E+04  0.65000000000E+04  0.30000000000E+03 0. -1.
     100001    1    1    2    0    0 -0.22634442076E+04  0.46687047834E+04  0.39124628706E+04  0.65000000000E+04  0.15050000000E+03 0.  1.
     100001    1    1    2    0    0  0.22634442076E+04 -0.46687047834E+04 -0.39124628706E+04  0.65000000000E+04  0.15050000000E+03 0. -1.
</event>
<event>
 4    1  0.4521369E-004  0.6500000E+04  0.7818608E-02  0.7223770E-01
         52   -1    0    0    0    0  0.00000000000E+00  0.00000000000E+00  0.64930732323E+04  0.65000000000E+04  0.30000000000E+03 0. -1.
        -52   -1    0    0    0    0 -0.00000000000E+00 -0.00000000000E+00 -0.64930732323E+04  0.65000000000E+04  0.30000000000E+03 0.  1.
     100001    1    1    2    0    0  0.22186645157E+04  0.12398845661E+04 -0.59805989482E+04  0.65000000000E+04  0.15050000000E+03 0.  1.
     100001    1    1    2    0    0 -0.22186645157E+04 -0.12398845661E+04  0.59805989482E+04  0.65000000000E+04  0.15050000000E+03 0. -1.
</event>
<event>
 4    1  0.4521369E-004  0.6500000E+04  0.7818608E-02  0.7223770E-01
         52   -1    0    0    0    0  0.00000000000E+00  0.00000000000E+00  0.64930732323E+04  0.65000000000E+04  0.30000000000E+03 0. -1.
        -52   -1    0    0    0    0 -0.00000000000E+00 -0.00000000000E+00 -0.64930732323E+04  0.65000000000E+04  0.30000000000E+03 0.  1.
     100001    1    1    2    0    0  0.14143329967E+04  0.11921515413E+04 -0.62294290771E+04  0.65000000000E+04  0.15050000000E+03 0.  1.
     100001    1    1    2    0    0 -0.14143329967E+04 -0.11921515413E+04  0.62294290771E+04  0.65000000000E+04  0.15050000000E+03 0. -1.
</event>
<event>
 4    1  0.4521369E-004  0.6500000E+04  0.7818608E-02  0.7223770E-01
         52   -1    0    0    0    0  0.00000000000E+00  0.00000000000E+00  0.64930732323E+04  0.65000000000E+04  0.30000000000E+03 0.  1.
        -52   -1    0    0    0    0 -0.00000000000E+00 -0.00000000000E+00 -0.64930732323E+04  0.65000000000E+04  0.30000000000E+03 0. -1.
     100001    1    1    2    0    0 -0.12119337542E+04 -0.12682652158E+04 -0.62570016516E+04  0.65000000000E+04  0.15050000000E+03 0. -1.
     100001    1    1    2    0    0  0.12119337542E+04  0.12682652158E+04  0.62570016516E+04  0.65000000000E+04  0.15050000000E+03 0.  1.
</event>
<event>
 4    1  0.4521369E-004  0.6500000E+04  0.7818608E-02  0.7223770E-01
         52   -1    0    0    0    0  0.00000000000E+00  0.00000000000E+00  0.64930732323E+04  0.65000000000E+04  0.30000000000E+03 0.  1.
        -52   -1    0    0    0    0 -0.00000000000E+00 -0.00000000000E+00 -0.64930732323E+04  0.65000000000E+04  0.30000000000E+03 0. -1.
     100001    1    1    2    0    0  0.76043899956E+03  0.35298825047E+03 -0.64439492218E+04  0.65000000000E+04  0.15050000000E+03 0. -1.
     100001    1    1    2    0    0 -0.76043899956E+03 -0.35298825047E+03  0.64439492218E+04  0.65000000000E+04  0.15050000000E+03 0.  1.
</event>
<event>
 4    1  0.4521369E-004  0.6500000E+04  0.7818608E-02  0.7223770E-01
         52   -1    0    0    0    0  0.00000000000E+00  0.00000000000E+00  0.64930732323E+04  0.65000000000E+04  0.30000000000E+03 0.  1.
        -52   -1    0    0    0    0 -0.00000000000E+00 -0.00000000000E+00 -0.64930732323E+04  0.65000000000E+04  0.30000000000E+03 0. -1.
     100001    1    1    2    0    0 -0.47136010746E+02 -0.92710804465E+03 -0.64316093336E+04  0.65000000000E+04  0.15050000000E+03 0. -1.
     100001    1    1    2    0    0  0.47136010746E+02  0.92710804465E+03  0.64316093336E+04  0.65000000000E+04  0.15050000000E+03 0.  1.
</event>
<event>
 4    1  0.4521369E-004  0.6500000E+04  0.7818608E-02  0.7223770E-01
         52   -1    0    0    0    0  0.00000000000E+00  0.00000000000E+00  0.64930732323E+04  0.65000000000E+04  0.30000000000E+03 0.  1.
        -52   -1    0    0    0    0 -0.00000000000E+00 -0.00000000000E+00 -0.64930732323E+04  0.65000000000E+04  0.30000000000E+03 0. -1.
     100001    1    1    2    0    0  0.60925561355E+03 -0.37658973312E+03 -0.64586637566E+04  0.65000000000E+04  0.15050000000E+03 0. -1.
     100001    1    1    2    0    0 -0.60925561355E+03  0.37658973312E+03  0.64586637566E+04  0.65000000000E+04  0.15050000000E+03 0.  1.
</event>
<event>
 4    1  0.4521369E-004  0.6500000E+04  0.7818608E-02  0.7223770E-01
         52   -1    0    0    0    0  0.00000000000E+00  0.00000000000E+00  0.64930732323E+04  0.65000000000E+04  0.30000000000E+03 0. -1.
        -52   -1    0    0    0    0 -0.00000000000E+00 -0.00000000000E+00 -0.64930732323E+04  0.65000000000E+04  0.30000000000E+03 0.  1.
     100001    1    1    2    0    0  0.61568077871E+04  0.53837364827E+03  0.20077901876E+04  0.65000000000E+04  0.15050000000E+03 0. -1.
     100001    1    1    2    0    0 -0.61568077871E+04 -0.53837364827E+03 -0.20077901876E+04  0.65000000000E+04  0.15050000000E+03 0.  1.
</event>
<event>
 4    1  0.4521369E-004  0.6500000E+04  0.7818608E-02  0.7223770E-01
         52   -1    0    0    0    0  0.00000000000E+00  0.00000000000E+00  0.64930732323E+04  0.65000000000E+04  0.30000000000E+03 0.  1.
        -52   -1    0    0    0    0 -0.00000000000E+00 -0.00000000000E+00 -0.64930732323E+04  0.65000000000E+04  0.30000000000E+03 0.  1.
     100001    1    1    2    0    0  0.24853857685E+03 -0.29486295615E+01 -0.64935021084E+04  0.65000000000E+04  0.15050000000E+03 0.  1.
     100001    1    1    2    0    0 -0.24853857685E+03  0.29486295615E+01  0.64935021084E+04  0.65000000000E+04  0.15050000000E+03 0.  1.
</event>
<event>
 4    1  0.4521369E-004  0.6500000E+04  0.7818608E-02  0.7223770E-01
         52   -1    0    0    0    0  0.00000000000E+00  0.00000000000E+00  0.64930732323E+04  0.65000000000E+04  0.30000000000E+03 0. -1.
        -52   -1    0    0    0    0 -0.00000000000E+00 -0.00000000000E+00 -0.64930732323E+04  0.65000000000E+04  0.30000000000E+03 0.  1.
     100001    1    1    2    0    0 -0.19214051814E+04  0.19477714317E+04  0.58942122738E+04  0.65000000000E+04  0.15050000000E+03 0. -1.
     100001    1    1    2    0    0  0.19214051814E+04 -0.19477714317E+04 -0.58942122738E+04  0.65000000000E+04  0.15050000000E+03 0.  1.
</event>
<event>
 4    1  0.4521369E-004  0.6500000E+04  0.7818608E-02  0.7223770E-01
         52   -1    0    0    0    0  0.00000000000E+00  0.00000000000E+00  0.64930732323E+04  0.65000000000E+04  0.30000000000E+03 0.  1.
        -52   -1    0    0    0    0 -0.00000000000E+00 -0.00000000000E+00 -0.64930732323E+04  0.65000000000E+04  0.30000000000E+03 0. -1.
     100001    1    1    2    0    0 -0.63745643986E+03 -0.13593919885E+03  0.64654868008E+04  0.65000000000E+04  0.15050000000E+03 0.  1.
     100001    1    1    2    0    0  0.63745643986E+03  0.13593919885E+03 -0.64654868008E+04  0.65000000000E+04  0.15050000000E+03 0. -1.
</event>
<event>
 4    1  0.4521369E-004  0.6500000E+04  0.7818608E-02  0.7223770E-01
         52   -1    0    0    0    0  0.00000000000E+00  0.00000000000E+00  0.64930732323E+04  0.65000000000E+04  0.30000000000E+03 0.  1.
        -52   -1    0    0    0    0 -0.00000000000E+00 -0.00000000000E+00 -0.64930732323E+04  0.65000000000E+04  0.30000000000E+03 0. -1.
     100001    1    1    2    0    0  0.44729730454E+03 -0.38268547462E+03  0.64715397471E+04  0.65000000000E+04  0.15050000000E+03 0.  1.
     100001    1    1    2    0    0 -0.44729730454E+03  0.38268547462E+03 -0.64715397471E+04  0.65000000000E+04  0.15050000000E+03 0. -1.
</event>
<event>
 4    1  0.4521369E-004  0.6500000E+04  0.7818608E-02  0.7223770E-01
         52   -1    0    0    0    0  0.00000000000E+00  0.00000000000E+00  0.64930732323E+04  0.65000000000E+04  0.30000000000E+03 0. -1.
        -52   -1    0    0    0    0 -0.00000000000E+00 -0.00000000000E+00 -0.64930732323E+04  0.65000000000E+04  0.30000000000E+03 0.  1.
     100001    1    1    2    0    0  0.46356670850E+04 -0.11841290988E+04  0.43972467186E+04  0.65000000000E+04  0.15050000000E+03 0. -1.
     100001    1    1    2    0    0 -0.46356670850E+04  0.11841290988E+04 -0.43972467186E+04  0.65000000000E+04  0.15050000000E+03 0.  1.
</event>
<event>
 4    1  0.4521369E-004  0.6500000E+04  0.7818608E-02  0.7223770E-01
         52   -1    0    0    0    0  0.00000000000E+00  0.00000000000E+00  0.64930732323E+04  0.65000000000E+04  0.30000000000E+03 0. -1.
        -52   -1    0    0    0    0 -0.00000000000E+00 -0.00000000000E+00 -0.64930732323E+04  0.65000000000E+04  0.30000000000E+03 0.  1.
     100001    1    1    2    0    0  0.20084704870E+04 -0.11453364317E+04  0.60730223539E+04  0.65000000000E+04  0.15050000000E+03 0. -1.
     100001    1    1    2    0    0 -0.20084704870E+04  0.11453364317E+04 -0.60730223539E+04  0.65000000000E+04  0.15050000000E+03 0.  1.
</event>
<event>
 4    1  0.4521369E-004  0.6500000E+04  0.7818608E-02  0.7223770E-01
         52   -1    0    0    0    0  0.00000000000E+00  0.00000000000E+00  0.64930732323E+04  0.65000000000E+04  0.30000000000E+03 0.  1.
        -52   -1    0    0    0    0 -0.00000000000E+00 -0.00000000000E+00 -0.64930732323E+04  0.65000000000E+04  0.30000000000E+03 0. -1.
     100001    1    1    2    0    0 -0.50744122995E+03 -0.13389210883E+04 -0.63385442704E+04  0.65000000000E+04  0.15050000000E+03 0. -1.
     100001    1    1    2    0    0  0.50744122995E+03  0.13389210883E+04  0.63385442704E+04  0.65000000000E+04  0.15050000000E+03 0.  1.
</event>
<event>
 4    1  0.4521369E-004  0.6500000E+04  0.7818608E-02  0.7223770E-01
         52   -1    0    0    0    0  0.00000000000E+00  0.00000000000E+00  0.64930732323E+04  0.65000000000E+04  0.30000000000E+03 0.  1.
        -52   -1    0    0    0    0 -0.00000000000E+00 -0.00000000000E+00 -0.64930732323E+04  0.65000000000E+04  0.30000000000E+03 0. -1.
     100001    1    1    2    0    0 -0.66563509979E+02  0.67152688887E+03  0.64631239108E+04  0.65000000000E+04  0.15050000000E+03 0.  1.
     100001    1    1    2    0    0  0.66563509979E+02 -0.67152688887E+03 -0.64631239108E+04  0.65000000000E+04  0.15050000000E+03 0. -1.
</event>
<event>
 4    1  0.4521369E-004  0.6500000E+04  0.7818608E-02  0.7223770E-01
         52   -1    0    0    0    0  0.00000000000E+00  0.00000000000E+00  0.64930732323E+04  0.65000000000E+04  0.30000000000E+03 0.  1.
        -52   -1    0    0    0    0 -0.00000000000E+00 -0.00000000000E+00 -0.64930732323E+04  0.65000000000E+04  0.30000000000E+03 0. -1.
     100001    1    1    2    0    0  0.19678444023E+02  0.21553780228E+03  0.64946521050E+04  0.65000000000E+04  0.15050000000E+03 0.  1.
     100001    1    1    2    0    0 -0.19678444023E+02 -0.21553780228E+03 -0.64946521050E+04  0.65000000000E+04  0.15050000000E+03 0. -1.
</event>
<event>
 4    1  0.4521369E-004  0.6500000E+04  0.7818608E-02  0.7223770E-01
         52   -1    0    0    0    0  0.00000000000E+00  0.00000000000E+00  0.64930732323E+04  0.65000000000E+04  0.30000000000E+03 0. -1.
        -52   -1    0    0    0    0 -0.00000000000E+00 -0.00000000000E+00 -0.64930732323E+04  0.65000000000E+04  0.30000000000E+03 0.  1.
     100001    1    1    2    0    0  0.14095308712E+03 -0.29079448615E+03 -0.64902172956E+04  0.65000000000E+04  0.15050000000E+03 0.  1.
     100001    1    1    2    0    0 -0.14095308712E+03  0.29079448615E+03  0.64902172956E+04  0.65000000000E+04  0.15050000000E+03 0. -1.
</event>
<event>
 4    1  0.4521369E-004  0.6500000E+04  0.7818608E-02  0.7223770E-01
         52   -1    0    0    0    0  0.00000000000E+00  0.00000000000E+00  0.64930732323E+04  0.65000000000E+04  0.30000000000E+03 0.  1.
        -52   -1    0    0    0    0 -0.00000000000E+00 -0.00000000000E+00 -0.64930732323E+04  0.65000000000E+04  0.30000000000E+03 0.  1.
     100001    1    1    2    0    0  0.97513260086E+03 -0.45624908777E+03 -0.64084555808E+04  0.65000000000E+04  0.15050000000E+03 0.  1.
     100001    1    1    2    0    0 -0.97513260086E+03  0.45624908777E+03  0.64084555808E+04  0.65000000000E+04  0.15050000000E+03 0.  1.
</event>
<event>
 4    1  0.4521369E-004  0.6500000E+04  0.7818608E-02  0.7223770E-01
         52   -1    0    0    0    0  0.00000000000E+00  0.00000000000E+00  0.64930732323E+04  0.65000000000E+04  0.30000000000E+03 0.  1.
        -52   -1    0    0    0    0 -0.00000000000E+00 -0.00000000000E+00 -0.64930732323E+04  0.65000000000E+04  0.30000000000E+03 0. -1.
     100001    1    1    2    0    0  0.86679345425E+03  0.15341015270E+03 -0.64383603645E+04  0.65000000000E+04  0.15050000000E+03 0. -1.
     100001    1    1    2    0    0 -0.86679345425E+03 -0.15341015270E+03  0.64383603645E+04  0.65000000000E+04  0.15050000000E+03 0.  1.
</event>
<event>
 4    1  0.4521369E-004  0.6500000E+04  0.7818608E-02  0.7223770E-01
         52   -1    0    0    0    0  0.00000000000E+00  0.00000000000E+00  0.64930732323E+04  0.65000000000E+04  0.30000000000E+03 0.  1.
        -52   -1    0    0    0    0 -0.00000000000E+00 -0.00000000000E+00 -0.64930732323E+04  0.65000000000E+04  0.30000000000E+03 0. -1.
     100001    1    1    2    0    0 -0.13585091689E+03  0.10340547669E+04 -0.64140178529E+04  0.65000000000E+04  0.15050000000E+03 0. -1.
     100001    1    1    2    0    0  0.13585091689E+03 -0.10340547669E+04  0.64140178529E+04  0.65000000000E+04  0.15050000000E+03 0.  1.
</event>
<event>
 4    1  0.4521369E-004  0.6500000E+04  0.7818608E-02  0.7223770E-01
         52   -1    0    0    0    0  0.00000000000E+00  0.00000000000E+00  0.64930732323E+04  0.65000000000E+04  0.30000000000E+03 0. -1.
        -52   -1    0    0    0    0 -0.00000000000E+00 -0.00000000000E+00 -0.64930732323E+04  0.65000000000E+04  0.30000000000E+03 0.  1.
     100001    1    1    2    0    0  0.10255327760E+04 -0.30228027778E+03 -0.64097003759E+04  0.65000000000E+04  0.15050000000E+03 0.  1.
     100001    1    1    2    0    0 -0.10255327760E+04  0.30228027778E+03  0.64097003759E+04  0.65000000000E+04  0.15050000000E+03 0. -1.
</event>
<event>
 4    1  0.4521369E-004  0.6500000E+04  0.7818608E-02  0.7223770E-01
         52   -1    0    0    0    0  0.00000000000E+00  0.00000000000E+00  0.64930732323E+04  0.65000000000E+04  0.30000000000E+03 0.  1.
        -52   -1    0    0    0    0 -0.00000000000E+00 -0.00000000000E+00 -0.64930732323E+04  0.65000000000E+04  0.30000000000E+03 0. -1.
     100001    1    1    2    0    0  0.43617774130E+04  0.39657790553E+04  0.27340160997E+04  0.65000000000E+04  0.15050000000E+03 0.  1.
     100001    1    1    2    0    0 -0.43617774130E+04 -0.39657790553E+04 -0.27340160997E+04  0.65000000000E+04  0.15050000000E+03 0. -1.
</event>
<event>
 4    1  0.4521369E-004  0.6500000E+04  0.7818608E-02  0.7223770E-01
         52   -1    0    0    0    0  0.00000000000E+00  0.00000000000E+00  0.64930732323E+04  0.65000000000E+04  0.30000000000E+03 0.  1.
        -52   -1    0    0    0    0 -0.00000000000E+00 -0.00000000000E+00 -0.64930732323E+04  0.65000000000E+04  0.30000000000E+03 0. -1.
     100001    1    1    2    0    0  0.41273784870E+04 -0.97053530273E+02  0.50182344691E+04  0.65000000000E+04  0.15050000000E+03 0.  1.
     100001    1    1    2    0    0 -0.41273784870E+04  0.97053530273E+02 -0.50182344691E+04  0.65000000000E+04  0.15050000000E+03 0. -1.
</event>
<event>
 4    1  0.4521369E-004  0.6500000E+04  0.7818608E-02  0.7223770E-01
         52   -1    0    0    0    0  0.00000000000E+00  0.00000000000E+00  0.64930732323E+04  0.65000000000E+04  0.30000000000E+03 0.  1.
        -52   -1    0    0    0    0 -0.00000000000E+00 -0.00000000000E+00 -0.64930732323E+04  0.65000000000E+04  0.30000000000E+03 0. -1.
     100001    1    1    2    0    0  0.27010338496E+03  0.91602134419E+03 -0.64276977845E+04  0.65000000000E+04  0.15050000000E+03 0. -1.
     100001    1    1    2    0    0 -0.27010338496E+03 -0.91602134419E+03  0.64276977845E+04  0.65000000000E+04  0.15050000000E+03 0.  1.
</event>
<event>
 4    1  0.4521369E-004  0.6500000E+04  0.7818608E-02  0.7223770E-01
         52   -1    0    0    0    0  0.00000000000E+00  0.00000000000E+00  0.64930732323E+04  0.65000000000E+04  0.30000000000E+03 0.  1.
        -52   -1    0    0    0    0 -0.00000000000E+00 -0.00000000000E+00 -0.64930732323E+04  0.65000000000E+04  0.30000000000E+03 0. -1.
     100001    1    1    2    0    0 -0.50401077445E+04  0.17948722579E+04 -0.36882376891E+04  0.65000000000E+04  0.15050000000E+03 0. -1.
     100001    1    1    2    0    0  0.50401077445E+04 -0.17948722579E+04  0.36882376891E+04  0.65000000000E+04  0.15050000000E+03 0.  1.
</event>
<event>
 4    1  0.4521369E-004  0.6500000E+04  0.7818608E-02  0.7223770E-01
         52   -1    0    0    0    0  0.00000000000E+00  0.00000000000E+00  0.64930732323E+04  0.65000000000E+04  0.30000000000E+03 0.  1.
        -52   -1    0    0    0    0 -0.00000000000E+00 -0.00000000000E+00 -0.64930732323E+04  0.65000000000E+04  0.30000000000E+03 0. -1.
     100001    1    1    2    0    0  0.95588187732E+03  0.78081735940E+03  0.63799658179E+04  0.65000000000E+04  0.15050000000E+03 0.  1.
     100001    1    1    2    0    0 -0.95588187732E+03 -0.78081735940E+03 -0.63799658179E+04  0.65000000000E+04  0.15050000000E+03 0. -1.
</event>
<event>
 4    1  0.4521369E-004  0.6500000E+04  0.7818608E-02  0.7223770E-01
         52   -1    0    0    0    0  0.00000000000E+00  0.00000000000E+00  0.64930732323E+04  0.65000000000E+04  0.30000000000E+03 0. -1.
        -52   -1    0    0    0    0 -0.00000000000E+00 -0.00000000000E+00 -0.64930732323E+04  0.65000000000E+04  0.30000000000E+03 0.  1.
     100001    1    1    2    0    0 -0.24203921986E+04 -0.79269870884E+03  0.59783509525E+04  0.65000000000E+04  0.15050000000E+03 0. -1.
     100001    1    1    2    0    0  0.24203921986E+04  0.79269870884E+03 -0.59783509525E+04  0.65000000000E+04  0.15050000000E+03 0.  1.
</event>
<event>
 4    1  0.4521369E-004  0.6500000E+04  0.7818608E-02  0.7223770E-01
         52   -1    0    0    0    0  0.00000000000E+00  0.00000000000E+00  0.64930732323E+04  0.65000000000E+04  0.30000000000E+03 0.  1.
        -52   -1    0    0    0    0 -0.00000000000E+00 -0.00000000000E+00 -0.64930732323E+04  0.65000000000E+04  0.30000000000E+03 0. -1.
     100001    1    1    2    0    0  0.64429198596E+03  0.14656608028E+04 -0.62979422034E+04  0.65000000000E+04  0.15050000000E+03 0. -1.
     100001    1    1    2    0    0 -0.64429198596E+03 -0.14656608028E+04  0.62979422034E+04  0.65000000000E+04  0.15050000000E+03 0.  1.
</event>
<event>
 4    1  0.4521369E-004  0.6500000E+04  0.7818608E-02  0.7223770E-01
         52   -1    0    0    0    0  0.00000000000E+00  0.00000000000E+00  0.64930732323E+04  0.65000000000E+04  0.30000000000E+03 0. -1.
        -52   -1    0    0    0    0 -0.00000000000E+00 -0.00000000000E+00 -0.64930732323E+04  0.65000000000E+04  0.30000000000E+03 0.  1.
     100001    1    1    2    0    0  0.77675626009E+02  0.13461597103E+04  0.63568207684E+04  0.65000000000E+04  0.15050000000E+03 0. -1.
     100001    1    1    2    0    0 -0.77675626009E+02 -0.13461597103E+04 -0.63568207684E+04  0.65000000000E+04  0.15050000000E+03 0.  1.
</event>
<event>
 4    1  0.4521369E-004  0.6500000E+04  0.7818608E-02  0.7223770E-01
         52   -1    0    0    0    0  0.00000000000E+00  0.00000000000E+00  0.64930732323E+04  0.65000000000E+04  0.30000000000E+03 0.  1.
        -52   -1    0    0    0    0 -0.00000000000E+00 -0.00000000000E+00 -0.64930732323E+04  0.65000000000E+04  0.30000000000E+03 0. -1.
     100001    1    1    2    0    0 -0.35806625701E+03 -0.24376758468E+04 -0.60130586868E+04  0.65000000000E+04  0.15050000000E+03 0. -1.
     100001    1    1    2    0    0  0.35806625701E+03  0.24376758468E+04  0.60130586868E+04  0.65000000000E+04  0.15050000000E+03 0.  1.
</event>
<event>
 4    1  0.4521369E-004  0.6500000E+04  0.7818608E-02  0.7223770E-01
         52   -1    0    0    0    0  0.00000000000E+00  0.00000000000E+00  0.64930732323E+04  0.65000000000E+04  0.30000000000E+03 0.  1.
        -52   -1    0    0    0    0 -0.00000000000E+00 -0.00000000000E+00 -0.64930732323E+04  0.65000000000E+04  0.30000000000E+03 0. -1.
     100001    1    1    2    0    0 -0.10718550603E+04  0.29665536944E+04 -0.56813762116E+04  0.65000000000E+04  0.15050000000E+03 0. -1.
     100001    1    1    2    0    0  0.10718550603E+04 -0.29665536944E+04  0.56813762116E+04  0.65000000000E+04  0.15050000000E+03 0.  1.
</event>
<event>
 4    1  0.4521369E-004  0.6500000E+04  0.7818608E-02  0.7223770E-01
         52   -1    0    0    0    0  0.00000000000E+00  0.00000000000E+00  0.64930732323E+04  0.65000000000E+04  0.30000000000E+03 0. -1.
        -52   -1    0    0    0    0 -0.00000000000E+00 -0.00000000000E+00 -0.64930732323E+04  0.65000000000E+04  0.30000000000E+03 0.  1.
     100001    1    1    2    0    0  0.38198439962E+03  0.56633047562E+03  0.64622525067E+04  0.65000000000E+04  0.15050000000E+03 0. -1.
     100001    1    1    2    0    0 -0.38198439962E+03 -0.56633047562E+03 -0.64622525067E+04  0.65000000000E+04  0.15050000000E+03 0.  1.
</event>
<event>
 4    1  0.4521369E-004  0.6500000E+04  0.7818608E-02  0.7223770E-01
         52   -1    0    0    0    0  0.00000000000E+00  0.00000000000E+00  0.64930732323E+04  0.65000000000E+04  0.30000000000E+03 0. -1.
        -52   -1    0    0    0    0 -0.00000000000E+00 -0.00000000000E+00 -0.64930732323E+04  0.65000000000E+04  0.30000000000E+03 0. -1.
     100001    1    1    2    0    0 -0.68450412333E+03 -0.18598126988E+03 -0.64594283665E+04  0.65000000000E+04  0.15050000000E+03 0. -1.
     100001    1    1    2    0    0  0.68450412333E+03  0.18598126988E+03  0.64594283665E+04  0.65000000000E+04  0.15050000000E+03 0. -1.
</event>
<event>
 4    1  0.4521369E-004  0.6500000E+04  0.7818608E-02  0.7223770E-01
         52   -1    0    0    0    0  0.00000000000E+00  0.00000000000E+00  0.64930732323E+04  0.65000000000E+04  0.30000000000E+03 0.  1.
        -52   -1    0    0    0    0 -0.00000000000E+00 -0.00000000000E+00 -0.64930732323E+04  0.65000000000E+04  0.30000000000E+03 0. -1.
     100001    1    1    2    0    0  0.92817318304E+03 -0.49507379970E+03  0.64125460018E+04  0.65000000000E+04  0.15050000000E+03 0.  1.
     100001    1    1    2    0    0 -0.92817318304E+03  0.49507379970E+03 -0.64125460018E+04  0.65000000000E+04  0.15050000000E+03 0. -1.
</event>
<event>
 4    1  0.4521369E-004  0.6500000E+04  0.7818608E-02  0.7223770E-01
         52   -1    0    0    0    0  0.00000000000E+00  0.00000000000E+00  0.64930732323E+04  0.65000000000E+04  0.30000000000E+03 0.  1.
        -52   -1    0    0    0    0 -0.00000000000E+00 -0.00000000000E+00 -0.64930732323E+04  0.65000000000E+04  0.30000000000E+03 0. -1.
     100001    1    1    2    0    0 -0.14740655460E+04 -0.18611681845E+04  0.60490109526E+04  0.65000000000E+04  0.15050000000E+03 0.  1.
     100001    1    1    2    0    0  0.14740655460E+04  0.18611681845E+04 -0.60490109526E+04  0.65000000000E+04  0.15050000000E+03 0. -1.
</event>
<event>
 4    1  0.4521369E-004  0.6500000E+04  0.7818608E-02  0.7223770E-01
         52   -1    0    0    0    0  0.00000000000E+00  0.00000000000E+00  0.64930732323E+04  0.65000000000E+04  0.30000000000E+03 0. -1.
        -52   -1    0    0    0    0 -0.00000000000E+00 -0.00000000000E+00 -0.64930732323E+04  0.65000000000E+04  0.30000000000E+03 0.  1.
     100001    1    1    2    0    0  0.43001656664E+04  0.39876753580E+04 -0.27989945034E+04  0.65000000000E+04  0.15050000000E+03 0.  1.
     100001    1    1    2    0    0 -0.43001656664E+04 -0.39876753580E+04  0.27989945034E+04  0.65000000000E+04  0.15050000000E+03 0. -1.
</event>
<event>
 4    1  0.4521369E-004  0.6500000E+04  0.7818608E-02  0.7223770E-01
         52   -1    0    0    0    0  0.00000000000E+00  0.00000000000E+00  0.64930732323E+04  0.65000000000E+04  0.30000000000E+03 0. -1.
        -52   -1    0    0    0    0 -0.00000000000E+00 -0.00000000000E+00 -0.64930732323E+04  0.65000000000E+04  0.30000000000E+03 0.  1.
     100001    1    1    2    0    0 -0.50766104753E+03  0.49598140584E+03 -0.64593832876E+04  0.65000000000E+04  0.15050000000E+03 0.  1.
     100001    1    1    2    0    0  0.50766104753E+03 -0.49598140584E+03  0.64593832876E+04  0.65000000000E+04  0.15050000000E+03 0. -1.
</event>
<event>
 4    1  0.4521369E-004  0.6500000E+04  0.7818608E-02  0.7223770E-01
         52   -1    0    0    0    0  0.00000000000E+00  0.00000000000E+00  0.64930732323E+04  0.65000000000E+04  0.30000000000E+03 0. -1.
        -52   -1    0    0    0    0 -0.00000000000E+00 -0.00000000000E+00 -0.64930732323E+04  0.65000000000E+04  0.30000000000E+03 0.  1.
     100001    1    1    2    0    0  0.69428543168E+03  0.23644640268E+04 -0.60128718060E+04  0.65000000000E+04  0.15050000000E+03 0.  1.
     100001    1    1    2    0    0 -0.69428543168E+03 -0.23644640268E+04  0.60128718060E+04  0.65000000000E+04  0.15050000000E+03 0. -1.
</event>
<event>
 4    1  0.4521369E-004  0.6500000E+04  0.7818608E-02  0.7223770E-01
         52   -1    0    0    0    0  0.00000000000E+00  0.00000000000E+00  0.64930732323E+04  0.65000000000E+04  0.30000000000E+03 0. -1.
        -52   -1    0    0    0    0 -0.00000000000E+00 -0.00000000000E+00 -0.64930732323E+04  0.65000000000E+04  0.30000000000E+03 0.  1.
     100001    1    1    2    0    0  0.59557859276E+04 -0.44911610728E+03  0.25601286017E+04  0.65000000000E+04  0.15050000000E+03 0. -1.
     100001    1    1    2    0    0 -0.59557859276E+04  0.44911610728E+03 -0.25601286017E+04  0.65000000000E+04  0.15050000000E+03 0.  1.
</event>
<event>
 4    1  0.4521369E-004  0.6500000E+04  0.7818608E-02  0.7223770E-01
         52   -1    0    0    0    0  0.00000000000E+00  0.00000000000E+00  0.64930732323E+04  0.65000000000E+04  0.30000000000E+03 0.  1.
        -52   -1    0    0    0    0 -0.00000000000E+00 -0.00000000000E+00 -0.64930732323E+04  0.65000000000E+04  0.30000000000E+03 0. -1.
     100001    1    1    2    0    0  0.17444746790E+04  0.57551456853E+04 -0.24622055125E+04  0.65000000000E+04  0.15050000000E+03 0. -1.
     100001    1    1    2    0    0 -0.17444746790E+04 -0.57551456853E+04  0.24622055125E+04  0.65000000000E+04  0.15050000000E+03 0.  1.
</event>
<event>
 4    1  0.4521369E-004  0.6500000E+04  0.7818608E-02  0.7223770E-01
         52   -1    0    0    0    0  0.00000000000E+00  0.00000000000E+00  0.64930732323E+04  0.65000000000E+04  0.30000000000E+03 0.  1.
        -52   -1    0    0    0    0 -0.00000000000E+00 -0.00000000000E+00 -0.64930732323E+04  0.65000000000E+04  0.30000000000E+03 0. -1.
     100001    1    1    2    0    0 -0.22336123230E+03  0.23757954002E+03 -0.64900705291E+04  0.65000000000E+04  0.15050000000E+03 0. -1.
     100001    1    1    2    0    0  0.22336123230E+03 -0.23757954002E+03  0.64900705291E+04  0.65000000000E+04  0.15050000000E+03 0.  1.
</event>
<event>
 4    1  0.4521369E-004  0.6500000E+04  0.7818608E-02  0.7223770E-01
         52   -1    0    0    0    0  0.00000000000E+00  0.00000000000E+00  0.64930732323E+04  0.65000000000E+04  0.30000000000E+03 0.  1.
        -52   -1    0    0    0    0 -0.00000000000E+00 -0.00000000000E+00 -0.64930732323E+04  0.65000000000E+04  0.30000000000E+03 0. -1.
     100001    1    1    2    0    0 -0.51808206807E+03  0.16777724721E+03 -0.64753989465E+04  0.65000000000E+04  0.15050000000E+03 0. -1.
     100001    1    1    2    0    0  0.51808206807E+03 -0.16777724721E+03  0.64753989465E+04  0.65000000000E+04  0.15050000000E+03 0.  1.
</event>
<event>
 4    1  0.4521369E-004  0.6500000E+04  0.7818608E-02  0.7223770E-01
         52   -1    0    0    0    0  0.00000000000E+00  0.00000000000E+00  0.64930732323E+04  0.65000000000E+04  0.30000000000E+03 0.  1.
        -52   -1    0    0    0    0 -0.00000000000E+00 -0.00000000000E+00 -0.64930732323E+04  0.65000000000E+04  0.30000000000E+03 0. -1.
     100001    1    1    2    0    0  0.46909413369E+03 -0.58529206385E+02  0.64810396370E+04  0.65000000000E+04  0.15050000000E+03 0.  1.
     100001    1    1    2    0    0 -0.46909413369E+03  0.58529206385E+02 -0.64810396370E+04  0.65000000000E+04  0.15050000000E+03 0. -1.
</event>
<event>
 4    1  0.4521369E-004  0.6500000E+04  0.7818608E-02  0.7223770E-01
         52   -1    0    0    0    0  0.00000000000E+00  0.00000000000E+00  0.64930732323E+04  0.65000000000E+04  0.30000000000E+03 0. -1.
        -52   -1    0    0    0    0 -0.00000000000E+00 -0.00000000000E+00 -0.64930732323E+04  0.65000000000E+04  0.30000000000E+03 0.  1.
     100001    1    1    2    0    0 -0.48998069674E+04 -0.15087679143E+04  0.39928512135E+04  0.65000000000E+04  0.15050000000E+03 0. -1.
     100001    1    1    2    0    0  0.48998069674E+04  0.15087679143E+04 -0.39928512135E+04  0.65000000000E+04  0.15050000000E+03 0.  1.
</event>
<event>
 4    1  0.4521369E-004  0.6500000E+04  0.7818608E-02  0.7223770E-01
         52   -1    0    0    0    0  0.00000000000E+00  0.00000000000E+00  0.64930732323E+04  0.65000000000E+04  0.30000000000E+03 0.  1.
        -52   -1    0    0    0    0 -0.00000000000E+00 -0.00000000000E+00 -0.64930732323E+04  0.65000000000E+04  0.30000000000E+03 0. -1.
     100001    1    1    2    0    0  0.80134094136E+03 -0.37013505237E+03 -0.64380278416E+04  0.65000000000E+04  0.15050000000E+03 0. -1.
     100001    1    1    2    0    0 -0.80134094136E+03  0.37013505237E+03  0.64380278416E+04  0.65000000000E+04  0.15050000000E+03 0.  1.
</event>
<event>
 4    1  0.4521369E-004  0.6500000E+04  0.7818608E-02  0.7223770E-01
         52   -1    0    0    0    0  0.00000000000E+00  0.00000000000E+00  0.64930732323E+04  0.65000000000E+04  0.30000000000E+03 0. -1.
        -52   -1    0    0    0    0 -0.00000000000E+00 -0.00000000000E+00 -0.64930732323E+04  0.65000000000E+04  0.30000000000E+03 0.  1.
     100001    1    1    2    0    0  0.25640608857E+04 -0.16712954831E+03 -0.59686689671E+04  0.65000000000E+04  0.15050000000E+03 0.  1.
     100001    1    1    2    0    0 -0.25640608857E+04  0.16712954831E+03  0.59686689671E+04  0.65000000000E+04  0.15050000000E+03 0. -1.
</event>
<event>
 4    1  0.4521369E-004  0.6500000E+04  0.7818608E-02  0.7223770E-01
         52   -1    0    0    0    0  0.00000000000E+00  0.00000000000E+00  0.64930732323E+04  0.65000000000E+04  0.30000000000E+03 0. -1.
        -52   -1    0    0    0    0 -0.00000000000E+00 -0.00000000000E+00 -0.64930732323E+04  0.65000000000E+04  0.30000000000E+03 0.  1.
     100001    1    1    2    0    0  0.89066499014E+03 -0.19625800115E+03 -0.64339372411E+04  0.65000000000E+04  0.15050000000E+03 0.  1.
     100001    1    1    2    0    0 -0.89066499014E+03  0.19625800115E+03  0.64339372411E+04  0.65000000000E+04  0.15050000000E+03 0. -1.
</event>
<event>
 4    1  0.4521369E-004  0.6500000E+04  0.7818608E-02  0.7223770E-01
         52   -1    0    0    0    0  0.00000000000E+00  0.00000000000E+00  0.64930732323E+04  0.65000000000E+04  0.30000000000E+03 0. -1.
        -52   -1    0    0    0    0 -0.00000000000E+00 -0.00000000000E+00 -0.64930732323E+04  0.65000000000E+04  0.30000000000E+03 0.  1.
     100001    1    1    2    0    0  0.14574728121E+04  0.21417577700E+03  0.63290798295E+04  0.65000000000E+04  0.15050000000E+03 0. -1.
     100001    1    1    2    0    0 -0.14574728121E+04 -0.21417577700E+03 -0.63290798295E+04  0.65000000000E+04  0.15050000000E+03 0.  1.
</event>
<event>
 4    1  0.4521369E-004  0.6500000E+04  0.7818608E-02  0.7223770E-01
         52   -1    0    0    0    0  0.00000000000E+00  0.00000000000E+00  0.64930732323E+04  0.65000000000E+04  0.30000000000E+03 0.  1.
        -52   -1    0    0    0    0 -0.00000000000E+00 -0.00000000000E+00 -0.64930732323E+04  0.65000000000E+04  0.30000000000E+03 0. -1.
     100001    1    1    2    0    0  0.33879627549E+03  0.12098413977E+03 -0.64882917376E+04  0.65000000000E+04  0.15050000000E+03 0. -1.
     100001    1    1    2    0    0 -0.33879627549E+03 -0.12098413977E+03  0.64882917376E+04  0.65000000000E+04  0.15050000000E+03 0.  1.
</event>
<event>
 4    1  0.4521369E-004  0.6500000E+04  0.7818608E-02  0.7223770E-01
         52   -1    0    0    0    0  0.00000000000E+00  0.00000000000E+00  0.64930732323E+04  0.65000000000E+04  0.30000000000E+03 0.  1.
        -52   -1    0    0    0    0 -0.00000000000E+00 -0.00000000000E+00 -0.64930732323E+04  0.65000000000E+04  0.30000000000E+03 0. -1.
     100001    1    1    2    0    0  0.44909094358E+03  0.89102665387E+03 -0.64211944821E+04  0.65000000000E+04  0.15050000000E+03 0. -1.
     100001    1    1    2    0    0 -0.44909094358E+03 -0.89102665387E+03  0.64211944821E+04  0.65000000000E+04  0.15050000000E+03 0.  1.
</event>
<event>
 4    1  0.4521369E-004  0.6500000E+04  0.7818608E-02  0.7223770E-01
         52   -1    0    0    0    0  0.00000000000E+00  0.00000000000E+00  0.64930732323E+04  0.65000000000E+04  0.30000000000E+03 0.  1.
        -52   -1    0    0    0    0 -0.00000000000E+00 -0.00000000000E+00 -0.64930732323E+04  0.65000000000E+04  0.30000000000E+03 0. -1.
     100001    1    1    2    0    0 -0.22649581139E+04  0.45298446145E+04 -0.40715871919E+04  0.65000000000E+04  0.15050000000E+03 0. -1.
     100001    1    1    2    0    0  0.22649581139E+04 -0.45298446145E+04  0.40715871919E+04  0.65000000000E+04  0.15050000000E+03 0.  1.
</event>
<event>
 4    1  0.4521369E-004  0.6500000E+04  0.7818608E-02  0.7223770E-01
         52   -1    0    0    0    0  0.00000000000E+00  0.00000000000E+00  0.64930732323E+04  0.65000000000E+04  0.30000000000E+03 0. -1.
        -52   -1    0    0    0    0 -0.00000000000E+00 -0.00000000000E+00 -0.64930732323E+04  0.65000000000E+04  0.30000000000E+03 0.  1.
     100001    1    1    2    0    0  0.26404744008E+04  0.15084306269E+03 -0.59356963415E+04  0.65000000000E+04  0.15050000000E+03 0.  1.
     100001    1    1    2    0    0 -0.26404744008E+04 -0.15084306269E+03  0.59356963415E+04  0.65000000000E+04  0.15050000000E+03 0. -1.
</event>
<event>
 4    1  0.4521369E-004  0.6500000E+04  0.7818608E-02  0.7223770E-01
         52   -1    0    0    0    0  0.00000000000E+00  0.00000000000E+00  0.64930732323E+04  0.65000000000E+04  0.30000000000E+03 0.  1.
        -52   -1    0    0    0    0 -0.00000000000E+00 -0.00000000000E+00 -0.64930732323E+04  0.65000000000E+04  0.30000000000E+03 0.  1.
     100001    1    1    2    0    0 -0.25191124202E+03  0.10118165094E+03  0.64925844430E+04  0.65000000000E+04  0.15050000000E+03 0.  1.
     100001    1    1    2    0    0  0.25191124202E+03 -0.10118165094E+03 -0.64925844430E+04  0.65000000000E+04  0.15050000000E+03 0.  1.
</event>
<event>
 4    1  0.4521369E-004  0.6500000E+04  0.7818608E-02  0.7223770E-01
         52   -1    0    0    0    0  0.00000000000E+00  0.00000000000E+00  0.64930732323E+04  0.65000000000E+04  0.30000000000E+03 0. -1.
        -52   -1    0    0    0    0 -0.00000000000E+00 -0.00000000000E+00 -0.64930732323E+04  0.65000000000E+04  0.30000000000E+03 0.  1.
     100001    1    1    2    0    0 -0.21327165974E+04  0.56162294849E+03 -0.61125648732E+04  0.65000000000E+04  0.15050000000E+03 0.  1.
     100001    1    1    2    0    0  0.21327165974E+04 -0.56162294849E+03  0.61125648732E+04  0.65000000000E+04  0.15050000000E+03 0. -1.
</event>
<event>
 4    1  0.4521369E-004  0.6500000E+04  0.7818608E-02  0.7223770E-01
         52   -1    0    0    0    0  0.00000000000E+00  0.00000000000E+00  0.64930732323E+04  0.65000000000E+04  0.30000000000E+03 0.  1.
        -52   -1    0    0    0    0 -0.00000000000E+00 -0.00000000000E+00 -0.64930732323E+04  0.65000000000E+04  0.30000000000E+03 0. -1.
     100001    1    1    2    0    0  0.57274274638E+04 -0.24001672521E+04 -0.19139283056E+04  0.65000000000E+04  0.15050000000E+03 0. -1.
     100001    1    1    2    0    0 -0.57274274638E+04  0.24001672521E+04  0.19139283056E+04  0.65000000000E+04  0.15050000000E+03 0.  1.
</event>
<event>
 4    1  0.4521369E-004  0.6500000E+04  0.7818608E-02  0.7223770E-01
         52   -1    0    0    0    0  0.00000000000E+00  0.00000000000E+00  0.64930732323E+04  0.65000000000E+04  0.30000000000E+03 0.  1.
        -52   -1    0    0    0    0 -0.00000000000E+00 -0.00000000000E+00 -0.64930732323E+04  0.65000000000E+04  0.30000000000E+03 0. -1.
     100001    1    1    2    0    0  0.24644039267E+04 -0.53439211223E+04  0.27561875979E+04  0.65000000000E+04  0.15050000000E+03 0.  1.
     100001    1    1    2    0    0 -0.24644039267E+04  0.53439211223E+04 -0.27561875979E+04  0.65000000000E+04  0.15050000000E+03 0. -1.
</event>
<event>
 4    1  0.4521369E-004  0.6500000E+04  0.7818608E-02  0.7223770E-01
         52   -1    0    0    0    0  0.00000000000E+00  0.00000000000E+00  0.64930732323E+04  0.65000000000E+04  0.30000000000E+03 0. -1.
        -52   -1    0    0    0    0 -0.00000000000E+00 -0.00000000000E+00 -0.64930732323E+04  0.65000000000E+04  0.30000000000E+03 0.  1.
     100001    1    1    2    0    0  0.41595766160E+04  0.14856966820E+04 -0.47663379543E+04  0.65000000000E+04  0.15050000000E+03 0.  1.
     100001    1    1    2    0    0 -0.41595766160E+04 -0.14856966820E+04  0.47663379543E+04  0.65000000000E+04  0.15050000000E+03 0. -1.
</event>
<event>
 4    1  0.4521369E-004  0.6500000E+04  0.7818608E-02  0.7223770E-01
         52   -1    0    0    0    0  0.00000000000E+00  0.00000000000E+00  0.64930732323E+04  0.65000000000E+04  0.30000000000E+03 0.  1.
        -52   -1    0    0    0    0 -0.00000000000E+00 -0.00000000000E+00 -0.64930732323E+04  0.65000000000E+04  0.30000000000E+03 0. -1.
     100001    1    1    2    0    0  0.14451201486E+04 -0.59217563348E+04  0.22520611486E+04  0.65000000000E+04  0.15050000000E+03 0.  1.
     100001    1    1    2    0    0 -0.14451201486E+04  0.59217563348E+04 -0.22520611486E+04  0.65000000000E+04  0.15050000000E+03 0. -1.
</event>
<event>
 4    1  0.4521369E-004  0.6500000E+04  0.7818608E-02  0.7223770E-01
         52   -1    0    0    0    0  0.00000000000E+00  0.00000000000E+00  0.64930732323E+04  0.65000000000E+04  0.30000000000E+03 0.  1.
        -52   -1    0    0    0    0 -0.00000000000E+00 -0.00000000000E+00 -0.64930732323E+04  0.65000000000E+04  0.30000000000E+03 0.  1.
     100001    1    1    2    0    0  0.17325559071E+03  0.87963384116E+02  0.64953517760E+04  0.65000000000E+04  0.15050000000E+03 0.  1.
     100001    1    1    2    0    0 -0.17325559071E+03 -0.87963384116E+02 -0.64953517760E+04  0.65000000000E+04  0.15050000000E+03 0.  1.
</event>
<event>
 4    1  0.4521369E-004  0.6500000E+04  0.7818608E-02  0.7223770E-01
         52   -1    0    0    0    0  0.00000000000E+00  0.00000000000E+00  0.64930732323E+04  0.65000000000E+04  0.30000000000E+03 0. -1.
        -52   -1    0    0    0    0 -0.00000000000E+00 -0.00000000000E+00 -0.64930732323E+04  0.65000000000E+04  0.30000000000E+03 0.  1.
     100001    1    1    2    0    0 -0.34381309694E+04 -0.50026084179E+04 -0.23195935430E+04  0.65000000000E+04  0.15050000000E+03 0. -1.
     100001    1    1    2    0    0  0.34381309694E+04  0.50026084179E+04  0.23195935430E+04  0.65000000000E+04  0.15050000000E+03 0.  1.
</event>
<event>
 4    1  0.4521369E-004  0.6500000E+04  0.7818608E-02  0.7223770E-01
         52   -1    0    0    0    0  0.00000000000E+00  0.00000000000E+00  0.64930732323E+04  0.65000000000E+04  0.30000000000E+03 0. -1.
        -52   -1    0    0    0    0 -0.00000000000E+00 -0.00000000000E+00 -0.64930732323E+04  0.65000000000E+04  0.30000000000E+03 0.  1.
     100001    1    1    2    0    0 -0.52312738253E+03  0.15291528050E+02 -0.64771485749E+04  0.65000000000E+04  0.15050000000E+03 0.  1.
     100001    1    1    2    0    0  0.52312738253E+03 -0.15291528050E+02  0.64771485749E+04  0.65000000000E+04  0.15050000000E+03 0. -1.
</event>
<event>
 4    1  0.4521369E-004  0.6500000E+04  0.7818608E-02  0.7223770E-01
         52   -1    0    0    0    0  0.00000000000E+00  0.00000000000E+00  0.64930732323E+04  0.65000000000E+04  0.30000000000E+03 0. -1.
        -52   -1    0    0    0    0 -0.00000000000E+00 -0.00000000000E+00 -0.64930732323E+04  0.65000000000E+04  0.30000000000E+03 0.  1.
     100001    1    1    2    0    0 -0.13231688945E+04  0.34687015418E+03 -0.63526573119E+04  0.65000000000E+04  0.15050000000E+03 0.  1.
     100001    1    1    2    0    0  0.13231688945E+04 -0.34687015418E+03  0.63526573119E+04  0.65000000000E+04  0.15050000000E+03 0. -1.
</event>
<event>
 4    1  0.4521369E-004  0.6500000E+04  0.7818608E-02  0.7223770E-01
         52   -1    0    0    0    0  0.00000000000E+00  0.00000000000E+00  0.64930732323E+04  0.65000000000E+04  0.30000000000E+03 0.  1.
        -52   -1    0    0    0    0 -0.00000000000E+00 -0.00000000000E+00 -0.64930732323E+04  0.65000000000E+04  0.30000000000E+03 0. -1.
     100001    1    1    2    0    0 -0.37451306001E+03  0.21540142439E+03  0.64838793900E+04  0.65000000000E+04  0.15050000000E+03 0.  1.
     100001    1    1    2    0    0  0.37451306001E+03 -0.21540142439E+03 -0.64838793900E+04  0.65000000000E+04  0.15050000000E+03 0. -1.
</event>
<event>
 4    1  0.6144716E-004  0.6500000E+04  0.7818608E-02  0.7223770E-01
         52   -1    0    0    0    0  0.00000000000E+00  0.00000000000E+00  0.64930732323E+04  0.65000000000E+04  0.30000000000E+03 0.  1.
        -52   -1    0    0    0    0 -0.00000000000E+00 -0.00000000000E+00 -0.64930732323E+04  0.65000000000E+04  0.30000000000E+03 0.  1.
     100001    1    1    2    0    0  0.76632814835E+02 -0.12020753714E+03  0.64966935675E+04  0.65000000000E+04  0.15050000000E+03 0.  1.
     100001    1    1    2    0    0 -0.76632814835E+02  0.12020753714E+03 -0.64966935675E+04  0.65000000000E+04  0.15050000000E+03 0.  1.
</event>
<event>
 4    1  0.4521369E-004  0.6500000E+04  0.7818608E-02  0.7223770E-01
         52   -1    0    0    0    0  0.00000000000E+00  0.00000000000E+00  0.64930732323E+04  0.65000000000E+04  0.30000000000E+03 0.  1.
        -52   -1    0    0    0    0 -0.00000000000E+00 -0.00000000000E+00 -0.64930732323E+04  0.65000000000E+04  0.30000000000E+03 0. -1.
     100001    1    1    2    0    0 -0.26007502255E+02  0.30643588503E+04 -0.57303034995E+04  0.65000000000E+04  0.15050000000E+03 0. -1.
     100001    1    1    2    0    0  0.26007502255E+02 -0.30643588503E+04  0.57303034995E+04  0.65000000000E+04  0.15050000000E+03 0.  1.
</event>
<event>
 4    1  0.4521369E-004  0.6500000E+04  0.7818608E-02  0.7223770E-01
         52   -1    0    0    0    0  0.00000000000E+00  0.00000000000E+00  0.64930732323E+04  0.65000000000E+04  0.30000000000E+03 0.  1.
        -52   -1    0    0    0    0 -0.00000000000E+00 -0.00000000000E+00 -0.64930732323E+04  0.65000000000E+04  0.30000000000E+03 0. -1.
     100001    1    1    2    0    0 -0.22636621235E+04 -0.93280820081E+03 -0.60193897034E+04  0.65000000000E+04  0.15050000000E+03 0. -1.
     100001    1    1    2    0    0  0.22636621235E+04  0.93280820081E+03  0.60193897034E+04  0.65000000000E+04  0.15050000000E+03 0.  1.
</event>
<event>
 4    1  0.4521369E-004  0.6500000E+04  0.7818608E-02  0.7223770E-01
         52   -1    0    0    0    0  0.00000000000E+00  0.00000000000E+00  0.64930732323E+04  0.65000000000E+04  0.30000000000E+03 0.  1.
        -52   -1    0    0    0    0 -0.00000000000E+00 -0.00000000000E+00 -0.64930732323E+04  0.65000000000E+04  0.30000000000E+03 0. -1.
     100001    1    1    2    0    0  0.90928214783E+03  0.48678306902E+03  0.64158863744E+04  0.65000000000E+04  0.15050000000E+03 0.  1.
     100001    1    1    2    0    0 -0.90928214783E+03 -0.48678306902E+03 -0.64158863744E+04  0.65000000000E+04  0.15050000000E+03 0. -1.
</event>
<event>
 4    1  0.4521369E-004  0.6500000E+04  0.7818608E-02  0.7223770E-01
         52   -1    0    0    0    0  0.00000000000E+00  0.00000000000E+00  0.64930732323E+04  0.65000000000E+04  0.30000000000E+03 0.  1.
        -52   -1    0    0    0    0 -0.00000000000E+00 -0.00000000000E+00 -0.64930732323E+04  0.65000000000E+04  0.30000000000E+03 0. -1.
     100001    1    1    2    0    0 -0.37084514590E+04 -0.11915142056E+04  0.52014451285E+04  0.65000000000E+04  0.15050000000E+03 0.  1.
     100001    1    1    2    0    0  0.37084514590E+04  0.11915142056E+04 -0.52014451285E+04  0.65000000000E+04  0.15050000000E+03 0. -1.
</event>
<event>
 4    1  0.4521369E-004  0.6500000E+04  0.7818608E-02  0.7223770E-01
         52   -1    0    0    0    0  0.00000000000E+00  0.00000000000E+00  0.64930732323E+04  0.65000000000E+04  0.30000000000E+03 0. -1.
        -52   -1    0    0    0    0 -0.00000000000E+00 -0.00000000000E+00 -0.64930732323E+04  0.65000000000E+04  0.30000000000E+03 0.  1.
     100001    1    1    2    0    0  0.73800222182E+03 -0.17783727635E+03 -0.64537645118E+04  0.65000000000E+04  0.15050000000E+03 0.  1.
     100001    1    1    2    0    0 -0.73800222182E+03  0.17783727635E+03  0.64537645118E+04  0.65000000000E+04  0.15050000000E+03 0. -1.
</event>
<event>
 4    1  0.4521369E-004  0.6500000E+04  0.7818608E-02  0.7223770E-01
         52   -1    0    0    0    0  0.00000000000E+00  0.00000000000E+00  0.64930732323E+04  0.65000000000E+04  0.30000000000E+03 0. -1.
        -52   -1    0    0    0    0 -0.00000000000E+00 -0.00000000000E+00 -0.64930732323E+04  0.65000000000E+04  0.30000000000E+03 0.  1.
     100001    1    1    2    0    0  0.67870556615E+02 -0.41601825503E+03 -0.64845718555E+04  0.65000000000E+04  0.15050000000E+03 0.  1.
     100001    1    1    2    0    0 -0.67870556615E+02  0.41601825503E+03  0.64845718555E+04  0.65000000000E+04  0.15050000000E+03 0. -1.
</event>
<event>
 4    1  0.4521369E-004  0.6500000E+04  0.7818608E-02  0.7223770E-01
         52   -1    0    0    0    0  0.00000000000E+00  0.00000000000E+00  0.64930732323E+04  0.65000000000E+04  0.30000000000E+03 0.  1.
        -52   -1    0    0    0    0 -0.00000000000E+00 -0.00000000000E+00 -0.64930732323E+04  0.65000000000E+04  0.30000000000E+03 0. -1.
     100001    1    1    2    0    0 -0.54242515462E+04  0.15018675654E+04 -0.32479591637E+04  0.65000000000E+04  0.15050000000E+03 0. -1.
     100001    1    1    2    0    0  0.54242515462E+04 -0.15018675654E+04  0.32479591637E+04  0.65000000000E+04  0.15050000000E+03 0.  1.
</event>
<event>
 4    1  0.4521369E-004  0.6500000E+04  0.7818608E-02  0.7223770E-01
         52   -1    0    0    0    0  0.00000000000E+00  0.00000000000E+00  0.64930732323E+04  0.65000000000E+04  0.30000000000E+03 0.  1.
        -52   -1    0    0    0    0 -0.00000000000E+00 -0.00000000000E+00 -0.64930732323E+04  0.65000000000E+04  0.30000000000E+03 0. -1.
     100001    1    1    2    0    0 -0.11578340155E+04  0.17142379872E+03  0.63919780994E+04  0.65000000000E+04  0.15050000000E+03 0.  1.
     100001    1    1    2    0    0  0.11578340155E+04 -0.17142379872E+03 -0.63919780994E+04  0.65000000000E+04  0.15050000000E+03 0. -1.
</event>
<event>
 4    1  0.4521369E-004  0.6500000E+04  0.7818608E-02  0.7223770E-01
         52   -1    0    0    0    0  0.00000000000E+00  0.00000000000E+00  0.64930732323E+04  0.65000000000E+04  0.30000000000E+03 0. -1.
        -52   -1    0    0    0    0 -0.00000000000E+00 -0.00000000000E+00 -0.64930732323E+04  0.65000000000E+04  0.30000000000E+03 0.  1.
     100001    1    1    2    0    0 -0.27574212309E+03  0.12077569071E+04 -0.63790782473E+04  0.65000000000E+04  0.15050000000E+03 0.  1.
     100001    1    1    2    0    0  0.27574212309E+03 -0.12077569071E+04  0.63790782473E+04  0.65000000000E+04  0.15050000000E+03 0. -1.
</event>
<event>
 4    1  0.4521369E-004  0.6500000E+04  0.7818608E-02  0.7223770E-01
         52   -1    0    0    0    0  0.00000000000E+00  0.00000000000E+00  0.64930732323E+04  0.65000000000E+04  0.30000000000E+03 0.  1.
        -52   -1    0    0    0    0 -0.00000000000E+00 -0.00000000000E+00 -0.64930732323E+04  0.65000000000E+04  0.30000000000E+03 0.  1.
     100001    1    1    2    0    0 -0.26767152071E+02 -0.23443961798E+03  0.64939719229E+04  0.65000000000E+04  0.15050000000E+03 0.  1.
     100001    1    1    2    0    0  0.26767152071E+02  0.23443961798E+03 -0.64939719229E+04  0.65000000000E+04  0.15050000000E+03 0.  1.
</event>
<event>
 4    1  0.4521369E-004  0.6500000E+04  0.7818608E-02  0.7223770E-01
         52   -1    0    0    0    0  0.00000000000E+00  0.00000000000E+00  0.64930732323E+04  0.65000000000E+04  0.30000000000E+03 0. -1.
        -52   -1    0    0    0    0 -0.00000000000E+00 -0.00000000000E+00 -0.64930732323E+04  0.65000000000E+04  0.30000000000E+03 0.  1.
     100001    1    1    2    0    0 -0.13649444747E+03  0.98087898698E+03 -0.64223512383E+04  0.65000000000E+04  0.15050000000E+03 0.  1.
     100001    1    1    2    0    0  0.13649444747E+03 -0.98087898698E+03  0.64223512383E+04  0.65000000000E+04  0.15050000000E+03 0. -1.
</event>
<event>
 4    1  0.4521369E-004  0.6500000E+04  0.7818608E-02  0.7223770E-01
         52   -1    0    0    0    0  0.00000000000E+00  0.00000000000E+00  0.64930732323E+04  0.65000000000E+04  0.30000000000E+03 0.  1.
        -52   -1    0    0    0    0 -0.00000000000E+00 -0.00000000000E+00 -0.64930732323E+04  0.65000000000E+04  0.30000000000E+03 0. -1.
     100001    1    1    2    0    0  0.17532030593E+04  0.14752664557E+04 -0.60808895458E+04  0.65000000000E+04  0.15050000000E+03 0. -1.
     100001    1    1    2    0    0 -0.17532030593E+04 -0.14752664557E+04  0.60808895458E+04  0.65000000000E+04  0.15050000000E+03 0.  1.
</event>
<event>
 4    1  0.4521369E-004  0.6500000E+04  0.7818608E-02  0.7223770E-01
         52   -1    0    0    0    0  0.00000000000E+00  0.00000000000E+00  0.64930732323E+04  0.65000000000E+04  0.30000000000E+03 0. -1.
        -52   -1    0    0    0    0 -0.00000000000E+00 -0.00000000000E+00 -0.64930732323E+04  0.65000000000E+04  0.30000000000E+03 0.  1.
     100001    1    1    2    0    0  0.21632173837E+04 -0.51667280025E+04  0.32943530546E+04  0.65000000000E+04  0.15050000000E+03 0. -1.
     100001    1    1    2    0    0 -0.21632173837E+04  0.51667280025E+04 -0.32943530546E+04  0.65000000000E+04  0.15050000000E+03 0.  1.
</event>
<event>
 4    1  0.4521369E-004  0.6500000E+04  0.7818608E-02  0.7223770E-01
         52   -1    0    0    0    0  0.00000000000E+00  0.00000000000E+00  0.64930732323E+04  0.65000000000E+04  0.30000000000E+03 0.  1.
        -52   -1    0    0    0    0 -0.00000000000E+00 -0.00000000000E+00 -0.64930732323E+04  0.65000000000E+04  0.30000000000E+03 0.  1.
     100001    1    1    2    0    0 -0.48652806187E+03  0.30383101410E+03  0.64728916961E+04  0.65000000000E+04  0.15050000000E+03 0.  1.
     100001    1    1    2    0    0  0.48652806187E+03 -0.30383101410E+03 -0.64728916961E+04  0.65000000000E+04  0.15050000000E+03 0.  1.
</event>
<event>
 4    1  0.4521369E-004  0.6500000E+04  0.7818608E-02  0.7223770E-01
         52   -1    0    0    0    0  0.00000000000E+00  0.00000000000E+00  0.64930732323E+04  0.65000000000E+04  0.30000000000E+03 0.  1.
        -52   -1    0    0    0    0 -0.00000000000E+00 -0.00000000000E+00 -0.64930732323E+04  0.65000000000E+04  0.30000000000E+03 0. -1.
     100001    1    1    2    0    0  0.13107903898E+04 -0.28308190194E+03  0.63583836736E+04  0.65000000000E+04  0.15050000000E+03 0.  1.
     100001    1    1    2    0    0 -0.13107903898E+04  0.28308190194E+03 -0.63583836736E+04  0.65000000000E+04  0.15050000000E+03 0. -1.
</event>
<event>
 4    1  0.4521369E-004  0.6500000E+04  0.7818608E-02  0.7223770E-01
         52   -1    0    0    0    0  0.00000000000E+00  0.00000000000E+00  0.64930732323E+04  0.65000000000E+04  0.30000000000E+03 0. -1.
        -52   -1    0    0    0    0 -0.00000000000E+00 -0.00000000000E+00 -0.64930732323E+04  0.65000000000E+04  0.30000000000E+03 0.  1.
     100001    1    1    2    0    0 -0.45009360999E+03  0.23858293276E+03 -0.64782593091E+04  0.65000000000E+04  0.15050000000E+03 0.  1.
     100001    1    1    2    0    0  0.45009360999E+03 -0.23858293276E+03  0.64782593091E+04  0.65000000000E+04  0.15050000000E+03 0. -1.
</event>
<event>
 4    1  0.4521369E-004  0.6500000E+04  0.7818608E-02  0.7223770E-01
         52   -1    0    0    0    0  0.00000000000E+00  0.00000000000E+00  0.64930732323E+04  0.65000000000E+04  0.30000000000E+03 0.  1.
        -52   -1    0    0    0    0 -0.00000000000E+00 -0.00000000000E+00 -0.64930732323E+04  0.65000000000E+04  0.30000000000E+03 0.  1.
     100001    1    1    2    0    0  0.90328670593E+02  0.68265067554E+02  0.64972709934E+04  0.65000000000E+04  0.15050000000E+03 0.  1.
     100001    1    1    2    0    0 -0.90328670593E+02 -0.68265067554E+02 -0.64972709934E+04  0.65000000000E+04  0.15050000000E+03 0.  1.
</event>
<event>
 4    1  0.6338041E-004  0.6500000E+04  0.7818608E-02  0.7223770E-01
         52   -1    0    0    0    0  0.00000000000E+00  0.00000000000E+00  0.64930732323E+04  0.65000000000E+04  0.30000000000E+03 0. -1.
        -52   -1    0    0    0    0 -0.00000000000E+00 -0.00000000000E+00 -0.64930732323E+04  0.65000000000E+04  0.30000000000E+03 0. -1.
     100001    1    1    2    0    0  0.13630238373E+03  0.11057007455E+03  0.64958868270E+04  0.65000000000E+04  0.15050000000E+03 0. -1.
     100001    1    1    2    0    0 -0.13630238373E+03 -0.11057007455E+03 -0.64958868270E+04  0.65000000000E+04  0.15050000000E+03 0. -1.
</event>
<event>
 4    1  0.4521369E-004  0.6500000E+04  0.7818608E-02  0.7223770E-01
         52   -1    0    0    0    0  0.00000000000E+00  0.00000000000E+00  0.64930732323E+04  0.65000000000E+04  0.30000000000E+03 0.  1.
        -52   -1    0    0    0    0 -0.00000000000E+00 -0.00000000000E+00 -0.64930732323E+04  0.65000000000E+04  0.30000000000E+03 0. -1.
     100001    1    1    2    0    0 -0.45569338004E+04  0.27166761212E+04  0.37525158149E+04  0.65000000000E+04  0.15050000000E+03 0.  1.
     100001    1    1    2    0    0  0.45569338004E+04 -0.27166761212E+04 -0.37525158149E+04  0.65000000000E+04  0.15050000000E+03 0. -1.
</event>
<event>
 4    1  0.4521369E-004  0.6500000E+04  0.7818608E-02  0.7223770E-01
         52   -1    0    0    0    0  0.00000000000E+00  0.00000000000E+00  0.64930732323E+04  0.65000000000E+04  0.30000000000E+03 0.  1.
        -52   -1    0    0    0    0 -0.00000000000E+00 -0.00000000000E+00 -0.64930732323E+04  0.65000000000E+04  0.30000000000E+03 0. -1.
     100001    1    1    2    0    0 -0.10235540682E+04 -0.11720521860E+04 -0.63091980863E+04  0.65000000000E+04  0.15050000000E+03 0. -1.
     100001    1    1    2    0    0  0.10235540682E+04  0.11720521860E+04  0.63091980863E+04  0.65000000000E+04  0.15050000000E+03 0.  1.
</event>
<event>
 4    1  0.6302220E-004  0.6500000E+04  0.7818608E-02  0.7223770E-01
         52   -1    0    0    0    0  0.00000000000E+00  0.00000000000E+00  0.64930732323E+04  0.65000000000E+04  0.30000000000E+03 0. -1.
        -52   -1    0    0    0    0 -0.00000000000E+00 -0.00000000000E+00 -0.64930732323E+04  0.65000000000E+04  0.30000000000E+03 0. -1.
     100001    1    1    2    0    0  0.23881260312E+03  0.14342151101E+02 -0.64938519072E+04  0.65000000000E+04  0.15050000000E+03 0. -1.
     100001    1    1    2    0    0 -0.23881260312E+03 -0.14342151101E+02  0.64938519072E+04  0.65000000000E+04  0.15050000000E+03 0. -1.
</event>
<event>
 4    1  0.6836127E-004  0.6500000E+04  0.7818608E-02  0.7223770E-01
         52   -1    0    0    0    0  0.00000000000E+00  0.00000000000E+00  0.64930732323E+04  0.65000000000E+04  0.30000000000E+03 0. -1.
        -52   -1    0    0    0    0 -0.00000000000E+00 -0.00000000000E+00 -0.64930732323E+04  0.65000000000E+04  0.30000000000E+03 0. -1.
     100001    1    1    2    0    0  0.14655468319E+03  0.49622924632E+02  0.64964150914E+04  0.65000000000E+04  0.15050000000E+03 0. -1.
     100001    1    1    2    0    0 -0.14655468319E+03 -0.49622924632E+02 -0.64964150914E+04  0.65000000000E+04  0.15050000000E+03 0. -1.
</event>
<event>
 4    1  0.4521369E-004  0.6500000E+04  0.7818608E-02  0.7223770E-01
         52   -1    0    0    0    0  0.00000000000E+00  0.00000000000E+00  0.64930732323E+04  0.65000000000E+04  0.30000000000E+03 0.  1.
        -52   -1    0    0    0    0 -0.00000000000E+00 -0.00000000000E+00 -0.64930732323E+04  0.65000000000E+04  0.30000000000E+03 0. -1.
     100001    1    1    2    0    0  0.32936187846E+04  0.41938856585E+03 -0.55860127356E+04  0.65000000000E+04  0.15050000000E+03 0. -1.
     100001    1    1    2    0    0 -0.32936187846E+04 -0.41938856585E+03  0.55860127356E+04  0.65000000000E+04  0.15050000000E+03 0.  1.
</event>
<event>
 4    1  0.4521369E-004  0.6500000E+04  0.7818608E-02  0.7223770E-01
         52   -1    0    0    0    0  0.00000000000E+00  0.00000000000E+00  0.64930732323E+04  0.65000000000E+04  0.30000000000E+03 0. -1.
        -52   -1    0    0    0    0 -0.00000000000E+00 -0.00000000000E+00 -0.64930732323E+04  0.65000000000E+04  0.30000000000E+03 0. -1.
     100001    1    1    2    0    0 -0.18524779660E+03 -0.30767633601E+02  0.64955435767E+04  0.65000000000E+04  0.15050000000E+03 0. -1.
     100001    1    1    2    0    0  0.18524779660E+03  0.30767633601E+02 -0.64955435767E+04  0.65000000000E+04  0.15050000000E+03 0. -1.
</event>
<event>
 4    1  0.4521369E-004  0.6500000E+04  0.7818608E-02  0.7223770E-01
         52   -1    0    0    0    0  0.00000000000E+00  0.00000000000E+00  0.64930732323E+04  0.65000000000E+04  0.30000000000E+03 0.  1.
        -52   -1    0    0    0    0 -0.00000000000E+00 -0.00000000000E+00 -0.64930732323E+04  0.65000000000E+04  0.30000000000E+03 0.  1.
     100001    1    1    2    0    0 -0.76553273024E+02 -0.68320467338E+03 -0.64617892817E+04  0.65000000000E+04  0.15050000000E+03 0.  1.
     100001    1    1    2    0    0  0.76553273024E+02  0.68320467338E+03  0.64617892817E+04  0.65000000000E+04  0.15050000000E+03 0.  1.
</event>
<event>
 4    1  0.4521369E-004  0.6500000E+04  0.7818608E-02  0.7223770E-01
         52   -1    0    0    0    0  0.00000000000E+00  0.00000000000E+00  0.64930732323E+04  0.65000000000E+04  0.30000000000E+03 0.  1.
        -52   -1    0    0    0    0 -0.00000000000E+00 -0.00000000000E+00 -0.64930732323E+04  0.65000000000E+04  0.30000000000E+03 0. -1.
     100001    1    1    2    0    0 -0.42846925385E+04  0.20399507882E+04 -0.44392972848E+04  0.65000000000E+04  0.15050000000E+03 0. -1.
     100001    1    1    2    0    0  0.42846925385E+04 -0.20399507882E+04  0.44392972848E+04  0.65000000000E+04  0.15050000000E+03 0.  1.
</event>
<event>
 4    1  0.4521369E-004  0.6500000E+04  0.7818608E-02  0.7223770E-01
         52   -1    0    0    0    0  0.00000000000E+00  0.00000000000E+00  0.64930732323E+04  0.65000000000E+04  0.30000000000E+03 0.  1.
        -52   -1    0    0    0    0 -0.00000000000E+00 -0.00000000000E+00 -0.64930732323E+04  0.65000000000E+04  0.30000000000E+03 0. -1.
     100001    1    1    2    0    0 -0.23987266493E+04 -0.10589438622E+04  0.59457630384E+04  0.65000000000E+04  0.15050000000E+03 0.  1.
     100001    1    1    2    0    0  0.23987266493E+04  0.10589438622E+04 -0.59457630384E+04  0.65000000000E+04  0.15050000000E+03 0. -1.
</event>
<event>
 4    1  0.4521369E-004  0.6500000E+04  0.7818608E-02  0.7223770E-01
         52   -1    0    0    0    0  0.00000000000E+00  0.00000000000E+00  0.64930732323E+04  0.65000000000E+04  0.30000000000E+03 0.  1.
        -52   -1    0    0    0    0 -0.00000000000E+00 -0.00000000000E+00 -0.64930732323E+04  0.65000000000E+04  0.30000000000E+03 0. -1.
     100001    1    1    2    0    0 -0.99893667506E+03 -0.30608358591E+03 -0.64137187425E+04  0.65000000000E+04  0.15050000000E+03 0. -1.
     100001    1    1    2    0    0  0.99893667506E+03  0.30608358591E+03  0.64137187425E+04  0.65000000000E+04  0.15050000000E+03 0.  1.
</event>
<event>
 4    1  0.4521369E-004  0.6500000E+04  0.7818608E-02  0.7223770E-01
         52   -1    0    0    0    0  0.00000000000E+00  0.00000000000E+00  0.64930732323E+04  0.65000000000E+04  0.30000000000E+03 0.  1.
        -52   -1    0    0    0    0 -0.00000000000E+00 -0.00000000000E+00 -0.64930732323E+04  0.65000000000E+04  0.30000000000E+03 0. -1.
     100001    1    1    2    0    0 -0.32374382855E+03 -0.38324906733E+03  0.64788625418E+04  0.65000000000E+04  0.15050000000E+03 0.  1.
     100001    1    1    2    0    0  0.32374382855E+03  0.38324906733E+03 -0.64788625418E+04  0.65000000000E+04  0.15050000000E+03 0. -1.
</event>
<event>
 4    1  0.4521369E-004  0.6500000E+04  0.7818608E-02  0.7223770E-01
         52   -1    0    0    0    0  0.00000000000E+00  0.00000000000E+00  0.64930732323E+04  0.65000000000E+04  0.30000000000E+03 0. -1.
        -52   -1    0    0    0    0 -0.00000000000E+00 -0.00000000000E+00 -0.64930732323E+04  0.65000000000E+04  0.30000000000E+03 0.  1.
     100001    1    1    2    0    0  0.29243171703E+04 -0.54330393512E+04 -0.20390689654E+04  0.65000000000E+04  0.15050000000E+03 0.  1.
     100001    1    1    2    0    0 -0.29243171703E+04  0.54330393512E+04  0.20390689654E+04  0.65000000000E+04  0.15050000000E+03 0. -1.
</event>
<event>
 4    1  0.4521369E-004  0.6500000E+04  0.7818608E-02  0.7223770E-01
         52   -1    0    0    0    0  0.00000000000E+00  0.00000000000E+00  0.64930732323E+04  0.65000000000E+04  0.30000000000E+03 0.  1.
        -52   -1    0    0    0    0 -0.00000000000E+00 -0.00000000000E+00 -0.64930732323E+04  0.65000000000E+04  0.30000000000E+03 0.  1.
     100001    1    1    2    0    0 -0.17875613593E+03  0.41644940491E+03  0.64824351819E+04  0.65000000000E+04  0.15050000000E+03 0.  1.
     100001    1    1    2    0    0  0.17875613593E+03 -0.41644940491E+03 -0.64824351819E+04  0.65000000000E+04  0.15050000000E+03 0.  1.
</event>
<event>
 4    1  0.4521369E-004  0.6500000E+04  0.7818608E-02  0.7223770E-01
         52   -1    0    0    0    0  0.00000000000E+00  0.00000000000E+00  0.64930732323E+04  0.65000000000E+04  0.30000000000E+03 0.  1.
        -52   -1    0    0    0    0 -0.00000000000E+00 -0.00000000000E+00 -0.64930732323E+04  0.65000000000E+04  0.30000000000E+03 0. -1.
     100001    1    1    2    0    0  0.29738042042E+03 -0.24366821606E+03  0.64868744736E+04  0.65000000000E+04  0.15050000000E+03 0.  1.
     100001    1    1    2    0    0 -0.29738042042E+03  0.24366821606E+03 -0.64868744736E+04  0.65000000000E+04  0.15050000000E+03 0. -1.
</event>
<event>
 4    1  0.4521369E-004  0.6500000E+04  0.7818608E-02  0.7223770E-01
         52   -1    0    0    0    0  0.00000000000E+00  0.00000000000E+00  0.64930732323E+04  0.65000000000E+04  0.30000000000E+03 0. -1.
        -52   -1    0    0    0    0 -0.00000000000E+00 -0.00000000000E+00 -0.64930732323E+04  0.65000000000E+04  0.30000000000E+03 0.  1.
     100001    1    1    2    0    0  0.23354851094E+04 -0.55477647665E+04 -0.24485026342E+04  0.65000000000E+04  0.15050000000E+03 0.  1.
     100001    1    1    2    0    0 -0.23354851094E+04  0.55477647665E+04  0.24485026342E+04  0.65000000000E+04  0.15050000000E+03 0. -1.
</event>
<event>
 4    1  0.4521369E-004  0.6500000E+04  0.7818608E-02  0.7223770E-01
         52   -1    0    0    0    0  0.00000000000E+00  0.00000000000E+00  0.64930732323E+04  0.65000000000E+04  0.30000000000E+03 0. -1.
        -52   -1    0    0    0    0 -0.00000000000E+00 -0.00000000000E+00 -0.64930732323E+04  0.65000000000E+04  0.30000000000E+03 0.  1.
     100001    1    1    2    0    0 -0.22031939336E+04  0.34500831938E+04  0.50468021753E+04  0.65000000000E+04  0.15050000000E+03 0. -1.
     100001    1    1    2    0    0  0.22031939336E+04 -0.34500831938E+04 -0.50468021753E+04  0.65000000000E+04  0.15050000000E+03 0.  1.
</event>
<event>
 4    1  0.4521369E-004  0.6500000E+04  0.7818608E-02  0.7223770E-01
         52   -1    0    0    0    0  0.00000000000E+00  0.00000000000E+00  0.64930732323E+04  0.65000000000E+04  0.30000000000E+03 0. -1.
        -52   -1    0    0    0    0 -0.00000000000E+00 -0.00000000000E+00 -0.64930732323E+04  0.65000000000E+04  0.30000000000E+03 0. -1.
     100001    1    1    2    0    0 -0.31771160541E+03  0.13141431848E+03 -0.64891555200E+04  0.65000000000E+04  0.15050000000E+03 0. -1.
     100001    1    1    2    0    0  0.31771160541E+03 -0.13141431848E+03  0.64891555200E+04  0.65000000000E+04  0.15050000000E+03 0. -1.
</event>
<event>
 4    1  0.4521369E-004  0.6500000E+04  0.7818608E-02  0.7223770E-01
         52   -1    0    0    0    0  0.00000000000E+00  0.00000000000E+00  0.64930732323E+04  0.65000000000E+04  0.30000000000E+03 0.  1.
        -52   -1    0    0    0    0 -0.00000000000E+00 -0.00000000000E+00 -0.64930732323E+04  0.65000000000E+04  0.30000000000E+03 0. -1.
     100001    1    1    2    0    0  0.31836395896E+02  0.31295182101E+03 -0.64906392098E+04  0.65000000000E+04  0.15050000000E+03 0. -1.
     100001    1    1    2    0    0 -0.31836395896E+02 -0.31295182101E+03  0.64906392098E+04  0.65000000000E+04  0.15050000000E+03 0.  1.
</event>
<event>
 4    1  0.4521369E-004  0.6500000E+04  0.7818608E-02  0.7223770E-01
         52   -1    0    0    0    0  0.00000000000E+00  0.00000000000E+00  0.64930732323E+04  0.65000000000E+04  0.30000000000E+03 0. -1.
        -52   -1    0    0    0    0 -0.00000000000E+00 -0.00000000000E+00 -0.64930732323E+04  0.65000000000E+04  0.30000000000E+03 0.  1.
     100001    1    1    2    0    0  0.10453377965E+04 -0.99641763524E+03  0.63357533520E+04  0.65000000000E+04  0.15050000000E+03 0. -1.
     100001    1    1    2    0    0 -0.10453377965E+04  0.99641763524E+03 -0.63357533520E+04  0.65000000000E+04  0.15050000000E+03 0.  1.
</event>
<event>
 4    1  0.4521369E-004  0.6500000E+04  0.7818608E-02  0.7223770E-01
         52   -1    0    0    0    0  0.00000000000E+00  0.00000000000E+00  0.64930732323E+04  0.65000000000E+04  0.30000000000E+03 0.  1.
        -52   -1    0    0    0    0 -0.00000000000E+00 -0.00000000000E+00 -0.64930732323E+04  0.65000000000E+04  0.30000000000E+03 0. -1.
     100001    1    1    2    0    0  0.93969456345E+03  0.23168571648E+04  0.59980410765E+04  0.65000000000E+04  0.15050000000E+03 0.  1.
     100001    1    1    2    0    0 -0.93969456345E+03 -0.23168571648E+04 -0.59980410765E+04  0.65000000000E+04  0.15050000000E+03 0. -1.
</event>
<event>
 4    1  0.4521369E-004  0.6500000E+04  0.7818608E-02  0.7223770E-01
         52   -1    0    0    0    0  0.00000000000E+00  0.00000000000E+00  0.64930732323E+04  0.65000000000E+04  0.30000000000E+03 0. -1.
        -52   -1    0    0    0    0 -0.00000000000E+00 -0.00000000000E+00 -0.64930732323E+04  0.65000000000E+04  0.30000000000E+03 0.  1.
     100001    1    1    2    0    0 -0.13618923479E+04  0.31238527768E+03  0.63462598766E+04  0.65000000000E+04  0.15050000000E+03 0. -1.
     100001    1    1    2    0    0  0.13618923479E+04 -0.31238527768E+03 -0.63462598766E+04  0.65000000000E+04  0.15050000000E+03 0.  1.
</event>
<event>
 4    1  0.4521369E-004  0.6500000E+04  0.7818608E-02  0.7223770E-01
         52   -1    0    0    0    0  0.00000000000E+00  0.00000000000E+00  0.64930732323E+04  0.65000000000E+04  0.30000000000E+03 0. -1.
        -52   -1    0    0    0    0 -0.00000000000E+00 -0.00000000000E+00 -0.64930732323E+04  0.65000000000E+04  0.30000000000E+03 0.  1.
     100001    1    1    2    0    0 -0.43103445366E+04 -0.42758125326E+04  0.23163995579E+04  0.65000000000E+04  0.15050000000E+03 0. -1.
     100001    1    1    2    0    0  0.43103445366E+04  0.42758125326E+04 -0.23163995579E+04  0.65000000000E+04  0.15050000000E+03 0.  1.
</event>
<event>
 4    1  0.4521369E-004  0.6500000E+04  0.7818608E-02  0.7223770E-01
         52   -1    0    0    0    0  0.00000000000E+00  0.00000000000E+00  0.64930732323E+04  0.65000000000E+04  0.30000000000E+03 0.  1.
        -52   -1    0    0    0    0 -0.00000000000E+00 -0.00000000000E+00 -0.64930732323E+04  0.65000000000E+04  0.30000000000E+03 0. -1.
     100001    1    1    2    0    0  0.41649372531E+04 -0.71111389157E+03  0.49371008154E+04  0.65000000000E+04  0.15050000000E+03 0.  1.
     100001    1    1    2    0    0 -0.41649372531E+04  0.71111389157E+03 -0.49371008154E+04  0.65000000000E+04  0.15050000000E+03 0. -1.
</event>
<event>
 4    1  0.4521369E-004  0.6500000E+04  0.7818608E-02  0.7223770E-01
         52   -1    0    0    0    0  0.00000000000E+00  0.00000000000E+00  0.64930732323E+04  0.65000000000E+04  0.30000000000E+03 0. -1.
        -52   -1    0    0    0    0 -0.00000000000E+00 -0.00000000000E+00 -0.64930732323E+04  0.65000000000E+04  0.30000000000E+03 0.  1.
     100001    1    1    2    0    0  0.22846709287E+04  0.79477781150E+02  0.60828703570E+04  0.65000000000E+04  0.15050000000E+03 0. -1.
     100001    1    1    2    0    0 -0.22846709287E+04 -0.79477781150E+02 -0.60828703570E+04  0.65000000000E+04  0.15050000000E+03 0.  1.
</event>
<event>
 4    1  0.4521369E-004  0.6500000E+04  0.7818608E-02  0.7223770E-01
         52   -1    0    0    0    0  0.00000000000E+00  0.00000000000E+00  0.64930732323E+04  0.65000000000E+04  0.30000000000E+03 0. -1.
        -52   -1    0    0    0    0 -0.00000000000E+00 -0.00000000000E+00 -0.64930732323E+04  0.65000000000E+04  0.30000000000E+03 0.  1.
     100001    1    1    2    0    0  0.15081120718E+04  0.30014569993E+04 -0.55627514424E+04  0.65000000000E+04  0.15050000000E+03 0.  1.
     100001    1    1    2    0    0 -0.15081120718E+04 -0.30014569993E+04  0.55627514424E+04  0.65000000000E+04  0.15050000000E+03 0. -1.
</event>
<event>
 4    1  0.4521369E-004  0.6500000E+04  0.7818608E-02  0.7223770E-01
         52   -1    0    0    0    0  0.00000000000E+00  0.00000000000E+00  0.64930732323E+04  0.65000000000E+04  0.30000000000E+03 0.  1.
        -52   -1    0    0    0    0 -0.00000000000E+00 -0.00000000000E+00 -0.64930732323E+04  0.65000000000E+04  0.30000000000E+03 0. -1.
     100001    1    1    2    0    0  0.68528331621E+03  0.19794289857E+03 -0.64589902566E+04  0.65000000000E+04  0.15050000000E+03 0. -1.
     100001    1    1    2    0    0 -0.68528331621E+03 -0.19794289857E+03  0.64589902566E+04  0.65000000000E+04  0.15050000000E+03 0.  1.
</event>
<event>
 4    1  0.4521369E-004  0.6500000E+04  0.7818608E-02  0.7223770E-01
         52   -1    0    0    0    0  0.00000000000E+00  0.00000000000E+00  0.64930732323E+04  0.65000000000E+04  0.30000000000E+03 0. -1.
        -52   -1    0    0    0    0 -0.00000000000E+00 -0.00000000000E+00 -0.64930732323E+04  0.65000000000E+04  0.30000000000E+03 0.  1.
     100001    1    1    2    0    0 -0.45821764293E+04 -0.22275242225E+04 -0.40335027902E+04  0.65000000000E+04  0.15050000000E+03 0. -1.
     100001    1    1    2    0    0  0.45821764293E+04  0.22275242225E+04  0.40335027902E+04  0.65000000000E+04  0.15050000000E+03 0.  1.
</event>
<event>
 4    1  0.4521369E-004  0.6500000E+04  0.7818608E-02  0.7223770E-01
         52   -1    0    0    0    0  0.00000000000E+00  0.00000000000E+00  0.64930732323E+04  0.65000000000E+04  0.30000000000E+03 0. -1.
        -52   -1    0    0    0    0 -0.00000000000E+00 -0.00000000000E+00 -0.64930732323E+04  0.65000000000E+04  0.30000000000E+03 0.  1.
     100001    1    1    2    0    0 -0.24949498138E+04 -0.52164154233E+04  0.29650607597E+04  0.65000000000E+04  0.15050000000E+03 0. -1.
     100001    1    1    2    0    0  0.24949498138E+04  0.52164154233E+04 -0.29650607597E+04  0.65000000000E+04  0.15050000000E+03 0.  1.
</event>
<event>
 4    1  0.4521369E-004  0.6500000E+04  0.7818608E-02  0.7223770E-01
         52   -1    0    0    0    0  0.00000000000E+00  0.00000000000E+00  0.64930732323E+04  0.65000000000E+04  0.30000000000E+03 0.  1.
        -52   -1    0    0    0    0 -0.00000000000E+00 -0.00000000000E+00 -0.64930732323E+04  0.65000000000E+04  0.30000000000E+03 0.  1.
     100001    1    1    2    0    0  0.11149812684E+03 -0.23367712332E+03 -0.64930973287E+04  0.65000000000E+04  0.15050000000E+03 0.  1.
     100001    1    1    2    0    0 -0.11149812684E+03  0.23367712332E+03  0.64930973287E+04  0.65000000000E+04  0.15050000000E+03 0.  1.
</event>
<event>
 4    1  0.4521369E-004  0.6500000E+04  0.7818608E-02  0.7223770E-01
         52   -1    0    0    0    0  0.00000000000E+00  0.00000000000E+00  0.64930732323E+04  0.65000000000E+04  0.30000000000E+03 0. -1.
        -52   -1    0    0    0    0 -0.00000000000E+00 -0.00000000000E+00 -0.64930732323E+04  0.65000000000E+04  0.30000000000E+03 0.  1.
     100001    1    1    2    0    0  0.44127455195E+02 -0.36156123103E+03  0.64880409982E+04  0.65000000000E+04  0.15050000000E+03 0. -1.
     100001    1    1    2    0    0 -0.44127455195E+02  0.36156123103E+03 -0.64880409982E+04  0.65000000000E+04  0.15050000000E+03 0.  1.
</event>
<event>
 4    1  0.4521369E-004  0.6500000E+04  0.7818608E-02  0.7223770E-01
         52   -1    0    0    0    0  0.00000000000E+00  0.00000000000E+00  0.64930732323E+04  0.65000000000E+04  0.30000000000E+03 0.  1.
        -52   -1    0    0    0    0 -0.00000000000E+00 -0.00000000000E+00 -0.64930732323E+04  0.65000000000E+04  0.30000000000E+03 0. -1.
     100001    1    1    2    0    0  0.45343432118E+03 -0.78773465109E+03 -0.64343780730E+04  0.65000000000E+04  0.15050000000E+03 0. -1.
     100001    1    1    2    0    0 -0.45343432118E+03  0.78773465109E+03  0.64343780730E+04  0.65000000000E+04  0.15050000000E+03 0.  1.
</event>
<event>
 4    1  0.4521369E-004  0.6500000E+04  0.7818608E-02  0.7223770E-01
         52   -1    0    0    0    0  0.00000000000E+00  0.00000000000E+00  0.64930732323E+04  0.65000000000E+04  0.30000000000E+03 0.  1.
        -52   -1    0    0    0    0 -0.00000000000E+00 -0.00000000000E+00 -0.64930732323E+04  0.65000000000E+04  0.30000000000E+03 0. -1.
     100001    1    1    2    0    0 -0.26095453699E+03  0.46468325604E+04  0.45349972034E+04  0.65000000000E+04  0.15050000000E+03 0.  1.
     100001    1    1    2    0    0  0.26095453699E+03 -0.46468325604E+04 -0.45349972034E+04  0.65000000000E+04  0.15050000000E+03 0. -1.
</event>
<event>
 4    1  0.7666112E-004  0.6500000E+04  0.7818608E-02  0.7223770E-01
         52   -1    0    0    0    0  0.00000000000E+00  0.00000000000E+00  0.64930732323E+04  0.65000000000E+04  0.30000000000E+03 0. -1.
        -52   -1    0    0    0    0 -0.00000000000E+00 -0.00000000000E+00 -0.64930732323E+04  0.65000000000E+04  0.30000000000E+03 0. -1.
     100001    1    1    2    0    0 -0.26127620573E+02  0.59980664771E+02  0.64979280865E+04  0.65000000000E+04  0.15050000000E+03 0. -1.
     100001    1    1    2    0    0  0.26127620573E+02 -0.59980664771E+02 -0.64979280865E+04  0.65000000000E+04  0.15050000000E+03 0. -1.
</event>
<event>
 4    1  0.4521369E-004  0.6500000E+04  0.7818608E-02  0.7223770E-01
         52   -1    0    0    0    0  0.00000000000E+00  0.00000000000E+00  0.64930732323E+04  0.65000000000E+04  0.30000000000E+03 0.  1.
        -52   -1    0    0    0    0 -0.00000000000E+00 -0.00000000000E+00 -0.64930732323E+04  0.65000000000E+04  0.30000000000E+03 0. -1.
     100001    1    1    2    0    0 -0.87370549510E+01 -0.11008968951E+04  0.64043188116E+04  0.65000000000E+04  0.15050000000E+03 0.  1.
     100001    1    1    2    0    0  0.87370549510E+01  0.11008968951E+04 -0.64043188116E+04  0.65000000000E+04  0.15050000000E+03 0. -1.
</event>
<event>
 4    1  0.4521369E-004  0.6500000E+04  0.7818608E-02  0.7223770E-01
         52   -1    0    0    0    0  0.00000000000E+00  0.00000000000E+00  0.64930732323E+04  0.65000000000E+04  0.30000000000E+03 0.  1.
        -52   -1    0    0    0    0 -0.00000000000E+00 -0.00000000000E+00 -0.64930732323E+04  0.65000000000E+04  0.30000000000E+03 0. -1.
     100001    1    1    2    0    0  0.56118118761E+03 -0.17877156596E+02  0.64739559646E+04  0.65000000000E+04  0.15050000000E+03 0.  1.
     100001    1    1    2    0    0 -0.56118118761E+03  0.17877156596E+02 -0.64739559646E+04  0.65000000000E+04  0.15050000000E+03 0. -1.
</event>
<event>
 4    1  0.4521369E-004  0.6500000E+04  0.7818608E-02  0.7223770E-01
         52   -1    0    0    0    0  0.00000000000E+00  0.00000000000E+00  0.64930732323E+04  0.65000000000E+04  0.30000000000E+03 0.  1.
        -52   -1    0    0    0    0 -0.00000000000E+00 -0.00000000000E+00 -0.64930732323E+04  0.65000000000E+04  0.30000000000E+03 0. -1.
     100001    1    1    2    0    0  0.31074408425E+03  0.91680886611E+03  0.64257489343E+04  0.65000000000E+04  0.15050000000E+03 0.  1.
     100001    1    1    2    0    0 -0.31074408425E+03 -0.91680886611E+03 -0.64257489343E+04  0.65000000000E+04  0.15050000000E+03 0. -1.
</event>
<event>
 4    1  0.4521369E-004  0.6500000E+04  0.7818608E-02  0.7223770E-01
         52   -1    0    0    0    0  0.00000000000E+00  0.00000000000E+00  0.64930732323E+04  0.65000000000E+04  0.30000000000E+03 0. -1.
        -52   -1    0    0    0    0 -0.00000000000E+00 -0.00000000000E+00 -0.64930732323E+04  0.65000000000E+04  0.30000000000E+03 0.  1.
     100001    1    1    2    0    0  0.22322129872E+04  0.32016972968E+04  0.51955470693E+04  0.65000000000E+04  0.15050000000E+03 0. -1.
     100001    1    1    2    0    0 -0.22322129872E+04 -0.32016972968E+04 -0.51955470693E+04  0.65000000000E+04  0.15050000000E+03 0.  1.
</event>
<event>
 4    1  0.4521369E-004  0.6500000E+04  0.7818608E-02  0.7223770E-01
         52   -1    0    0    0    0  0.00000000000E+00  0.00000000000E+00  0.64930732323E+04  0.65000000000E+04  0.30000000000E+03 0.  1.
        -52   -1    0    0    0    0 -0.00000000000E+00 -0.00000000000E+00 -0.64930732323E+04  0.65000000000E+04  0.30000000000E+03 0. -1.
     100001    1    1    2    0    0 -0.13844722200E+04 -0.55287638873E+04  0.31214349745E+04  0.65000000000E+04  0.15050000000E+03 0.  1.
     100001    1    1    2    0    0  0.13844722200E+04  0.55287638873E+04 -0.31214349745E+04  0.65000000000E+04  0.15050000000E+03 0. -1.
</event>
<event>
 4    1  0.4521369E-004  0.6500000E+04  0.7818608E-02  0.7223770E-01
         52   -1    0    0    0    0  0.00000000000E+00  0.00000000000E+00  0.64930732323E+04  0.65000000000E+04  0.30000000000E+03 0. -1.
        -52   -1    0    0    0    0 -0.00000000000E+00 -0.00000000000E+00 -0.64930732323E+04  0.65000000000E+04  0.30000000000E+03 0. -1.
     100001    1    1    2    0    0  0.18506456016E+03 -0.38022570382E+03 -0.64844837322E+04  0.65000000000E+04  0.15050000000E+03 0. -1.
     100001    1    1    2    0    0 -0.18506456016E+03  0.38022570382E+03  0.64844837322E+04  0.65000000000E+04  0.15050000000E+03 0. -1.
</event>
<event>
 4    1  0.4521369E-004  0.6500000E+04  0.7818608E-02  0.7223770E-01
         52   -1    0    0    0    0  0.00000000000E+00  0.00000000000E+00  0.64930732323E+04  0.65000000000E+04  0.30000000000E+03 0. -1.
        -52   -1    0    0    0    0 -0.00000000000E+00 -0.00000000000E+00 -0.64930732323E+04  0.65000000000E+04  0.30000000000E+03 0.  1.
     100001    1    1    2    0    0 -0.40671769056E+03  0.27824593059E+03  0.64795454835E+04  0.65000000000E+04  0.15050000000E+03 0. -1.
     100001    1    1    2    0    0  0.40671769056E+03 -0.27824593059E+03 -0.64795454835E+04  0.65000000000E+04  0.15050000000E+03 0.  1.
</event>
<event>
 4    1  0.4521369E-004  0.6500000E+04  0.7818608E-02  0.7223770E-01
         52   -1    0    0    0    0  0.00000000000E+00  0.00000000000E+00  0.64930732323E+04  0.65000000000E+04  0.30000000000E+03 0.  1.
        -52   -1    0    0    0    0 -0.00000000000E+00 -0.00000000000E+00 -0.64930732323E+04  0.65000000000E+04  0.30000000000E+03 0. -1.
     100001    1    1    2    0    0  0.38434260589E+04 -0.46384137832E+04 -0.24373230101E+04  0.65000000000E+04  0.15050000000E+03 0. -1.
     100001    1    1    2    0    0 -0.38434260589E+04  0.46384137832E+04  0.24373230101E+04  0.65000000000E+04  0.15050000000E+03 0.  1.
</event>
<event>
 4    1  0.4521369E-004  0.6500000E+04  0.7818608E-02  0.7223770E-01
         52   -1    0    0    0    0  0.00000000000E+00  0.00000000000E+00  0.64930732323E+04  0.65000000000E+04  0.30000000000E+03 0.  1.
        -52   -1    0    0    0    0 -0.00000000000E+00 -0.00000000000E+00 -0.64930732323E+04  0.65000000000E+04  0.30000000000E+03 0. -1.
     100001    1    1    2    0    0 -0.66193988108E+03  0.36434195657E+03 -0.64541800628E+04  0.65000000000E+04  0.15050000000E+03 0. -1.
     100001    1    1    2    0    0  0.66193988108E+03 -0.36434195657E+03  0.64541800628E+04  0.65000000000E+04  0.15050000000E+03 0.  1.
</event>
<event>
 4    1  0.4521369E-004  0.6500000E+04  0.7818608E-02  0.7223770E-01
         52   -1    0    0    0    0  0.00000000000E+00  0.00000000000E+00  0.64930732323E+04  0.65000000000E+04  0.30000000000E+03 0. -1.
        -52   -1    0    0    0    0 -0.00000000000E+00 -0.00000000000E+00 -0.64930732323E+04  0.65000000000E+04  0.30000000000E+03 0.  1.
     100001    1    1    2    0    0 -0.55386516374E+03 -0.32130573942E+04  0.56211071251E+04  0.65000000000E+04  0.15050000000E+03 0. -1.
     100001    1    1    2    0    0  0.55386516374E+03  0.32130573942E+04 -0.56211071251E+04  0.65000000000E+04  0.15050000000E+03 0.  1.
</event>
<event>
 4    1  0.4521369E-004  0.6500000E+04  0.7818608E-02  0.7223770E-01
         52   -1    0    0    0    0  0.00000000000E+00  0.00000000000E+00  0.64930732323E+04  0.65000000000E+04  0.30000000000E+03 0. -1.
        -52   -1    0    0    0    0 -0.00000000000E+00 -0.00000000000E+00 -0.64930732323E+04  0.65000000000E+04  0.30000000000E+03 0.  1.
     100001    1    1    2    0    0  0.10445264573E+03  0.32713320596E+03  0.64891773947E+04  0.65000000000E+04  0.15050000000E+03 0. -1.
     100001    1    1    2    0    0 -0.10445264573E+03 -0.32713320596E+03 -0.64891773947E+04  0.65000000000E+04  0.15050000000E+03 0.  1.
</event>
<event>
 4    1  0.4521369E-004  0.6500000E+04  0.7818608E-02  0.7223770E-01
         52   -1    0    0    0    0  0.00000000000E+00  0.00000000000E+00  0.64930732323E+04  0.65000000000E+04  0.30000000000E+03 0. -1.
        -52   -1    0    0    0    0 -0.00000000000E+00 -0.00000000000E+00 -0.64930732323E+04  0.65000000000E+04  0.30000000000E+03 0.  1.
     100001    1    1    2    0    0  0.26668365211E+03 -0.50015950165E+02 -0.64925902369E+04  0.65000000000E+04  0.15050000000E+03 0.  1.
     100001    1    1    2    0    0 -0.26668365211E+03  0.50015950165E+02  0.64925902369E+04  0.65000000000E+04  0.15050000000E+03 0. -1.
</event>
<event>
 4    1  0.4521369E-004  0.6500000E+04  0.7818608E-02  0.7223770E-01
         52   -1    0    0    0    0  0.00000000000E+00  0.00000000000E+00  0.64930732323E+04  0.65000000000E+04  0.30000000000E+03 0. -1.
        -52   -1    0    0    0    0 -0.00000000000E+00 -0.00000000000E+00 -0.64930732323E+04  0.65000000000E+04  0.30000000000E+03 0. -1.
     100001    1    1    2    0    0 -0.58835038022E+02 -0.13091596817E+03 -0.64966721633E+04  0.65000000000E+04  0.15050000000E+03 0. -1.
     100001    1    1    2    0    0  0.58835038022E+02  0.13091596817E+03  0.64966721633E+04  0.65000000000E+04  0.15050000000E+03 0. -1.
</event>
<event>
 4    1  0.6559941E-004  0.6500000E+04  0.7818608E-02  0.7223770E-01
         52   -1    0    0    0    0  0.00000000000E+00  0.00000000000E+00  0.64930732323E+04  0.65000000000E+04  0.30000000000E+03 0.  1.
        -52   -1    0    0    0    0 -0.00000000000E+00 -0.00000000000E+00 -0.64930732323E+04  0.65000000000E+04  0.30000000000E+03 0.  1.
     100001    1    1    2    0    0 -0.53668344247E+00  0.16473128582E+03 -0.64961691069E+04  0.65000000000E+04  0.15050000000E+03 0.  1.
     100001    1    1    2    0    0  0.53668344247E+00 -0.16473128582E+03  0.64961691069E+04  0.65000000000E+04  0.15050000000E+03 0.  1.
</event>
<event>
 4    1  0.4521369E-004  0.6500000E+04  0.7818608E-02  0.7223770E-01
         52   -1    0    0    0    0  0.00000000000E+00  0.00000000000E+00  0.64930732323E+04  0.65000000000E+04  0.30000000000E+03 0. -1.
        -52   -1    0    0    0    0 -0.00000000000E+00 -0.00000000000E+00 -0.64930732323E+04  0.65000000000E+04  0.30000000000E+03 0.  1.
     100001    1    1    2    0    0  0.24074749082E+03 -0.10344873170E+03  0.64929722590E+04  0.65000000000E+04  0.15050000000E+03 0. -1.
     100001    1    1    2    0    0 -0.24074749082E+03  0.10344873170E+03 -0.64929722590E+04  0.65000000000E+04  0.15050000000E+03 0.  1.
</event>
<event>
 4    1  0.4521369E-004  0.6500000E+04  0.7818608E-02  0.7223770E-01
         52   -1    0    0    0    0  0.00000000000E+00  0.00000000000E+00  0.64930732323E+04  0.65000000000E+04  0.30000000000E+03 0. -1.
        -52   -1    0    0    0    0 -0.00000000000E+00 -0.00000000000E+00 -0.64930732323E+04  0.65000000000E+04  0.30000000000E+03 0.  1.
     100001    1    1    2    0    0  0.41726706001E+03  0.54197633803E+03  0.64621590509E+04  0.65000000000E+04  0.15050000000E+03 0. -1.
     100001    1    1    2    0    0 -0.41726706001E+03 -0.54197633803E+03 -0.64621590509E+04  0.65000000000E+04  0.15050000000E+03 0.  1.
</event>
<event>
 4    1  0.4521369E-004  0.6500000E+04  0.7818608E-02  0.7223770E-01
         52   -1    0    0    0    0  0.00000000000E+00  0.00000000000E+00  0.64930732323E+04  0.65000000000E+04  0.30000000000E+03 0. -1.
        -52   -1    0    0    0    0 -0.00000000000E+00 -0.00000000000E+00 -0.64930732323E+04  0.65000000000E+04  0.30000000000E+03 0.  1.
     100001    1    1    2    0    0  0.97363949637E+03  0.12952474406E+02 -0.64248897356E+04  0.65000000000E+04  0.15050000000E+03 0.  1.
     100001    1    1    2    0    0 -0.97363949637E+03 -0.12952474406E+02  0.64248897356E+04  0.65000000000E+04  0.15050000000E+03 0. -1.
</event>
<event>
 4    1  0.4521369E-004  0.6500000E+04  0.7818608E-02  0.7223770E-01
         52   -1    0    0    0    0  0.00000000000E+00  0.00000000000E+00  0.64930732323E+04  0.65000000000E+04  0.30000000000E+03 0.  1.
        -52   -1    0    0    0    0 -0.00000000000E+00 -0.00000000000E+00 -0.64930732323E+04  0.65000000000E+04  0.30000000000E+03 0. -1.
     100001    1    1    2    0    0  0.10794793809E+04  0.18321234936E+04  0.61404720926E+04  0.65000000000E+04  0.15050000000E+03 0.  1.
     100001    1    1    2    0    0 -0.10794793809E+04 -0.18321234936E+04 -0.61404720926E+04  0.65000000000E+04  0.15050000000E+03 0. -1.
</event>
<event>
 4    1  0.4521369E-004  0.6500000E+04  0.7818608E-02  0.7223770E-01
         52   -1    0    0    0    0  0.00000000000E+00  0.00000000000E+00  0.64930732323E+04  0.65000000000E+04  0.30000000000E+03 0.  1.
        -52   -1    0    0    0    0 -0.00000000000E+00 -0.00000000000E+00 -0.64930732323E+04  0.65000000000E+04  0.30000000000E+03 0. -1.
     100001    1    1    2    0    0  0.22110963138E+02  0.69473564844E+03  0.64609754089E+04  0.65000000000E+04  0.15050000000E+03 0.  1.
     100001    1    1    2    0    0 -0.22110963138E+02 -0.69473564844E+03 -0.64609754089E+04  0.65000000000E+04  0.15050000000E+03 0. -1.
</event>
<event>
 4    1  0.4521369E-004  0.6500000E+04  0.7818608E-02  0.7223770E-01
         52   -1    0    0    0    0  0.00000000000E+00  0.00000000000E+00  0.64930732323E+04  0.65000000000E+04  0.30000000000E+03 0.  1.
        -52   -1    0    0    0    0 -0.00000000000E+00 -0.00000000000E+00 -0.64930732323E+04  0.65000000000E+04  0.30000000000E+03 0. -1.
     100001    1    1    2    0    0 -0.14538570269E+04 -0.18741510393E+04  0.60498931707E+04  0.65000000000E+04  0.15050000000E+03 0.  1.
     100001    1    1    2    0    0  0.14538570269E+04  0.18741510393E+04 -0.60498931707E+04  0.65000000000E+04  0.15050000000E+03 0. -1.
</event>
<event>
 4    1  0.4521369E-004  0.6500000E+04  0.7818608E-02  0.7223770E-01
         52   -1    0    0    0    0  0.00000000000E+00  0.00000000000E+00  0.64930732323E+04  0.65000000000E+04  0.30000000000E+03 0.  1.
        -52   -1    0    0    0    0 -0.00000000000E+00 -0.00000000000E+00 -0.64930732323E+04  0.65000000000E+04  0.30000000000E+03 0. -1.
     100001    1    1    2    0    0 -0.21118231646E+04  0.36144602604E+04 -0.49702343705E+04  0.65000000000E+04  0.15050000000E+03 0. -1.
     100001    1    1    2    0    0  0.21118231646E+04 -0.36144602604E+04  0.49702343705E+04  0.65000000000E+04  0.15050000000E+03 0.  1.
</event>
<event>
 4    1  0.4521369E-004  0.6500000E+04  0.7818608E-02  0.7223770E-01
         52   -1    0    0    0    0  0.00000000000E+00  0.00000000000E+00  0.64930732323E+04  0.65000000000E+04  0.30000000000E+03 0. -1.
        -52   -1    0    0    0    0 -0.00000000000E+00 -0.00000000000E+00 -0.64930732323E+04  0.65000000000E+04  0.30000000000E+03 0.  1.
     100001    1    1    2    0    0 -0.82875404312E+03 -0.29748818230E+04 -0.57175689436E+04  0.65000000000E+04  0.15050000000E+03 0.  1.
     100001    1    1    2    0    0  0.82875404312E+03  0.29748818230E+04  0.57175689436E+04  0.65000000000E+04  0.15050000000E+03 0. -1.
</event>
<event>
 4    1  0.4521369E-004  0.6500000E+04  0.7818608E-02  0.7223770E-01
         52   -1    0    0    0    0  0.00000000000E+00  0.00000000000E+00  0.64930732323E+04  0.65000000000E+04  0.30000000000E+03 0. -1.
        -52   -1    0    0    0    0 -0.00000000000E+00 -0.00000000000E+00 -0.64930732323E+04  0.65000000000E+04  0.30000000000E+03 0.  1.
     100001    1    1    2    0    0 -0.41874701337E+02 -0.97828693423E+02  0.64973860749E+04  0.65000000000E+04  0.15050000000E+03 0. -1.
     100001    1    1    2    0    0  0.41874701337E+02  0.97828693423E+02 -0.64973860749E+04  0.65000000000E+04  0.15050000000E+03 0.  1.
</event>
<event>
 4    1  0.4521369E-004  0.6500000E+04  0.7818608E-02  0.7223770E-01
         52   -1    0    0    0    0  0.00000000000E+00  0.00000000000E+00  0.64930732323E+04  0.65000000000E+04  0.30000000000E+03 0. -1.
        -52   -1    0    0    0    0 -0.00000000000E+00 -0.00000000000E+00 -0.64930732323E+04  0.65000000000E+04  0.30000000000E+03 0. -1.
     100001    1    1    2    0    0 -0.58378681099E+02  0.19860047720E+03  0.64949595480E+04  0.65000000000E+04  0.15050000000E+03 0. -1.
     100001    1    1    2    0    0  0.58378681099E+02 -0.19860047720E+03 -0.64949595480E+04  0.65000000000E+04  0.15050000000E+03 0. -1.
</event>
<event>
 4    1  0.4886140E-004  0.6500000E+04  0.7818608E-02  0.7223770E-01
         52   -1    0    0    0    0  0.00000000000E+00  0.00000000000E+00  0.64930732323E+04  0.65000000000E+04  0.30000000000E+03 0.  1.
        -52   -1    0    0    0    0 -0.00000000000E+00 -0.00000000000E+00 -0.64930732323E+04  0.65000000000E+04  0.30000000000E+03 0.  1.
     100001    1    1    2    0    0 -0.16716344695E+03  0.20779052234E+03  0.64927828572E+04  0.65000000000E+04  0.15050000000E+03 0.  1.
     100001    1    1    2    0    0  0.16716344695E+03 -0.20779052234E+03 -0.64927828572E+04  0.65000000000E+04  0.15050000000E+03 0.  1.
</event>
<event>
 4    1  0.4521369E-004  0.6500000E+04  0.7818608E-02  0.7223770E-01
         52   -1    0    0    0    0  0.00000000000E+00  0.00000000000E+00  0.64930732323E+04  0.65000000000E+04  0.30000000000E+03 0. -1.
        -52   -1    0    0    0    0 -0.00000000000E+00 -0.00000000000E+00 -0.64930732323E+04  0.65000000000E+04  0.30000000000E+03 0.  1.
     100001    1    1    2    0    0 -0.67638767422E+03  0.75054804589E+03 -0.64192310361E+04  0.65000000000E+04  0.15050000000E+03 0.  1.
     100001    1    1    2    0    0  0.67638767422E+03 -0.75054804589E+03  0.64192310361E+04  0.65000000000E+04  0.15050000000E+03 0. -1.
</event>
<event>
 4    1  0.4521369E-004  0.6500000E+04  0.7818608E-02  0.7223770E-01
         52   -1    0    0    0    0  0.00000000000E+00  0.00000000000E+00  0.64930732323E+04  0.65000000000E+04  0.30000000000E+03 0. -1.
        -52   -1    0    0    0    0 -0.00000000000E+00 -0.00000000000E+00 -0.64930732323E+04  0.65000000000E+04  0.30000000000E+03 0. -1.
     100001    1    1    2    0    0 -0.42392349185E+03  0.99354711955E+02  0.64836538514E+04  0.65000000000E+04  0.15050000000E+03 0. -1.
     100001    1    1    2    0    0  0.42392349185E+03 -0.99354711955E+02 -0.64836538514E+04  0.65000000000E+04  0.15050000000E+03 0. -1.
</event>
<event>
 4    1  0.4521369E-004  0.6500000E+04  0.7818608E-02  0.7223770E-01
         52   -1    0    0    0    0  0.00000000000E+00  0.00000000000E+00  0.64930732323E+04  0.65000000000E+04  0.30000000000E+03 0. -1.
        -52   -1    0    0    0    0 -0.00000000000E+00 -0.00000000000E+00 -0.64930732323E+04  0.65000000000E+04  0.30000000000E+03 0.  1.
     100001    1    1    2    0    0  0.31000559074E+03  0.95911953319E+03 -0.64196055957E+04  0.65000000000E+04  0.15050000000E+03 0.  1.
     100001    1    1    2    0    0 -0.31000559074E+03 -0.95911953319E+03  0.64196055957E+04  0.65000000000E+04  0.15050000000E+03 0. -1.
</event>
<event>
 4    1  0.4521369E-004  0.6500000E+04  0.7818608E-02  0.7223770E-01
         52   -1    0    0    0    0  0.00000000000E+00  0.00000000000E+00  0.64930732323E+04  0.65000000000E+04  0.30000000000E+03 0.  1.
        -52   -1    0    0    0    0 -0.00000000000E+00 -0.00000000000E+00 -0.64930732323E+04  0.65000000000E+04  0.30000000000E+03 0. -1.
     100001    1    1    2    0    0 -0.82772515463E+03 -0.10044494408E+04  0.63665769562E+04  0.65000000000E+04  0.15050000000E+03 0.  1.
     100001    1    1    2    0    0  0.82772515463E+03  0.10044494408E+04 -0.63665769562E+04  0.65000000000E+04  0.15050000000E+03 0. -1.
</event>
<event>
 4    1  0.4521369E-004  0.6500000E+04  0.7818608E-02  0.7223770E-01
         52   -1    0    0    0    0  0.00000000000E+00  0.00000000000E+00  0.64930732323E+04  0.65000000000E+04  0.30000000000E+03 0.  1.
        -52   -1    0    0    0    0 -0.00000000000E+00 -0.00000000000E+00 -0.64930732323E+04  0.65000000000E+04  0.30000000000E+03 0. -1.
     100001    1    1    2    0    0  0.12380705985E+03 -0.31737086378E+03  0.64893217902E+04  0.65000000000E+04  0.15050000000E+03 0.  1.
     100001    1    1    2    0    0 -0.12380705985E+03  0.31737086378E+03 -0.64893217902E+04  0.65000000000E+04  0.15050000000E+03 0. -1.
</event>
<event>
 4    1  0.4521369E-004  0.6500000E+04  0.7818608E-02  0.7223770E-01
         52   -1    0    0    0    0  0.00000000000E+00  0.00000000000E+00  0.64930732323E+04  0.65000000000E+04  0.30000000000E+03 0. -1.
        -52   -1    0    0    0    0 -0.00000000000E+00 -0.00000000000E+00 -0.64930732323E+04  0.65000000000E+04  0.30000000000E+03 0.  1.
     100001    1    1    2    0    0  0.92160556339E+03 -0.11760584259E+04  0.63241504974E+04  0.65000000000E+04  0.15050000000E+03 0. -1.
     100001    1    1    2    0    0 -0.92160556339E+03  0.11760584259E+04 -0.63241504974E+04  0.65000000000E+04  0.15050000000E+03 0.  1.
</event>
<event>
 4    1  0.4521369E-004  0.6500000E+04  0.7818608E-02  0.7223770E-01
         52   -1    0    0    0    0  0.00000000000E+00  0.00000000000E+00  0.64930732323E+04  0.65000000000E+04  0.30000000000E+03 0.  1.
        -52   -1    0    0    0    0 -0.00000000000E+00 -0.00000000000E+00 -0.64930732323E+04  0.65000000000E+04  0.30000000000E+03 0.  1.
     100001    1    1    2    0    0 -0.36407406176E+03 -0.66622575327E+02 -0.64877084753E+04  0.65000000000E+04  0.15050000000E+03 0.  1.
     100001    1    1    2    0    0  0.36407406176E+03  0.66622575327E+02  0.64877084753E+04  0.65000000000E+04  0.15050000000E+03 0.  1.
</event>
<event>
 4    1  0.4521369E-004  0.6500000E+04  0.7818608E-02  0.7223770E-01
         52   -1    0    0    0    0  0.00000000000E+00  0.00000000000E+00  0.64930732323E+04  0.65000000000E+04  0.30000000000E+03 0. -1.
        -52   -1    0    0    0    0 -0.00000000000E+00 -0.00000000000E+00 -0.64930732323E+04  0.65000000000E+04  0.30000000000E+03 0.  1.
     100001    1    1    2    0    0 -0.10885534951E+03 -0.13245467917E+04  0.63609021419E+04  0.65000000000E+04  0.15050000000E+03 0. -1.
     100001    1    1    2    0    0  0.10885534951E+03  0.13245467917E+04 -0.63609021419E+04  0.65000000000E+04  0.15050000000E+03 0.  1.
</event>
<event>
 4    1  0.4521369E-004  0.6500000E+04  0.7818608E-02  0.7223770E-01
         52   -1    0    0    0    0  0.00000000000E+00  0.00000000000E+00  0.64930732323E+04  0.65000000000E+04  0.30000000000E+03 0.  1.
        -52   -1    0    0    0    0 -0.00000000000E+00 -0.00000000000E+00 -0.64930732323E+04  0.65000000000E+04  0.30000000000E+03 0. -1.
     100001    1    1    2    0    0 -0.18244576826E+04 -0.83685367385E+03  0.61804837871E+04  0.65000000000E+04  0.15050000000E+03 0.  1.
     100001    1    1    2    0    0  0.18244576826E+04  0.83685367385E+03 -0.61804837871E+04  0.65000000000E+04  0.15050000000E+03 0. -1.
</event>
<event>
 4    1  0.4521369E-004  0.6500000E+04  0.7818608E-02  0.7223770E-01
         52   -1    0    0    0    0  0.00000000000E+00  0.00000000000E+00  0.64930732323E+04  0.65000000000E+04  0.30000000000E+03 0.  1.
        -52   -1    0    0    0    0 -0.00000000000E+00 -0.00000000000E+00 -0.64930732323E+04  0.65000000000E+04  0.30000000000E+03 0.  1.
     100001    1    1    2    0    0  0.93197045785E+03  0.59479034086E+02 -0.64308042312E+04  0.65000000000E+04  0.15050000000E+03 0.  1.
     100001    1    1    2    0    0 -0.93197045785E+03 -0.59479034086E+02  0.64308042312E+04  0.65000000000E+04  0.15050000000E+03 0.  1.
</event>
<event>
 4    1  0.4521369E-004  0.6500000E+04  0.7818608E-02  0.7223770E-01
         52   -1    0    0    0    0  0.00000000000E+00  0.00000000000E+00  0.64930732323E+04  0.65000000000E+04  0.30000000000E+03 0. -1.
        -52   -1    0    0    0    0 -0.00000000000E+00 -0.00000000000E+00 -0.64930732323E+04  0.65000000000E+04  0.30000000000E+03 0.  1.
     100001    1    1    2    0    0  0.13532786300E+04 -0.10980986430E+03 -0.63548350485E+04  0.65000000000E+04  0.15050000000E+03 0.  1.
     100001    1    1    2    0    0 -0.13532786300E+04  0.10980986430E+03  0.63548350485E+04  0.65000000000E+04  0.15050000000E+03 0. -1.
</event>
<event>
 4    1  0.4521369E-004  0.6500000E+04  0.7818608E-02  0.7223770E-01
         52   -1    0    0    0    0  0.00000000000E+00  0.00000000000E+00  0.64930732323E+04  0.65000000000E+04  0.30000000000E+03 0.  1.
        -52   -1    0    0    0    0 -0.00000000000E+00 -0.00000000000E+00 -0.64930732323E+04  0.65000000000E+04  0.30000000000E+03 0. -1.
     100001    1    1    2    0    0  0.20587841162E+04 -0.27350883294E+04  0.55234092319E+04  0.65000000000E+04  0.15050000000E+03 0.  1.
     100001    1    1    2    0    0 -0.20587841162E+04  0.27350883294E+04 -0.55234092319E+04  0.65000000000E+04  0.15050000000E+03 0. -1.
</event>
<event>
 4    1  0.4521369E-004  0.6500000E+04  0.7818608E-02  0.7223770E-01
         52   -1    0    0    0    0  0.00000000000E+00  0.00000000000E+00  0.64930732323E+04  0.65000000000E+04  0.30000000000E+03 0.  1.
        -52   -1    0    0    0    0 -0.00000000000E+00 -0.00000000000E+00 -0.64930732323E+04  0.65000000000E+04  0.30000000000E+03 0. -1.
     100001    1    1    2    0    0  0.32229044481E+04  0.14979321628E+04 -0.54402606467E+04  0.65000000000E+04  0.15050000000E+03 0. -1.
     100001    1    1    2    0    0 -0.32229044481E+04 -0.14979321628E+04  0.54402606467E+04  0.65000000000E+04  0.15050000000E+03 0.  1.
</event>
<event>
 4    1  0.4521369E-004  0.6500000E+04  0.7818608E-02  0.7223770E-01
         52   -1    0    0    0    0  0.00000000000E+00  0.00000000000E+00  0.64930732323E+04  0.65000000000E+04  0.30000000000E+03 0. -1.
        -52   -1    0    0    0    0 -0.00000000000E+00 -0.00000000000E+00 -0.64930732323E+04  0.65000000000E+04  0.30000000000E+03 0.  1.
     100001    1    1    2    0    0  0.13640309721E+04 -0.20881926235E+04 -0.60005183796E+04  0.65000000000E+04  0.15050000000E+03 0.  1.
     100001    1    1    2    0    0 -0.13640309721E+04  0.20881926235E+04  0.60005183796E+04  0.65000000000E+04  0.15050000000E+03 0. -1.
</event>
<event>
 4    1  0.4521369E-004  0.6500000E+04  0.7818608E-02  0.7223770E-01
         52   -1    0    0    0    0  0.00000000000E+00  0.00000000000E+00  0.64930732323E+04  0.65000000000E+04  0.30000000000E+03 0.  1.
        -52   -1    0    0    0    0 -0.00000000000E+00 -0.00000000000E+00 -0.64930732323E+04  0.65000000000E+04  0.30000000000E+03 0. -1.
     100001    1    1    2    0    0 -0.15456679463E+02 -0.22855609845E+03 -0.64942184249E+04  0.65000000000E+04  0.15050000000E+03 0. -1.
     100001    1    1    2    0    0  0.15456679463E+02  0.22855609845E+03  0.64942184249E+04  0.65000000000E+04  0.15050000000E+03 0.  1.
</event>
<event>
 4    1  0.4521369E-004  0.6500000E+04  0.7818608E-02  0.7223770E-01
         52   -1    0    0    0    0  0.00000000000E+00  0.00000000000E+00  0.64930732323E+04  0.65000000000E+04  0.30000000000E+03 0.  1.
        -52   -1    0    0    0    0 -0.00000000000E+00 -0.00000000000E+00 -0.64930732323E+04  0.65000000000E+04  0.30000000000E+03 0. -1.
     100001    1    1    2    0    0  0.10754032440E+04  0.39591130812E+03 -0.63964139835E+04  0.65000000000E+04  0.15050000000E+03 0. -1.
     100001    1    1    2    0    0 -0.10754032440E+04 -0.39591130812E+03  0.63964139835E+04  0.65000000000E+04  0.15050000000E+03 0.  1.
</event>
<event>
 4    1  0.4521369E-004  0.6500000E+04  0.7818608E-02  0.7223770E-01
         52   -1    0    0    0    0  0.00000000000E+00  0.00000000000E+00  0.64930732323E+04  0.65000000000E+04  0.30000000000E+03 0. -1.
        -52   -1    0    0    0    0 -0.00000000000E+00 -0.00000000000E+00 -0.64930732323E+04  0.65000000000E+04  0.30000000000E+03 0.  1.
     100001    1    1    2    0    0  0.48690868696E+03 -0.20407316840E+04  0.61502588461E+04  0.65000000000E+04  0.15050000000E+03 0. -1.
     100001    1    1    2    0    0 -0.48690868696E+03  0.20407316840E+04 -0.61502588461E+04  0.65000000000E+04  0.15050000000E+03 0.  1.
</event>
<event>
 4    1  0.4521369E-004  0.6500000E+04  0.7818608E-02  0.7223770E-01
         52   -1    0    0    0    0  0.00000000000E+00  0.00000000000E+00  0.64930732323E+04  0.65000000000E+04  0.30000000000E+03 0.  1.
        -52   -1    0    0    0    0 -0.00000000000E+00 -0.00000000000E+00 -0.64930732323E+04  0.65000000000E+04  0.30000000000E+03 0.  1.
     100001    1    1    2    0    0 -0.16009463376E+03  0.65228935877E+02  0.64959575618E+04  0.65000000000E+04  0.15050000000E+03 0.  1.
     100001    1    1    2    0    0  0.16009463376E+03 -0.65228935877E+02 -0.64959575618E+04  0.65000000000E+04  0.15050000000E+03 0.  1.
</event>
<event>
 4    1  0.4521369E-004  0.6500000E+04  0.7818608E-02  0.7223770E-01
         52   -1    0    0    0    0  0.00000000000E+00  0.00000000000E+00  0.64930732323E+04  0.65000000000E+04  0.30000000000E+03 0.  1.
        -52   -1    0    0    0    0 -0.00000000000E+00 -0.00000000000E+00 -0.64930732323E+04  0.65000000000E+04  0.30000000000E+03 0. -1.
     100001    1    1    2    0    0 -0.28855597438E+03 -0.56173753612E+03 -0.64674984453E+04  0.65000000000E+04  0.15050000000E+03 0. -1.
     100001    1    1    2    0    0  0.28855597438E+03  0.56173753612E+03  0.64674984453E+04  0.65000000000E+04  0.15050000000E+03 0.  1.
</event>
<event>
 4    1  0.5799443E-004  0.6500000E+04  0.7818608E-02  0.7223770E-01
         52   -1    0    0    0    0  0.00000000000E+00  0.00000000000E+00  0.64930732323E+04  0.65000000000E+04  0.30000000000E+03 0.  1.
        -52   -1    0    0    0    0 -0.00000000000E+00 -0.00000000000E+00 -0.64930732323E+04  0.65000000000E+04  0.30000000000E+03 0.  1.
     100001    1    1    2    0    0 -0.13219716808E+03  0.14700142502E+03  0.64952493593E+04  0.65000000000E+04  0.15050000000E+03 0.  1.
     100001    1    1    2    0    0  0.13219716808E+03 -0.14700142502E+03 -0.64952493593E+04  0.65000000000E+04  0.15050000000E+03 0.  1.
</event>
<event>
 4    1  0.4521369E-004  0.6500000E+04  0.7818608E-02  0.7223770E-01
         52   -1    0    0    0    0  0.00000000000E+00  0.00000000000E+00  0.64930732323E+04  0.65000000000E+04  0.30000000000E+03 0.  1.
        -52   -1    0    0    0    0 -0.00000000000E+00 -0.00000000000E+00 -0.64930732323E+04  0.65000000000E+04  0.30000000000E+03 0. -1.
     100001    1    1    2    0    0 -0.13104884112E+04 -0.78021631358E+03  0.63167422282E+04  0.65000000000E+04  0.15050000000E+03 0.  1.
     100001    1    1    2    0    0  0.13104884112E+04  0.78021631358E+03 -0.63167422282E+04  0.65000000000E+04  0.15050000000E+03 0. -1.
</event>
<event>
 4    1  0.4521369E-004  0.6500000E+04  0.7818608E-02  0.7223770E-01
         52   -1    0    0    0    0  0.00000000000E+00  0.00000000000E+00  0.64930732323E+04  0.65000000000E+04  0.30000000000E+03 0. -1.
        -52   -1    0    0    0    0 -0.00000000000E+00 -0.00000000000E+00 -0.64930732323E+04  0.65000000000E+04  0.30000000000E+03 0.  1.
     100001    1    1    2    0    0 -0.33659310951E+04 -0.92040347364E+03 -0.54818532504E+04  0.65000000000E+04  0.15050000000E+03 0.  1.
     100001    1    1    2    0    0  0.33659310951E+04  0.92040347364E+03  0.54818532504E+04  0.65000000000E+04  0.15050000000E+03 0. -1.
</event>
<event>
 4    1  0.4521369E-004  0.6500000E+04  0.7818608E-02  0.7223770E-01
         52   -1    0    0    0    0  0.00000000000E+00  0.00000000000E+00  0.64930732323E+04  0.65000000000E+04  0.30000000000E+03 0.  1.
        -52   -1    0    0    0    0 -0.00000000000E+00 -0.00000000000E+00 -0.64930732323E+04  0.65000000000E+04  0.30000000000E+03 0. -1.
     100001    1    1    2    0    0 -0.10677432349E+04 -0.54411745847E+04  0.33883466873E+04  0.65000000000E+04  0.15050000000E+03 0.  1.
     100001    1    1    2    0    0  0.10677432349E+04  0.54411745847E+04 -0.33883466873E+04  0.65000000000E+04  0.15050000000E+03 0. -1.
</event>
<event>
 4    1  0.4521369E-004  0.6500000E+04  0.7818608E-02  0.7223770E-01
         52   -1    0    0    0    0  0.00000000000E+00  0.00000000000E+00  0.64930732323E+04  0.65000000000E+04  0.30000000000E+03 0.  1.
        -52   -1    0    0    0    0 -0.00000000000E+00 -0.00000000000E+00 -0.64930732323E+04  0.65000000000E+04  0.30000000000E+03 0. -1.
     100001    1    1    2    0    0 -0.48885460176E+04 -0.35495586199E+04 -0.23937629766E+04  0.65000000000E+04  0.15050000000E+03 0.  1.
     100001    1    1    2    0    0  0.48885460176E+04  0.35495586199E+04  0.23937629766E+04  0.65000000000E+04  0.15050000000E+03 0. -1.
</event>
<event>
 4    1  0.4521369E-004  0.6500000E+04  0.7818608E-02  0.7223770E-01
         52   -1    0    0    0    0  0.00000000000E+00  0.00000000000E+00  0.64930732323E+04  0.65000000000E+04  0.30000000000E+03 0.  1.
        -52   -1    0    0    0    0 -0.00000000000E+00 -0.00000000000E+00 -0.64930732323E+04  0.65000000000E+04  0.30000000000E+03 0. -1.
     100001    1    1    2    0    0  0.78495396564E+03  0.93243446648E+03  0.63829274622E+04  0.65000000000E+04  0.15050000000E+03 0.  1.
     100001    1    1    2    0    0 -0.78495396564E+03 -0.93243446648E+03 -0.63829274622E+04  0.65000000000E+04  0.15050000000E+03 0. -1.
</event>
<event>
 4    1  0.4521369E-004  0.6500000E+04  0.7818608E-02  0.7223770E-01
         52   -1    0    0    0    0  0.00000000000E+00  0.00000000000E+00  0.64930732323E+04  0.65000000000E+04  0.30000000000E+03 0.  1.
        -52   -1    0    0    0    0 -0.00000000000E+00 -0.00000000000E+00 -0.64930732323E+04  0.65000000000E+04  0.30000000000E+03 0. -1.
     100001    1    1    2    0    0  0.37190105839E+01 -0.10015104203E+04 -0.64206162319E+04  0.65000000000E+04  0.15050000000E+03 0. -1.
     100001    1    1    2    0    0 -0.37190105839E+01  0.10015104203E+04  0.64206162319E+04  0.65000000000E+04  0.15050000000E+03 0.  1.
</event>
<event>
 4    1  0.4521369E-004  0.6500000E+04  0.7818608E-02  0.7223770E-01
         52   -1    0    0    0    0  0.00000000000E+00  0.00000000000E+00  0.64930732323E+04  0.65000000000E+04  0.30000000000E+03 0. -1.
        -52   -1    0    0    0    0 -0.00000000000E+00 -0.00000000000E+00 -0.64930732323E+04  0.65000000000E+04  0.30000000000E+03 0. -1.
     100001    1    1    2    0    0  0.25868070327E+03 -0.18025301639E+03  0.64906042010E+04  0.65000000000E+04  0.15050000000E+03 0. -1.
     100001    1    1    2    0    0 -0.25868070327E+03  0.18025301639E+03 -0.64906042010E+04  0.65000000000E+04  0.15050000000E+03 0. -1.
</event>
<event>
 4    1  0.4521369E-004  0.6500000E+04  0.7818608E-02  0.7223770E-01
         52   -1    0    0    0    0  0.00000000000E+00  0.00000000000E+00  0.64930732323E+04  0.65000000000E+04  0.30000000000E+03 0. -1.
        -52   -1    0    0    0    0 -0.00000000000E+00 -0.00000000000E+00 -0.64930732323E+04  0.65000000000E+04  0.30000000000E+03 0.  1.
     100001    1    1    2    0    0  0.87185308869E+02  0.12755142778E+04  0.63712488414E+04  0.65000000000E+04  0.15050000000E+03 0. -1.
     100001    1    1    2    0    0 -0.87185308869E+02 -0.12755142778E+04 -0.63712488414E+04  0.65000000000E+04  0.15050000000E+03 0.  1.
</event>
<event>
 4    1  0.4521369E-004  0.6500000E+04  0.7818608E-02  0.7223770E-01
         52   -1    0    0    0    0  0.00000000000E+00  0.00000000000E+00  0.64930732323E+04  0.65000000000E+04  0.30000000000E+03 0.  1.
        -52   -1    0    0    0    0 -0.00000000000E+00 -0.00000000000E+00 -0.64930732323E+04  0.65000000000E+04  0.30000000000E+03 0. -1.
     100001    1    1    2    0    0  0.48168472944E+03 -0.22719508200E+03  0.64763965263E+04  0.65000000000E+04  0.15050000000E+03 0.  1.
     100001    1    1    2    0    0 -0.48168472944E+03  0.22719508200E+03 -0.64763965263E+04  0.65000000000E+04  0.15050000000E+03 0. -1.
</event>
<event>
 4    1  0.4521369E-004  0.6500000E+04  0.7818608E-02  0.7223770E-01
         52   -1    0    0    0    0  0.00000000000E+00  0.00000000000E+00  0.64930732323E+04  0.65000000000E+04  0.30000000000E+03 0. -1.
        -52   -1    0    0    0    0 -0.00000000000E+00 -0.00000000000E+00 -0.64930732323E+04  0.65000000000E+04  0.30000000000E+03 0.  1.
     100001    1    1    2    0    0  0.65081560349E+03  0.52525210160E+03  0.64442143842E+04  0.65000000000E+04  0.15050000000E+03 0. -1.
     100001    1    1    2    0    0 -0.65081560349E+03 -0.52525210160E+03 -0.64442143842E+04  0.65000000000E+04  0.15050000000E+03 0.  1.
</event>
<event>
 4    1  0.4521369E-004  0.6500000E+04  0.7818608E-02  0.7223770E-01
         52   -1    0    0    0    0  0.00000000000E+00  0.00000000000E+00  0.64930732323E+04  0.65000000000E+04  0.30000000000E+03 0. -1.
        -52   -1    0    0    0    0 -0.00000000000E+00 -0.00000000000E+00 -0.64930732323E+04  0.65000000000E+04  0.30000000000E+03 0.  1.
     100001    1    1    2    0    0  0.18126756339E+04 -0.50499277759E+04 -0.36660314039E+04  0.65000000000E+04  0.15050000000E+03 0.  1.
     100001    1    1    2    0    0 -0.18126756339E+04  0.50499277759E+04  0.36660314039E+04  0.65000000000E+04  0.15050000000E+03 0. -1.
</event>
<event>
 4    1  0.4521369E-004  0.6500000E+04  0.7818608E-02  0.7223770E-01
         52   -1    0    0    0    0  0.00000000000E+00  0.00000000000E+00  0.64930732323E+04  0.65000000000E+04  0.30000000000E+03 0.  1.
        -52   -1    0    0    0    0 -0.00000000000E+00 -0.00000000000E+00 -0.64930732323E+04  0.65000000000E+04  0.30000000000E+03 0. -1.
     100001    1    1    2    0    0 -0.16683887745E+04 -0.93159142212E+03  0.62109553266E+04  0.65000000000E+04  0.15050000000E+03 0.  1.
     100001    1    1    2    0    0  0.16683887745E+04  0.93159142212E+03 -0.62109553266E+04  0.65000000000E+04  0.15050000000E+03 0. -1.
</event>
<event>
 4    1  0.4521369E-004  0.6500000E+04  0.7818608E-02  0.7223770E-01
         52   -1    0    0    0    0  0.00000000000E+00  0.00000000000E+00  0.64930732323E+04  0.65000000000E+04  0.30000000000E+03 0.  1.
        -52   -1    0    0    0    0 -0.00000000000E+00 -0.00000000000E+00 -0.64930732323E+04  0.65000000000E+04  0.30000000000E+03 0. -1.
     100001    1    1    2    0    0 -0.41536463621E+03 -0.53767143916E+03 -0.64626412087E+04  0.65000000000E+04  0.15050000000E+03 0. -1.
     100001    1    1    2    0    0  0.41536463621E+03  0.53767143916E+03  0.64626412087E+04  0.65000000000E+04  0.15050000000E+03 0.  1.
</event>
<event>
 4    1  0.4521369E-004  0.6500000E+04  0.7818608E-02  0.7223770E-01
         52   -1    0    0    0    0  0.00000000000E+00  0.00000000000E+00  0.64930732323E+04  0.65000000000E+04  0.30000000000E+03 0. -1.
        -52   -1    0    0    0    0 -0.00000000000E+00 -0.00000000000E+00 -0.64930732323E+04  0.65000000000E+04  0.30000000000E+03 0.  1.
     100001    1    1    2    0    0  0.78445788528E+03 -0.51649965699E+04  0.38645550856E+04  0.65000000000E+04  0.15050000000E+03 0. -1.
     100001    1    1    2    0    0 -0.78445788528E+03  0.51649965699E+04 -0.38645550856E+04  0.65000000000E+04  0.15050000000E+03 0.  1.
</event>
<event>
 4    1  0.4521369E-004  0.6500000E+04  0.7818608E-02  0.7223770E-01
         52   -1    0    0    0    0  0.00000000000E+00  0.00000000000E+00  0.64930732323E+04  0.65000000000E+04  0.30000000000E+03 0. -1.
        -52   -1    0    0    0    0 -0.00000000000E+00 -0.00000000000E+00 -0.64930732323E+04  0.65000000000E+04  0.30000000000E+03 0.  1.
     100001    1    1    2    0    0 -0.27212371916E+04  0.14836750435E+04  0.57114732129E+04  0.65000000000E+04  0.15050000000E+03 0. -1.
     100001    1    1    2    0    0  0.27212371916E+04 -0.14836750435E+04 -0.57114732129E+04  0.65000000000E+04  0.15050000000E+03 0.  1.
</event>
<event>
 4    1  0.4521369E-004  0.6500000E+04  0.7818608E-02  0.7223770E-01
         52   -1    0    0    0    0  0.00000000000E+00  0.00000000000E+00  0.64930732323E+04  0.65000000000E+04  0.30000000000E+03 0.  1.
        -52   -1    0    0    0    0 -0.00000000000E+00 -0.00000000000E+00 -0.64930732323E+04  0.65000000000E+04  0.30000000000E+03 0. -1.
     100001    1    1    2    0    0 -0.23190226701E+04  0.13935402479E+04 -0.59082594038E+04  0.65000000000E+04  0.15050000000E+03 0. -1.
     100001    1    1    2    0    0  0.23190226701E+04 -0.13935402479E+04  0.59082594038E+04  0.65000000000E+04  0.15050000000E+03 0.  1.
</event>
<event>
 4    1  0.4521369E-004  0.6500000E+04  0.7818608E-02  0.7223770E-01
         52   -1    0    0    0    0  0.00000000000E+00  0.00000000000E+00  0.64930732323E+04  0.65000000000E+04  0.30000000000E+03 0.  1.
        -52   -1    0    0    0    0 -0.00000000000E+00 -0.00000000000E+00 -0.64930732323E+04  0.65000000000E+04  0.30000000000E+03 0.  1.
     100001    1    1    2    0    0  0.45558918398E+03  0.12401050031E+03 -0.64810809007E+04  0.65000000000E+04  0.15050000000E+03 0.  1.
     100001    1    1    2    0    0 -0.45558918398E+03 -0.12401050031E+03  0.64810809007E+04  0.65000000000E+04  0.15050000000E+03 0.  1.
</event>
<event>
 4    1  0.4521369E-004  0.6500000E+04  0.7818608E-02  0.7223770E-01
         52   -1    0    0    0    0  0.00000000000E+00  0.00000000000E+00  0.64930732323E+04  0.65000000000E+04  0.30000000000E+03 0. -1.
        -52   -1    0    0    0    0 -0.00000000000E+00 -0.00000000000E+00 -0.64930732323E+04  0.65000000000E+04  0.30000000000E+03 0.  1.
     100001    1    1    2    0    0  0.63015589153E+04 -0.15577880472E+04 -0.30166436274E+03  0.65000000000E+04  0.15050000000E+03 0.  1.
     100001    1    1    2    0    0 -0.63015589153E+04  0.15577880472E+04  0.30166436274E+03  0.65000000000E+04  0.15050000000E+03 0. -1.
</event>
<event>
 4    1  0.4521369E-004  0.6500000E+04  0.7818608E-02  0.7223770E-01
         52   -1    0    0    0    0  0.00000000000E+00  0.00000000000E+00  0.64930732323E+04  0.65000000000E+04  0.30000000000E+03 0. -1.
        -52   -1    0    0    0    0 -0.00000000000E+00 -0.00000000000E+00 -0.64930732323E+04  0.65000000000E+04  0.30000000000E+03 0.  1.
     100001    1    1    2    0    0 -0.18489082332E+04 -0.24067925953E+04 -0.57459757656E+04  0.65000000000E+04  0.15050000000E+03 0.  1.
     100001    1    1    2    0    0  0.18489082332E+04  0.24067925953E+04  0.57459757656E+04  0.65000000000E+04  0.15050000000E+03 0. -1.
</event>
<event>
 4    1  0.4521369E-004  0.6500000E+04  0.7818608E-02  0.7223770E-01
         52   -1    0    0    0    0  0.00000000000E+00  0.00000000000E+00  0.64930732323E+04  0.65000000000E+04  0.30000000000E+03 0. -1.
        -52   -1    0    0    0    0 -0.00000000000E+00 -0.00000000000E+00 -0.64930732323E+04  0.65000000000E+04  0.30000000000E+03 0.  1.
     100001    1    1    2    0    0 -0.27387334638E+04  0.10725595517E+04  0.57945064304E+04  0.65000000000E+04  0.15050000000E+03 0. -1.
     100001    1    1    2    0    0  0.27387334638E+04 -0.10725595517E+04 -0.57945064304E+04  0.65000000000E+04  0.15050000000E+03 0.  1.
</event>
<event>
 4    1  0.5933140E-004  0.6500000E+04  0.7818608E-02  0.7223770E-01
         52   -1    0    0    0    0  0.00000000000E+00  0.00000000000E+00  0.64930732323E+04  0.65000000000E+04  0.30000000000E+03 0.  1.
        -52   -1    0    0    0    0 -0.00000000000E+00 -0.00000000000E+00 -0.64930732323E+04  0.65000000000E+04  0.30000000000E+03 0.  1.
     100001    1    1    2    0    0  0.11673535519E+03 -0.73161223444E+02  0.64967969063E+04  0.65000000000E+04  0.15050000000E+03 0.  1.
     100001    1    1    2    0    0 -0.11673535519E+03  0.73161223444E+02 -0.64967969063E+04  0.65000000000E+04  0.15050000000E+03 0.  1.
</event>
<event>
 4    1  0.4521369E-004  0.6500000E+04  0.7818608E-02  0.7223770E-01
         52   -1    0    0    0    0  0.00000000000E+00  0.00000000000E+00  0.64930732323E+04  0.65000000000E+04  0.30000000000E+03 0. -1.
        -52   -1    0    0    0    0 -0.00000000000E+00 -0.00000000000E+00 -0.64930732323E+04  0.65000000000E+04  0.30000000000E+03 0.  1.
     100001    1    1    2    0    0 -0.13151097819E+04  0.91025418355E+03  0.62983548116E+04  0.65000000000E+04  0.15050000000E+03 0. -1.
     100001    1    1    2    0    0  0.13151097819E+04 -0.91025418355E+03 -0.62983548116E+04  0.65000000000E+04  0.15050000000E+03 0.  1.
</event>
<event>
 4    1  0.4521369E-004  0.6500000E+04  0.7818608E-02  0.7223770E-01
         52   -1    0    0    0    0  0.00000000000E+00  0.00000000000E+00  0.64930732323E+04  0.65000000000E+04  0.30000000000E+03 0.  1.
        -52   -1    0    0    0    0 -0.00000000000E+00 -0.00000000000E+00 -0.64930732323E+04  0.65000000000E+04  0.30000000000E+03 0. -1.
     100001    1    1    2    0    0 -0.32021024270E+03 -0.50819763435E+03  0.64704366402E+04  0.65000000000E+04  0.15050000000E+03 0.  1.
     100001    1    1    2    0    0  0.32021024270E+03  0.50819763435E+03 -0.64704366402E+04  0.65000000000E+04  0.15050000000E+03 0. -1.
</event>
<event>
 4    1  0.4521369E-004  0.6500000E+04  0.7818608E-02  0.7223770E-01
         52   -1    0    0    0    0  0.00000000000E+00  0.00000000000E+00  0.64930732323E+04  0.65000000000E+04  0.30000000000E+03 0.  1.
        -52   -1    0    0    0    0 -0.00000000000E+00 -0.00000000000E+00 -0.64930732323E+04  0.65000000000E+04  0.30000000000E+03 0. -1.
     100001    1    1    2    0    0 -0.70850594103E+03 -0.67661134318E+03  0.64239836684E+04  0.65000000000E+04  0.15050000000E+03 0.  1.
     100001    1    1    2    0    0  0.70850594103E+03  0.67661134318E+03 -0.64239836684E+04  0.65000000000E+04  0.15050000000E+03 0. -1.
</event>
<event>
 4    1  0.4521369E-004  0.6500000E+04  0.7818608E-02  0.7223770E-01
         52   -1    0    0    0    0  0.00000000000E+00  0.00000000000E+00  0.64930732323E+04  0.65000000000E+04  0.30000000000E+03 0.  1.
        -52   -1    0    0    0    0 -0.00000000000E+00 -0.00000000000E+00 -0.64930732323E+04  0.65000000000E+04  0.30000000000E+03 0. -1.
     100001    1    1    2    0    0 -0.66390606947E+03  0.50841331860E+04 -0.39922635468E+04  0.65000000000E+04  0.15050000000E+03 0. -1.
     100001    1    1    2    0    0  0.66390606947E+03 -0.50841331860E+04  0.39922635468E+04  0.65000000000E+04  0.15050000000E+03 0.  1.
</event>
<event>
 4    1  0.4521369E-004  0.6500000E+04  0.7818608E-02  0.7223770E-01
         52   -1    0    0    0    0  0.00000000000E+00  0.00000000000E+00  0.64930732323E+04  0.65000000000E+04  0.30000000000E+03 0.  1.
        -52   -1    0    0    0    0 -0.00000000000E+00 -0.00000000000E+00 -0.64930732323E+04  0.65000000000E+04  0.30000000000E+03 0.  1.
     100001    1    1    2    0    0 -0.27711188043E+03  0.12239472040E+03  0.64911923626E+04  0.65000000000E+04  0.15050000000E+03 0.  1.
     100001    1    1    2    0    0  0.27711188043E+03 -0.12239472040E+03 -0.64911923626E+04  0.65000000000E+04  0.15050000000E+03 0.  1.
</event>
<event>
 4    1  0.4521369E-004  0.6500000E+04  0.7818608E-02  0.7223770E-01
         52   -1    0    0    0    0  0.00000000000E+00  0.00000000000E+00  0.64930732323E+04  0.65000000000E+04  0.30000000000E+03 0. -1.
        -52   -1    0    0    0    0 -0.00000000000E+00 -0.00000000000E+00 -0.64930732323E+04  0.65000000000E+04  0.30000000000E+03 0. -1.
     100001    1    1    2    0    0  0.17745789427E+03 -0.12852494021E+03  0.64945623244E+04  0.65000000000E+04  0.15050000000E+03 0. -1.
     100001    1    1    2    0    0 -0.17745789427E+03  0.12852494021E+03 -0.64945623244E+04  0.65000000000E+04  0.15050000000E+03 0. -1.
</event>
<event>
 4    1  0.4521369E-004  0.6500000E+04  0.7818608E-02  0.7223770E-01
         52   -1    0    0    0    0  0.00000000000E+00  0.00000000000E+00  0.64930732323E+04  0.65000000000E+04  0.30000000000E+03 0. -1.
        -52   -1    0    0    0    0 -0.00000000000E+00 -0.00000000000E+00 -0.64930732323E+04  0.65000000000E+04  0.30000000000E+03 0.  1.
     100001    1    1    2    0    0  0.28494573816E+04 -0.15992200646E+04 -0.56169776184E+04  0.65000000000E+04  0.15050000000E+03 0.  1.
     100001    1    1    2    0    0 -0.28494573816E+04  0.15992200646E+04  0.56169776184E+04  0.65000000000E+04  0.15050000000E+03 0. -1.
</event>
<event>
 4    1  0.4521369E-004  0.6500000E+04  0.7818608E-02  0.7223770E-01
         52   -1    0    0    0    0  0.00000000000E+00  0.00000000000E+00  0.64930732323E+04  0.65000000000E+04  0.30000000000E+03 0. -1.
        -52   -1    0    0    0    0 -0.00000000000E+00 -0.00000000000E+00 -0.64930732323E+04  0.65000000000E+04  0.30000000000E+03 0.  1.
     100001    1    1    2    0    0 -0.22526067657E+04 -0.24813380685E+04  0.55674117774E+04  0.65000000000E+04  0.15050000000E+03 0. -1.
     100001    1    1    2    0    0  0.22526067657E+04  0.24813380685E+04 -0.55674117774E+04  0.65000000000E+04  0.15050000000E+03 0.  1.
</event>
<event>
 4    1  0.4521369E-004  0.6500000E+04  0.7818608E-02  0.7223770E-01
         52   -1    0    0    0    0  0.00000000000E+00  0.00000000000E+00  0.64930732323E+04  0.65000000000E+04  0.30000000000E+03 0. -1.
        -52   -1    0    0    0    0 -0.00000000000E+00 -0.00000000000E+00 -0.64930732323E+04  0.65000000000E+04  0.30000000000E+03 0.  1.
     100001    1    1    2    0    0 -0.16476385591E+04  0.51164220648E+03 -0.62650506128E+04  0.65000000000E+04  0.15050000000E+03 0.  1.
     100001    1    1    2    0    0  0.16476385591E+04 -0.51164220648E+03  0.62650506128E+04  0.65000000000E+04  0.15050000000E+03 0. -1.
</event>
<event>
 4    1  0.4521369E-004  0.6500000E+04  0.7818608E-02  0.7223770E-01
         52   -1    0    0    0    0  0.00000000000E+00  0.00000000000E+00  0.64930732323E+04  0.65000000000E+04  0.30000000000E+03 0.  1.
        -52   -1    0    0    0    0 -0.00000000000E+00 -0.00000000000E+00 -0.64930732323E+04  0.65000000000E+04  0.30000000000E+03 0. -1.
     100001    1    1    2    0    0 -0.31270865772E+04  0.86000945810E+03 -0.56310800936E+04  0.65000000000E+04  0.15050000000E+03 0. -1.
     100001    1    1    2    0    0  0.31270865772E+04 -0.86000945810E+03  0.56310800936E+04  0.65000000000E+04  0.15050000000E+03 0.  1.
</event>
<event>
 4    1  0.4521369E-004  0.6500000E+04  0.7818608E-02  0.7223770E-01
         52   -1    0    0    0    0  0.00000000000E+00  0.00000000000E+00  0.64930732323E+04  0.65000000000E+04  0.30000000000E+03 0. -1.
        -52   -1    0    0    0    0 -0.00000000000E+00 -0.00000000000E+00 -0.64930732323E+04  0.65000000000E+04  0.30000000000E+03 0.  1.
     100001    1    1    2    0    0  0.63518491667E+03 -0.20717528045E+04  0.61263145682E+04  0.65000000000E+04  0.15050000000E+03 0. -1.
     100001    1    1    2    0    0 -0.63518491667E+03  0.20717528045E+04 -0.61263145682E+04  0.65000000000E+04  0.15050000000E+03 0.  1.
</event>
<event>
 4    1  0.4521369E-004  0.6500000E+04  0.7818608E-02  0.7223770E-01
         52   -1    0    0    0    0  0.00000000000E+00  0.00000000000E+00  0.64930732323E+04  0.65000000000E+04  0.30000000000E+03 0. -1.
        -52   -1    0    0    0    0 -0.00000000000E+00 -0.00000000000E+00 -0.64930732323E+04  0.65000000000E+04  0.30000000000E+03 0.  1.
     100001    1    1    2    0    0 -0.78333549847E+02 -0.29814574780E+03 -0.64909415895E+04  0.65000000000E+04  0.15050000000E+03 0.  1.
     100001    1    1    2    0    0  0.78333549847E+02  0.29814574780E+03  0.64909415895E+04  0.65000000000E+04  0.15050000000E+03 0. -1.
</event>
<event>
 4    1  0.4521369E-004  0.6500000E+04  0.7818608E-02  0.7223770E-01
         52   -1    0    0    0    0  0.00000000000E+00  0.00000000000E+00  0.64930732323E+04  0.65000000000E+04  0.30000000000E+03 0.  1.
        -52   -1    0    0    0    0 -0.00000000000E+00 -0.00000000000E+00 -0.64930732323E+04  0.65000000000E+04  0.30000000000E+03 0. -1.
     100001    1    1    2    0    0 -0.14881959411E+04  0.19121660226E+04  0.60296138925E+04  0.65000000000E+04  0.15050000000E+03 0.  1.
     100001    1    1    2    0    0  0.14881959411E+04 -0.19121660226E+04 -0.60296138925E+04  0.65000000000E+04  0.15050000000E+03 0. -1.
</event>
<event>
 4    1  0.4521369E-004  0.6500000E+04  0.7818608E-02  0.7223770E-01
         52   -1    0    0    0    0  0.00000000000E+00  0.00000000000E+00  0.64930732323E+04  0.65000000000E+04  0.30000000000E+03 0. -1.
        -52   -1    0    0    0    0 -0.00000000000E+00 -0.00000000000E+00 -0.64930732323E+04  0.65000000000E+04  0.30000000000E+03 0.  1.
     100001    1    1    2    0    0  0.15562907309E+03 -0.10048354878E+04  0.64182111982E+04  0.65000000000E+04  0.15050000000E+03 0. -1.
     100001    1    1    2    0    0 -0.15562907309E+03  0.10048354878E+04 -0.64182111982E+04  0.65000000000E+04  0.15050000000E+03 0.  1.
</event>
<event>
 4    1  0.4521369E-004  0.6500000E+04  0.7818608E-02  0.7223770E-01
         52   -1    0    0    0    0  0.00000000000E+00  0.00000000000E+00  0.64930732323E+04  0.65000000000E+04  0.30000000000E+03 0.  1.
        -52   -1    0    0    0    0 -0.00000000000E+00 -0.00000000000E+00 -0.64930732323E+04  0.65000000000E+04  0.30000000000E+03 0. -1.
     100001    1    1    2    0    0 -0.31157008815E+04  0.17729706391E+03  0.56998529383E+04  0.65000000000E+04  0.15050000000E+03 0.  1.
     100001    1    1    2    0    0  0.31157008815E+04 -0.17729706391E+03 -0.56998529383E+04  0.65000000000E+04  0.15050000000E+03 0. -1.
</event>
<event>
 4    1  0.4521369E-004  0.6500000E+04  0.7818608E-02  0.7223770E-01
         52   -1    0    0    0    0  0.00000000000E+00  0.00000000000E+00  0.64930732323E+04  0.65000000000E+04  0.30000000000E+03 0. -1.
        -52   -1    0    0    0    0 -0.00000000000E+00 -0.00000000000E+00 -0.64930732323E+04  0.65000000000E+04  0.30000000000E+03 0.  1.
     100001    1    1    2    0    0 -0.33589644316E+04 -0.19307955467E+04  0.52169661925E+04  0.65000000000E+04  0.15050000000E+03 0. -1.
     100001    1    1    2    0    0  0.33589644316E+04  0.19307955467E+04 -0.52169661925E+04  0.65000000000E+04  0.15050000000E+03 0.  1.
</event>
<event>
 4    1  0.4521369E-004  0.6500000E+04  0.7818608E-02  0.7223770E-01
         52   -1    0    0    0    0  0.00000000000E+00  0.00000000000E+00  0.64930732323E+04  0.65000000000E+04  0.30000000000E+03 0. -1.
        -52   -1    0    0    0    0 -0.00000000000E+00 -0.00000000000E+00 -0.64930732323E+04  0.65000000000E+04  0.30000000000E+03 0.  1.
     100001    1    1    2    0    0  0.15206390537E+04 -0.62931529196E+04 -0.55788255777E+03  0.65000000000E+04  0.15050000000E+03 0.  1.
     100001    1    1    2    0    0 -0.15206390537E+04  0.62931529196E+04  0.55788255777E+03  0.65000000000E+04  0.15050000000E+03 0. -1.
</event>
<event>
 4    1  0.4521369E-004  0.6500000E+04  0.7818608E-02  0.7223770E-01
         52   -1    0    0    0    0  0.00000000000E+00  0.00000000000E+00  0.64930732323E+04  0.65000000000E+04  0.30000000000E+03 0. -1.
        -52   -1    0    0    0    0 -0.00000000000E+00 -0.00000000000E+00 -0.64930732323E+04  0.65000000000E+04  0.30000000000E+03 0.  1.
     100001    1    1    2    0    0 -0.40028221743E+03 -0.44476640666E+03 -0.64706496382E+04  0.65000000000E+04  0.15050000000E+03 0.  1.
     100001    1    1    2    0    0  0.40028221743E+03  0.44476640666E+03  0.64706496382E+04  0.65000000000E+04  0.15050000000E+03 0. -1.
</event>
<event>
 4    1  0.4521369E-004  0.6500000E+04  0.7818608E-02  0.7223770E-01
         52   -1    0    0    0    0  0.00000000000E+00  0.00000000000E+00  0.64930732323E+04  0.65000000000E+04  0.30000000000E+03 0.  1.
        -52   -1    0    0    0    0 -0.00000000000E+00 -0.00000000000E+00 -0.64930732323E+04  0.65000000000E+04  0.30000000000E+03 0.  1.
     100001    1    1    2    0    0 -0.21790629065E+03 -0.23821090493E+03 -0.64902328281E+04  0.65000000000E+04  0.15050000000E+03 0.  1.
     100001    1    1    2    0    0  0.21790629065E+03  0.23821090493E+03  0.64902328281E+04  0.65000000000E+04  0.15050000000E+03 0.  1.
</event>
<event>
 4    1  0.4521369E-004  0.6500000E+04  0.7818608E-02  0.7223770E-01
         52   -1    0    0    0    0  0.00000000000E+00  0.00000000000E+00  0.64930732323E+04  0.65000000000E+04  0.30000000000E+03 0. -1.
        -52   -1    0    0    0    0 -0.00000000000E+00 -0.00000000000E+00 -0.64930732323E+04  0.65000000000E+04  0.30000000000E+03 0. -1.
     100001    1    1    2    0    0 -0.15800559728E+03  0.67030160606E+02 -0.64959903740E+04  0.65000000000E+04  0.15050000000E+03 0. -1.
     100001    1    1    2    0    0  0.15800559728E+03 -0.67030160606E+02  0.64959903740E+04  0.65000000000E+04  0.15050000000E+03 0. -1.
</event>
<event>
 4    1  0.4521369E-004  0.6500000E+04  0.7818608E-02  0.7223770E-01
         52   -1    0    0    0    0  0.00000000000E+00  0.00000000000E+00  0.64930732323E+04  0.65000000000E+04  0.30000000000E+03 0. -1.
        -52   -1    0    0    0    0 -0.00000000000E+00 -0.00000000000E+00 -0.64930732323E+04  0.65000000000E+04  0.30000000000E+03 0.  1.
     100001    1    1    2    0    0  0.20333378252E+04  0.50493485859E+04 -0.35492204633E+04  0.65000000000E+04  0.15050000000E+03 0.  1.
     100001    1    1    2    0    0 -0.20333378252E+04 -0.50493485859E+04  0.35492204633E+04  0.65000000000E+04  0.15050000000E+03 0. -1.
</event>
<event>
 4    1  0.4521369E-004  0.6500000E+04  0.7818608E-02  0.7223770E-01
         52   -1    0    0    0    0  0.00000000000E+00  0.00000000000E+00  0.64930732323E+04  0.65000000000E+04  0.30000000000E+03 0. -1.
        -52   -1    0    0    0    0 -0.00000000000E+00 -0.00000000000E+00 -0.64930732323E+04  0.65000000000E+04  0.30000000000E+03 0.  1.
     100001    1    1    2    0    0  0.10549022198E+04 -0.19568256220E+03 -0.64090747688E+04  0.65000000000E+04  0.15050000000E+03 0.  1.
     100001    1    1    2    0    0 -0.10549022198E+04  0.19568256220E+03  0.64090747688E+04  0.65000000000E+04  0.15050000000E+03 0. -1.
</event>
<event>
 4    1  0.4521369E-004  0.6500000E+04  0.7818608E-02  0.7223770E-01
         52   -1    0    0    0    0  0.00000000000E+00  0.00000000000E+00  0.64930732323E+04  0.65000000000E+04  0.30000000000E+03 0. -1.
        -52   -1    0    0    0    0 -0.00000000000E+00 -0.00000000000E+00 -0.64930732323E+04  0.65000000000E+04  0.30000000000E+03 0.  1.
     100001    1    1    2    0    0 -0.25228256958E+03 -0.28463273535E+04  0.58362765400E+04  0.65000000000E+04  0.15050000000E+03 0. -1.
     100001    1    1    2    0    0  0.25228256958E+03  0.28463273535E+04 -0.58362765400E+04  0.65000000000E+04  0.15050000000E+03 0.  1.
</event>
<event>
 4    1  0.4521369E-004  0.6500000E+04  0.7818608E-02  0.7223770E-01
         52   -1    0    0    0    0  0.00000000000E+00  0.00000000000E+00  0.64930732323E+04  0.65000000000E+04  0.30000000000E+03 0. -1.
        -52   -1    0    0    0    0 -0.00000000000E+00 -0.00000000000E+00 -0.64930732323E+04  0.65000000000E+04  0.30000000000E+03 0. -1.
     100001    1    1    2    0    0  0.21594475242E+04  0.44926901269E+03 -0.61124703267E+04  0.65000000000E+04  0.15050000000E+03 0. -1.
     100001    1    1    2    0    0 -0.21594475242E+04 -0.44926901269E+03  0.61124703267E+04  0.65000000000E+04  0.15050000000E+03 0. -1.
</event>
<event>
 4    1  0.4521369E-004  0.6500000E+04  0.7818608E-02  0.7223770E-01
         52   -1    0    0    0    0  0.00000000000E+00  0.00000000000E+00  0.64930732323E+04  0.65000000000E+04  0.30000000000E+03 0. -1.
        -52   -1    0    0    0    0 -0.00000000000E+00 -0.00000000000E+00 -0.64930732323E+04  0.65000000000E+04  0.30000000000E+03 0.  1.
     100001    1    1    2    0    0  0.17197435965E+03 -0.41633062636E+03  0.64826262717E+04  0.65000000000E+04  0.15050000000E+03 0. -1.
     100001    1    1    2    0    0 -0.17197435965E+03  0.41633062636E+03 -0.64826262717E+04  0.65000000000E+04  0.15050000000E+03 0.  1.
</event>
<event>
 4    1  0.4521369E-004  0.6500000E+04  0.7818608E-02  0.7223770E-01
         52   -1    0    0    0    0  0.00000000000E+00  0.00000000000E+00  0.64930732323E+04  0.65000000000E+04  0.30000000000E+03 0.  1.
        -52   -1    0    0    0    0 -0.00000000000E+00 -0.00000000000E+00 -0.64930732323E+04  0.65000000000E+04  0.30000000000E+03 0. -1.
     100001    1    1    2    0    0  0.16121646220E+03  0.21394718473E+04  0.61338421252E+04  0.65000000000E+04  0.15050000000E+03 0.  1.
     100001    1    1    2    0    0 -0.16121646220E+03 -0.21394718473E+04 -0.61338421252E+04  0.65000000000E+04  0.15050000000E+03 0. -1.
</event>
<event>
 4    1  0.4521369E-004  0.6500000E+04  0.7818608E-02  0.7223770E-01
         52   -1    0    0    0    0  0.00000000000E+00  0.00000000000E+00  0.64930732323E+04  0.65000000000E+04  0.30000000000E+03 0.  1.
        -52   -1    0    0    0    0 -0.00000000000E+00 -0.00000000000E+00 -0.64930732323E+04  0.65000000000E+04  0.30000000000E+03 0. -1.
     100001    1    1    2    0    0  0.20187231047E+03 -0.54678890647E+03  0.64720645247E+04  0.65000000000E+04  0.15050000000E+03 0.  1.
     100001    1    1    2    0    0 -0.20187231047E+03  0.54678890647E+03 -0.64720645247E+04  0.65000000000E+04  0.15050000000E+03 0. -1.
</event>
<event>
 4    1  0.4521369E-004  0.6500000E+04  0.7818608E-02  0.7223770E-01
         52   -1    0    0    0    0  0.00000000000E+00  0.00000000000E+00  0.64930732323E+04  0.65000000000E+04  0.30000000000E+03 0. -1.
        -52   -1    0    0    0    0 -0.00000000000E+00 -0.00000000000E+00 -0.64930732323E+04  0.65000000000E+04  0.30000000000E+03 0.  1.
     100001    1    1    2    0    0 -0.33933089737E+03 -0.17124967933E+03 -0.64871317113E+04  0.65000000000E+04  0.15050000000E+03 0.  1.
     100001    1    1    2    0    0  0.33933089737E+03  0.17124967933E+03  0.64871317113E+04  0.65000000000E+04  0.15050000000E+03 0. -1.
</event>
<event>
 4    1  0.4521369E-004  0.6500000E+04  0.7818608E-02  0.7223770E-01
         52   -1    0    0    0    0  0.00000000000E+00  0.00000000000E+00  0.64930732323E+04  0.65000000000E+04  0.30000000000E+03 0.  1.
        -52   -1    0    0    0    0 -0.00000000000E+00 -0.00000000000E+00 -0.64930732323E+04  0.65000000000E+04  0.30000000000E+03 0. -1.
     100001    1    1    2    0    0  0.39229248846E+03  0.24918451917E+03 -0.64816173467E+04  0.65000000000E+04  0.15050000000E+03 0. -1.
     100001    1    1    2    0    0 -0.39229248846E+03 -0.24918451917E+03  0.64816173467E+04  0.65000000000E+04  0.15050000000E+03 0.  1.
</event>
<event>
 4    1  0.4521369E-004  0.6500000E+04  0.7818608E-02  0.7223770E-01
         52   -1    0    0    0    0  0.00000000000E+00  0.00000000000E+00  0.64930732323E+04  0.65000000000E+04  0.30000000000E+03 0.  1.
        -52   -1    0    0    0    0 -0.00000000000E+00 -0.00000000000E+00 -0.64930732323E+04  0.65000000000E+04  0.30000000000E+03 0. -1.
     100001    1    1    2    0    0  0.49501624400E+03 -0.26854219112E+03  0.64738082888E+04  0.65000000000E+04  0.15050000000E+03 0.  1.
     100001    1    1    2    0    0 -0.49501624400E+03  0.26854219112E+03 -0.64738082888E+04  0.65000000000E+04  0.15050000000E+03 0. -1.
</event>
<event>
 4    1  0.4521369E-004  0.6500000E+04  0.7818608E-02  0.7223770E-01
         52   -1    0    0    0    0  0.00000000000E+00  0.00000000000E+00  0.64930732323E+04  0.65000000000E+04  0.30000000000E+03 0.  1.
        -52   -1    0    0    0    0 -0.00000000000E+00 -0.00000000000E+00 -0.64930732323E+04  0.65000000000E+04  0.30000000000E+03 0. -1.
     100001    1    1    2    0    0 -0.11946350841E+04 -0.10308815047E+02 -0.63874948528E+04  0.65000000000E+04  0.15050000000E+03 0. -1.
     100001    1    1    2    0    0  0.11946350841E+04  0.10308815047E+02  0.63874948528E+04  0.65000000000E+04  0.15050000000E+03 0.  1.
</event>
<event>
 4    1  0.4521369E-004  0.6500000E+04  0.7818608E-02  0.7223770E-01
         52   -1    0    0    0    0  0.00000000000E+00  0.00000000000E+00  0.64930732323E+04  0.65000000000E+04  0.30000000000E+03 0.  1.
        -52   -1    0    0    0    0 -0.00000000000E+00 -0.00000000000E+00 -0.64930732323E+04  0.65000000000E+04  0.30000000000E+03 0. -1.
     100001    1    1    2    0    0  0.18904333498E+04  0.91749120187E+03 -0.61491317594E+04  0.65000000000E+04  0.15050000000E+03 0. -1.
     100001    1    1    2    0    0 -0.18904333498E+04 -0.91749120187E+03  0.61491317594E+04  0.65000000000E+04  0.15050000000E+03 0.  1.
</event>
<event>
 4    1  0.4521369E-004  0.6500000E+04  0.7818608E-02  0.7223770E-01
         52   -1    0    0    0    0  0.00000000000E+00  0.00000000000E+00  0.64930732323E+04  0.65000000000E+04  0.30000000000E+03 0.  1.
        -52   -1    0    0    0    0 -0.00000000000E+00 -0.00000000000E+00 -0.64930732323E+04  0.65000000000E+04  0.30000000000E+03 0. -1.
     100001    1    1    2    0    0 -0.50352156699E+03 -0.58415324445E+03 -0.64523314212E+04  0.65000000000E+04  0.15050000000E+03 0. -1.
     100001    1    1    2    0    0  0.50352156699E+03  0.58415324445E+03  0.64523314212E+04  0.65000000000E+04  0.15050000000E+03 0.  1.
</event>
<event>
 4    1  0.4521369E-004  0.6500000E+04  0.7818608E-02  0.7223770E-01
         52   -1    0    0    0    0  0.00000000000E+00  0.00000000000E+00  0.64930732323E+04  0.65000000000E+04  0.30000000000E+03 0. -1.
        -52   -1    0    0    0    0 -0.00000000000E+00 -0.00000000000E+00 -0.64930732323E+04  0.65000000000E+04  0.30000000000E+03 0.  1.
     100001    1    1    2    0    0 -0.62951243886E+04 -0.28937281394E+03  0.15858821068E+04  0.65000000000E+04  0.15050000000E+03 0. -1.
     100001    1    1    2    0    0  0.62951243886E+04  0.28937281394E+03 -0.15858821068E+04  0.65000000000E+04  0.15050000000E+03 0.  1.
</event>
<event>
 4    1  0.4521369E-004  0.6500000E+04  0.7818608E-02  0.7223770E-01
         52   -1    0    0    0    0  0.00000000000E+00  0.00000000000E+00  0.64930732323E+04  0.65000000000E+04  0.30000000000E+03 0. -1.
        -52   -1    0    0    0    0 -0.00000000000E+00 -0.00000000000E+00 -0.64930732323E+04  0.65000000000E+04  0.30000000000E+03 0.  1.
     100001    1    1    2    0    0  0.45855558424E+04  0.28874728873E+04  0.35864366287E+04  0.65000000000E+04  0.15050000000E+03 0. -1.
     100001    1    1    2    0    0 -0.45855558424E+04 -0.28874728873E+04 -0.35864366287E+04  0.65000000000E+04  0.15050000000E+03 0.  1.
</event>
<event>
 4    1  0.4521369E-004  0.6500000E+04  0.7818608E-02  0.7223770E-01
         52   -1    0    0    0    0  0.00000000000E+00  0.00000000000E+00  0.64930732323E+04  0.65000000000E+04  0.30000000000E+03 0. -1.
        -52   -1    0    0    0    0 -0.00000000000E+00 -0.00000000000E+00 -0.64930732323E+04  0.65000000000E+04  0.30000000000E+03 0.  1.
     100001    1    1    2    0    0  0.47008293791E+04 -0.42018333016E+04 -0.15729430389E+04  0.65000000000E+04  0.15050000000E+03 0.  1.
     100001    1    1    2    0    0 -0.47008293791E+04  0.42018333016E+04  0.15729430389E+04  0.65000000000E+04  0.15050000000E+03 0. -1.
</event>
<event>
 4    1  0.4521369E-004  0.6500000E+04  0.7818608E-02  0.7223770E-01
         52   -1    0    0    0    0  0.00000000000E+00  0.00000000000E+00  0.64930732323E+04  0.65000000000E+04  0.30000000000E+03 0. -1.
        -52   -1    0    0    0    0 -0.00000000000E+00 -0.00000000000E+00 -0.64930732323E+04  0.65000000000E+04  0.30000000000E+03 0. -1.
     100001    1    1    2    0    0 -0.40276155895E+03  0.13202241647E+03  0.64844200171E+04  0.65000000000E+04  0.15050000000E+03 0. -1.
     100001    1    1    2    0    0  0.40276155895E+03 -0.13202241647E+03 -0.64844200171E+04  0.65000000000E+04  0.15050000000E+03 0. -1.
</event>
<event>
 4    1  0.4521369E-004  0.6500000E+04  0.7818608E-02  0.7223770E-01
         52   -1    0    0    0    0  0.00000000000E+00  0.00000000000E+00  0.64930732323E+04  0.65000000000E+04  0.30000000000E+03 0. -1.
        -52   -1    0    0    0    0 -0.00000000000E+00 -0.00000000000E+00 -0.64930732323E+04  0.65000000000E+04  0.30000000000E+03 0. -1.
     100001    1    1    2    0    0 -0.26900171425E+03  0.15099844645E+03 -0.64909311579E+04  0.65000000000E+04  0.15050000000E+03 0. -1.
     100001    1    1    2    0    0  0.26900171425E+03 -0.15099844645E+03  0.64909311579E+04  0.65000000000E+04  0.15050000000E+03 0. -1.
</event>
<event>
 4    1  0.4521369E-004  0.6500000E+04  0.7818608E-02  0.7223770E-01
         52   -1    0    0    0    0  0.00000000000E+00  0.00000000000E+00  0.64930732323E+04  0.65000000000E+04  0.30000000000E+03 0. -1.
        -52   -1    0    0    0    0 -0.00000000000E+00 -0.00000000000E+00 -0.64930732323E+04  0.65000000000E+04  0.30000000000E+03 0.  1.
     100001    1    1    2    0    0 -0.20698687780E+04 -0.61220242121E+03 -0.61292904310E+04  0.65000000000E+04  0.15050000000E+03 0.  1.
     100001    1    1    2    0    0  0.20698687780E+04  0.61220242121E+03  0.61292904310E+04  0.65000000000E+04  0.15050000000E+03 0. -1.
</event>
<event>
 4    1  0.4521369E-004  0.6500000E+04  0.7818608E-02  0.7223770E-01
         52   -1    0    0    0    0  0.00000000000E+00  0.00000000000E+00  0.64930732323E+04  0.65000000000E+04  0.30000000000E+03 0.  1.
        -52   -1    0    0    0    0 -0.00000000000E+00 -0.00000000000E+00 -0.64930732323E+04  0.65000000000E+04  0.30000000000E+03 0.  1.
     100001    1    1    2    0    0  0.22091838233E+03  0.18686191587E+03 -0.64918123388E+04  0.65000000000E+04  0.15050000000E+03 0.  1.
     100001    1    1    2    0    0 -0.22091838233E+03 -0.18686191587E+03  0.64918123388E+04  0.65000000000E+04  0.15050000000E+03 0.  1.
</event>
<event>
 4    1  0.4521369E-004  0.6500000E+04  0.7818608E-02  0.7223770E-01
         52   -1    0    0    0    0  0.00000000000E+00  0.00000000000E+00  0.64930732323E+04  0.65000000000E+04  0.30000000000E+03 0.  1.
        -52   -1    0    0    0    0 -0.00000000000E+00 -0.00000000000E+00 -0.64930732323E+04  0.65000000000E+04  0.30000000000E+03 0. -1.
     100001    1    1    2    0    0  0.22390801075E+03 -0.77201975326E+02  0.64939398525E+04  0.65000000000E+04  0.15050000000E+03 0.  1.
     100001    1    1    2    0    0 -0.22390801075E+03  0.77201975326E+02 -0.64939398525E+04  0.65000000000E+04  0.15050000000E+03 0. -1.
</event>
<event>
 4    1  0.4521369E-004  0.6500000E+04  0.7818608E-02  0.7223770E-01
         52   -1    0    0    0    0  0.00000000000E+00  0.00000000000E+00  0.64930732323E+04  0.65000000000E+04  0.30000000000E+03 0. -1.
        -52   -1    0    0    0    0 -0.00000000000E+00 -0.00000000000E+00 -0.64930732323E+04  0.65000000000E+04  0.30000000000E+03 0.  1.
     100001    1    1    2    0    0 -0.33368416056E+04 -0.22913476265E+04 -0.50835581932E+04  0.65000000000E+04  0.15050000000E+03 0.  1.
     100001    1    1    2    0    0  0.33368416056E+04  0.22913476265E+04  0.50835581932E+04  0.65000000000E+04  0.15050000000E+03 0. -1.
</event>
<event>
 4    1  0.4521369E-004  0.6500000E+04  0.7818608E-02  0.7223770E-01
         52   -1    0    0    0    0  0.00000000000E+00  0.00000000000E+00  0.64930732323E+04  0.65000000000E+04  0.30000000000E+03 0. -1.
        -52   -1    0    0    0    0 -0.00000000000E+00 -0.00000000000E+00 -0.64930732323E+04  0.65000000000E+04  0.30000000000E+03 0.  1.
     100001    1    1    2    0    0  0.48647247323E+04 -0.60691579926E+03 -0.42653787922E+04  0.65000000000E+04  0.15050000000E+03 0.  1.
     100001    1    1    2    0    0 -0.48647247323E+04  0.60691579926E+03  0.42653787922E+04  0.65000000000E+04  0.15050000000E+03 0. -1.
</event>
<event>
 4    1  0.4521369E-004  0.6500000E+04  0.7818608E-02  0.7223770E-01
         52   -1    0    0    0    0  0.00000000000E+00  0.00000000000E+00  0.64930732323E+04  0.65000000000E+04  0.30000000000E+03 0. -1.
        -52   -1    0    0    0    0 -0.00000000000E+00 -0.00000000000E+00 -0.64930732323E+04  0.65000000000E+04  0.30000000000E+03 0.  1.
     100001    1    1    2    0    0 -0.80752488873E+03 -0.42791447047E+03 -0.64336725523E+04  0.65000000000E+04  0.15050000000E+03 0.  1.
     100001    1    1    2    0    0  0.80752488873E+03  0.42791447047E+03  0.64336725523E+04  0.65000000000E+04  0.15050000000E+03 0. -1.
</event>
<event>
 4    1  0.4521369E-004  0.6500000E+04  0.7818608E-02  0.7223770E-01
         52   -1    0    0    0    0  0.00000000000E+00  0.00000000000E+00  0.64930732323E+04  0.65000000000E+04  0.30000000000E+03 0. -1.
        -52   -1    0    0    0    0 -0.00000000000E+00 -0.00000000000E+00 -0.64930732323E+04  0.65000000000E+04  0.30000000000E+03 0.  1.
     100001    1    1    2    0    0 -0.48514456603E+04 -0.10552237818E+04 -0.41925323523E+04  0.65000000000E+04  0.15050000000E+03 0.  1.
     100001    1    1    2    0    0  0.48514456603E+04  0.10552237818E+04  0.41925323523E+04  0.65000000000E+04  0.15050000000E+03 0. -1.
</event>
<event>
 4    1  0.4521369E-004  0.6500000E+04  0.7818608E-02  0.7223770E-01
         52   -1    0    0    0    0  0.00000000000E+00  0.00000000000E+00  0.64930732323E+04  0.65000000000E+04  0.30000000000E+03 0.  1.
        -52   -1    0    0    0    0 -0.00000000000E+00 -0.00000000000E+00 -0.64930732323E+04  0.65000000000E+04  0.30000000000E+03 0. -1.
     100001    1    1    2    0    0 -0.86097859765E+03  0.31869894766E+04  0.55972460800E+04  0.65000000000E+04  0.15050000000E+03 0.  1.
     100001    1    1    2    0    0  0.86097859765E+03 -0.31869894766E+04 -0.55972460800E+04  0.65000000000E+04  0.15050000000E+03 0. -1.
</event>
<event>
 4    1  0.4521369E-004  0.6500000E+04  0.7818608E-02  0.7223770E-01
         52   -1    0    0    0    0  0.00000000000E+00  0.00000000000E+00  0.64930732323E+04  0.65000000000E+04  0.30000000000E+03 0. -1.
        -52   -1    0    0    0    0 -0.00000000000E+00 -0.00000000000E+00 -0.64930732323E+04  0.65000000000E+04  0.30000000000E+03 0.  1.
     100001    1    1    2    0    0 -0.89091872142E+03  0.12994767599E+04  0.63043614849E+04  0.65000000000E+04  0.15050000000E+03 0. -1.
     100001    1    1    2    0    0  0.89091872142E+03 -0.12994767599E+04 -0.63043614849E+04  0.65000000000E+04  0.15050000000E+03 0.  1.
</event>
<event>
 4    1  0.4521369E-004  0.6500000E+04  0.7818608E-02  0.7223770E-01
         52   -1    0    0    0    0  0.00000000000E+00  0.00000000000E+00  0.64930732323E+04  0.65000000000E+04  0.30000000000E+03 0. -1.
        -52   -1    0    0    0    0 -0.00000000000E+00 -0.00000000000E+00 -0.64930732323E+04  0.65000000000E+04  0.30000000000E+03 0.  1.
     100001    1    1    2    0    0 -0.55658330616E+04  0.44126906435E+03 -0.33247757359E+04  0.65000000000E+04  0.15050000000E+03 0.  1.
     100001    1    1    2    0    0  0.55658330616E+04 -0.44126906435E+03  0.33247757359E+04  0.65000000000E+04  0.15050000000E+03 0. -1.
</event>
<event>
 4    1  0.4521369E-004  0.6500000E+04  0.7818608E-02  0.7223770E-01
         52   -1    0    0    0    0  0.00000000000E+00  0.00000000000E+00  0.64930732323E+04  0.65000000000E+04  0.30000000000E+03 0.  1.
        -52   -1    0    0    0    0 -0.00000000000E+00 -0.00000000000E+00 -0.64930732323E+04  0.65000000000E+04  0.30000000000E+03 0.  1.
     100001    1    1    2    0    0 -0.50056532601E+03 -0.31629041012E+03  0.64712243417E+04  0.65000000000E+04  0.15050000000E+03 0.  1.
     100001    1    1    2    0    0  0.50056532601E+03  0.31629041012E+03 -0.64712243417E+04  0.65000000000E+04  0.15050000000E+03 0.  1.
</event>
<event>
 4    1  0.4521369E-004  0.6500000E+04  0.7818608E-02  0.7223770E-01
         52   -1    0    0    0    0  0.00000000000E+00  0.00000000000E+00  0.64930732323E+04  0.65000000000E+04  0.30000000000E+03 0.  1.
        -52   -1    0    0    0    0 -0.00000000000E+00 -0.00000000000E+00 -0.64930732323E+04  0.65000000000E+04  0.30000000000E+03 0. -1.
     100001    1    1    2    0    0 -0.31025358210E+04 -0.87716160759E+03 -0.56420039652E+04  0.65000000000E+04  0.15050000000E+03 0. -1.
     100001    1    1    2    0    0  0.31025358210E+04  0.87716160759E+03  0.56420039652E+04  0.65000000000E+04  0.15050000000E+03 0.  1.
</event>
<event>
 4    1  0.4521369E-004  0.6500000E+04  0.7818608E-02  0.7223770E-01
         52   -1    0    0    0    0  0.00000000000E+00  0.00000000000E+00  0.64930732323E+04  0.65000000000E+04  0.30000000000E+03 0.  1.
        -52   -1    0    0    0    0 -0.00000000000E+00 -0.00000000000E+00 -0.64930732323E+04  0.65000000000E+04  0.30000000000E+03 0. -1.
     100001    1    1    2    0    0  0.22651454979E+04  0.45849714360E+04 -0.40093020034E+04  0.65000000000E+04  0.15050000000E+03 0. -1.
     100001    1    1    2    0    0 -0.22651454979E+04 -0.45849714360E+04  0.40093020034E+04  0.65000000000E+04  0.15050000000E+03 0.  1.
</event>
<event>
 4    1  0.4521369E-004  0.6500000E+04  0.7818608E-02  0.7223770E-01
         52   -1    0    0    0    0  0.00000000000E+00  0.00000000000E+00  0.64930732323E+04  0.65000000000E+04  0.30000000000E+03 0. -1.
        -52   -1    0    0    0    0 -0.00000000000E+00 -0.00000000000E+00 -0.64930732323E+04  0.65000000000E+04  0.30000000000E+03 0.  1.
     100001    1    1    2    0    0  0.86253441240E+03  0.11613553482E+04 -0.63351904385E+04  0.65000000000E+04  0.15050000000E+03 0.  1.
     100001    1    1    2    0    0 -0.86253441240E+03 -0.11613553482E+04  0.63351904385E+04  0.65000000000E+04  0.15050000000E+03 0. -1.
</event>
<event>
 4    1  0.4521369E-004  0.6500000E+04  0.7818608E-02  0.7223770E-01
         52   -1    0    0    0    0  0.00000000000E+00  0.00000000000E+00  0.64930732323E+04  0.65000000000E+04  0.30000000000E+03 0.  1.
        -52   -1    0    0    0    0 -0.00000000000E+00 -0.00000000000E+00 -0.64930732323E+04  0.65000000000E+04  0.30000000000E+03 0.  1.
     100001    1    1    2    0    0 -0.55748579359E+03 -0.14760638878E+03 -0.64726170668E+04  0.65000000000E+04  0.15050000000E+03 0.  1.
     100001    1    1    2    0    0  0.55748579359E+03  0.14760638878E+03  0.64726170668E+04  0.65000000000E+04  0.15050000000E+03 0.  1.
</event>
<event>
 4    1  0.5266071E-004  0.6500000E+04  0.7818608E-02  0.7223770E-01
         52   -1    0    0    0    0  0.00000000000E+00  0.00000000000E+00  0.64930732323E+04  0.65000000000E+04  0.30000000000E+03 0.  1.
        -52   -1    0    0    0    0 -0.00000000000E+00 -0.00000000000E+00 -0.64930732323E+04  0.65000000000E+04  0.30000000000E+03 0.  1.
     100001    1    1    2    0    0  0.92741055230E+02 -0.19263952978E+03  0.64947393218E+04  0.65000000000E+04  0.15050000000E+03 0.  1.
     100001    1    1    2    0    0 -0.92741055230E+02  0.19263952978E+03 -0.64947393218E+04  0.65000000000E+04  0.15050000000E+03 0.  1.
</event>
<event>
 4    1  0.4521369E-004  0.6500000E+04  0.7818608E-02  0.7223770E-01
         52   -1    0    0    0    0  0.00000000000E+00  0.00000000000E+00  0.64930732323E+04  0.65000000000E+04  0.30000000000E+03 0.  1.
        -52   -1    0    0    0    0 -0.00000000000E+00 -0.00000000000E+00 -0.64930732323E+04  0.65000000000E+04  0.30000000000E+03 0. -1.
     100001    1    1    2    0    0 -0.35717362086E+03 -0.10014391058E+04 -0.64106861155E+04  0.65000000000E+04  0.15050000000E+03 0. -1.
     100001    1    1    2    0    0  0.35717362086E+03  0.10014391058E+04  0.64106861155E+04  0.65000000000E+04  0.15050000000E+03 0.  1.
</event>
<event>
 4    1  0.4521369E-004  0.6500000E+04  0.7818608E-02  0.7223770E-01
         52   -1    0    0    0    0  0.00000000000E+00  0.00000000000E+00  0.64930732323E+04  0.65000000000E+04  0.30000000000E+03 0. -1.
        -52   -1    0    0    0    0 -0.00000000000E+00 -0.00000000000E+00 -0.64930732323E+04  0.65000000000E+04  0.30000000000E+03 0.  1.
     100001    1    1    2    0    0  0.49934476266E+03 -0.54236333000E+03 -0.64563028566E+04  0.65000000000E+04  0.15050000000E+03 0.  1.
     100001    1    1    2    0    0 -0.49934476266E+03  0.54236333000E+03  0.64563028566E+04  0.65000000000E+04  0.15050000000E+03 0. -1.
</event>
<event>
 4    1  0.4521369E-004  0.6500000E+04  0.7818608E-02  0.7223770E-01
         52   -1    0    0    0    0  0.00000000000E+00  0.00000000000E+00  0.64930732323E+04  0.65000000000E+04  0.30000000000E+03 0. -1.
        -52   -1    0    0    0    0 -0.00000000000E+00 -0.00000000000E+00 -0.64930732323E+04  0.65000000000E+04  0.30000000000E+03 0.  1.
     100001    1    1    2    0    0 -0.50389652132E+04 -0.19132541448E+04  0.36298261539E+04  0.65000000000E+04  0.15050000000E+03 0. -1.
     100001    1    1    2    0    0  0.50389652132E+04  0.19132541448E+04 -0.36298261539E+04  0.65000000000E+04  0.15050000000E+03 0.  1.
</event>
<event>
 4    1  0.4521369E-004  0.6500000E+04  0.7818608E-02  0.7223770E-01
         52   -1    0    0    0    0  0.00000000000E+00  0.00000000000E+00  0.64930732323E+04  0.65000000000E+04  0.30000000000E+03 0.  1.
        -52   -1    0    0    0    0 -0.00000000000E+00 -0.00000000000E+00 -0.64930732323E+04  0.65000000000E+04  0.30000000000E+03 0. -1.
     100001    1    1    2    0    0 -0.27450660113E+03  0.30043739916E+04 -0.57554958774E+04  0.65000000000E+04  0.15050000000E+03 0. -1.
     100001    1    1    2    0    0  0.27450660113E+03 -0.30043739916E+04  0.57554958774E+04  0.65000000000E+04  0.15050000000E+03 0.  1.
</event>
<event>
 4    1  0.4521369E-004  0.6500000E+04  0.7818608E-02  0.7223770E-01
         52   -1    0    0    0    0  0.00000000000E+00  0.00000000000E+00  0.64930732323E+04  0.65000000000E+04  0.30000000000E+03 0.  1.
        -52   -1    0    0    0    0 -0.00000000000E+00 -0.00000000000E+00 -0.64930732323E+04  0.65000000000E+04  0.30000000000E+03 0. -1.
     100001    1    1    2    0    0 -0.60880323307E+03  0.68459855179E+03  0.64333531845E+04  0.65000000000E+04  0.15050000000E+03 0.  1.
     100001    1    1    2    0    0  0.60880323307E+03 -0.68459855179E+03 -0.64333531845E+04  0.65000000000E+04  0.15050000000E+03 0. -1.
</event>
<event>
 4    1  0.4521369E-004  0.6500000E+04  0.7818608E-02  0.7223770E-01
         52   -1    0    0    0    0  0.00000000000E+00  0.00000000000E+00  0.64930732323E+04  0.65000000000E+04  0.30000000000E+03 0.  1.
        -52   -1    0    0    0    0 -0.00000000000E+00 -0.00000000000E+00 -0.64930732323E+04  0.65000000000E+04  0.30000000000E+03 0.  1.
     100001    1    1    2    0    0  0.14291858141E+03 -0.16507790846E+03  0.64945880018E+04  0.65000000000E+04  0.15050000000E+03 0.  1.
     100001    1    1    2    0    0 -0.14291858141E+03  0.16507790846E+03 -0.64945880018E+04  0.65000000000E+04  0.15050000000E+03 0.  1.
</event>
<event>
 4    1  0.4521369E-004  0.6500000E+04  0.7818608E-02  0.7223770E-01
         52   -1    0    0    0    0  0.00000000000E+00  0.00000000000E+00  0.64930732323E+04  0.65000000000E+04  0.30000000000E+03 0.  1.
        -52   -1    0    0    0    0 -0.00000000000E+00 -0.00000000000E+00 -0.64930732323E+04  0.65000000000E+04  0.30000000000E+03 0. -1.
     100001    1    1    2    0    0  0.82666253547E+03  0.86522925759E+03  0.63871243243E+04  0.65000000000E+04  0.15050000000E+03 0.  1.
     100001    1    1    2    0    0 -0.82666253547E+03 -0.86522925759E+03 -0.63871243243E+04  0.65000000000E+04  0.15050000000E+03 0. -1.
</event>
<event>
 4    1  0.4521369E-004  0.6500000E+04  0.7818608E-02  0.7223770E-01
         52   -1    0    0    0    0  0.00000000000E+00  0.00000000000E+00  0.64930732323E+04  0.65000000000E+04  0.30000000000E+03 0. -1.
        -52   -1    0    0    0    0 -0.00000000000E+00 -0.00000000000E+00 -0.64930732323E+04  0.65000000000E+04  0.30000000000E+03 0.  1.
     100001    1    1    2    0    0 -0.29592264775E+04 -0.20579332288E+04 -0.54069621074E+04  0.65000000000E+04  0.15050000000E+03 0.  1.
     100001    1    1    2    0    0  0.29592264775E+04  0.20579332288E+04  0.54069621074E+04  0.65000000000E+04  0.15050000000E+03 0. -1.
</event>
<event>
 4    1  0.4521369E-004  0.6500000E+04  0.7818608E-02  0.7223770E-01
         52   -1    0    0    0    0  0.00000000000E+00  0.00000000000E+00  0.64930732323E+04  0.65000000000E+04  0.30000000000E+03 0.  1.
        -52   -1    0    0    0    0 -0.00000000000E+00 -0.00000000000E+00 -0.64930732323E+04  0.65000000000E+04  0.30000000000E+03 0. -1.
     100001    1    1    2    0    0 -0.26316708290E+03  0.18223054629E+04  0.62319576087E+04  0.65000000000E+04  0.15050000000E+03 0.  1.
     100001    1    1    2    0    0  0.26316708290E+03 -0.18223054629E+04 -0.62319576087E+04  0.65000000000E+04  0.15050000000E+03 0. -1.
</event>
<event>
 4    1  0.4521369E-004  0.6500000E+04  0.7818608E-02  0.7223770E-01
         52   -1    0    0    0    0  0.00000000000E+00  0.00000000000E+00  0.64930732323E+04  0.65000000000E+04  0.30000000000E+03 0.  1.
        -52   -1    0    0    0    0 -0.00000000000E+00 -0.00000000000E+00 -0.64930732323E+04  0.65000000000E+04  0.30000000000E+03 0. -1.
     100001    1    1    2    0    0 -0.35650486650E+03  0.37650508583E+02 -0.64883616167E+04  0.65000000000E+04  0.15050000000E+03 0. -1.
     100001    1    1    2    0    0  0.35650486650E+03 -0.37650508583E+02  0.64883616167E+04  0.65000000000E+04  0.15050000000E+03 0.  1.
</event>
<event>
 4    1  0.4521369E-004  0.6500000E+04  0.7818608E-02  0.7223770E-01
         52   -1    0    0    0    0  0.00000000000E+00  0.00000000000E+00  0.64930732323E+04  0.65000000000E+04  0.30000000000E+03 0. -1.
        -52   -1    0    0    0    0 -0.00000000000E+00 -0.00000000000E+00 -0.64930732323E+04  0.65000000000E+04  0.30000000000E+03 0.  1.
     100001    1    1    2    0    0  0.25653402972E+03 -0.33741892074E+04  0.55476469998E+04  0.65000000000E+04  0.15050000000E+03 0. -1.
     100001    1    1    2    0    0 -0.25653402972E+03  0.33741892074E+04 -0.55476469998E+04  0.65000000000E+04  0.15050000000E+03 0.  1.
</event>
<event>
 4    1  0.4521369E-004  0.6500000E+04  0.7818608E-02  0.7223770E-01
         52   -1    0    0    0    0  0.00000000000E+00  0.00000000000E+00  0.64930732323E+04  0.65000000000E+04  0.30000000000E+03 0. -1.
        -52   -1    0    0    0    0 -0.00000000000E+00 -0.00000000000E+00 -0.64930732323E+04  0.65000000000E+04  0.30000000000E+03 0. -1.
     100001    1    1    2    0    0  0.17479538300E+03  0.13323774728E+02 -0.64958924561E+04  0.65000000000E+04  0.15050000000E+03 0. -1.
     100001    1    1    2    0    0 -0.17479538300E+03 -0.13323774728E+02  0.64958924561E+04  0.65000000000E+04  0.15050000000E+03 0. -1.
</event>
<event>
 4    1  0.4521369E-004  0.6500000E+04  0.7818608E-02  0.7223770E-01
         52   -1    0    0    0    0  0.00000000000E+00  0.00000000000E+00  0.64930732323E+04  0.65000000000E+04  0.30000000000E+03 0.  1.
        -52   -1    0    0    0    0 -0.00000000000E+00 -0.00000000000E+00 -0.64930732323E+04  0.65000000000E+04  0.30000000000E+03 0. -1.
     100001    1    1    2    0    0  0.14354636605E+04  0.16239418478E+00 -0.63377278107E+04  0.65000000000E+04  0.15050000000E+03 0. -1.
     100001    1    1    2    0    0 -0.14354636605E+04 -0.16239418478E+00  0.63377278107E+04  0.65000000000E+04  0.15050000000E+03 0.  1.
</event>
<event>
 4    1  0.4521369E-004  0.6500000E+04  0.7818608E-02  0.7223770E-01
         52   -1    0    0    0    0  0.00000000000E+00  0.00000000000E+00  0.64930732323E+04  0.65000000000E+04  0.30000000000E+03 0.  1.
        -52   -1    0    0    0    0 -0.00000000000E+00 -0.00000000000E+00 -0.64930732323E+04  0.65000000000E+04  0.30000000000E+03 0. -1.
     100001    1    1    2    0    0 -0.14167321645E+03 -0.12818433422E+04 -0.63689996150E+04  0.65000000000E+04  0.15050000000E+03 0. -1.
     100001    1    1    2    0    0  0.14167321645E+03  0.12818433422E+04  0.63689996150E+04  0.65000000000E+04  0.15050000000E+03 0.  1.
</event>
<event>
 4    1  0.4521369E-004  0.6500000E+04  0.7818608E-02  0.7223770E-01
         52   -1    0    0    0    0  0.00000000000E+00  0.00000000000E+00  0.64930732323E+04  0.65000000000E+04  0.30000000000E+03 0. -1.
        -52   -1    0    0    0    0 -0.00000000000E+00 -0.00000000000E+00 -0.64930732323E+04  0.65000000000E+04  0.30000000000E+03 0.  1.
     100001    1    1    2    0    0  0.14659846046E+04  0.93496249015E+03  0.62613164775E+04  0.65000000000E+04  0.15050000000E+03 0. -1.
     100001    1    1    2    0    0 -0.14659846046E+04 -0.93496249015E+03 -0.62613164775E+04  0.65000000000E+04  0.15050000000E+03 0.  1.
</event>
<event>
 4    1  0.4521369E-004  0.6500000E+04  0.7818608E-02  0.7223770E-01
         52   -1    0    0    0    0  0.00000000000E+00  0.00000000000E+00  0.64930732323E+04  0.65000000000E+04  0.30000000000E+03 0. -1.
        -52   -1    0    0    0    0 -0.00000000000E+00 -0.00000000000E+00 -0.64930732323E+04  0.65000000000E+04  0.30000000000E+03 0.  1.
     100001    1    1    2    0    0 -0.76967947157E+03 -0.41642894597E+04  0.49288575306E+04  0.65000000000E+04  0.15050000000E+03 0. -1.
     100001    1    1    2    0    0  0.76967947157E+03  0.41642894597E+04 -0.49288575306E+04  0.65000000000E+04  0.15050000000E+03 0.  1.
</event>
<event>
 4    1  0.4521369E-004  0.6500000E+04  0.7818608E-02  0.7223770E-01
         52   -1    0    0    0    0  0.00000000000E+00  0.00000000000E+00  0.64930732323E+04  0.65000000000E+04  0.30000000000E+03 0. -1.
        -52   -1    0    0    0    0 -0.00000000000E+00 -0.00000000000E+00 -0.64930732323E+04  0.65000000000E+04  0.30000000000E+03 0.  1.
     100001    1    1    2    0    0  0.92355595833E+03 -0.10495627783E+04 -0.63460863622E+04  0.65000000000E+04  0.15050000000E+03 0.  1.
     100001    1    1    2    0    0 -0.92355595833E+03  0.10495627783E+04  0.63460863622E+04  0.65000000000E+04  0.15050000000E+03 0. -1.
</event>
<event>
 4    1  0.4521369E-004  0.6500000E+04  0.7818608E-02  0.7223770E-01
         52   -1    0    0    0    0  0.00000000000E+00  0.00000000000E+00  0.64930732323E+04  0.65000000000E+04  0.30000000000E+03 0.  1.
        -52   -1    0    0    0    0 -0.00000000000E+00 -0.00000000000E+00 -0.64930732323E+04  0.65000000000E+04  0.30000000000E+03 0. -1.
     100001    1    1    2    0    0 -0.75542092001E+02  0.33875973615E+03 -0.64889818141E+04  0.65000000000E+04  0.15050000000E+03 0. -1.
     100001    1    1    2    0    0  0.75542092001E+02 -0.33875973615E+03  0.64889818141E+04  0.65000000000E+04  0.15050000000E+03 0.  1.
</event>
<event>
 4    1  0.4521369E-004  0.6500000E+04  0.7818608E-02  0.7223770E-01
         52   -1    0    0    0    0  0.00000000000E+00  0.00000000000E+00  0.64930732323E+04  0.65000000000E+04  0.30000000000E+03 0. -1.
        -52   -1    0    0    0    0 -0.00000000000E+00 -0.00000000000E+00 -0.64930732323E+04  0.65000000000E+04  0.30000000000E+03 0.  1.
     100001    1    1    2    0    0 -0.88158573392E+02  0.51732884382E+03  0.64770323979E+04  0.65000000000E+04  0.15050000000E+03 0. -1.
     100001    1    1    2    0    0  0.88158573392E+02 -0.51732884382E+03 -0.64770323979E+04  0.65000000000E+04  0.15050000000E+03 0.  1.
</event>
<event>
 4    1  0.4521369E-004  0.6500000E+04  0.7818608E-02  0.7223770E-01
         52   -1    0    0    0    0  0.00000000000E+00  0.00000000000E+00  0.64930732323E+04  0.65000000000E+04  0.30000000000E+03 0. -1.
        -52   -1    0    0    0    0 -0.00000000000E+00 -0.00000000000E+00 -0.64930732323E+04  0.65000000000E+04  0.30000000000E+03 0.  1.
     100001    1    1    2    0    0  0.23560331552E+03  0.10551687952E+03  0.64931276759E+04  0.65000000000E+04  0.15050000000E+03 0. -1.
     100001    1    1    2    0    0 -0.23560331552E+03 -0.10551687952E+03 -0.64931276759E+04  0.65000000000E+04  0.15050000000E+03 0.  1.
</event>
<event>
 4    1  0.4521369E-004  0.6500000E+04  0.7818608E-02  0.7223770E-01
         52   -1    0    0    0    0  0.00000000000E+00  0.00000000000E+00  0.64930732323E+04  0.65000000000E+04  0.30000000000E+03 0.  1.
        -52   -1    0    0    0    0 -0.00000000000E+00 -0.00000000000E+00 -0.64930732323E+04  0.65000000000E+04  0.30000000000E+03 0. -1.
     100001    1    1    2    0    0 -0.44774107047E+04 -0.24343395188E+04 -0.40316416307E+04  0.65000000000E+04  0.15050000000E+03 0. -1.
     100001    1    1    2    0    0  0.44774107047E+04  0.24343395188E+04  0.40316416307E+04  0.65000000000E+04  0.15050000000E+03 0.  1.
</event>
<event>
 4    1  0.4521369E-004  0.6500000E+04  0.7818608E-02  0.7223770E-01
         52   -1    0    0    0    0  0.00000000000E+00  0.00000000000E+00  0.64930732323E+04  0.65000000000E+04  0.30000000000E+03 0.  1.
        -52   -1    0    0    0    0 -0.00000000000E+00 -0.00000000000E+00 -0.64930732323E+04  0.65000000000E+04  0.30000000000E+03 0. -1.
     100001    1    1    2    0    0 -0.14682968622E+03 -0.11331503579E+04  0.63970118852E+04  0.65000000000E+04  0.15050000000E+03 0.  1.
     100001    1    1    2    0    0  0.14682968622E+03  0.11331503579E+04 -0.63970118852E+04  0.65000000000E+04  0.15050000000E+03 0. -1.
</event>
<event>
 4    1  0.4521369E-004  0.6500000E+04  0.7818608E-02  0.7223770E-01
         52   -1    0    0    0    0  0.00000000000E+00  0.00000000000E+00  0.64930732323E+04  0.65000000000E+04  0.30000000000E+03 0.  1.
        -52   -1    0    0    0    0 -0.00000000000E+00 -0.00000000000E+00 -0.64930732323E+04  0.65000000000E+04  0.30000000000E+03 0. -1.
     100001    1    1    2    0    0 -0.27445404888E+04 -0.43909256958E+04  0.39261455385E+04  0.65000000000E+04  0.15050000000E+03 0.  1.
     100001    1    1    2    0    0  0.27445404888E+04  0.43909256958E+04 -0.39261455385E+04  0.65000000000E+04  0.15050000000E+03 0. -1.
</event>
<event>
 4    1  0.4521369E-004  0.6500000E+04  0.7818608E-02  0.7223770E-01
         52   -1    0    0    0    0  0.00000000000E+00  0.00000000000E+00  0.64930732323E+04  0.65000000000E+04  0.30000000000E+03 0. -1.
        -52   -1    0    0    0    0 -0.00000000000E+00 -0.00000000000E+00 -0.64930732323E+04  0.65000000000E+04  0.30000000000E+03 0.  1.
     100001    1    1    2    0    0 -0.54346480196E+04  0.33312166154E+04  0.12629119187E+04  0.65000000000E+04  0.15050000000E+03 0.  1.
     100001    1    1    2    0    0  0.54346480196E+04 -0.33312166154E+04 -0.12629119187E+04  0.65000000000E+04  0.15050000000E+03 0. -1.
</event>
<event>
 4    1  0.4521369E-004  0.6500000E+04  0.7818608E-02  0.7223770E-01
         52   -1    0    0    0    0  0.00000000000E+00  0.00000000000E+00  0.64930732323E+04  0.65000000000E+04  0.30000000000E+03 0. -1.
        -52   -1    0    0    0    0 -0.00000000000E+00 -0.00000000000E+00 -0.64930732323E+04  0.65000000000E+04  0.30000000000E+03 0.  1.
     100001    1    1    2    0    0  0.32579929353E+04 -0.86604739129E+03  0.55554292093E+04  0.65000000000E+04  0.15050000000E+03 0. -1.
     100001    1    1    2    0    0 -0.32579929353E+04  0.86604739129E+03 -0.55554292093E+04  0.65000000000E+04  0.15050000000E+03 0.  1.
</event>
<event>
 4    1  0.4521369E-004  0.6500000E+04  0.7818608E-02  0.7223770E-01
         52   -1    0    0    0    0  0.00000000000E+00  0.00000000000E+00  0.64930732323E+04  0.65000000000E+04  0.30000000000E+03 0.  1.
        -52   -1    0    0    0    0 -0.00000000000E+00 -0.00000000000E+00 -0.64930732323E+04  0.65000000000E+04  0.30000000000E+03 0. -1.
     100001    1    1    2    0    0 -0.40133640030E+03  0.32157543668E+03 -0.64778752753E+04  0.65000000000E+04  0.15050000000E+03 0. -1.
     100001    1    1    2    0    0  0.40133640030E+03 -0.32157543668E+03  0.64778752753E+04  0.65000000000E+04  0.15050000000E+03 0.  1.
</event>
<event>
 4    1  0.4521369E-004  0.6500000E+04  0.7818608E-02  0.7223770E-01
         52   -1    0    0    0    0  0.00000000000E+00  0.00000000000E+00  0.64930732323E+04  0.65000000000E+04  0.30000000000E+03 0.  1.
        -52   -1    0    0    0    0 -0.00000000000E+00 -0.00000000000E+00 -0.64930732323E+04  0.65000000000E+04  0.30000000000E+03 0. -1.
     100001    1    1    2    0    0  0.17505494021E+04 -0.14315225364E+04  0.60920989625E+04  0.65000000000E+04  0.15050000000E+03 0.  1.
     100001    1    1    2    0    0 -0.17505494021E+04  0.14315225364E+04 -0.60920989625E+04  0.65000000000E+04  0.15050000000E+03 0. -1.
</event>
<event>
 4    1  0.4521369E-004  0.6500000E+04  0.7818608E-02  0.7223770E-01
         52   -1    0    0    0    0  0.00000000000E+00  0.00000000000E+00  0.64930732323E+04  0.65000000000E+04  0.30000000000E+03 0.  1.
        -52   -1    0    0    0    0 -0.00000000000E+00 -0.00000000000E+00 -0.64930732323E+04  0.65000000000E+04  0.30000000000E+03 0. -1.
     100001    1    1    2    0    0 -0.75144930580E+03  0.56041114788E+02 -0.64544196551E+04  0.65000000000E+04  0.15050000000E+03 0. -1.
     100001    1    1    2    0    0  0.75144930580E+03 -0.56041114788E+02  0.64544196551E+04  0.65000000000E+04  0.15050000000E+03 0.  1.
</event>
<event>
 4    1  0.4521369E-004  0.6500000E+04  0.7818608E-02  0.7223770E-01
         52   -1    0    0    0    0  0.00000000000E+00  0.00000000000E+00  0.64930732323E+04  0.65000000000E+04  0.30000000000E+03 0. -1.
        -52   -1    0    0    0    0 -0.00000000000E+00 -0.00000000000E+00 -0.64930732323E+04  0.65000000000E+04  0.30000000000E+03 0. -1.
     100001    1    1    2    0    0 -0.11032226117E+04 -0.13427851915E+04 -0.62615635067E+04  0.65000000000E+04  0.15050000000E+03 0. -1.
     100001    1    1    2    0    0  0.11032226117E+04  0.13427851915E+04  0.62615635067E+04  0.65000000000E+04  0.15050000000E+03 0. -1.
</event>
<event>
 4    1  0.4521369E-004  0.6500000E+04  0.7818608E-02  0.7223770E-01
         52   -1    0    0    0    0  0.00000000000E+00  0.00000000000E+00  0.64930732323E+04  0.65000000000E+04  0.30000000000E+03 0.  1.
        -52   -1    0    0    0    0 -0.00000000000E+00 -0.00000000000E+00 -0.64930732323E+04  0.65000000000E+04  0.30000000000E+03 0. -1.
     100001    1    1    2    0    0  0.10246485714E+04  0.76824265373E+03 -0.63708122151E+04  0.65000000000E+04  0.15050000000E+03 0. -1.
     100001    1    1    2    0    0 -0.10246485714E+04 -0.76824265373E+03  0.63708122151E+04  0.65000000000E+04  0.15050000000E+03 0.  1.
</event>
<event>
 4    1  0.4521369E-004  0.6500000E+04  0.7818608E-02  0.7223770E-01
         52   -1    0    0    0    0  0.00000000000E+00  0.00000000000E+00  0.64930732323E+04  0.65000000000E+04  0.30000000000E+03 0.  1.
        -52   -1    0    0    0    0 -0.00000000000E+00 -0.00000000000E+00 -0.64930732323E+04  0.65000000000E+04  0.30000000000E+03 0. -1.
     100001    1    1    2    0    0  0.17347830357E+04 -0.11026034086E+04  0.61645878445E+04  0.65000000000E+04  0.15050000000E+03 0.  1.
     100001    1    1    2    0    0 -0.17347830357E+04  0.11026034086E+04 -0.61645878445E+04  0.65000000000E+04  0.15050000000E+03 0. -1.
</event>
<event>
 4    1  0.4521369E-004  0.6500000E+04  0.7818608E-02  0.7223770E-01
         52   -1    0    0    0    0  0.00000000000E+00  0.00000000000E+00  0.64930732323E+04  0.65000000000E+04  0.30000000000E+03 0. -1.
        -52   -1    0    0    0    0 -0.00000000000E+00 -0.00000000000E+00 -0.64930732323E+04  0.65000000000E+04  0.30000000000E+03 0.  1.
     100001    1    1    2    0    0  0.50976084910E+02  0.42148212887E+03 -0.64843738328E+04  0.65000000000E+04  0.15050000000E+03 0.  1.
     100001    1    1    2    0    0 -0.50976084910E+02 -0.42148212887E+03  0.64843738328E+04  0.65000000000E+04  0.15050000000E+03 0. -1.
</event>
<event>
 4    1  0.4521369E-004  0.6500000E+04  0.7818608E-02  0.7223770E-01
         52   -1    0    0    0    0  0.00000000000E+00  0.00000000000E+00  0.64930732323E+04  0.65000000000E+04  0.30000000000E+03 0. -1.
        -52   -1    0    0    0    0 -0.00000000000E+00 -0.00000000000E+00 -0.64930732323E+04  0.65000000000E+04  0.30000000000E+03 0.  1.
     100001    1    1    2    0    0 -0.23376108700E+04  0.29049560525E+03 -0.60562808285E+04  0.65000000000E+04  0.15050000000E+03 0.  1.
     100001    1    1    2    0    0  0.23376108700E+04 -0.29049560525E+03  0.60562808285E+04  0.65000000000E+04  0.15050000000E+03 0. -1.
</event>
<event>
 4    1  0.4521369E-004  0.6500000E+04  0.7818608E-02  0.7223770E-01
         52   -1    0    0    0    0  0.00000000000E+00  0.00000000000E+00  0.64930732323E+04  0.65000000000E+04  0.30000000000E+03 0.  1.
        -52   -1    0    0    0    0 -0.00000000000E+00 -0.00000000000E+00 -0.64930732323E+04  0.65000000000E+04  0.30000000000E+03 0. -1.
     100001    1    1    2    0    0  0.47130103241E+03  0.29455003510E+03  0.64744471087E+04  0.65000000000E+04  0.15050000000E+03 0.  1.
     100001    1    1    2    0    0 -0.47130103241E+03 -0.29455003510E+03 -0.64744471087E+04  0.65000000000E+04  0.15050000000E+03 0. -1.
</event>
<event>
 4    1  0.4521369E-004  0.6500000E+04  0.7818608E-02  0.7223770E-01
         52   -1    0    0    0    0  0.00000000000E+00  0.00000000000E+00  0.64930732323E+04  0.65000000000E+04  0.30000000000E+03 0.  1.
        -52   -1    0    0    0    0 -0.00000000000E+00 -0.00000000000E+00 -0.64930732323E+04  0.65000000000E+04  0.30000000000E+03 0. -1.
     100001    1    1    2    0    0  0.11307491440E+04  0.10386575823E+04 -0.63142653215E+04  0.65000000000E+04  0.15050000000E+03 0. -1.
     100001    1    1    2    0    0 -0.11307491440E+04 -0.10386575823E+04  0.63142653215E+04  0.65000000000E+04  0.15050000000E+03 0.  1.
</event>
<event>
 4    1  0.4521369E-004  0.6500000E+04  0.7818608E-02  0.7223770E-01
         52   -1    0    0    0    0  0.00000000000E+00  0.00000000000E+00  0.64930732323E+04  0.65000000000E+04  0.30000000000E+03 0.  1.
        -52   -1    0    0    0    0 -0.00000000000E+00 -0.00000000000E+00 -0.64930732323E+04  0.65000000000E+04  0.30000000000E+03 0. -1.
     100001    1    1    2    0    0  0.96988062258E+02 -0.39847169232E+04  0.51322484457E+04  0.65000000000E+04  0.15050000000E+03 0.  1.
     100001    1    1    2    0    0 -0.96988062258E+02  0.39847169232E+04 -0.51322484457E+04  0.65000000000E+04  0.15050000000E+03 0. -1.
</event>
<event>
 4    1  0.4521369E-004  0.6500000E+04  0.7818608E-02  0.7223770E-01
         52   -1    0    0    0    0  0.00000000000E+00  0.00000000000E+00  0.64930732323E+04  0.65000000000E+04  0.30000000000E+03 0.  1.
        -52   -1    0    0    0    0 -0.00000000000E+00 -0.00000000000E+00 -0.64930732323E+04  0.65000000000E+04  0.30000000000E+03 0. -1.
     100001    1    1    2    0    0  0.22660523488E+03 -0.63091518908E+02 -0.64939987125E+04  0.65000000000E+04  0.15050000000E+03 0. -1.
     100001    1    1    2    0    0 -0.22660523488E+03  0.63091518908E+02  0.64939987125E+04  0.65000000000E+04  0.15050000000E+03 0.  1.
</event>
<event>
 4    1  0.4521369E-004  0.6500000E+04  0.7818608E-02  0.7223770E-01
         52   -1    0    0    0    0  0.00000000000E+00  0.00000000000E+00  0.64930732323E+04  0.65000000000E+04  0.30000000000E+03 0.  1.
        -52   -1    0    0    0    0 -0.00000000000E+00 -0.00000000000E+00 -0.64930732323E+04  0.65000000000E+04  0.30000000000E+03 0.  1.
     100001    1    1    2    0    0 -0.12119175539E+02  0.21284607068E+03  0.64947593817E+04  0.65000000000E+04  0.15050000000E+03 0.  1.
     100001    1    1    2    0    0  0.12119175539E+02 -0.21284607068E+03 -0.64947593817E+04  0.65000000000E+04  0.15050000000E+03 0.  1.
</event>
<event>
 4    1  0.4521369E-004  0.6500000E+04  0.7818608E-02  0.7223770E-01
         52   -1    0    0    0    0  0.00000000000E+00  0.00000000000E+00  0.64930732323E+04  0.65000000000E+04  0.30000000000E+03 0. -1.
        -52   -1    0    0    0    0 -0.00000000000E+00 -0.00000000000E+00 -0.64930732323E+04  0.65000000000E+04  0.30000000000E+03 0.  1.
     100001    1    1    2    0    0  0.26858657877E+04  0.24105974191E+04 -0.54039332716E+04  0.65000000000E+04  0.15050000000E+03 0.  1.
     100001    1    1    2    0    0 -0.26858657877E+04 -0.24105974191E+04  0.54039332716E+04  0.65000000000E+04  0.15050000000E+03 0. -1.
</event>
<event>
 4    1  0.4521369E-004  0.6500000E+04  0.7818608E-02  0.7223770E-01
         52   -1    0    0    0    0  0.00000000000E+00  0.00000000000E+00  0.64930732323E+04  0.65000000000E+04  0.30000000000E+03 0.  1.
        -52   -1    0    0    0    0 -0.00000000000E+00 -0.00000000000E+00 -0.64930732323E+04  0.65000000000E+04  0.30000000000E+03 0. -1.
     100001    1    1    2    0    0 -0.42209352448E+03  0.41054949663E+03 -0.64715250071E+04  0.65000000000E+04  0.15050000000E+03 0. -1.
     100001    1    1    2    0    0  0.42209352448E+03 -0.41054949663E+03  0.64715250071E+04  0.65000000000E+04  0.15050000000E+03 0.  1.
</event>
<event>
 4    1  0.6000099E-004  0.6500000E+04  0.7818608E-02  0.7223770E-01
         52   -1    0    0    0    0  0.00000000000E+00  0.00000000000E+00  0.64930732323E+04  0.65000000000E+04  0.30000000000E+03 0. -1.
        -52   -1    0    0    0    0 -0.00000000000E+00 -0.00000000000E+00 -0.64930732323E+04  0.65000000000E+04  0.30000000000E+03 0. -1.
     100001    1    1    2    0    0 -0.64388640113E+02 -0.12240975644E+03  0.64967853362E+04  0.65000000000E+04  0.15050000000E+03 0. -1.
     100001    1    1    2    0    0  0.64388640113E+02  0.12240975644E+03 -0.64967853362E+04  0.65000000000E+04  0.15050000000E+03 0. -1.
</event>
<event>
 4    1  0.4521369E-004  0.6500000E+04  0.7818608E-02  0.7223770E-01
         52   -1    0    0    0    0  0.00000000000E+00  0.00000000000E+00  0.64930732323E+04  0.65000000000E+04  0.30000000000E+03 0.  1.
        -52   -1    0    0    0    0 -0.00000000000E+00 -0.00000000000E+00 -0.64930732323E+04  0.65000000000E+04  0.30000000000E+03 0. -1.
     100001    1    1    2    0    0  0.58953740484E+03  0.73858141636E+02 -0.64710385854E+04  0.65000000000E+04  0.15050000000E+03 0. -1.
     100001    1    1    2    0    0 -0.58953740484E+03 -0.73858141636E+02  0.64710385854E+04  0.65000000000E+04  0.15050000000E+03 0.  1.
</event>
<event>
 4    1  0.4521369E-004  0.6500000E+04  0.7818608E-02  0.7223770E-01
         52   -1    0    0    0    0  0.00000000000E+00  0.00000000000E+00  0.64930732323E+04  0.65000000000E+04  0.30000000000E+03 0. -1.
        -52   -1    0    0    0    0 -0.00000000000E+00 -0.00000000000E+00 -0.64930732323E+04  0.65000000000E+04  0.30000000000E+03 0.  1.
     100001    1    1    2    0    0  0.70735184719E+03 -0.42711659420E+03  0.64455080893E+04  0.65000000000E+04  0.15050000000E+03 0. -1.
     100001    1    1    2    0    0 -0.70735184719E+03  0.42711659420E+03 -0.64455080893E+04  0.65000000000E+04  0.15050000000E+03 0.  1.
</event>
<event>
 4    1  0.4521369E-004  0.6500000E+04  0.7818608E-02  0.7223770E-01
         52   -1    0    0    0    0  0.00000000000E+00  0.00000000000E+00  0.64930732323E+04  0.65000000000E+04  0.30000000000E+03 0. -1.
        -52   -1    0    0    0    0 -0.00000000000E+00 -0.00000000000E+00 -0.64930732323E+04  0.65000000000E+04  0.30000000000E+03 0.  1.
     100001    1    1    2    0    0 -0.20674802274E+04 -0.25988900370E+04  0.55855747989E+04  0.65000000000E+04  0.15050000000E+03 0. -1.
     100001    1    1    2    0    0  0.20674802274E+04  0.25988900370E+04 -0.55855747989E+04  0.65000000000E+04  0.15050000000E+03 0.  1.
</event>
<event>
 4    1  0.4521369E-004  0.6500000E+04  0.7818608E-02  0.7223770E-01
         52   -1    0    0    0    0  0.00000000000E+00  0.00000000000E+00  0.64930732323E+04  0.65000000000E+04  0.30000000000E+03 0.  1.
        -52   -1    0    0    0    0 -0.00000000000E+00 -0.00000000000E+00 -0.64930732323E+04  0.65000000000E+04  0.30000000000E+03 0. -1.
     100001    1    1    2    0    0 -0.51845054847E+04  0.36601137179E+04 -0.13970755887E+04  0.65000000000E+04  0.15050000000E+03 0.  1.
     100001    1    1    2    0    0  0.51845054847E+04 -0.36601137179E+04  0.13970755887E+04  0.65000000000E+04  0.15050000000E+03 0. -1.
</event>
<event>
 4    1  0.8413885E-004  0.6500000E+04  0.7818608E-02  0.7223770E-01
         52   -1    0    0    0    0  0.00000000000E+00  0.00000000000E+00  0.64930732323E+04  0.65000000000E+04  0.30000000000E+03 0. -1.
        -52   -1    0    0    0    0 -0.00000000000E+00 -0.00000000000E+00 -0.64930732323E+04  0.65000000000E+04  0.30000000000E+03 0. -1.
     100001    1    1    2    0    0 -0.59840916753E+01 -0.54926179078E+02  0.64980225496E+04  0.65000000000E+04  0.15050000000E+03 0. -1.
     100001    1    1    2    0    0  0.59840916753E+01  0.54926179078E+02 -0.64980225496E+04  0.65000000000E+04  0.15050000000E+03 0. -1.
</event>
<event>
 4    1  0.4521369E-004  0.6500000E+04  0.7818608E-02  0.7223770E-01
         52   -1    0    0    0    0  0.00000000000E+00  0.00000000000E+00  0.64930732323E+04  0.65000000000E+04  0.30000000000E+03 0. -1.
        -52   -1    0    0    0    0 -0.00000000000E+00 -0.00000000000E+00 -0.64930732323E+04  0.65000000000E+04  0.30000000000E+03 0.  1.
     100001    1    1    2    0    0 -0.18824560925E+04 -0.34648738974E+03 -0.62099641946E+04  0.65000000000E+04  0.15050000000E+03 0.  1.
     100001    1    1    2    0    0  0.18824560925E+04  0.34648738974E+03  0.62099641946E+04  0.65000000000E+04  0.15050000000E+03 0. -1.
</event>
<event>
 4    1  0.4521369E-004  0.6500000E+04  0.7818608E-02  0.7223770E-01
         52   -1    0    0    0    0  0.00000000000E+00  0.00000000000E+00  0.64930732323E+04  0.65000000000E+04  0.30000000000E+03 0.  1.
        -52   -1    0    0    0    0 -0.00000000000E+00 -0.00000000000E+00 -0.64930732323E+04  0.65000000000E+04  0.30000000000E+03 0. -1.
     100001    1    1    2    0    0  0.84051309460E+03 -0.24247019571E+04 -0.59700676635E+04  0.65000000000E+04  0.15050000000E+03 0. -1.
     100001    1    1    2    0    0 -0.84051309460E+03  0.24247019571E+04  0.59700676635E+04  0.65000000000E+04  0.15050000000E+03 0.  1.
</event>
<event>
 4    1  0.4521369E-004  0.6500000E+04  0.7818608E-02  0.7223770E-01
         52   -1    0    0    0    0  0.00000000000E+00  0.00000000000E+00  0.64930732323E+04  0.65000000000E+04  0.30000000000E+03 0.  1.
        -52   -1    0    0    0    0 -0.00000000000E+00 -0.00000000000E+00 -0.64930732323E+04  0.65000000000E+04  0.30000000000E+03 0. -1.
     100001    1    1    2    0    0 -0.11205942998E+04 -0.36816657351E+04 -0.52361202794E+04  0.65000000000E+04  0.15050000000E+03 0. -1.
     100001    1    1    2    0    0  0.11205942998E+04  0.36816657351E+04  0.52361202794E+04  0.65000000000E+04  0.15050000000E+03 0.  1.
</event>
<event>
 4    1  0.4521369E-004  0.6500000E+04  0.7818608E-02  0.7223770E-01
         52   -1    0    0    0    0  0.00000000000E+00  0.00000000000E+00  0.64930732323E+04  0.65000000000E+04  0.30000000000E+03 0.  1.
        -52   -1    0    0    0    0 -0.00000000000E+00 -0.00000000000E+00 -0.64930732323E+04  0.65000000000E+04  0.30000000000E+03 0. -1.
     100001    1    1    2    0    0  0.13512002702E+04 -0.73519180530E+02 -0.63558006978E+04  0.65000000000E+04  0.15050000000E+03 0. -1.
     100001    1    1    2    0    0 -0.13512002702E+04  0.73519180530E+02  0.63558006978E+04  0.65000000000E+04  0.15050000000E+03 0.  1.
</event>
<event>
 4    1  0.4521369E-004  0.6500000E+04  0.7818608E-02  0.7223770E-01
         52   -1    0    0    0    0  0.00000000000E+00  0.00000000000E+00  0.64930732323E+04  0.65000000000E+04  0.30000000000E+03 0.  1.
        -52   -1    0    0    0    0 -0.00000000000E+00 -0.00000000000E+00 -0.64930732323E+04  0.65000000000E+04  0.30000000000E+03 0. -1.
     100001    1    1    2    0    0  0.41266372165E+04 -0.27592707593E+04 -0.41934043343E+04  0.65000000000E+04  0.15050000000E+03 0. -1.
     100001    1    1    2    0    0 -0.41266372165E+04  0.27592707593E+04  0.41934043343E+04  0.65000000000E+04  0.15050000000E+03 0.  1.
</event>
<event>
 4    1  0.4521369E-004  0.6500000E+04  0.7818608E-02  0.7223770E-01
         52   -1    0    0    0    0  0.00000000000E+00  0.00000000000E+00  0.64930732323E+04  0.65000000000E+04  0.30000000000E+03 0. -1.
        -52   -1    0    0    0    0 -0.00000000000E+00 -0.00000000000E+00 -0.64930732323E+04  0.65000000000E+04  0.30000000000E+03 0.  1.
     100001    1    1    2    0    0  0.95577712319E+03 -0.27095694292E+04 -0.58285567124E+04  0.65000000000E+04  0.15050000000E+03 0.  1.
     100001    1    1    2    0    0 -0.95577712319E+03  0.27095694292E+04  0.58285567124E+04  0.65000000000E+04  0.15050000000E+03 0. -1.
</event>
<event>
 4    1  0.4521369E-004  0.6500000E+04  0.7818608E-02  0.7223770E-01
         52   -1    0    0    0    0  0.00000000000E+00  0.00000000000E+00  0.64930732323E+04  0.65000000000E+04  0.30000000000E+03 0. -1.
        -52   -1    0    0    0    0 -0.00000000000E+00 -0.00000000000E+00 -0.64930732323E+04  0.65000000000E+04  0.30000000000E+03 0.  1.
     100001    1    1    2    0    0 -0.53113783293E+04  0.76713279457E+03  0.36644395572E+04  0.65000000000E+04  0.15050000000E+03 0. -1.
     100001    1    1    2    0    0  0.53113783293E+04 -0.76713279457E+03 -0.36644395572E+04  0.65000000000E+04  0.15050000000E+03 0.  1.
</event>
<event>
 4    1  0.4521369E-004  0.6500000E+04  0.7818608E-02  0.7223770E-01
         52   -1    0    0    0    0  0.00000000000E+00  0.00000000000E+00  0.64930732323E+04  0.65000000000E+04  0.30000000000E+03 0.  1.
        -52   -1    0    0    0    0 -0.00000000000E+00 -0.00000000000E+00 -0.64930732323E+04  0.65000000000E+04  0.30000000000E+03 0.  1.
     100001    1    1    2    0    0  0.90043246269E+03  0.16010907164E+04 -0.62332238567E+04  0.65000000000E+04  0.15050000000E+03 0.  1.
     100001    1    1    2    0    0 -0.90043246269E+03 -0.16010907164E+04  0.62332238567E+04  0.65000000000E+04  0.15050000000E+03 0.  1.
</event>
<event>
 4    1  0.4521369E-004  0.6500000E+04  0.7818608E-02  0.7223770E-01
         52   -1    0    0    0    0  0.00000000000E+00  0.00000000000E+00  0.64930732323E+04  0.65000000000E+04  0.30000000000E+03 0.  1.
        -52   -1    0    0    0    0 -0.00000000000E+00 -0.00000000000E+00 -0.64930732323E+04  0.65000000000E+04  0.30000000000E+03 0. -1.
     100001    1    1    2    0    0  0.66643879523E+03  0.43812408872E+03  0.64491283415E+04  0.65000000000E+04  0.15050000000E+03 0.  1.
     100001    1    1    2    0    0 -0.66643879523E+03 -0.43812408872E+03 -0.64491283415E+04  0.65000000000E+04  0.15050000000E+03 0. -1.
</event>
<event>
 4    1  0.4521369E-004  0.6500000E+04  0.7818608E-02  0.7223770E-01
         52   -1    0    0    0    0  0.00000000000E+00  0.00000000000E+00  0.64930732323E+04  0.65000000000E+04  0.30000000000E+03 0.  1.
        -52   -1    0    0    0    0 -0.00000000000E+00 -0.00000000000E+00 -0.64930732323E+04  0.65000000000E+04  0.30000000000E+03 0. -1.
     100001    1    1    2    0    0 -0.52589457729E+03 -0.66481257665E+03  0.64427330289E+04  0.65000000000E+04  0.15050000000E+03 0.  1.
     100001    1    1    2    0    0  0.52589457729E+03  0.66481257665E+03 -0.64427330289E+04  0.65000000000E+04  0.15050000000E+03 0. -1.
</event>
<event>
 4    1  0.4521369E-004  0.6500000E+04  0.7818608E-02  0.7223770E-01
         52   -1    0    0    0    0  0.00000000000E+00  0.00000000000E+00  0.64930732323E+04  0.65000000000E+04  0.30000000000E+03 0. -1.
        -52   -1    0    0    0    0 -0.00000000000E+00 -0.00000000000E+00 -0.64930732323E+04  0.65000000000E+04  0.30000000000E+03 0.  1.
     100001    1    1    2    0    0  0.40989019036E+03  0.50248111010E+03  0.64658218747E+04  0.65000000000E+04  0.15050000000E+03 0. -1.
     100001    1    1    2    0    0 -0.40989019036E+03 -0.50248111010E+03 -0.64658218747E+04  0.65000000000E+04  0.15050000000E+03 0.  1.
</event>
<event>
 4    1  0.4521369E-004  0.6500000E+04  0.7818608E-02  0.7223770E-01
         52   -1    0    0    0    0  0.00000000000E+00  0.00000000000E+00  0.64930732323E+04  0.65000000000E+04  0.30000000000E+03 0.  1.
        -52   -1    0    0    0    0 -0.00000000000E+00 -0.00000000000E+00 -0.64930732323E+04  0.65000000000E+04  0.30000000000E+03 0. -1.
     100001    1    1    2    0    0  0.13856393144E+04  0.42065406023E+03  0.63348562416E+04  0.65000000000E+04  0.15050000000E+03 0.  1.
     100001    1    1    2    0    0 -0.13856393144E+04 -0.42065406023E+03 -0.63348562416E+04  0.65000000000E+04  0.15050000000E+03 0. -1.
</event>
<event>
 4    1  0.4521369E-004  0.6500000E+04  0.7818608E-02  0.7223770E-01
         52   -1    0    0    0    0  0.00000000000E+00  0.00000000000E+00  0.64930732323E+04  0.65000000000E+04  0.30000000000E+03 0.  1.
        -52   -1    0    0    0    0 -0.00000000000E+00 -0.00000000000E+00 -0.64930732323E+04  0.65000000000E+04  0.30000000000E+03 0.  1.
     100001    1    1    2    0    0 -0.13847931520E+02 -0.86033220327E+02  0.64976731427E+04  0.65000000000E+04  0.15050000000E+03 0.  1.
     100001    1    1    2    0    0  0.13847931520E+02  0.86033220327E+02 -0.64976731427E+04  0.65000000000E+04  0.15050000000E+03 0.  1.
</event>
<event>
 4    1  0.4521369E-004  0.6500000E+04  0.7818608E-02  0.7223770E-01
         52   -1    0    0    0    0  0.00000000000E+00  0.00000000000E+00  0.64930732323E+04  0.65000000000E+04  0.30000000000E+03 0. -1.
        -52   -1    0    0    0    0 -0.00000000000E+00 -0.00000000000E+00 -0.64930732323E+04  0.65000000000E+04  0.30000000000E+03 0.  1.
     100001    1    1    2    0    0  0.18702038004E+04  0.31665354617E+04 -0.53574938791E+04  0.65000000000E+04  0.15050000000E+03 0.  1.
     100001    1    1    2    0    0 -0.18702038004E+04 -0.31665354617E+04  0.53574938791E+04  0.65000000000E+04  0.15050000000E+03 0. -1.
</event>
<event>
 4    1  0.6801196E-004  0.6500000E+04  0.7818608E-02  0.7223770E-01
         52   -1    0    0    0    0  0.00000000000E+00  0.00000000000E+00  0.64930732323E+04  0.65000000000E+04  0.30000000000E+03 0.  1.
        -52   -1    0    0    0    0 -0.00000000000E+00 -0.00000000000E+00 -0.64930732323E+04  0.65000000000E+04  0.30000000000E+03 0.  1.
     100001    1    1    2    0    0  0.14212889584E+03 -0.59742485879E+02 -0.64964282465E+04  0.65000000000E+04  0.15050000000E+03 0.  1.
     100001    1    1    2    0    0 -0.14212889584E+03  0.59742485879E+02  0.64964282465E+04  0.65000000000E+04  0.15050000000E+03 0.  1.
</event>
<event>
 4    1  0.4521369E-004  0.6500000E+04  0.7818608E-02  0.7223770E-01
         52   -1    0    0    0    0  0.00000000000E+00  0.00000000000E+00  0.64930732323E+04  0.65000000000E+04  0.30000000000E+03 0. -1.
        -52   -1    0    0    0    0 -0.00000000000E+00 -0.00000000000E+00 -0.64930732323E+04  0.65000000000E+04  0.30000000000E+03 0.  1.
     100001    1    1    2    0    0  0.97492250106E+03 -0.32143786173E+02  0.64246278214E+04  0.65000000000E+04  0.15050000000E+03 0. -1.
     100001    1    1    2    0    0 -0.97492250106E+03  0.32143786173E+02 -0.64246278214E+04  0.65000000000E+04  0.15050000000E+03 0.  1.
</event>
<event>
 4    1  0.4521369E-004  0.6500000E+04  0.7818608E-02  0.7223770E-01
         52   -1    0    0    0    0  0.00000000000E+00  0.00000000000E+00  0.64930732323E+04  0.65000000000E+04  0.30000000000E+03 0.  1.
        -52   -1    0    0    0    0 -0.00000000000E+00 -0.00000000000E+00 -0.64930732323E+04  0.65000000000E+04  0.30000000000E+03 0.  1.
     100001    1    1    2    0    0 -0.11235161147E+04 -0.62569843913E+03 -0.63697380443E+04  0.65000000000E+04  0.15050000000E+03 0.  1.
     100001    1    1    2    0    0  0.11235161147E+04  0.62569843913E+03  0.63697380443E+04  0.65000000000E+04  0.15050000000E+03 0.  1.
</event>
<event>
 4    1  0.4521369E-004  0.6500000E+04  0.7818608E-02  0.7223770E-01
         52   -1    0    0    0    0  0.00000000000E+00  0.00000000000E+00  0.64930732323E+04  0.65000000000E+04  0.30000000000E+03 0.  1.
        -52   -1    0    0    0    0 -0.00000000000E+00 -0.00000000000E+00 -0.64930732323E+04  0.65000000000E+04  0.30000000000E+03 0. -1.
     100001    1    1    2    0    0  0.12776274209E+04  0.45726281977E+03  0.63549924183E+04  0.65000000000E+04  0.15050000000E+03 0.  1.
     100001    1    1    2    0    0 -0.12776274209E+04 -0.45726281977E+03 -0.63549924183E+04  0.65000000000E+04  0.15050000000E+03 0. -1.
</event>
<event>
 4    1  0.4521369E-004  0.6500000E+04  0.7818608E-02  0.7223770E-01
         52   -1    0    0    0    0  0.00000000000E+00  0.00000000000E+00  0.64930732323E+04  0.65000000000E+04  0.30000000000E+03 0.  1.
        -52   -1    0    0    0    0 -0.00000000000E+00 -0.00000000000E+00 -0.64930732323E+04  0.65000000000E+04  0.30000000000E+03 0.  1.
     100001    1    1    2    0    0  0.73222659544E+03 -0.27615348122E+03  0.64509637433E+04  0.65000000000E+04  0.15050000000E+03 0.  1.
     100001    1    1    2    0    0 -0.73222659544E+03  0.27615348122E+03 -0.64509637433E+04  0.65000000000E+04  0.15050000000E+03 0.  1.
</event>
<event>
 4    1  0.4521369E-004  0.6500000E+04  0.7818608E-02  0.7223770E-01
         52   -1    0    0    0    0  0.00000000000E+00  0.00000000000E+00  0.64930732323E+04  0.65000000000E+04  0.30000000000E+03 0. -1.
        -52   -1    0    0    0    0 -0.00000000000E+00 -0.00000000000E+00 -0.64930732323E+04  0.65000000000E+04  0.30000000000E+03 0.  1.
     100001    1    1    2    0    0  0.79925651268E+03  0.32287291534E+03  0.64408300597E+04  0.65000000000E+04  0.15050000000E+03 0. -1.
     100001    1    1    2    0    0 -0.79925651268E+03 -0.32287291534E+03 -0.64408300597E+04  0.65000000000E+04  0.15050000000E+03 0.  1.
</event>
<event>
 4    1  0.4521369E-004  0.6500000E+04  0.7818608E-02  0.7223770E-01
         52   -1    0    0    0    0  0.00000000000E+00  0.00000000000E+00  0.64930732323E+04  0.65000000000E+04  0.30000000000E+03 0. -1.
        -52   -1    0    0    0    0 -0.00000000000E+00 -0.00000000000E+00 -0.64930732323E+04  0.65000000000E+04  0.30000000000E+03 0.  1.
     100001    1    1    2    0    0 -0.15048507585E+04 -0.22054834982E+04  0.59244085345E+04  0.65000000000E+04  0.15050000000E+03 0. -1.
     100001    1    1    2    0    0  0.15048507585E+04  0.22054834982E+04 -0.59244085345E+04  0.65000000000E+04  0.15050000000E+03 0.  1.
</event>
<event>
 4    1  0.4521369E-004  0.6500000E+04  0.7818608E-02  0.7223770E-01
         52   -1    0    0    0    0  0.00000000000E+00  0.00000000000E+00  0.64930732323E+04  0.65000000000E+04  0.30000000000E+03 0.  1.
        -52   -1    0    0    0    0 -0.00000000000E+00 -0.00000000000E+00 -0.64930732323E+04  0.65000000000E+04  0.30000000000E+03 0. -1.
     100001    1    1    2    0    0 -0.36943071568E+03 -0.50194580201E+04  0.41104637063E+04  0.65000000000E+04  0.15050000000E+03 0.  1.
     100001    1    1    2    0    0  0.36943071568E+03  0.50194580201E+04 -0.41104637063E+04  0.65000000000E+04  0.15050000000E+03 0. -1.
</event>
<event>
 4    1  0.4521369E-004  0.6500000E+04  0.7818608E-02  0.7223770E-01
         52   -1    0    0    0    0  0.00000000000E+00  0.00000000000E+00  0.64930732323E+04  0.65000000000E+04  0.30000000000E+03 0. -1.
        -52   -1    0    0    0    0 -0.00000000000E+00 -0.00000000000E+00 -0.64930732323E+04  0.65000000000E+04  0.30000000000E+03 0. -1.
     100001    1    1    2    0    0 -0.44239633080E+03 -0.15197724010E+03  0.64813993979E+04  0.65000000000E+04  0.15050000000E+03 0. -1.
     100001    1    1    2    0    0  0.44239633080E+03  0.15197724010E+03 -0.64813993979E+04  0.65000000000E+04  0.15050000000E+03 0. -1.
</event>
<event>
 4    1  0.4521369E-004  0.6500000E+04  0.7818608E-02  0.7223770E-01
         52   -1    0    0    0    0  0.00000000000E+00  0.00000000000E+00  0.64930732323E+04  0.65000000000E+04  0.30000000000E+03 0.  1.
        -52   -1    0    0    0    0 -0.00000000000E+00 -0.00000000000E+00 -0.64930732323E+04  0.65000000000E+04  0.30000000000E+03 0.  1.
     100001    1    1    2    0    0 -0.91160459154E+02 -0.18520091643E+03  0.64949780709E+04  0.65000000000E+04  0.15050000000E+03 0.  1.
     100001    1    1    2    0    0  0.91160459154E+02  0.18520091643E+03 -0.64949780709E+04  0.65000000000E+04  0.15050000000E+03 0.  1.
</event>
<event>
 4    1  0.4521369E-004  0.6500000E+04  0.7818608E-02  0.7223770E-01
         52   -1    0    0    0    0  0.00000000000E+00  0.00000000000E+00  0.64930732323E+04  0.65000000000E+04  0.30000000000E+03 0.  1.
        -52   -1    0    0    0    0 -0.00000000000E+00 -0.00000000000E+00 -0.64930732323E+04  0.65000000000E+04  0.30000000000E+03 0.  1.
     100001    1    1    2    0    0 -0.14593000097E+03 -0.74280616388E+03  0.64540137270E+04  0.65000000000E+04  0.15050000000E+03 0.  1.
     100001    1    1    2    0    0  0.14593000097E+03  0.74280616388E+03 -0.64540137270E+04  0.65000000000E+04  0.15050000000E+03 0.  1.
</event>
<event>
 4    1  0.4521369E-004  0.6500000E+04  0.7818608E-02  0.7223770E-01
         52   -1    0    0    0    0  0.00000000000E+00  0.00000000000E+00  0.64930732323E+04  0.65000000000E+04  0.30000000000E+03 0.  1.
        -52   -1    0    0    0    0 -0.00000000000E+00 -0.00000000000E+00 -0.64930732323E+04  0.65000000000E+04  0.30000000000E+03 0. -1.
     100001    1    1    2    0    0  0.16555284442E+04  0.17990131019E+04 -0.60208078511E+04  0.65000000000E+04  0.15050000000E+03 0. -1.
     100001    1    1    2    0    0 -0.16555284442E+04 -0.17990131019E+04  0.60208078511E+04  0.65000000000E+04  0.15050000000E+03 0.  1.
</event>
<event>
 4    1  0.4521369E-004  0.6500000E+04  0.7818608E-02  0.7223770E-01
         52   -1    0    0    0    0  0.00000000000E+00  0.00000000000E+00  0.64930732323E+04  0.65000000000E+04  0.30000000000E+03 0.  1.
        -52   -1    0    0    0    0 -0.00000000000E+00 -0.00000000000E+00 -0.64930732323E+04  0.65000000000E+04  0.30000000000E+03 0. -1.
     100001    1    1    2    0    0 -0.71251306742E+03 -0.56929291065E+04  0.30512674526E+04  0.65000000000E+04  0.15050000000E+03 0.  1.
     100001    1    1    2    0    0  0.71251306742E+03  0.56929291065E+04 -0.30512674526E+04  0.65000000000E+04  0.15050000000E+03 0. -1.
</event>
<event>
 4    1  0.4521369E-004  0.6500000E+04  0.7818608E-02  0.7223770E-01
         52   -1    0    0    0    0  0.00000000000E+00  0.00000000000E+00  0.64930732323E+04  0.65000000000E+04  0.30000000000E+03 0. -1.
        -52   -1    0    0    0    0 -0.00000000000E+00 -0.00000000000E+00 -0.64930732323E+04  0.65000000000E+04  0.30000000000E+03 0.  1.
     100001    1    1    2    0    0  0.61631922299E+03 -0.26444260599E+04  0.59037709287E+04  0.65000000000E+04  0.15050000000E+03 0. -1.
     100001    1    1    2    0    0 -0.61631922299E+03  0.26444260599E+04 -0.59037709287E+04  0.65000000000E+04  0.15050000000E+03 0.  1.
</event>
<event>
 4    1  0.4521369E-004  0.6500000E+04  0.7818608E-02  0.7223770E-01
         52   -1    0    0    0    0  0.00000000000E+00  0.00000000000E+00  0.64930732323E+04  0.65000000000E+04  0.30000000000E+03 0.  1.
        -52   -1    0    0    0    0 -0.00000000000E+00 -0.00000000000E+00 -0.64930732323E+04  0.65000000000E+04  0.30000000000E+03 0. -1.
     100001    1    1    2    0    0 -0.91674397068E+03 -0.38463153916E+03  0.64217590130E+04  0.65000000000E+04  0.15050000000E+03 0.  1.
     100001    1    1    2    0    0  0.91674397068E+03  0.38463153916E+03 -0.64217590130E+04  0.65000000000E+04  0.15050000000E+03 0. -1.
</event>
<event>
 4    1  0.4521369E-004  0.6500000E+04  0.7818608E-02  0.7223770E-01
         52   -1    0    0    0    0  0.00000000000E+00  0.00000000000E+00  0.64930732323E+04  0.65000000000E+04  0.30000000000E+03 0.  1.
        -52   -1    0    0    0    0 -0.00000000000E+00 -0.00000000000E+00 -0.64930732323E+04  0.65000000000E+04  0.30000000000E+03 0. -1.
     100001    1    1    2    0    0 -0.52635632949E+03 -0.38935588672E+03 -0.64651914711E+04  0.65000000000E+04  0.15050000000E+03 0. -1.
     100001    1    1    2    0    0  0.52635632949E+03  0.38935588672E+03  0.64651914711E+04  0.65000000000E+04  0.15050000000E+03 0.  1.
</event>
<event>
 4    1  0.4521369E-004  0.6500000E+04  0.7818608E-02  0.7223770E-01
         52   -1    0    0    0    0  0.00000000000E+00  0.00000000000E+00  0.64930732323E+04  0.65000000000E+04  0.30000000000E+03 0. -1.
        -52   -1    0    0    0    0 -0.00000000000E+00 -0.00000000000E+00 -0.64930732323E+04  0.65000000000E+04  0.30000000000E+03 0.  1.
     100001    1    1    2    0    0 -0.76175543207E+02  0.38583164769E+03  0.64863457336E+04  0.65000000000E+04  0.15050000000E+03 0. -1.
     100001    1    1    2    0    0  0.76175543207E+02 -0.38583164769E+03 -0.64863457336E+04  0.65000000000E+04  0.15050000000E+03 0.  1.
</event>
<event>
 4    1  0.4521369E-004  0.6500000E+04  0.7818608E-02  0.7223770E-01
         52   -1    0    0    0    0  0.00000000000E+00  0.00000000000E+00  0.64930732323E+04  0.65000000000E+04  0.30000000000E+03 0.  1.
        -52   -1    0    0    0    0 -0.00000000000E+00 -0.00000000000E+00 -0.64930732323E+04  0.65000000000E+04  0.30000000000E+03 0. -1.
     100001    1    1    2    0    0  0.27057389159E+03 -0.39331144720E+03  0.64806979273E+04  0.65000000000E+04  0.15050000000E+03 0.  1.
     100001    1    1    2    0    0 -0.27057389159E+03  0.39331144720E+03 -0.64806979273E+04  0.65000000000E+04  0.15050000000E+03 0. -1.
</event>
<event>
 4    1  0.4521369E-004  0.6500000E+04  0.7818608E-02  0.7223770E-01
         52   -1    0    0    0    0  0.00000000000E+00  0.00000000000E+00  0.64930732323E+04  0.65000000000E+04  0.30000000000E+03 0. -1.
        -52   -1    0    0    0    0 -0.00000000000E+00 -0.00000000000E+00 -0.64930732323E+04  0.65000000000E+04  0.30000000000E+03 0.  1.
     100001    1    1    2    0    0  0.38717842721E+03 -0.29841019443E+03  0.64798452120E+04  0.65000000000E+04  0.15050000000E+03 0. -1.
     100001    1    1    2    0    0 -0.38717842721E+03  0.29841019443E+03 -0.64798452120E+04  0.65000000000E+04  0.15050000000E+03 0.  1.
</event>
<event>
 4    1  0.4521369E-004  0.6500000E+04  0.7818608E-02  0.7223770E-01
         52   -1    0    0    0    0  0.00000000000E+00  0.00000000000E+00  0.64930732323E+04  0.65000000000E+04  0.30000000000E+03 0. -1.
        -52   -1    0    0    0    0 -0.00000000000E+00 -0.00000000000E+00 -0.64930732323E+04  0.65000000000E+04  0.30000000000E+03 0.  1.
     100001    1    1    2    0    0  0.10322232178E+04  0.55627062537E+03  0.63915904101E+04  0.65000000000E+04  0.15050000000E+03 0. -1.
     100001    1    1    2    0    0 -0.10322232178E+04 -0.55627062537E+03 -0.63915904101E+04  0.65000000000E+04  0.15050000000E+03 0.  1.
</event>
<event>
 4    1  0.4521369E-004  0.6500000E+04  0.7818608E-02  0.7223770E-01
         52   -1    0    0    0    0  0.00000000000E+00  0.00000000000E+00  0.64930732323E+04  0.65000000000E+04  0.30000000000E+03 0.  1.
        -52   -1    0    0    0    0 -0.00000000000E+00 -0.00000000000E+00 -0.64930732323E+04  0.65000000000E+04  0.30000000000E+03 0. -1.
     100001    1    1    2    0    0  0.46613236280E+03 -0.47102929696E+03 -0.64643794576E+04  0.65000000000E+04  0.15050000000E+03 0. -1.
     100001    1    1    2    0    0 -0.46613236280E+03  0.47102929696E+03  0.64643794576E+04  0.65000000000E+04  0.15050000000E+03 0.  1.
</event>
<event>
 4    1  0.4521369E-004  0.6500000E+04  0.7818608E-02  0.7223770E-01
         52   -1    0    0    0    0  0.00000000000E+00  0.00000000000E+00  0.64930732323E+04  0.65000000000E+04  0.30000000000E+03 0.  1.
        -52   -1    0    0    0    0 -0.00000000000E+00 -0.00000000000E+00 -0.64930732323E+04  0.65000000000E+04  0.30000000000E+03 0. -1.
     100001    1    1    2    0    0  0.28290150779E+04  0.33020921353E+04 -0.48291004306E+04  0.65000000000E+04  0.15050000000E+03 0. -1.
     100001    1    1    2    0    0 -0.28290150779E+04 -0.33020921353E+04  0.48291004306E+04  0.65000000000E+04  0.15050000000E+03 0.  1.
</event>
<event>
 4    1  0.4521369E-004  0.6500000E+04  0.7818608E-02  0.7223770E-01
         52   -1    0    0    0    0  0.00000000000E+00  0.00000000000E+00  0.64930732323E+04  0.65000000000E+04  0.30000000000E+03 0.  1.
        -52   -1    0    0    0    0 -0.00000000000E+00 -0.00000000000E+00 -0.64930732323E+04  0.65000000000E+04  0.30000000000E+03 0. -1.
     100001    1    1    2    0    0 -0.88647599923E+03 -0.40211795028E+03  0.64249366695E+04  0.65000000000E+04  0.15050000000E+03 0.  1.
     100001    1    1    2    0    0  0.88647599923E+03  0.40211795028E+03 -0.64249366695E+04  0.65000000000E+04  0.15050000000E+03 0. -1.
</event>
<event>
 4    1  0.4521369E-004  0.6500000E+04  0.7818608E-02  0.7223770E-01
         52   -1    0    0    0    0  0.00000000000E+00  0.00000000000E+00  0.64930732323E+04  0.65000000000E+04  0.30000000000E+03 0. -1.
        -52   -1    0    0    0    0 -0.00000000000E+00 -0.00000000000E+00 -0.64930732323E+04  0.65000000000E+04  0.30000000000E+03 0.  1.
     100001    1    1    2    0    0  0.66320032093E+02 -0.29836442952E+03 -0.64910654033E+04  0.65000000000E+04  0.15050000000E+03 0.  1.
     100001    1    1    2    0    0 -0.66320032093E+02  0.29836442952E+03  0.64910654033E+04  0.65000000000E+04  0.15050000000E+03 0. -1.
</event>
<event>
 4    1  0.4521369E-004  0.6500000E+04  0.7818608E-02  0.7223770E-01
         52   -1    0    0    0    0  0.00000000000E+00  0.00000000000E+00  0.64930732323E+04  0.65000000000E+04  0.30000000000E+03 0. -1.
        -52   -1    0    0    0    0 -0.00000000000E+00 -0.00000000000E+00 -0.64930732323E+04  0.65000000000E+04  0.30000000000E+03 0.  1.
     100001    1    1    2    0    0 -0.16695232889E+04  0.47845069193E+04 -0.40679890950E+04  0.65000000000E+04  0.15050000000E+03 0.  1.
     100001    1    1    2    0    0  0.16695232889E+04 -0.47845069193E+04  0.40679890950E+04  0.65000000000E+04  0.15050000000E+03 0. -1.
</event>
<event>
 4    1  0.4521369E-004  0.6500000E+04  0.7818608E-02  0.7223770E-01
         52   -1    0    0    0    0  0.00000000000E+00  0.00000000000E+00  0.64930732323E+04  0.65000000000E+04  0.30000000000E+03 0. -1.
        -52   -1    0    0    0    0 -0.00000000000E+00 -0.00000000000E+00 -0.64930732323E+04  0.65000000000E+04  0.30000000000E+03 0. -1.
     100001    1    1    2    0    0  0.74540113857E+02 -0.18480185345E+02 -0.64978036292E+04  0.65000000000E+04  0.15050000000E+03 0. -1.
     100001    1    1    2    0    0 -0.74540113857E+02  0.18480185345E+02  0.64978036292E+04  0.65000000000E+04  0.15050000000E+03 0. -1.
</event>
<event>
 4    1  0.4521369E-004  0.6500000E+04  0.7818608E-02  0.7223770E-01
         52   -1    0    0    0    0  0.00000000000E+00  0.00000000000E+00  0.64930732323E+04  0.65000000000E+04  0.30000000000E+03 0. -1.
        -52   -1    0    0    0    0 -0.00000000000E+00 -0.00000000000E+00 -0.64930732323E+04  0.65000000000E+04  0.30000000000E+03 0.  1.
     100001    1    1    2    0    0 -0.17803071138E+04 -0.58293529512E+04 -0.22531090744E+04  0.65000000000E+04  0.15050000000E+03 0.  1.
     100001    1    1    2    0    0  0.17803071138E+04  0.58293529512E+04  0.22531090744E+04  0.65000000000E+04  0.15050000000E+03 0. -1.
</event>
<event>
 4    1  0.4521369E-004  0.6500000E+04  0.7818608E-02  0.7223770E-01
         52   -1    0    0    0    0  0.00000000000E+00  0.00000000000E+00  0.64930732323E+04  0.65000000000E+04  0.30000000000E+03 0. -1.
        -52   -1    0    0    0    0 -0.00000000000E+00 -0.00000000000E+00 -0.64930732323E+04  0.65000000000E+04  0.30000000000E+03 0.  1.
     100001    1    1    2    0    0 -0.32290300641E+04  0.28130712144E+04 -0.48874681521E+04  0.65000000000E+04  0.15050000000E+03 0.  1.
     100001    1    1    2    0    0  0.32290300641E+04 -0.28130712144E+04  0.48874681521E+04  0.65000000000E+04  0.15050000000E+03 0. -1.
</event>
<event>
 4    1  0.4521369E-004  0.6500000E+04  0.7818608E-02  0.7223770E-01
         52   -1    0    0    0    0  0.00000000000E+00  0.00000000000E+00  0.64930732323E+04  0.65000000000E+04  0.30000000000E+03 0. -1.
        -52   -1    0    0    0    0 -0.00000000000E+00 -0.00000000000E+00 -0.64930732323E+04  0.65000000000E+04  0.30000000000E+03 0.  1.
     100001    1    1    2    0    0  0.18658041043E+03  0.26666967603E+04 -0.59229440221E+04  0.65000000000E+04  0.15050000000E+03 0.  1.
     100001    1    1    2    0    0 -0.18658041043E+03 -0.26666967603E+04  0.59229440221E+04  0.65000000000E+04  0.15050000000E+03 0. -1.
</event>
<event>
 4    1  0.4521369E-004  0.6500000E+04  0.7818608E-02  0.7223770E-01
         52   -1    0    0    0    0  0.00000000000E+00  0.00000000000E+00  0.64930732323E+04  0.65000000000E+04  0.30000000000E+03 0.  1.
        -52   -1    0    0    0    0 -0.00000000000E+00 -0.00000000000E+00 -0.64930732323E+04  0.65000000000E+04  0.30000000000E+03 0. -1.
     100001    1    1    2    0    0 -0.96332218461E+03  0.27604228392E+03 -0.64205265186E+04  0.65000000000E+04  0.15050000000E+03 0. -1.
     100001    1    1    2    0    0  0.96332218461E+03 -0.27604228392E+03  0.64205265186E+04  0.65000000000E+04  0.15050000000E+03 0.  1.
</event>
<event>
 4    1  0.4521369E-004  0.6500000E+04  0.7818608E-02  0.7223770E-01
         52   -1    0    0    0    0  0.00000000000E+00  0.00000000000E+00  0.64930732323E+04  0.65000000000E+04  0.30000000000E+03 0. -1.
        -52   -1    0    0    0    0 -0.00000000000E+00 -0.00000000000E+00 -0.64930732323E+04  0.65000000000E+04  0.30000000000E+03 0.  1.
     100001    1    1    2    0    0 -0.87764633918E+03  0.29667294827E+03 -0.64318793377E+04  0.65000000000E+04  0.15050000000E+03 0.  1.
     100001    1    1    2    0    0  0.87764633918E+03 -0.29667294827E+03  0.64318793377E+04  0.65000000000E+04  0.15050000000E+03 0. -1.
</event>
<event>
 4    1  0.4521369E-004  0.6500000E+04  0.7818608E-02  0.7223770E-01
         52   -1    0    0    0    0  0.00000000000E+00  0.00000000000E+00  0.64930732323E+04  0.65000000000E+04  0.30000000000E+03 0. -1.
        -52   -1    0    0    0    0 -0.00000000000E+00 -0.00000000000E+00 -0.64930732323E+04  0.65000000000E+04  0.30000000000E+03 0.  1.
     100001    1    1    2    0    0  0.52170148254E+04 -0.36038972438E+04  0.14219812651E+04  0.65000000000E+04  0.15050000000E+03 0. -1.
     100001    1    1    2    0    0 -0.52170148254E+04  0.36038972438E+04 -0.14219812651E+04  0.65000000000E+04  0.15050000000E+03 0.  1.
</event>
<event>
 4    1  0.4521369E-004  0.6500000E+04  0.7818608E-02  0.7223770E-01
         52   -1    0    0    0    0  0.00000000000E+00  0.00000000000E+00  0.64930732323E+04  0.65000000000E+04  0.30000000000E+03 0.  1.
        -52   -1    0    0    0    0 -0.00000000000E+00 -0.00000000000E+00 -0.64930732323E+04  0.65000000000E+04  0.30000000000E+03 0. -1.
     100001    1    1    2    0    0 -0.20013563320E+04  0.39691549828E+04 -0.47400138507E+04  0.65000000000E+04  0.15050000000E+03 0. -1.
     100001    1    1    2    0    0  0.20013563320E+04 -0.39691549828E+04  0.47400138507E+04  0.65000000000E+04  0.15050000000E+03 0.  1.
</event>
<event>
 4    1  0.4521369E-004  0.6500000E+04  0.7818608E-02  0.7223770E-01
         52   -1    0    0    0    0  0.00000000000E+00  0.00000000000E+00  0.64930732323E+04  0.65000000000E+04  0.30000000000E+03 0. -1.
        -52   -1    0    0    0    0 -0.00000000000E+00 -0.00000000000E+00 -0.64930732323E+04  0.65000000000E+04  0.30000000000E+03 0.  1.
     100001    1    1    2    0    0  0.57717920541E+03  0.37087922844E+04  0.53046275746E+04  0.65000000000E+04  0.15050000000E+03 0. -1.
     100001    1    1    2    0    0 -0.57717920541E+03 -0.37087922844E+04 -0.53046275746E+04  0.65000000000E+04  0.15050000000E+03 0.  1.
</event>
<event>
 4    1  0.4521369E-004  0.6500000E+04  0.7818608E-02  0.7223770E-01
         52   -1    0    0    0    0  0.00000000000E+00  0.00000000000E+00  0.64930732323E+04  0.65000000000E+04  0.30000000000E+03 0. -1.
        -52   -1    0    0    0    0 -0.00000000000E+00 -0.00000000000E+00 -0.64930732323E+04  0.65000000000E+04  0.30000000000E+03 0.  1.
     100001    1    1    2    0    0 -0.50837493878E+04 -0.39851106184E+04  0.70833274025E+03  0.65000000000E+04  0.15050000000E+03 0. -1.
     100001    1    1    2    0    0  0.50837493878E+04  0.39851106184E+04 -0.70833274025E+03  0.65000000000E+04  0.15050000000E+03 0.  1.
</event>
<event>
 4    1  0.4521369E-004  0.6500000E+04  0.7818608E-02  0.7223770E-01
         52   -1    0    0    0    0  0.00000000000E+00  0.00000000000E+00  0.64930732323E+04  0.65000000000E+04  0.30000000000E+03 0.  1.
        -52   -1    0    0    0    0 -0.00000000000E+00 -0.00000000000E+00 -0.64930732323E+04  0.65000000000E+04  0.30000000000E+03 0. -1.
     100001    1    1    2    0    0 -0.13047839791E+04 -0.17869215142E+03  0.63634077060E+04  0.65000000000E+04  0.15050000000E+03 0.  1.
     100001    1    1    2    0    0  0.13047839791E+04  0.17869215142E+03 -0.63634077060E+04  0.65000000000E+04  0.15050000000E+03 0. -1.
</event>
<event>
 4    1  0.4521369E-004  0.6500000E+04  0.7818608E-02  0.7223770E-01
         52   -1    0    0    0    0  0.00000000000E+00  0.00000000000E+00  0.64930732323E+04  0.65000000000E+04  0.30000000000E+03 0.  1.
        -52   -1    0    0    0    0 -0.00000000000E+00 -0.00000000000E+00 -0.64930732323E+04  0.65000000000E+04  0.30000000000E+03 0.  1.
     100001    1    1    2    0    0 -0.36619263941E+03  0.62983354146E+03  0.64572875428E+04  0.65000000000E+04  0.15050000000E+03 0.  1.
     100001    1    1    2    0    0  0.36619263941E+03 -0.62983354146E+03 -0.64572875428E+04  0.65000000000E+04  0.15050000000E+03 0.  1.
</event>
<event>
 4    1  0.4521369E-004  0.6500000E+04  0.7818608E-02  0.7223770E-01
         52   -1    0    0    0    0  0.00000000000E+00  0.00000000000E+00  0.64930732323E+04  0.65000000000E+04  0.30000000000E+03 0.  1.
        -52   -1    0    0    0    0 -0.00000000000E+00 -0.00000000000E+00 -0.64930732323E+04  0.65000000000E+04  0.30000000000E+03 0. -1.
     100001    1    1    2    0    0  0.10487049575E+03  0.20311589508E+04  0.61717700253E+04  0.65000000000E+04  0.15050000000E+03 0.  1.
     100001    1    1    2    0    0 -0.10487049575E+03 -0.20311589508E+04 -0.61717700253E+04  0.65000000000E+04  0.15050000000E+03 0. -1.
</event>
<event>
 4    1  0.4521369E-004  0.6500000E+04  0.7818608E-02  0.7223770E-01
         52   -1    0    0    0    0  0.00000000000E+00  0.00000000000E+00  0.64930732323E+04  0.65000000000E+04  0.30000000000E+03 0.  1.
        -52   -1    0    0    0    0 -0.00000000000E+00 -0.00000000000E+00 -0.64930732323E+04  0.65000000000E+04  0.30000000000E+03 0. -1.
     100001    1    1    2    0    0  0.35417312755E+03 -0.68474714579E+03 -0.64523664257E+04  0.65000000000E+04  0.15050000000E+03 0. -1.
     100001    1    1    2    0    0 -0.35417312755E+03  0.68474714579E+03  0.64523664257E+04  0.65000000000E+04  0.15050000000E+03 0.  1.
</event>
<event>
 4    1  0.4521369E-004  0.6500000E+04  0.7818608E-02  0.7223770E-01
         52   -1    0    0    0    0  0.00000000000E+00  0.00000000000E+00  0.64930732323E+04  0.65000000000E+04  0.30000000000E+03 0.  1.
        -52   -1    0    0    0    0 -0.00000000000E+00 -0.00000000000E+00 -0.64930732323E+04  0.65000000000E+04  0.30000000000E+03 0. -1.
     100001    1    1    2    0    0  0.10281429702E+04  0.46141713138E+04  0.44586651444E+04  0.65000000000E+04  0.15050000000E+03 0.  1.
     100001    1    1    2    0    0 -0.10281429702E+04 -0.46141713138E+04 -0.44586651444E+04  0.65000000000E+04  0.15050000000E+03 0. -1.
</event>
<event>
 4    1  0.4521369E-004  0.6500000E+04  0.7818608E-02  0.7223770E-01
         52   -1    0    0    0    0  0.00000000000E+00  0.00000000000E+00  0.64930732323E+04  0.65000000000E+04  0.30000000000E+03 0. -1.
        -52   -1    0    0    0    0 -0.00000000000E+00 -0.00000000000E+00 -0.64930732323E+04  0.65000000000E+04  0.30000000000E+03 0. -1.
     100001    1    1    2    0    0 -0.54342084931E+03  0.34281940864E+03  0.64664146467E+04  0.65000000000E+04  0.15050000000E+03 0. -1.
     100001    1    1    2    0    0  0.54342084931E+03 -0.34281940864E+03 -0.64664146467E+04  0.65000000000E+04  0.15050000000E+03 0. -1.
</event>
<event>
 4    1  0.4521369E-004  0.6500000E+04  0.7818608E-02  0.7223770E-01
         52   -1    0    0    0    0  0.00000000000E+00  0.00000000000E+00  0.64930732323E+04  0.65000000000E+04  0.30000000000E+03 0. -1.
        -52   -1    0    0    0    0 -0.00000000000E+00 -0.00000000000E+00 -0.64930732323E+04  0.65000000000E+04  0.30000000000E+03 0.  1.
     100001    1    1    2    0    0 -0.14289037839E+04  0.59105336346E+04 -0.22915444314E+04  0.65000000000E+04  0.15050000000E+03 0. -1.
     100001    1    1    2    0    0  0.14289037839E+04 -0.59105336346E+04  0.22915444314E+04  0.65000000000E+04  0.15050000000E+03 0.  1.
</event>
<event>
 4    1  0.4521369E-004  0.6500000E+04  0.7818608E-02  0.7223770E-01
         52   -1    0    0    0    0  0.00000000000E+00  0.00000000000E+00  0.64930732323E+04  0.65000000000E+04  0.30000000000E+03 0.  1.
        -52   -1    0    0    0    0 -0.00000000000E+00 -0.00000000000E+00 -0.64930732323E+04  0.65000000000E+04  0.30000000000E+03 0. -1.
     100001    1    1    2    0    0 -0.21247107762E+04  0.11478765236E+04 -0.60328544947E+04  0.65000000000E+04  0.15050000000E+03 0. -1.
     100001    1    1    2    0    0  0.21247107762E+04 -0.11478765236E+04  0.60328544947E+04  0.65000000000E+04  0.15050000000E+03 0.  1.
</event>
<event>
 4    1  0.4521369E-004  0.6500000E+04  0.7818608E-02  0.7223770E-01
         52   -1    0    0    0    0  0.00000000000E+00  0.00000000000E+00  0.64930732323E+04  0.65000000000E+04  0.30000000000E+03 0. -1.
        -52   -1    0    0    0    0 -0.00000000000E+00 -0.00000000000E+00 -0.64930732323E+04  0.65000000000E+04  0.30000000000E+03 0. -1.
     100001    1    1    2    0    0  0.53729205984E+03 -0.50810359399E+01 -0.64760050321E+04  0.65000000000E+04  0.15050000000E+03 0. -1.
     100001    1    1    2    0    0 -0.53729205984E+03  0.50810359399E+01  0.64760050321E+04  0.65000000000E+04  0.15050000000E+03 0. -1.
</event>
<event>
 4    1  0.4521369E-004  0.6500000E+04  0.7818608E-02  0.7223770E-01
         52   -1    0    0    0    0  0.00000000000E+00  0.00000000000E+00  0.64930732323E+04  0.65000000000E+04  0.30000000000E+03 0.  1.
        -52   -1    0    0    0    0 -0.00000000000E+00 -0.00000000000E+00 -0.64930732323E+04  0.65000000000E+04  0.30000000000E+03 0. -1.
     100001    1    1    2    0    0  0.31146082168E+04  0.11293677993E+04 -0.55902677736E+04  0.65000000000E+04  0.15050000000E+03 0. -1.
     100001    1    1    2    0    0 -0.31146082168E+04 -0.11293677993E+04  0.55902677736E+04  0.65000000000E+04  0.15050000000E+03 0.  1.
</event>
<event>
 4    1  0.4521369E-004  0.6500000E+04  0.7818608E-02  0.7223770E-01
         52   -1    0    0    0    0  0.00000000000E+00  0.00000000000E+00  0.64930732323E+04  0.65000000000E+04  0.30000000000E+03 0.  1.
        -52   -1    0    0    0    0 -0.00000000000E+00 -0.00000000000E+00 -0.64930732323E+04  0.65000000000E+04  0.30000000000E+03 0. -1.
     100001    1    1    2    0    0 -0.36499104891E+03  0.19217589396E+04  0.61968519316E+04  0.65000000000E+04  0.15050000000E+03 0.  1.
     100001    1    1    2    0    0  0.36499104891E+03 -0.19217589396E+04 -0.61968519316E+04  0.65000000000E+04  0.15050000000E+03 0. -1.
</event>
<event>
 4    1  0.4521369E-004  0.6500000E+04  0.7818608E-02  0.7223770E-01
         52   -1    0    0    0    0  0.00000000000E+00  0.00000000000E+00  0.64930732323E+04  0.65000000000E+04  0.30000000000E+03 0. -1.
        -52   -1    0    0    0    0 -0.00000000000E+00 -0.00000000000E+00 -0.64930732323E+04  0.65000000000E+04  0.30000000000E+03 0.  1.
     100001    1    1    2    0    0 -0.12232683687E+04  0.19400394557E+04  0.60800667067E+04  0.65000000000E+04  0.15050000000E+03 0. -1.
     100001    1    1    2    0    0  0.12232683687E+04 -0.19400394557E+04 -0.60800667067E+04  0.65000000000E+04  0.15050000000E+03 0.  1.
</event>
<event>
 4    1  0.6274157E-004  0.6500000E+04  0.7818608E-02  0.7223770E-01
         52   -1    0    0    0    0  0.00000000000E+00  0.00000000000E+00  0.64930732323E+04  0.65000000000E+04  0.30000000000E+03 0.  1.
        -52   -1    0    0    0    0 -0.00000000000E+00 -0.00000000000E+00 -0.64930732323E+04  0.65000000000E+04  0.30000000000E+03 0.  1.
     100001    1    1    2    0    0 -0.12902271158E+03 -0.11182003669E+03 -0.64960140986E+04  0.65000000000E+04  0.15050000000E+03 0.  1.
     100001    1    1    2    0    0  0.12902271158E+03  0.11182003669E+03  0.64960140986E+04  0.65000000000E+04  0.15050000000E+03 0.  1.
</event>
<event>
 4    1  0.4521369E-004  0.6500000E+04  0.7818608E-02  0.7223770E-01
         52   -1    0    0    0    0  0.00000000000E+00  0.00000000000E+00  0.64930732323E+04  0.65000000000E+04  0.30000000000E+03 0. -1.
        -52   -1    0    0    0    0 -0.00000000000E+00 -0.00000000000E+00 -0.64930732323E+04  0.65000000000E+04  0.30000000000E+03 0.  1.
     100001    1    1    2    0    0 -0.11112376341E+04 -0.38709088860E+03  0.63908263405E+04  0.65000000000E+04  0.15050000000E+03 0. -1.
     100001    1    1    2    0    0  0.11112376341E+04  0.38709088860E+03 -0.63908263405E+04  0.65000000000E+04  0.15050000000E+03 0.  1.
</event>
<event>
 4    1  0.4521369E-004  0.6500000E+04  0.7818608E-02  0.7223770E-01
         52   -1    0    0    0    0  0.00000000000E+00  0.00000000000E+00  0.64930732323E+04  0.65000000000E+04  0.30000000000E+03 0. -1.
        -52   -1    0    0    0    0 -0.00000000000E+00 -0.00000000000E+00 -0.64930732323E+04  0.65000000000E+04  0.30000000000E+03 0. -1.
     100001    1    1    2    0    0  0.24230708640E+03  0.61530298620E+03 -0.64645215802E+04  0.65000000000E+04  0.15050000000E+03 0. -1.
     100001    1    1    2    0    0 -0.24230708640E+03 -0.61530298620E+03  0.64645215802E+04  0.65000000000E+04  0.15050000000E+03 0. -1.
</event>
<event>
 4    1  0.4521369E-004  0.6500000E+04  0.7818608E-02  0.7223770E-01
         52   -1    0    0    0    0  0.00000000000E+00  0.00000000000E+00  0.64930732323E+04  0.65000000000E+04  0.30000000000E+03 0. -1.
        -52   -1    0    0    0    0 -0.00000000000E+00 -0.00000000000E+00 -0.64930732323E+04  0.65000000000E+04  0.30000000000E+03 0.  1.
     100001    1    1    2    0    0 -0.37044748238E+04  0.42131779558E+04  0.32792297178E+04  0.65000000000E+04  0.15050000000E+03 0. -1.
     100001    1    1    2    0    0  0.37044748238E+04 -0.42131779558E+04 -0.32792297178E+04  0.65000000000E+04  0.15050000000E+03 0.  1.
</event>
<event>
 4    1  0.4521369E-004  0.6500000E+04  0.7818608E-02  0.7223770E-01
         52   -1    0    0    0    0  0.00000000000E+00  0.00000000000E+00  0.64930732323E+04  0.65000000000E+04  0.30000000000E+03 0.  1.
        -52   -1    0    0    0    0 -0.00000000000E+00 -0.00000000000E+00 -0.64930732323E+04  0.65000000000E+04  0.30000000000E+03 0. -1.
     100001    1    1    2    0    0 -0.16529745806E+04 -0.87786781086E+03 -0.62228910398E+04  0.65000000000E+04  0.15050000000E+03 0. -1.
     100001    1    1    2    0    0  0.16529745806E+04  0.87786781086E+03  0.62228910398E+04  0.65000000000E+04  0.15050000000E+03 0.  1.
</event>
<event>
 4    1  0.4521369E-004  0.6500000E+04  0.7818608E-02  0.7223770E-01
         52   -1    0    0    0    0  0.00000000000E+00  0.00000000000E+00  0.64930732323E+04  0.65000000000E+04  0.30000000000E+03 0. -1.
        -52   -1    0    0    0    0 -0.00000000000E+00 -0.00000000000E+00 -0.64930732323E+04  0.65000000000E+04  0.30000000000E+03 0.  1.
     100001    1    1    2    0    0  0.18463291787E+04  0.69085735228E+03 -0.61920218372E+04  0.65000000000E+04  0.15050000000E+03 0.  1.
     100001    1    1    2    0    0 -0.18463291787E+04 -0.69085735228E+03  0.61920218372E+04  0.65000000000E+04  0.15050000000E+03 0. -1.
</event>
<event>
 4    1  0.4521369E-004  0.6500000E+04  0.7818608E-02  0.7223770E-01
         52   -1    0    0    0    0  0.00000000000E+00  0.00000000000E+00  0.64930732323E+04  0.65000000000E+04  0.30000000000E+03 0. -1.
        -52   -1    0    0    0    0 -0.00000000000E+00 -0.00000000000E+00 -0.64930732323E+04  0.65000000000E+04  0.30000000000E+03 0.  1.
     100001    1    1    2    0    0  0.54775963127E+03  0.25214518069E+03  0.64702188482E+04  0.65000000000E+04  0.15050000000E+03 0. -1.
     100001    1    1    2    0    0 -0.54775963127E+03 -0.25214518069E+03 -0.64702188482E+04  0.65000000000E+04  0.15050000000E+03 0.  1.
</event>
<event>
 4    1  0.4521369E-004  0.6500000E+04  0.7818608E-02  0.7223770E-01
         52   -1    0    0    0    0  0.00000000000E+00  0.00000000000E+00  0.64930732323E+04  0.65000000000E+04  0.30000000000E+03 0.  1.
        -52   -1    0    0    0    0 -0.00000000000E+00 -0.00000000000E+00 -0.64930732323E+04  0.65000000000E+04  0.30000000000E+03 0. -1.
     100001    1    1    2    0    0  0.48020198199E+03 -0.25558736397E+04 -0.59551881368E+04  0.65000000000E+04  0.15050000000E+03 0. -1.
     100001    1    1    2    0    0 -0.48020198199E+03  0.25558736397E+04  0.59551881368E+04  0.65000000000E+04  0.15050000000E+03 0.  1.
</event>
<event>
 4    1  0.4521369E-004  0.6500000E+04  0.7818608E-02  0.7223770E-01
         52   -1    0    0    0    0  0.00000000000E+00  0.00000000000E+00  0.64930732323E+04  0.65000000000E+04  0.30000000000E+03 0.  1.
        -52   -1    0    0    0    0 -0.00000000000E+00 -0.00000000000E+00 -0.64930732323E+04  0.65000000000E+04  0.30000000000E+03 0. -1.
     100001    1    1    2    0    0 -0.29811931137E+04  0.20145371562E+04  0.54112362187E+04  0.65000000000E+04  0.15050000000E+03 0.  1.
     100001    1    1    2    0    0  0.29811931137E+04 -0.20145371562E+04 -0.54112362187E+04  0.65000000000E+04  0.15050000000E+03 0. -1.
</event>
<event>
 4    1  0.4521369E-004  0.6500000E+04  0.7818608E-02  0.7223770E-01
         52   -1    0    0    0    0  0.00000000000E+00  0.00000000000E+00  0.64930732323E+04  0.65000000000E+04  0.30000000000E+03 0.  1.
        -52   -1    0    0    0    0 -0.00000000000E+00 -0.00000000000E+00 -0.64930732323E+04  0.65000000000E+04  0.30000000000E+03 0. -1.
     100001    1    1    2    0    0 -0.62362967535E+03 -0.43386155587E+04  0.47973795776E+04  0.65000000000E+04  0.15050000000E+03 0.  1.
     100001    1    1    2    0    0  0.62362967535E+03  0.43386155587E+04 -0.47973795776E+04  0.65000000000E+04  0.15050000000E+03 0. -1.
</event>
<event>
 4    1  0.4521369E-004  0.6500000E+04  0.7818608E-02  0.7223770E-01
         52   -1    0    0    0    0  0.00000000000E+00  0.00000000000E+00  0.64930732323E+04  0.65000000000E+04  0.30000000000E+03 0. -1.
        -52   -1    0    0    0    0 -0.00000000000E+00 -0.00000000000E+00 -0.64930732323E+04  0.65000000000E+04  0.30000000000E+03 0. -1.
     100001    1    1    2    0    0  0.99541960242E+01  0.22184573227E+03  0.64944618819E+04  0.65000000000E+04  0.15050000000E+03 0. -1.
     100001    1    1    2    0    0 -0.99541960242E+01 -0.22184573227E+03 -0.64944618819E+04  0.65000000000E+04  0.15050000000E+03 0. -1.
</event>
<event>
 4    1  0.4521369E-004  0.6500000E+04  0.7818608E-02  0.7223770E-01
         52   -1    0    0    0    0  0.00000000000E+00  0.00000000000E+00  0.64930732323E+04  0.65000000000E+04  0.30000000000E+03 0.  1.
        -52   -1    0    0    0    0 -0.00000000000E+00 -0.00000000000E+00 -0.64930732323E+04  0.65000000000E+04  0.30000000000E+03 0. -1.
     100001    1    1    2    0    0 -0.33510923673E+04 -0.52046324350E+03 -0.55431622480E+04  0.65000000000E+04  0.15050000000E+03 0. -1.
     100001    1    1    2    0    0  0.33510923673E+04  0.52046324350E+03  0.55431622480E+04  0.65000000000E+04  0.15050000000E+03 0.  1.
</event>
<event>
 4    1  0.4521369E-004  0.6500000E+04  0.7818608E-02  0.7223770E-01
         52   -1    0    0    0    0  0.00000000000E+00  0.00000000000E+00  0.64930732323E+04  0.65000000000E+04  0.30000000000E+03 0. -1.
        -52   -1    0    0    0    0 -0.00000000000E+00 -0.00000000000E+00 -0.64930732323E+04  0.65000000000E+04  0.30000000000E+03 0.  1.
     100001    1    1    2    0    0  0.90973337584E+03  0.54548247578E+04 -0.34124216909E+04  0.65000000000E+04  0.15050000000E+03 0.  1.
     100001    1    1    2    0    0 -0.90973337584E+03 -0.54548247578E+04  0.34124216909E+04  0.65000000000E+04  0.15050000000E+03 0. -1.
</event>
<event>
 4    1  0.4521369E-004  0.6500000E+04  0.7818608E-02  0.7223770E-01
         52   -1    0    0    0    0  0.00000000000E+00  0.00000000000E+00  0.64930732323E+04  0.65000000000E+04  0.30000000000E+03 0.  1.
        -52   -1    0    0    0    0 -0.00000000000E+00 -0.00000000000E+00 -0.64930732323E+04  0.65000000000E+04  0.30000000000E+03 0. -1.
     100001    1    1    2    0    0  0.44159050173E+03 -0.38047603469E+03  0.64720619254E+04  0.65000000000E+04  0.15050000000E+03 0.  1.
     100001    1    1    2    0    0 -0.44159050173E+03  0.38047603469E+03 -0.64720619254E+04  0.65000000000E+04  0.15050000000E+03 0. -1.
</event>
<event>
 4    1  0.4521369E-004  0.6500000E+04  0.7818608E-02  0.7223770E-01
         52   -1    0    0    0    0  0.00000000000E+00  0.00000000000E+00  0.64930732323E+04  0.65000000000E+04  0.30000000000E+03 0. -1.
        -52   -1    0    0    0    0 -0.00000000000E+00 -0.00000000000E+00 -0.64930732323E+04  0.65000000000E+04  0.30000000000E+03 0.  1.
     100001    1    1    2    0    0 -0.26451665651E+03  0.41501452729E+04 -0.49933630854E+04  0.65000000000E+04  0.15050000000E+03 0.  1.
     100001    1    1    2    0    0  0.26451665651E+03 -0.41501452729E+04  0.49933630854E+04  0.65000000000E+04  0.15050000000E+03 0. -1.
</event>
<event>
 4    1  0.4521369E-004  0.6500000E+04  0.7818608E-02  0.7223770E-01
         52   -1    0    0    0    0  0.00000000000E+00  0.00000000000E+00  0.64930732323E+04  0.65000000000E+04  0.30000000000E+03 0. -1.
        -52   -1    0    0    0    0 -0.00000000000E+00 -0.00000000000E+00 -0.64930732323E+04  0.65000000000E+04  0.30000000000E+03 0.  1.
     100001    1    1    2    0    0  0.38622853616E+03  0.45619443392E+02 -0.64866089858E+04  0.65000000000E+04  0.15050000000E+03 0.  1.
     100001    1    1    2    0    0 -0.38622853616E+03 -0.45619443392E+02  0.64866089858E+04  0.65000000000E+04  0.15050000000E+03 0. -1.
</event>
<event>
 4    1  0.4521369E-004  0.6500000E+04  0.7818608E-02  0.7223770E-01
         52   -1    0    0    0    0  0.00000000000E+00  0.00000000000E+00  0.64930732323E+04  0.65000000000E+04  0.30000000000E+03 0.  1.
        -52   -1    0    0    0    0 -0.00000000000E+00 -0.00000000000E+00 -0.64930732323E+04  0.65000000000E+04  0.30000000000E+03 0. -1.
     100001    1    1    2    0    0  0.17563560583E+03 -0.55408279735E+03  0.64722093707E+04  0.65000000000E+04  0.15050000000E+03 0.  1.
     100001    1    1    2    0    0 -0.17563560583E+03  0.55408279735E+03 -0.64722093707E+04  0.65000000000E+04  0.15050000000E+03 0. -1.
</event>
<event>
 4    1  0.4521369E-004  0.6500000E+04  0.7818608E-02  0.7223770E-01
         52   -1    0    0    0    0  0.00000000000E+00  0.00000000000E+00  0.64930732323E+04  0.65000000000E+04  0.30000000000E+03 0. -1.
        -52   -1    0    0    0    0 -0.00000000000E+00 -0.00000000000E+00 -0.64930732323E+04  0.65000000000E+04  0.30000000000E+03 0. -1.
     100001    1    1    2    0    0  0.11111933557E+03 -0.30479248318E+03  0.64901543730E+04  0.65000000000E+04  0.15050000000E+03 0. -1.
     100001    1    1    2    0    0 -0.11111933557E+03  0.30479248318E+03 -0.64901543730E+04  0.65000000000E+04  0.15050000000E+03 0. -1.
</event>
<event>
 4    1  0.4521369E-004  0.6500000E+04  0.7818608E-02  0.7223770E-01
         52   -1    0    0    0    0  0.00000000000E+00  0.00000000000E+00  0.64930732323E+04  0.65000000000E+04  0.30000000000E+03 0. -1.
        -52   -1    0    0    0    0 -0.00000000000E+00 -0.00000000000E+00 -0.64930732323E+04  0.65000000000E+04  0.30000000000E+03 0. -1.
     100001    1    1    2    0    0  0.56266813676E+02  0.54299145984E+02  0.64977869616E+04  0.65000000000E+04  0.15050000000E+03 0. -1.
     100001    1    1    2    0    0 -0.56266813676E+02 -0.54299145984E+02 -0.64977869616E+04  0.65000000000E+04  0.15050000000E+03 0. -1.
</event>
<event>
 4    1  0.4521369E-004  0.6500000E+04  0.7818608E-02  0.7223770E-01
         52   -1    0    0    0    0  0.00000000000E+00  0.00000000000E+00  0.64930732323E+04  0.65000000000E+04  0.30000000000E+03 0.  1.
        -52   -1    0    0    0    0 -0.00000000000E+00 -0.00000000000E+00 -0.64930732323E+04  0.65000000000E+04  0.30000000000E+03 0.  1.
     100001    1    1    2    0    0 -0.23028298432E+03  0.33847136417E+02 -0.64940876086E+04  0.65000000000E+04  0.15050000000E+03 0.  1.
     100001    1    1    2    0    0  0.23028298432E+03 -0.33847136417E+02  0.64940876086E+04  0.65000000000E+04  0.15050000000E+03 0.  1.
</event>
<event>
 4    1  0.4521369E-004  0.6500000E+04  0.7818608E-02  0.7223770E-01
         52   -1    0    0    0    0  0.00000000000E+00  0.00000000000E+00  0.64930732323E+04  0.65000000000E+04  0.30000000000E+03 0. -1.
        -52   -1    0    0    0    0 -0.00000000000E+00 -0.00000000000E+00 -0.64930732323E+04  0.65000000000E+04  0.30000000000E+03 0.  1.
     100001    1    1    2    0    0  0.16191242650E+04 -0.31318990097E+04 -0.54586623780E+04  0.65000000000E+04  0.15050000000E+03 0.  1.
     100001    1    1    2    0    0 -0.16191242650E+04  0.31318990097E+04  0.54586623780E+04  0.65000000000E+04  0.15050000000E+03 0. -1.
</event>
<event>
 4    1  0.4521369E-004  0.6500000E+04  0.7818608E-02  0.7223770E-01
         52   -1    0    0    0    0  0.00000000000E+00  0.00000000000E+00  0.64930732323E+04  0.65000000000E+04  0.30000000000E+03 0. -1.
        -52   -1    0    0    0    0 -0.00000000000E+00 -0.00000000000E+00 -0.64930732323E+04  0.65000000000E+04  0.30000000000E+03 0.  1.
     100001    1    1    2    0    0 -0.38168652819E+04 -0.47443405623E+04 -0.22693879788E+04  0.65000000000E+04  0.15050000000E+03 0.  1.
     100001    1    1    2    0    0  0.38168652819E+04  0.47443405623E+04  0.22693879788E+04  0.65000000000E+04  0.15050000000E+03 0. -1.
</event>
<event>
 4    1  0.4521369E-004  0.6500000E+04  0.7818608E-02  0.7223770E-01
         52   -1    0    0    0    0  0.00000000000E+00  0.00000000000E+00  0.64930732323E+04  0.65000000000E+04  0.30000000000E+03 0. -1.
        -52   -1    0    0    0    0 -0.00000000000E+00 -0.00000000000E+00 -0.64930732323E+04  0.65000000000E+04  0.30000000000E+03 0.  1.
     100001    1    1    2    0    0 -0.35268569246E+03 -0.14365183082E+03 -0.64870892320E+04  0.65000000000E+04  0.15050000000E+03 0.  1.
     100001    1    1    2    0    0  0.35268569246E+03  0.14365183082E+03  0.64870892320E+04  0.65000000000E+04  0.15050000000E+03 0. -1.
</event>
<event>
 4    1  0.7584063E-004  0.6500000E+04  0.7818608E-02  0.7223770E-01
         52   -1    0    0    0    0  0.00000000000E+00  0.00000000000E+00  0.64930732323E+04  0.65000000000E+04  0.30000000000E+03 0.  1.
        -52   -1    0    0    0    0 -0.00000000000E+00 -0.00000000000E+00 -0.64930732323E+04  0.65000000000E+04  0.30000000000E+03 0.  1.
     100001    1    1    2    0    0  0.10448650479E+03  0.30868327867E+02  0.64973440317E+04  0.65000000000E+04  0.15050000000E+03 0.  1.
     100001    1    1    2    0    0 -0.10448650479E+03 -0.30868327867E+02 -0.64973440317E+04  0.65000000000E+04  0.15050000000E+03 0.  1.
</event>
<event>
 4    1  0.4933950E-004  0.6500000E+04  0.7818608E-02  0.7223770E-01
         52   -1    0    0    0    0  0.00000000000E+00  0.00000000000E+00  0.64930732323E+04  0.65000000000E+04  0.30000000000E+03 0. -1.
        -52   -1    0    0    0    0 -0.00000000000E+00 -0.00000000000E+00 -0.64930732323E+04  0.65000000000E+04  0.30000000000E+03 0. -1.
     100001    1    1    2    0    0  0.16897406755E+03  0.18942847857E+03 -0.64932976496E+04  0.65000000000E+04  0.15050000000E+03 0. -1.
     100001    1    1    2    0    0 -0.16897406755E+03 -0.18942847857E+03  0.64932976496E+04  0.65000000000E+04  0.15050000000E+03 0. -1.
</event>
<event>
 4    1  0.4521369E-004  0.6500000E+04  0.7818608E-02  0.7223770E-01
         52   -1    0    0    0    0  0.00000000000E+00  0.00000000000E+00  0.64930732323E+04  0.65000000000E+04  0.30000000000E+03 0.  1.
        -52   -1    0    0    0    0 -0.00000000000E+00 -0.00000000000E+00 -0.64930732323E+04  0.65000000000E+04  0.30000000000E+03 0. -1.
     100001    1    1    2    0    0  0.64664658622E+02 -0.83877387542E+03 -0.64435725043E+04  0.65000000000E+04  0.15050000000E+03 0. -1.
     100001    1    1    2    0    0 -0.64664658622E+02  0.83877387542E+03  0.64435725043E+04  0.65000000000E+04  0.15050000000E+03 0.  1.
</event>
<event>
 4    1  0.4521369E-004  0.6500000E+04  0.7818608E-02  0.7223770E-01
         52   -1    0    0    0    0  0.00000000000E+00  0.00000000000E+00  0.64930732323E+04  0.65000000000E+04  0.30000000000E+03 0. -1.
        -52   -1    0    0    0    0 -0.00000000000E+00 -0.00000000000E+00 -0.64930732323E+04  0.65000000000E+04  0.30000000000E+03 0.  1.
     100001    1    1    2    0    0  0.11405328078E+04 -0.87019583473E+03 -0.63379250448E+04  0.65000000000E+04  0.15050000000E+03 0.  1.
     100001    1    1    2    0    0 -0.11405328078E+04  0.87019583473E+03  0.63379250448E+04  0.65000000000E+04  0.15050000000E+03 0. -1.
</event>
<event>
 4    1  0.4521369E-004  0.6500000E+04  0.7818608E-02  0.7223770E-01
         52   -1    0    0    0    0  0.00000000000E+00  0.00000000000E+00  0.64930732323E+04  0.65000000000E+04  0.30000000000E+03 0. -1.
        -52   -1    0    0    0    0 -0.00000000000E+00 -0.00000000000E+00 -0.64930732323E+04  0.65000000000E+04  0.30000000000E+03 0.  1.
     100001    1    1    2    0    0 -0.53855228145E+04 -0.20675749038E+04 -0.29914257105E+04  0.65000000000E+04  0.15050000000E+03 0.  1.
     100001    1    1    2    0    0  0.53855228145E+04  0.20675749038E+04  0.29914257105E+04  0.65000000000E+04  0.15050000000E+03 0. -1.
</event>
<event>
 4    1  0.4521369E-004  0.6500000E+04  0.7818608E-02  0.7223770E-01
         52   -1    0    0    0    0  0.00000000000E+00  0.00000000000E+00  0.64930732323E+04  0.65000000000E+04  0.30000000000E+03 0.  1.
        -52   -1    0    0    0    0 -0.00000000000E+00 -0.00000000000E+00 -0.64930732323E+04  0.65000000000E+04  0.30000000000E+03 0. -1.
     100001    1    1    2    0    0  0.31810789176E+04  0.48432321779E+04 -0.29412903191E+04  0.65000000000E+04  0.15050000000E+03 0. -1.
     100001    1    1    2    0    0 -0.31810789176E+04 -0.48432321779E+04  0.29412903191E+04  0.65000000000E+04  0.15050000000E+03 0.  1.
</event>
<event>
 4    1  0.4521369E-004  0.6500000E+04  0.7818608E-02  0.7223770E-01
         52   -1    0    0    0    0  0.00000000000E+00  0.00000000000E+00  0.64930732323E+04  0.65000000000E+04  0.30000000000E+03 0.  1.
        -52   -1    0    0    0    0 -0.00000000000E+00 -0.00000000000E+00 -0.64930732323E+04  0.65000000000E+04  0.30000000000E+03 0. -1.
     100001    1    1    2    0    0 -0.57905913570E+04  0.28808992153E+04  0.62993745534E+03  0.65000000000E+04  0.15050000000E+03 0.  1.
     100001    1    1    2    0    0  0.57905913570E+04 -0.28808992153E+04 -0.62993745534E+03  0.65000000000E+04  0.15050000000E+03 0. -1.
</event>
<event>
 4    1  0.4521369E-004  0.6500000E+04  0.7818608E-02  0.7223770E-01
         52   -1    0    0    0    0  0.00000000000E+00  0.00000000000E+00  0.64930732323E+04  0.65000000000E+04  0.30000000000E+03 0. -1.
        -52   -1    0    0    0    0 -0.00000000000E+00 -0.00000000000E+00 -0.64930732323E+04  0.65000000000E+04  0.30000000000E+03 0.  1.
     100001    1    1    2    0    0  0.48906858619E+03  0.13545707063E+03  0.64784113060E+04  0.65000000000E+04  0.15050000000E+03 0. -1.
     100001    1    1    2    0    0 -0.48906858619E+03 -0.13545707063E+03 -0.64784113060E+04  0.65000000000E+04  0.15050000000E+03 0.  1.
</event>
<event>
 4    1  0.4521369E-004  0.6500000E+04  0.7818608E-02  0.7223770E-01
         52   -1    0    0    0    0  0.00000000000E+00  0.00000000000E+00  0.64930732323E+04  0.65000000000E+04  0.30000000000E+03 0.  1.
        -52   -1    0    0    0    0 -0.00000000000E+00 -0.00000000000E+00 -0.64930732323E+04  0.65000000000E+04  0.30000000000E+03 0. -1.
     100001    1    1    2    0    0  0.96353426698E+03 -0.71433850384E+03 -0.63866009714E+04  0.65000000000E+04  0.15050000000E+03 0. -1.
     100001    1    1    2    0    0 -0.96353426698E+03  0.71433850384E+03  0.63866009714E+04  0.65000000000E+04  0.15050000000E+03 0.  1.
</event>
<event>
 4    1  0.4521369E-004  0.6500000E+04  0.7818608E-02  0.7223770E-01
         52   -1    0    0    0    0  0.00000000000E+00  0.00000000000E+00  0.64930732323E+04  0.65000000000E+04  0.30000000000E+03 0.  1.
        -52   -1    0    0    0    0 -0.00000000000E+00 -0.00000000000E+00 -0.64930732323E+04  0.65000000000E+04  0.30000000000E+03 0. -1.
     100001    1    1    2    0    0  0.10000558555E+04  0.26757060573E+03  0.64152664798E+04  0.65000000000E+04  0.15050000000E+03 0.  1.
     100001    1    1    2    0    0 -0.10000558555E+04 -0.26757060573E+03 -0.64152664798E+04  0.65000000000E+04  0.15050000000E+03 0. -1.
</event>
<event>
 4    1  0.4521369E-004  0.6500000E+04  0.7818608E-02  0.7223770E-01
         52   -1    0    0    0    0  0.00000000000E+00  0.00000000000E+00  0.64930732323E+04  0.65000000000E+04  0.30000000000E+03 0.  1.
        -52   -1    0    0    0    0 -0.00000000000E+00 -0.00000000000E+00 -0.64930732323E+04  0.65000000000E+04  0.30000000000E+03 0. -1.
     100001    1    1    2    0    0  0.43694172148E+04  0.28785423652E+04  0.38535096736E+04  0.65000000000E+04  0.15050000000E+03 0.  1.
     100001    1    1    2    0    0 -0.43694172148E+04 -0.28785423652E+04 -0.38535096736E+04  0.65000000000E+04  0.15050000000E+03 0. -1.
</event>
<event>
 4    1  0.4521369E-004  0.6500000E+04  0.7818608E-02  0.7223770E-01
         52   -1    0    0    0    0  0.00000000000E+00  0.00000000000E+00  0.64930732323E+04  0.65000000000E+04  0.30000000000E+03 0.  1.
        -52   -1    0    0    0    0 -0.00000000000E+00 -0.00000000000E+00 -0.64930732323E+04  0.65000000000E+04  0.30000000000E+03 0.  1.
     100001    1    1    2    0    0  0.37004083315E+03  0.44773810449E+03  0.64722445969E+04  0.65000000000E+04  0.15050000000E+03 0.  1.
     100001    1    1    2    0    0 -0.37004083315E+03 -0.44773810449E+03 -0.64722445969E+04  0.65000000000E+04  0.15050000000E+03 0.  1.
</event>
<event>
 4    1  0.4521369E-004  0.6500000E+04  0.7818608E-02  0.7223770E-01
         52   -1    0    0    0    0  0.00000000000E+00  0.00000000000E+00  0.64930732323E+04  0.65000000000E+04  0.30000000000E+03 0.  1.
        -52   -1    0    0    0    0 -0.00000000000E+00 -0.00000000000E+00 -0.64930732323E+04  0.65000000000E+04  0.30000000000E+03 0. -1.
     100001    1    1    2    0    0 -0.12485004629E+03  0.97232904576E+03 -0.64238881094E+04  0.65000000000E+04  0.15050000000E+03 0. -1.
     100001    1    1    2    0    0  0.12485004629E+03 -0.97232904576E+03  0.64238881094E+04  0.65000000000E+04  0.15050000000E+03 0.  1.
</event>
<event>
 4    1  0.4521369E-004  0.6500000E+04  0.7818608E-02  0.7223770E-01
         52   -1    0    0    0    0  0.00000000000E+00  0.00000000000E+00  0.64930732323E+04  0.65000000000E+04  0.30000000000E+03 0. -1.
        -52   -1    0    0    0    0 -0.00000000000E+00 -0.00000000000E+00 -0.64930732323E+04  0.65000000000E+04  0.30000000000E+03 0.  1.
     100001    1    1    2    0    0 -0.52394362929E+03 -0.97781150572E+03 -0.64028679108E+04  0.65000000000E+04  0.15050000000E+03 0.  1.
     100001    1    1    2    0    0  0.52394362929E+03  0.97781150572E+03  0.64028679108E+04  0.65000000000E+04  0.15050000000E+03 0. -1.
</event>
<event>
 4    1  0.4521369E-004  0.6500000E+04  0.7818608E-02  0.7223770E-01
         52   -1    0    0    0    0  0.00000000000E+00  0.00000000000E+00  0.64930732323E+04  0.65000000000E+04  0.30000000000E+03 0. -1.
        -52   -1    0    0    0    0 -0.00000000000E+00 -0.00000000000E+00 -0.64930732323E+04  0.65000000000E+04  0.30000000000E+03 0.  1.
     100001    1    1    2    0    0 -0.21672073159E+04  0.22282651959E+04  0.57066098882E+04  0.65000000000E+04  0.15050000000E+03 0. -1.
     100001    1    1    2    0    0  0.21672073159E+04 -0.22282651959E+04 -0.57066098882E+04  0.65000000000E+04  0.15050000000E+03 0.  1.
</event>
<event>
 4    1  0.4521369E-004  0.6500000E+04  0.7818608E-02  0.7223770E-01
         52   -1    0    0    0    0  0.00000000000E+00  0.00000000000E+00  0.64930732323E+04  0.65000000000E+04  0.30000000000E+03 0. -1.
        -52   -1    0    0    0    0 -0.00000000000E+00 -0.00000000000E+00 -0.64930732323E+04  0.65000000000E+04  0.30000000000E+03 0.  1.
     100001    1    1    2    0    0 -0.12775671327E+04  0.36847920551E+03  0.63607700042E+04  0.65000000000E+04  0.15050000000E+03 0. -1.
     100001    1    1    2    0    0  0.12775671327E+04 -0.36847920551E+03 -0.63607700042E+04  0.65000000000E+04  0.15050000000E+03 0.  1.
</event>
<event>
 4    1  0.4521369E-004  0.6500000E+04  0.7818608E-02  0.7223770E-01
         52   -1    0    0    0    0  0.00000000000E+00  0.00000000000E+00  0.64930732323E+04  0.65000000000E+04  0.30000000000E+03 0.  1.
        -52   -1    0    0    0    0 -0.00000000000E+00 -0.00000000000E+00 -0.64930732323E+04  0.65000000000E+04  0.30000000000E+03 0. -1.
     100001    1    1    2    0    0  0.47295984669E+04  0.34076913623E+04 -0.28715653694E+04  0.65000000000E+04  0.15050000000E+03 0. -1.
     100001    1    1    2    0    0 -0.47295984669E+04 -0.34076913623E+04  0.28715653694E+04  0.65000000000E+04  0.15050000000E+03 0.  1.
</event>
<event>
 4    1  0.4521369E-004  0.6500000E+04  0.7818608E-02  0.7223770E-01
         52   -1    0    0    0    0  0.00000000000E+00  0.00000000000E+00  0.64930732323E+04  0.65000000000E+04  0.30000000000E+03 0.  1.
        -52   -1    0    0    0    0 -0.00000000000E+00 -0.00000000000E+00 -0.64930732323E+04  0.65000000000E+04  0.30000000000E+03 0.  1.
     100001    1    1    2    0    0 -0.37301069135E+02  0.88275059696E+02 -0.64975507612E+04  0.65000000000E+04  0.15050000000E+03 0.  1.
     100001    1    1    2    0    0  0.37301069135E+02 -0.88275059696E+02  0.64975507612E+04  0.65000000000E+04  0.15050000000E+03 0.  1.
</event>
<event>
 4    1  0.4521369E-004  0.6500000E+04  0.7818608E-02  0.7223770E-01
         52   -1    0    0    0    0  0.00000000000E+00  0.00000000000E+00  0.64930732323E+04  0.65000000000E+04  0.30000000000E+03 0. -1.
        -52   -1    0    0    0    0 -0.00000000000E+00 -0.00000000000E+00 -0.64930732323E+04  0.65000000000E+04  0.30000000000E+03 0.  1.
     100001    1    1    2    0    0  0.30241090386E+03 -0.56682153376E+04  0.31634209777E+04  0.65000000000E+04  0.15050000000E+03 0. -1.
     100001    1    1    2    0    0 -0.30241090386E+03  0.56682153376E+04 -0.31634209777E+04  0.65000000000E+04  0.15050000000E+03 0.  1.
</event>
<event>
 4    1  0.4521369E-004  0.6500000E+04  0.7818608E-02  0.7223770E-01
         52   -1    0    0    0    0  0.00000000000E+00  0.00000000000E+00  0.64930732323E+04  0.65000000000E+04  0.30000000000E+03 0. -1.
        -52   -1    0    0    0    0 -0.00000000000E+00 -0.00000000000E+00 -0.64930732323E+04  0.65000000000E+04  0.30000000000E+03 0.  1.
     100001    1    1    2    0    0  0.20425031953E+04 -0.55372103464E+04  0.27193440435E+04  0.65000000000E+04  0.15050000000E+03 0. -1.
     100001    1    1    2    0    0 -0.20425031953E+04  0.55372103464E+04 -0.27193440435E+04  0.65000000000E+04  0.15050000000E+03 0.  1.
</event>
<event>
 4    1  0.4521369E-004  0.6500000E+04  0.7818608E-02  0.7223770E-01
         52   -1    0    0    0    0  0.00000000000E+00  0.00000000000E+00  0.64930732323E+04  0.65000000000E+04  0.30000000000E+03 0.  1.
        -52   -1    0    0    0    0 -0.00000000000E+00 -0.00000000000E+00 -0.64930732323E+04  0.65000000000E+04  0.30000000000E+03 0. -1.
     100001    1    1    2    0    0  0.11922493554E+04  0.24386298129E+04  0.59041490377E+04  0.65000000000E+04  0.15050000000E+03 0.  1.
     100001    1    1    2    0    0 -0.11922493554E+04 -0.24386298129E+04 -0.59041490377E+04  0.65000000000E+04  0.15050000000E+03 0. -1.
</event>
<event>
 4    1  0.4521369E-004  0.6500000E+04  0.7818608E-02  0.7223770E-01
         52   -1    0    0    0    0  0.00000000000E+00  0.00000000000E+00  0.64930732323E+04  0.65000000000E+04  0.30000000000E+03 0. -1.
        -52   -1    0    0    0    0 -0.00000000000E+00 -0.00000000000E+00 -0.64930732323E+04  0.65000000000E+04  0.30000000000E+03 0.  1.
     100001    1    1    2    0    0  0.67200528990E+03 -0.53663201241E+03  0.64411012043E+04  0.65000000000E+04  0.15050000000E+03 0. -1.
     100001    1    1    2    0    0 -0.67200528990E+03  0.53663201241E+03 -0.64411012043E+04  0.65000000000E+04  0.15050000000E+03 0.  1.
</event>
<event>
 4    1  0.4521369E-004  0.6500000E+04  0.7818608E-02  0.7223770E-01
         52   -1    0    0    0    0  0.00000000000E+00  0.00000000000E+00  0.64930732323E+04  0.65000000000E+04  0.30000000000E+03 0. -1.
        -52   -1    0    0    0    0 -0.00000000000E+00 -0.00000000000E+00 -0.64930732323E+04  0.65000000000E+04  0.30000000000E+03 0.  1.
     100001    1    1    2    0    0 -0.42158993893E+04 -0.45899871241E+04  0.18399892092E+04  0.65000000000E+04  0.15050000000E+03 0.  1.
     100001    1    1    2    0    0  0.42158993893E+04  0.45899871241E+04 -0.18399892092E+04  0.65000000000E+04  0.15050000000E+03 0. -1.
</event>
<event>
 4    1  0.4521369E-004  0.6500000E+04  0.7818608E-02  0.7223770E-01
         52   -1    0    0    0    0  0.00000000000E+00  0.00000000000E+00  0.64930732323E+04  0.65000000000E+04  0.30000000000E+03 0.  1.
        -52   -1    0    0    0    0 -0.00000000000E+00 -0.00000000000E+00 -0.64930732323E+04  0.65000000000E+04  0.30000000000E+03 0. -1.
     100001    1    1    2    0    0 -0.30995457079E+04 -0.39981697415E+04  0.40785787810E+04  0.65000000000E+04  0.15050000000E+03 0.  1.
     100001    1    1    2    0    0  0.30995457079E+04  0.39981697415E+04 -0.40785787810E+04  0.65000000000E+04  0.15050000000E+03 0. -1.
</event>
<event>
 4    1  0.4521369E-004  0.6500000E+04  0.7818608E-02  0.7223770E-01
         52   -1    0    0    0    0  0.00000000000E+00  0.00000000000E+00  0.64930732323E+04  0.65000000000E+04  0.30000000000E+03 0.  1.
        -52   -1    0    0    0    0 -0.00000000000E+00 -0.00000000000E+00 -0.64930732323E+04  0.65000000000E+04  0.30000000000E+03 0. -1.
     100001    1    1    2    0    0  0.55097465536E+03 -0.16309424275E+03 -0.64728028664E+04  0.65000000000E+04  0.15050000000E+03 0. -1.
     100001    1    1    2    0    0 -0.55097465536E+03  0.16309424275E+03  0.64728028664E+04  0.65000000000E+04  0.15050000000E+03 0.  1.
</event>
<event>
 4    1  0.4521369E-004  0.6500000E+04  0.7818608E-02  0.7223770E-01
         52   -1    0    0    0    0  0.00000000000E+00  0.00000000000E+00  0.64930732323E+04  0.65000000000E+04  0.30000000000E+03 0. -1.
        -52   -1    0    0    0    0 -0.00000000000E+00 -0.00000000000E+00 -0.64930732323E+04  0.65000000000E+04  0.30000000000E+03 0.  1.
     100001    1    1    2    0    0  0.21536367785E+04  0.71119567860E+03  0.60896140340E+04  0.65000000000E+04  0.15050000000E+03 0. -1.
     100001    1    1    2    0    0 -0.21536367785E+04 -0.71119567860E+03 -0.60896140340E+04  0.65000000000E+04  0.15050000000E+03 0.  1.
</event>
<event>
 4    1  0.4521369E-004  0.6500000E+04  0.7818608E-02  0.7223770E-01
         52   -1    0    0    0    0  0.00000000000E+00  0.00000000000E+00  0.64930732323E+04  0.65000000000E+04  0.30000000000E+03 0. -1.
        -52   -1    0    0    0    0 -0.00000000000E+00 -0.00000000000E+00 -0.64930732323E+04  0.65000000000E+04  0.30000000000E+03 0.  1.
     100001    1    1    2    0    0  0.36256032702E+04 -0.31100148525E+04  0.44056961192E+04  0.65000000000E+04  0.15050000000E+03 0. -1.
     100001    1    1    2    0    0 -0.36256032702E+04  0.31100148525E+04 -0.44056961192E+04  0.65000000000E+04  0.15050000000E+03 0.  1.
</event>
<event>
 4    1  0.4521369E-004  0.6500000E+04  0.7818608E-02  0.7223770E-01
         52   -1    0    0    0    0  0.00000000000E+00  0.00000000000E+00  0.64930732323E+04  0.65000000000E+04  0.30000000000E+03 0.  1.
        -52   -1    0    0    0    0 -0.00000000000E+00 -0.00000000000E+00 -0.64930732323E+04  0.65000000000E+04  0.30000000000E+03 0. -1.
     100001    1    1    2    0    0  0.44639987689E+03  0.24043284047E+03 -0.64784464920E+04  0.65000000000E+04  0.15050000000E+03 0. -1.
     100001    1    1    2    0    0 -0.44639987689E+03 -0.24043284047E+03  0.64784464920E+04  0.65000000000E+04  0.15050000000E+03 0.  1.
</event>
<event>
 4    1  0.4521369E-004  0.6500000E+04  0.7818608E-02  0.7223770E-01
         52   -1    0    0    0    0  0.00000000000E+00  0.00000000000E+00  0.64930732323E+04  0.65000000000E+04  0.30000000000E+03 0.  1.
        -52   -1    0    0    0    0 -0.00000000000E+00 -0.00000000000E+00 -0.64930732323E+04  0.65000000000E+04  0.30000000000E+03 0. -1.
     100001    1    1    2    0    0 -0.59335149001E+03 -0.48708386446E+03 -0.64527539135E+04  0.65000000000E+04  0.15050000000E+03 0. -1.
     100001    1    1    2    0    0  0.59335149001E+03  0.48708386446E+03  0.64527539135E+04  0.65000000000E+04  0.15050000000E+03 0.  1.
</event>
<event>
 4    1  0.4521369E-004  0.6500000E+04  0.7818608E-02  0.7223770E-01
         52   -1    0    0    0    0  0.00000000000E+00  0.00000000000E+00  0.64930732323E+04  0.65000000000E+04  0.30000000000E+03 0. -1.
        -52   -1    0    0    0    0 -0.00000000000E+00 -0.00000000000E+00 -0.64930732323E+04  0.65000000000E+04  0.30000000000E+03 0.  1.
     100001    1    1    2    0    0  0.79794690479E+03  0.22276929054E+03 -0.64452311309E+04  0.65000000000E+04  0.15050000000E+03 0.  1.
     100001    1    1    2    0    0 -0.79794690479E+03 -0.22276929054E+03  0.64452311309E+04  0.65000000000E+04  0.15050000000E+03 0. -1.
</event>
<event>
 4    1  0.4521369E-004  0.6500000E+04  0.7818608E-02  0.7223770E-01
         52   -1    0    0    0    0  0.00000000000E+00  0.00000000000E+00  0.64930732323E+04  0.65000000000E+04  0.30000000000E+03 0. -1.
        -52   -1    0    0    0    0 -0.00000000000E+00 -0.00000000000E+00 -0.64930732323E+04  0.65000000000E+04  0.30000000000E+03 0.  1.
     100001    1    1    2    0    0  0.83714136087E+03 -0.91844457944E+02 -0.64434547168E+04  0.65000000000E+04  0.15050000000E+03 0.  1.
     100001    1    1    2    0    0 -0.83714136087E+03  0.91844457944E+02  0.64434547168E+04  0.65000000000E+04  0.15050000000E+03 0. -1.
</event>
<event>
 4    1  0.4521369E-004  0.6500000E+04  0.7818608E-02  0.7223770E-01
         52   -1    0    0    0    0  0.00000000000E+00  0.00000000000E+00  0.64930732323E+04  0.65000000000E+04  0.30000000000E+03 0. -1.
        -52   -1    0    0    0    0 -0.00000000000E+00 -0.00000000000E+00 -0.64930732323E+04  0.65000000000E+04  0.30000000000E+03 0.  1.
     100001    1    1    2    0    0 -0.15516845958E+04 -0.27691135646E+03  0.63042005652E+04  0.65000000000E+04  0.15050000000E+03 0. -1.
     100001    1    1    2    0    0  0.15516845958E+04  0.27691135646E+03 -0.63042005652E+04  0.65000000000E+04  0.15050000000E+03 0.  1.
</event>
<event>
 4    1  0.4521369E-004  0.6500000E+04  0.7818608E-02  0.7223770E-01
         52   -1    0    0    0    0  0.00000000000E+00  0.00000000000E+00  0.64930732323E+04  0.65000000000E+04  0.30000000000E+03 0.  1.
        -52   -1    0    0    0    0 -0.00000000000E+00 -0.00000000000E+00 -0.64930732323E+04  0.65000000000E+04  0.30000000000E+03 0. -1.
     100001    1    1    2    0    0 -0.25403364176E+03  0.38362645663E+03 -0.64819478092E+04  0.65000000000E+04  0.15050000000E+03 0. -1.
     100001    1    1    2    0    0  0.25403364176E+03 -0.38362645663E+03  0.64819478092E+04  0.65000000000E+04  0.15050000000E+03 0.  1.
</event>
<event>
 4    1  0.4521369E-004  0.6500000E+04  0.7818608E-02  0.7223770E-01
         52   -1    0    0    0    0  0.00000000000E+00  0.00000000000E+00  0.64930732323E+04  0.65000000000E+04  0.30000000000E+03 0. -1.
        -52   -1    0    0    0    0 -0.00000000000E+00 -0.00000000000E+00 -0.64930732323E+04  0.65000000000E+04  0.30000000000E+03 0.  1.
     100001    1    1    2    0    0 -0.26226996212E+04 -0.32914252352E+04  0.49512944134E+04  0.65000000000E+04  0.15050000000E+03 0. -1.
     100001    1    1    2    0    0  0.26226996212E+04  0.32914252352E+04 -0.49512944134E+04  0.65000000000E+04  0.15050000000E+03 0.  1.
</event>
<event>
 4    1  0.4521369E-004  0.6500000E+04  0.7818608E-02  0.7223770E-01
         52   -1    0    0    0    0  0.00000000000E+00  0.00000000000E+00  0.64930732323E+04  0.65000000000E+04  0.30000000000E+03 0. -1.
        -52   -1    0    0    0    0 -0.00000000000E+00 -0.00000000000E+00 -0.64930732323E+04  0.65000000000E+04  0.30000000000E+03 0.  1.
     100001    1    1    2    0    0  0.16020304856E+04  0.24744946594E+04 -0.57911764136E+04  0.65000000000E+04  0.15050000000E+03 0.  1.
     100001    1    1    2    0    0 -0.16020304856E+04 -0.24744946594E+04  0.57911764136E+04  0.65000000000E+04  0.15050000000E+03 0. -1.
</event>
<event>
 4    1  0.4521369E-004  0.6500000E+04  0.7818608E-02  0.7223770E-01
         52   -1    0    0    0    0  0.00000000000E+00  0.00000000000E+00  0.64930732323E+04  0.65000000000E+04  0.30000000000E+03 0.  1.
        -52   -1    0    0    0    0 -0.00000000000E+00 -0.00000000000E+00 -0.64930732323E+04  0.65000000000E+04  0.30000000000E+03 0. -1.
     100001    1    1    2    0    0 -0.19229375476E+04 -0.19998689298E+04 -0.58762390355E+04  0.65000000000E+04  0.15050000000E+03 0. -1.
     100001    1    1    2    0    0  0.19229375476E+04  0.19998689298E+04  0.58762390355E+04  0.65000000000E+04  0.15050000000E+03 0.  1.
</event>
<event>
 4    1  0.5313518E-004  0.6500000E+04  0.7818608E-02  0.7223770E-01
         52   -1    0    0    0    0  0.00000000000E+00  0.00000000000E+00  0.64930732323E+04  0.65000000000E+04  0.30000000000E+03 0. -1.
        -52   -1    0    0    0    0 -0.00000000000E+00 -0.00000000000E+00 -0.64930732323E+04  0.65000000000E+04  0.30000000000E+03 0. -1.
     100001    1    1    2    0    0 -0.11413763827E+03  0.19026785228E+03  0.64944684535E+04  0.65000000000E+04  0.15050000000E+03 0. -1.
     100001    1    1    2    0    0  0.11413763827E+03 -0.19026785228E+03 -0.64944684535E+04  0.65000000000E+04  0.15050000000E+03 0. -1.
</event>
<event>
 4    1  0.4521369E-004  0.6500000E+04  0.7818608E-02  0.7223770E-01
         52   -1    0    0    0    0  0.00000000000E+00  0.00000000000E+00  0.64930732323E+04  0.65000000000E+04  0.30000000000E+03 0. -1.
        -52   -1    0    0    0    0 -0.00000000000E+00 -0.00000000000E+00 -0.64930732323E+04  0.65000000000E+04  0.30000000000E+03 0.  1.
     100001    1    1    2    0    0 -0.23538771171E+04  0.10797063990E+04  0.59599367748E+04  0.65000000000E+04  0.15050000000E+03 0. -1.
     100001    1    1    2    0    0  0.23538771171E+04 -0.10797063990E+04 -0.59599367748E+04  0.65000000000E+04  0.15050000000E+03 0.  1.
</event>
<event>
 4    1  0.4521369E-004  0.6500000E+04  0.7818608E-02  0.7223770E-01
         52   -1    0    0    0    0  0.00000000000E+00  0.00000000000E+00  0.64930732323E+04  0.65000000000E+04  0.30000000000E+03 0. -1.
        -52   -1    0    0    0    0 -0.00000000000E+00 -0.00000000000E+00 -0.64930732323E+04  0.65000000000E+04  0.30000000000E+03 0.  1.
     100001    1    1    2    0    0  0.35450605372E+03  0.19074446734E+03 -0.64857761105E+04  0.65000000000E+04  0.15050000000E+03 0.  1.
     100001    1    1    2    0    0 -0.35450605372E+03 -0.19074446734E+03  0.64857761105E+04  0.65000000000E+04  0.15050000000E+03 0. -1.
</event>
<event>
 4    1  0.4521369E-004  0.6500000E+04  0.7818608E-02  0.7223770E-01
         52   -1    0    0    0    0  0.00000000000E+00  0.00000000000E+00  0.64930732323E+04  0.65000000000E+04  0.30000000000E+03 0.  1.
        -52   -1    0    0    0    0 -0.00000000000E+00 -0.00000000000E+00 -0.64930732323E+04  0.65000000000E+04  0.30000000000E+03 0. -1.
     100001    1    1    2    0    0  0.79173915043E+03 -0.18497512440E+03  0.64471918748E+04  0.65000000000E+04  0.15050000000E+03 0.  1.
     100001    1    1    2    0    0 -0.79173915043E+03  0.18497512440E+03 -0.64471918748E+04  0.65000000000E+04  0.15050000000E+03 0. -1.
</event>
<event>
 4    1  0.4521369E-004  0.6500000E+04  0.7818608E-02  0.7223770E-01
         52   -1    0    0    0    0  0.00000000000E+00  0.00000000000E+00  0.64930732323E+04  0.65000000000E+04  0.30000000000E+03 0. -1.
        -52   -1    0    0    0    0 -0.00000000000E+00 -0.00000000000E+00 -0.64930732323E+04  0.65000000000E+04  0.30000000000E+03 0.  1.
     100001    1    1    2    0    0  0.18875260470E+03 -0.26500558088E+04  0.59303394856E+04  0.65000000000E+04  0.15050000000E+03 0. -1.
     100001    1    1    2    0    0 -0.18875260470E+03  0.26500558088E+04 -0.59303394856E+04  0.65000000000E+04  0.15050000000E+03 0.  1.
</event>
<event>
 4    1  0.4521369E-004  0.6500000E+04  0.7818608E-02  0.7223770E-01
         52   -1    0    0    0    0  0.00000000000E+00  0.00000000000E+00  0.64930732323E+04  0.65000000000E+04  0.30000000000E+03 0.  1.
        -52   -1    0    0    0    0 -0.00000000000E+00 -0.00000000000E+00 -0.64930732323E+04  0.65000000000E+04  0.30000000000E+03 0. -1.
     100001    1    1    2    0    0 -0.25386882214E+03 -0.35162277250E+03  0.64837691042E+04  0.65000000000E+04  0.15050000000E+03 0.  1.
     100001    1    1    2    0    0  0.25386882214E+03  0.35162277250E+03 -0.64837691042E+04  0.65000000000E+04  0.15050000000E+03 0. -1.
</event>
<event>
 4    1  0.4521369E-004  0.6500000E+04  0.7818608E-02  0.7223770E-01
         52   -1    0    0    0    0  0.00000000000E+00  0.00000000000E+00  0.64930732323E+04  0.65000000000E+04  0.30000000000E+03 0.  1.
        -52   -1    0    0    0    0 -0.00000000000E+00 -0.00000000000E+00 -0.64930732323E+04  0.65000000000E+04  0.30000000000E+03 0. -1.
     100001    1    1    2    0    0  0.10188920448E+03  0.18529440049E+04  0.62276453700E+04  0.65000000000E+04  0.15050000000E+03 0.  1.
     100001    1    1    2    0    0 -0.10188920448E+03 -0.18529440049E+04 -0.62276453700E+04  0.65000000000E+04  0.15050000000E+03 0. -1.
</event>
<event>
 4    1  0.4521369E-004  0.6500000E+04  0.7818608E-02  0.7223770E-01
         52   -1    0    0    0    0  0.00000000000E+00  0.00000000000E+00  0.64930732323E+04  0.65000000000E+04  0.30000000000E+03 0.  1.
        -52   -1    0    0    0    0 -0.00000000000E+00 -0.00000000000E+00 -0.64930732323E+04  0.65000000000E+04  0.30000000000E+03 0. -1.
     100001    1    1    2    0    0  0.49491180648E+04  0.18482135734E+04 -0.37838719214E+04  0.65000000000E+04  0.15050000000E+03 0. -1.
     100001    1    1    2    0    0 -0.49491180648E+04 -0.18482135734E+04  0.37838719214E+04  0.65000000000E+04  0.15050000000E+03 0.  1.
</event>
<event>
 4    1  0.4521369E-004  0.6500000E+04  0.7818608E-02  0.7223770E-01
         52   -1    0    0    0    0  0.00000000000E+00  0.00000000000E+00  0.64930732323E+04  0.65000000000E+04  0.30000000000E+03 0.  1.
        -52   -1    0    0    0    0 -0.00000000000E+00 -0.00000000000E+00 -0.64930732323E+04  0.65000000000E+04  0.30000000000E+03 0.  1.
     100001    1    1    2    0    0 -0.13991341754E+02 -0.46400378247E+03 -0.64816552270E+04  0.65000000000E+04  0.15050000000E+03 0.  1.
     100001    1    1    2    0    0  0.13991341754E+02  0.46400378247E+03  0.64816552270E+04  0.65000000000E+04  0.15050000000E+03 0.  1.
</event>
<event>
 4    1  0.4521369E-004  0.6500000E+04  0.7818608E-02  0.7223770E-01
         52   -1    0    0    0    0  0.00000000000E+00  0.00000000000E+00  0.64930732323E+04  0.65000000000E+04  0.30000000000E+03 0.  1.
        -52   -1    0    0    0    0 -0.00000000000E+00 -0.00000000000E+00 -0.64930732323E+04  0.65000000000E+04  0.30000000000E+03 0. -1.
     100001    1    1    2    0    0  0.19446534741E+04  0.12308778892E+04  0.60770562148E+04  0.65000000000E+04  0.15050000000E+03 0.  1.
     100001    1    1    2    0    0 -0.19446534741E+04 -0.12308778892E+04 -0.60770562148E+04  0.65000000000E+04  0.15050000000E+03 0. -1.
</event>
<event>
 4    1  0.4521369E-004  0.6500000E+04  0.7818608E-02  0.7223770E-01
         52   -1    0    0    0    0  0.00000000000E+00  0.00000000000E+00  0.64930732323E+04  0.65000000000E+04  0.30000000000E+03 0. -1.
        -52   -1    0    0    0    0 -0.00000000000E+00 -0.00000000000E+00 -0.64930732323E+04  0.65000000000E+04  0.30000000000E+03 0.  1.
     100001    1    1    2    0    0  0.51789131108E+04  0.20290668442E+04  0.33599250710E+04  0.65000000000E+04  0.15050000000E+03 0. -1.
     100001    1    1    2    0    0 -0.51789131108E+04 -0.20290668442E+04 -0.33599250710E+04  0.65000000000E+04  0.15050000000E+03 0.  1.
</event>
<event>
 4    1  0.4521369E-004  0.6500000E+04  0.7818608E-02  0.7223770E-01
         52   -1    0    0    0    0  0.00000000000E+00  0.00000000000E+00  0.64930732323E+04  0.65000000000E+04  0.30000000000E+03 0. -1.
        -52   -1    0    0    0    0 -0.00000000000E+00 -0.00000000000E+00 -0.64930732323E+04  0.65000000000E+04  0.30000000000E+03 0.  1.
     100001    1    1    2    0    0  0.10431495594E+04  0.33283579239E+04 -0.54828115303E+04  0.65000000000E+04  0.15050000000E+03 0.  1.
     100001    1    1    2    0    0 -0.10431495594E+04 -0.33283579239E+04  0.54828115303E+04  0.65000000000E+04  0.15050000000E+03 0. -1.
</event>
<event>
 4    1  0.4521369E-004  0.6500000E+04  0.7818608E-02  0.7223770E-01
         52   -1    0    0    0    0  0.00000000000E+00  0.00000000000E+00  0.64930732323E+04  0.65000000000E+04  0.30000000000E+03 0.  1.
        -52   -1    0    0    0    0 -0.00000000000E+00 -0.00000000000E+00 -0.64930732323E+04  0.65000000000E+04  0.30000000000E+03 0. -1.
     100001    1    1    2    0    0  0.20437278797E+04  0.18739821245E+04  0.58769649566E+04  0.65000000000E+04  0.15050000000E+03 0.  1.
     100001    1    1    2    0    0 -0.20437278797E+04 -0.18739821245E+04 -0.58769649566E+04  0.65000000000E+04  0.15050000000E+03 0. -1.
</event>
<event>
 4    1  0.4521369E-004  0.6500000E+04  0.7818608E-02  0.7223770E-01
         52   -1    0    0    0    0  0.00000000000E+00  0.00000000000E+00  0.64930732323E+04  0.65000000000E+04  0.30000000000E+03 0.  1.
        -52   -1    0    0    0    0 -0.00000000000E+00 -0.00000000000E+00 -0.64930732323E+04  0.65000000000E+04  0.30000000000E+03 0. -1.
     100001    1    1    2    0    0 -0.56437788147E+03 -0.32646955296E+04  0.55902227555E+04  0.65000000000E+04  0.15050000000E+03 0.  1.
     100001    1    1    2    0    0  0.56437788147E+03  0.32646955296E+04 -0.55902227555E+04  0.65000000000E+04  0.15050000000E+03 0. -1.
</event>
<event>
 4    1  0.4521369E-004  0.6500000E+04  0.7818608E-02  0.7223770E-01
         52   -1    0    0    0    0  0.00000000000E+00  0.00000000000E+00  0.64930732323E+04  0.65000000000E+04  0.30000000000E+03 0.  1.
        -52   -1    0    0    0    0 -0.00000000000E+00 -0.00000000000E+00 -0.64930732323E+04  0.65000000000E+04  0.30000000000E+03 0. -1.
     100001    1    1    2    0    0  0.39914949639E+04  0.31428912831E+04  0.40518578561E+04  0.65000000000E+04  0.15050000000E+03 0.  1.
     100001    1    1    2    0    0 -0.39914949639E+04 -0.31428912831E+04 -0.40518578561E+04  0.65000000000E+04  0.15050000000E+03 0. -1.
</event>
<event>
 4    1  0.4521369E-004  0.6500000E+04  0.7818608E-02  0.7223770E-01
         52   -1    0    0    0    0  0.00000000000E+00  0.00000000000E+00  0.64930732323E+04  0.65000000000E+04  0.30000000000E+03 0.  1.
        -52   -1    0    0    0    0 -0.00000000000E+00 -0.00000000000E+00 -0.64930732323E+04  0.65000000000E+04  0.30000000000E+03 0. -1.
     100001    1    1    2    0    0  0.19517208890E+04 -0.34952521139E+04  0.51187252302E+04  0.65000000000E+04  0.15050000000E+03 0.  1.
     100001    1    1    2    0    0 -0.19517208890E+04  0.34952521139E+04 -0.51187252302E+04  0.65000000000E+04  0.15050000000E+03 0. -1.
</event>
<event>
 4    1  0.4521369E-004  0.6500000E+04  0.7818608E-02  0.7223770E-01
         52   -1    0    0    0    0  0.00000000000E+00  0.00000000000E+00  0.64930732323E+04  0.65000000000E+04  0.30000000000E+03 0.  1.
        -52   -1    0    0    0    0 -0.00000000000E+00 -0.00000000000E+00 -0.64930732323E+04  0.65000000000E+04  0.30000000000E+03 0. -1.
     100001    1    1    2    0    0 -0.83013150095E+03 -0.29815907934E+04  0.57138732732E+04  0.65000000000E+04  0.15050000000E+03 0.  1.
     100001    1    1    2    0    0  0.83013150095E+03  0.29815907934E+04 -0.57138732732E+04  0.65000000000E+04  0.15050000000E+03 0. -1.
</event>
<event>
 4    1  0.4521369E-004  0.6500000E+04  0.7818608E-02  0.7223770E-01
         52   -1    0    0    0    0  0.00000000000E+00  0.00000000000E+00  0.64930732323E+04  0.65000000000E+04  0.30000000000E+03 0.  1.
        -52   -1    0    0    0    0 -0.00000000000E+00 -0.00000000000E+00 -0.64930732323E+04  0.65000000000E+04  0.30000000000E+03 0. -1.
     100001    1    1    2    0    0 -0.23693878008E+04 -0.62265521630E+03 -0.60187749319E+04  0.65000000000E+04  0.15050000000E+03 0. -1.
     100001    1    1    2    0    0  0.23693878008E+04  0.62265521630E+03  0.60187749319E+04  0.65000000000E+04  0.15050000000E+03 0.  1.
</event>
<event>
 4    1  0.4521369E-004  0.6500000E+04  0.7818608E-02  0.7223770E-01
         52   -1    0    0    0    0  0.00000000000E+00  0.00000000000E+00  0.64930732323E+04  0.65000000000E+04  0.30000000000E+03 0. -1.
        -52   -1    0    0    0    0 -0.00000000000E+00 -0.00000000000E+00 -0.64930732323E+04  0.65000000000E+04  0.30000000000E+03 0.  1.
     100001    1    1    2    0    0  0.43219479358E+04  0.31005699384E+04 -0.37329052824E+04  0.65000000000E+04  0.15050000000E+03 0.  1.
     100001    1    1    2    0    0 -0.43219479358E+04 -0.31005699384E+04  0.37329052824E+04  0.65000000000E+04  0.15050000000E+03 0. -1.
</event>
<event>
 4    1  0.4521369E-004  0.6500000E+04  0.7818608E-02  0.7223770E-01
         52   -1    0    0    0    0  0.00000000000E+00  0.00000000000E+00  0.64930732323E+04  0.65000000000E+04  0.30000000000E+03 0. -1.
        -52   -1    0    0    0    0 -0.00000000000E+00 -0.00000000000E+00 -0.64930732323E+04  0.65000000000E+04  0.30000000000E+03 0.  1.
     100001    1    1    2    0    0 -0.19923662772E+04  0.33248800072E+03 -0.61763482817E+04  0.65000000000E+04  0.15050000000E+03 0.  1.
     100001    1    1    2    0    0  0.19923662772E+04 -0.33248800072E+03  0.61763482817E+04  0.65000000000E+04  0.15050000000E+03 0. -1.
</event>
<event>
 4    1  0.4521369E-004  0.6500000E+04  0.7818608E-02  0.7223770E-01
         52   -1    0    0    0    0  0.00000000000E+00  0.00000000000E+00  0.64930732323E+04  0.65000000000E+04  0.30000000000E+03 0. -1.
        -52   -1    0    0    0    0 -0.00000000000E+00 -0.00000000000E+00 -0.64930732323E+04  0.65000000000E+04  0.30000000000E+03 0. -1.
     100001    1    1    2    0    0 -0.77535527621E+03 -0.30005672370E+03  0.64448537538E+04  0.65000000000E+04  0.15050000000E+03 0. -1.
     100001    1    1    2    0    0  0.77535527621E+03  0.30005672370E+03 -0.64448537538E+04  0.65000000000E+04  0.15050000000E+03 0. -1.
</event>
<event>
 4    1  0.4521369E-004  0.6500000E+04  0.7818608E-02  0.7223770E-01
         52   -1    0    0    0    0  0.00000000000E+00  0.00000000000E+00  0.64930732323E+04  0.65000000000E+04  0.30000000000E+03 0. -1.
        -52   -1    0    0    0    0 -0.00000000000E+00 -0.00000000000E+00 -0.64930732323E+04  0.65000000000E+04  0.30000000000E+03 0.  1.
     100001    1    1    2    0    0  0.53881526870E+03  0.12181342121E+03 -0.64747346931E+04  0.65000000000E+04  0.15050000000E+03 0.  1.
     100001    1    1    2    0    0 -0.53881526870E+03 -0.12181342121E+03  0.64747346931E+04  0.65000000000E+04  0.15050000000E+03 0. -1.
</event>
<event>
 4    1  0.4521369E-004  0.6500000E+04  0.7818608E-02  0.7223770E-01
         52   -1    0    0    0    0  0.00000000000E+00  0.00000000000E+00  0.64930732323E+04  0.65000000000E+04  0.30000000000E+03 0. -1.
        -52   -1    0    0    0    0 -0.00000000000E+00 -0.00000000000E+00 -0.64930732323E+04  0.65000000000E+04  0.30000000000E+03 0.  1.
     100001    1    1    2    0    0 -0.36628145350E+04  0.29566494753E+04 -0.44798842967E+04  0.65000000000E+04  0.15050000000E+03 0.  1.
     100001    1    1    2    0    0  0.36628145350E+04 -0.29566494753E+04  0.44798842967E+04  0.65000000000E+04  0.15050000000E+03 0. -1.
</event>
<event>
 4    1  0.4521369E-004  0.6500000E+04  0.7818608E-02  0.7223770E-01
         52   -1    0    0    0    0  0.00000000000E+00  0.00000000000E+00  0.64930732323E+04  0.65000000000E+04  0.30000000000E+03 0.  1.
        -52   -1    0    0    0    0 -0.00000000000E+00 -0.00000000000E+00 -0.64930732323E+04  0.65000000000E+04  0.30000000000E+03 0. -1.
     100001    1    1    2    0    0 -0.39339131843E+03  0.18872759614E+04  0.62057056380E+04  0.65000000000E+04  0.15050000000E+03 0.  1.
     100001    1    1    2    0    0  0.39339131843E+03 -0.18872759614E+04 -0.62057056380E+04  0.65000000000E+04  0.15050000000E+03 0. -1.
</event>
<event>
 4    1  0.4521369E-004  0.6500000E+04  0.7818608E-02  0.7223770E-01
         52   -1    0    0    0    0  0.00000000000E+00  0.00000000000E+00  0.64930732323E+04  0.65000000000E+04  0.30000000000E+03 0.  1.
        -52   -1    0    0    0    0 -0.00000000000E+00 -0.00000000000E+00 -0.64930732323E+04  0.65000000000E+04  0.30000000000E+03 0. -1.
     100001    1    1    2    0    0 -0.30959407255E+03  0.19608680810E+04 -0.61876083933E+04  0.65000000000E+04  0.15050000000E+03 0. -1.
     100001    1    1    2    0    0  0.30959407255E+03 -0.19608680810E+04  0.61876083933E+04  0.65000000000E+04  0.15050000000E+03 0.  1.
</event>
<event>
 4    1  0.4521369E-004  0.6500000E+04  0.7818608E-02  0.7223770E-01
         52   -1    0    0    0    0  0.00000000000E+00  0.00000000000E+00  0.64930732323E+04  0.65000000000E+04  0.30000000000E+03 0. -1.
        -52   -1    0    0    0    0 -0.00000000000E+00 -0.00000000000E+00 -0.64930732323E+04  0.65000000000E+04  0.30000000000E+03 0. -1.
     100001    1    1    2    0    0 -0.71981599161E+03  0.14599610506E+03  0.64566167476E+04  0.65000000000E+04  0.15050000000E+03 0. -1.
     100001    1    1    2    0    0  0.71981599161E+03 -0.14599610506E+03 -0.64566167476E+04  0.65000000000E+04  0.15050000000E+03 0. -1.
</event>
<event>
 4    1  0.4521369E-004  0.6500000E+04  0.7818608E-02  0.7223770E-01
         52   -1    0    0    0    0  0.00000000000E+00  0.00000000000E+00  0.64930732323E+04  0.65000000000E+04  0.30000000000E+03 0. -1.
        -52   -1    0    0    0    0 -0.00000000000E+00 -0.00000000000E+00 -0.64930732323E+04  0.65000000000E+04  0.30000000000E+03 0.  1.
     100001    1    1    2    0    0  0.58735624075E+03  0.44104647135E+04  0.47360493459E+04  0.65000000000E+04  0.15050000000E+03 0. -1.
     100001    1    1    2    0    0 -0.58735624075E+03 -0.44104647135E+04 -0.47360493459E+04  0.65000000000E+04  0.15050000000E+03 0.  1.
</event>
<event>
 4    1  0.4521369E-004  0.6500000E+04  0.7818608E-02  0.7223770E-01
         52   -1    0    0    0    0  0.00000000000E+00  0.00000000000E+00  0.64930732323E+04  0.65000000000E+04  0.30000000000E+03 0. -1.
        -52   -1    0    0    0    0 -0.00000000000E+00 -0.00000000000E+00 -0.64930732323E+04  0.65000000000E+04  0.30000000000E+03 0.  1.
     100001    1    1    2    0    0 -0.73691787189E+03  0.53286697102E+04  0.36454877479E+04  0.65000000000E+04  0.15050000000E+03 0. -1.
     100001    1    1    2    0    0  0.73691787189E+03 -0.53286697102E+04 -0.36454877479E+04  0.65000000000E+04  0.15050000000E+03 0.  1.
</event>
<event>
 4    1  0.4521369E-004  0.6500000E+04  0.7818608E-02  0.7223770E-01
         52   -1    0    0    0    0  0.00000000000E+00  0.00000000000E+00  0.64930732323E+04  0.65000000000E+04  0.30000000000E+03 0. -1.
        -52   -1    0    0    0    0 -0.00000000000E+00 -0.00000000000E+00 -0.64930732323E+04  0.65000000000E+04  0.30000000000E+03 0.  1.
     100001    1    1    2    0    0  0.14551578235E+04 -0.41333915963E+04  0.47984309279E+04  0.65000000000E+04  0.15050000000E+03 0. -1.
     100001    1    1    2    0    0 -0.14551578235E+04  0.41333915963E+04 -0.47984309279E+04  0.65000000000E+04  0.15050000000E+03 0.  1.
</event>
<event>
 4    1  0.4521369E-004  0.6500000E+04  0.7818608E-02  0.7223770E-01
         52   -1    0    0    0    0  0.00000000000E+00  0.00000000000E+00  0.64930732323E+04  0.65000000000E+04  0.30000000000E+03 0. -1.
        -52   -1    0    0    0    0 -0.00000000000E+00 -0.00000000000E+00 -0.64930732323E+04  0.65000000000E+04  0.30000000000E+03 0.  1.
     100001    1    1    2    0    0  0.27536254223E+03  0.37536841622E+03  0.64815602884E+04  0.65000000000E+04  0.15050000000E+03 0. -1.
     100001    1    1    2    0    0 -0.27536254223E+03 -0.37536841622E+03 -0.64815602884E+04  0.65000000000E+04  0.15050000000E+03 0.  1.
</event>
<event>
 4    1  0.4521369E-004  0.6500000E+04  0.7818608E-02  0.7223770E-01
         52   -1    0    0    0    0  0.00000000000E+00  0.00000000000E+00  0.64930732323E+04  0.65000000000E+04  0.30000000000E+03 0. -1.
        -52   -1    0    0    0    0 -0.00000000000E+00 -0.00000000000E+00 -0.64930732323E+04  0.65000000000E+04  0.30000000000E+03 0.  1.
     100001    1    1    2    0    0  0.17271579937E+04  0.49801623130E+04 -0.38002971398E+04  0.65000000000E+04  0.15050000000E+03 0.  1.
     100001    1    1    2    0    0 -0.17271579937E+04 -0.49801623130E+04  0.38002971398E+04  0.65000000000E+04  0.15050000000E+03 0. -1.
</event>
<event>
 4    1  0.4521369E-004  0.6500000E+04  0.7818608E-02  0.7223770E-01
         52   -1    0    0    0    0  0.00000000000E+00  0.00000000000E+00  0.64930732323E+04  0.65000000000E+04  0.30000000000E+03 0.  1.
        -52   -1    0    0    0    0 -0.00000000000E+00 -0.00000000000E+00 -0.64930732323E+04  0.65000000000E+04  0.30000000000E+03 0. -1.
     100001    1    1    2    0    0  0.72601361246E+02 -0.71686520527E+03 -0.64581872898E+04  0.65000000000E+04  0.15050000000E+03 0. -1.
     100001    1    1    2    0    0 -0.72601361246E+02  0.71686520527E+03  0.64581872898E+04  0.65000000000E+04  0.15050000000E+03 0.  1.
</event>
<event>
 4    1  0.4521369E-004  0.6500000E+04  0.7818608E-02  0.7223770E-01
         52   -1    0    0    0    0  0.00000000000E+00  0.00000000000E+00  0.64930732323E+04  0.65000000000E+04  0.30000000000E+03 0. -1.
        -52   -1    0    0    0    0 -0.00000000000E+00 -0.00000000000E+00 -0.64930732323E+04  0.65000000000E+04  0.30000000000E+03 0.  1.
     100001    1    1    2    0    0  0.36313130395E+03 -0.85286543468E+03  0.64318042536E+04  0.65000000000E+04  0.15050000000E+03 0. -1.
     100001    1    1    2    0    0 -0.36313130395E+03  0.85286543468E+03 -0.64318042536E+04  0.65000000000E+04  0.15050000000E+03 0.  1.
</event>
<event>
 4    1  0.4521369E-004  0.6500000E+04  0.7818608E-02  0.7223770E-01
         52   -1    0    0    0    0  0.00000000000E+00  0.00000000000E+00  0.64930732323E+04  0.65000000000E+04  0.30000000000E+03 0. -1.
        -52   -1    0    0    0    0 -0.00000000000E+00 -0.00000000000E+00 -0.64930732323E+04  0.65000000000E+04  0.30000000000E+03 0.  1.
     100001    1    1    2    0    0  0.62964889323E+04 -0.15409354413E+04 -0.45507674201E+03  0.65000000000E+04  0.15050000000E+03 0.  1.
     100001    1    1    2    0    0 -0.62964889323E+04  0.15409354413E+04  0.45507674201E+03  0.65000000000E+04  0.15050000000E+03 0. -1.
</event>
<event>
 4    1  0.4521369E-004  0.6500000E+04  0.7818608E-02  0.7223770E-01
         52   -1    0    0    0    0  0.00000000000E+00  0.00000000000E+00  0.64930732323E+04  0.65000000000E+04  0.30000000000E+03 0.  1.
        -52   -1    0    0    0    0 -0.00000000000E+00 -0.00000000000E+00 -0.64930732323E+04  0.65000000000E+04  0.30000000000E+03 0. -1.
     100001    1    1    2    0    0  0.51879291314E+03 -0.41508230628E+03 -0.64642022201E+04  0.65000000000E+04  0.15050000000E+03 0. -1.
     100001    1    1    2    0    0 -0.51879291314E+03  0.41508230628E+03  0.64642022201E+04  0.65000000000E+04  0.15050000000E+03 0.  1.
</event>
<event>
 4    1  0.4521369E-004  0.6500000E+04  0.7818608E-02  0.7223770E-01
         52   -1    0    0    0    0  0.00000000000E+00  0.00000000000E+00  0.64930732323E+04  0.65000000000E+04  0.30000000000E+03 0. -1.
        -52   -1    0    0    0    0 -0.00000000000E+00 -0.00000000000E+00 -0.64930732323E+04  0.65000000000E+04  0.30000000000E+03 0.  1.
     100001    1    1    2    0    0  0.44565426458E+04  0.25044473049E+04 -0.40117728117E+04  0.65000000000E+04  0.15050000000E+03 0.  1.
     100001    1    1    2    0    0 -0.44565426458E+04 -0.25044473049E+04  0.40117728117E+04  0.65000000000E+04  0.15050000000E+03 0. -1.
</event>
<event>
 4    1  0.4521369E-004  0.6500000E+04  0.7818608E-02  0.7223770E-01
         52   -1    0    0    0    0  0.00000000000E+00  0.00000000000E+00  0.64930732323E+04  0.65000000000E+04  0.30000000000E+03 0.  1.
        -52   -1    0    0    0    0 -0.00000000000E+00 -0.00000000000E+00 -0.64930732323E+04  0.65000000000E+04  0.30000000000E+03 0. -1.
     100001    1    1    2    0    0  0.50138472638E+03  0.32921683498E+04  0.55801066892E+04  0.65000000000E+04  0.15050000000E+03 0.  1.
     100001    1    1    2    0    0 -0.50138472638E+03 -0.32921683498E+04 -0.55801066892E+04  0.65000000000E+04  0.15050000000E+03 0. -1.
</event>
<event>
 4    1  0.4521369E-004  0.6500000E+04  0.7818608E-02  0.7223770E-01
         52   -1    0    0    0    0  0.00000000000E+00  0.00000000000E+00  0.64930732323E+04  0.65000000000E+04  0.30000000000E+03 0. -1.
        -52   -1    0    0    0    0 -0.00000000000E+00 -0.00000000000E+00 -0.64930732323E+04  0.65000000000E+04  0.30000000000E+03 0.  1.
     100001    1    1    2    0    0  0.90592416960E+03 -0.64145916380E+04  0.50957361234E+03  0.65000000000E+04  0.15050000000E+03 0.  1.
     100001    1    1    2    0    0 -0.90592416960E+03  0.64145916380E+04 -0.50957361234E+03  0.65000000000E+04  0.15050000000E+03 0. -1.
</event>
<event>
 4    1  0.4521369E-004  0.6500000E+04  0.7818608E-02  0.7223770E-01
         52   -1    0    0    0    0  0.00000000000E+00  0.00000000000E+00  0.64930732323E+04  0.65000000000E+04  0.30000000000E+03 0.  1.
        -52   -1    0    0    0    0 -0.00000000000E+00 -0.00000000000E+00 -0.64930732323E+04  0.65000000000E+04  0.30000000000E+03 0. -1.
     100001    1    1    2    0    0 -0.83552363128E+02  0.44789940407E+03 -0.64822646410E+04  0.65000000000E+04  0.15050000000E+03 0. -1.
     100001    1    1    2    0    0  0.83552363128E+02 -0.44789940407E+03  0.64822646410E+04  0.65000000000E+04  0.15050000000E+03 0.  1.
</event>
<event>
 4    1  0.4521369E-004  0.6500000E+04  0.7818608E-02  0.7223770E-01
         52   -1    0    0    0    0  0.00000000000E+00  0.00000000000E+00  0.64930732323E+04  0.65000000000E+04  0.30000000000E+03 0.  1.
        -52   -1    0    0    0    0 -0.00000000000E+00 -0.00000000000E+00 -0.64930732323E+04  0.65000000000E+04  0.30000000000E+03 0. -1.
     100001    1    1    2    0    0 -0.25942714088E+03 -0.17484585799E+04 -0.62532343554E+04  0.65000000000E+04  0.15050000000E+03 0. -1.
     100001    1    1    2    0    0  0.25942714088E+03  0.17484585799E+04  0.62532343554E+04  0.65000000000E+04  0.15050000000E+03 0.  1.
</event>
<event>
 4    1  0.4521369E-004  0.6500000E+04  0.7818608E-02  0.7223770E-01
         52   -1    0    0    0    0  0.00000000000E+00  0.00000000000E+00  0.64930732323E+04  0.65000000000E+04  0.30000000000E+03 0. -1.
        -52   -1    0    0    0    0 -0.00000000000E+00 -0.00000000000E+00 -0.64930732323E+04  0.65000000000E+04  0.30000000000E+03 0.  1.
     100001    1    1    2    0    0 -0.27954284734E+03 -0.82019064388E+03  0.64402245966E+04  0.65000000000E+04  0.15050000000E+03 0. -1.
     100001    1    1    2    0    0  0.27954284734E+03  0.82019064388E+03 -0.64402245966E+04  0.65000000000E+04  0.15050000000E+03 0.  1.
</event>
<event>
 4    1  0.4521369E-004  0.6500000E+04  0.7818608E-02  0.7223770E-01
         52   -1    0    0    0    0  0.00000000000E+00  0.00000000000E+00  0.64930732323E+04  0.65000000000E+04  0.30000000000E+03 0.  1.
        -52   -1    0    0    0    0 -0.00000000000E+00 -0.00000000000E+00 -0.64930732323E+04  0.65000000000E+04  0.30000000000E+03 0. -1.
     100001    1    1    2    0    0  0.50000349492E+02  0.11085795914E+04 -0.64028041517E+04  0.65000000000E+04  0.15050000000E+03 0. -1.
     100001    1    1    2    0    0 -0.50000349492E+02 -0.11085795914E+04  0.64028041517E+04  0.65000000000E+04  0.15050000000E+03 0.  1.
</event>
<event>
 4    1  0.4521369E-004  0.6500000E+04  0.7818608E-02  0.7223770E-01
         52   -1    0    0    0    0  0.00000000000E+00  0.00000000000E+00  0.64930732323E+04  0.65000000000E+04  0.30000000000E+03 0.  1.
        -52   -1    0    0    0    0 -0.00000000000E+00 -0.00000000000E+00 -0.64930732323E+04  0.65000000000E+04  0.30000000000E+03 0.  1.
     100001    1    1    2    0    0 -0.25763685077E+03 -0.18613838531E+03  0.64904796051E+04  0.65000000000E+04  0.15050000000E+03 0.  1.
     100001    1    1    2    0    0  0.25763685077E+03  0.18613838531E+03 -0.64904796051E+04  0.65000000000E+04  0.15050000000E+03 0.  1.
</event>
<event>
 4    1  0.4521369E-004  0.6500000E+04  0.7818608E-02  0.7223770E-01
         52   -1    0    0    0    0  0.00000000000E+00  0.00000000000E+00  0.64930732323E+04  0.65000000000E+04  0.30000000000E+03 0. -1.
        -52   -1    0    0    0    0 -0.00000000000E+00 -0.00000000000E+00 -0.64930732323E+04  0.65000000000E+04  0.30000000000E+03 0.  1.
     100001    1    1    2    0    0  0.64302153869E+04  0.92207409843E+03  0.17163678179E+03  0.65000000000E+04  0.15050000000E+03 0. -1.
     100001    1    1    2    0    0 -0.64302153869E+04 -0.92207409843E+03 -0.17163678179E+03  0.65000000000E+04  0.15050000000E+03 0.  1.
</event>
<event>
 4    1  0.4521369E-004  0.6500000E+04  0.7818608E-02  0.7223770E-01
         52   -1    0    0    0    0  0.00000000000E+00  0.00000000000E+00  0.64930732323E+04  0.65000000000E+04  0.30000000000E+03 0.  1.
        -52   -1    0    0    0    0 -0.00000000000E+00 -0.00000000000E+00 -0.64930732323E+04  0.65000000000E+04  0.30000000000E+03 0. -1.
     100001    1    1    2    0    0 -0.38078450534E+03 -0.78747383258E+02 -0.64866132735E+04  0.65000000000E+04  0.15050000000E+03 0. -1.
     100001    1    1    2    0    0  0.38078450534E+03  0.78747383258E+02  0.64866132735E+04  0.65000000000E+04  0.15050000000E+03 0.  1.
</event>
<event>
 4    1  0.4521369E-004  0.6500000E+04  0.7818608E-02  0.7223770E-01
         52   -1    0    0    0    0  0.00000000000E+00  0.00000000000E+00  0.64930732323E+04  0.65000000000E+04  0.30000000000E+03 0.  1.
        -52   -1    0    0    0    0 -0.00000000000E+00 -0.00000000000E+00 -0.64930732323E+04  0.65000000000E+04  0.30000000000E+03 0. -1.
     100001    1    1    2    0    0  0.79622994833E+03  0.11337384378E+04 -0.63488585410E+04  0.65000000000E+04  0.15050000000E+03 0. -1.
     100001    1    1    2    0    0 -0.79622994833E+03 -0.11337384378E+04  0.63488585410E+04  0.65000000000E+04  0.15050000000E+03 0.  1.
</event>
<event>
 4    1  0.4521369E-004  0.6500000E+04  0.7818608E-02  0.7223770E-01
         52   -1    0    0    0    0  0.00000000000E+00  0.00000000000E+00  0.64930732323E+04  0.65000000000E+04  0.30000000000E+03 0. -1.
        -52   -1    0    0    0    0 -0.00000000000E+00 -0.00000000000E+00 -0.64930732323E+04  0.65000000000E+04  0.30000000000E+03 0.  1.
     100001    1    1    2    0    0 -0.29262427221E+03  0.35840236081E+03  0.64817643071E+04  0.65000000000E+04  0.15050000000E+03 0. -1.
     100001    1    1    2    0    0  0.29262427221E+03 -0.35840236081E+03 -0.64817643071E+04  0.65000000000E+04  0.15050000000E+03 0.  1.
</event>
<event>
 4    1  0.4521369E-004  0.6500000E+04  0.7818608E-02  0.7223770E-01
         52   -1    0    0    0    0  0.00000000000E+00  0.00000000000E+00  0.64930732323E+04  0.65000000000E+04  0.30000000000E+03 0.  1.
        -52   -1    0    0    0    0 -0.00000000000E+00 -0.00000000000E+00 -0.64930732323E+04  0.65000000000E+04  0.30000000000E+03 0. -1.
     100001    1    1    2    0    0  0.10056813907E+04 -0.17050805472E+03 -0.64177006547E+04  0.65000000000E+04  0.15050000000E+03 0. -1.
     100001    1    1    2    0    0 -0.10056813907E+04  0.17050805472E+03  0.64177006547E+04  0.65000000000E+04  0.15050000000E+03 0.  1.
</event>
<event>
 4    1  0.4521369E-004  0.6500000E+04  0.7818608E-02  0.7223770E-01
         52   -1    0    0    0    0  0.00000000000E+00  0.00000000000E+00  0.64930732323E+04  0.65000000000E+04  0.30000000000E+03 0.  1.
        -52   -1    0    0    0    0 -0.00000000000E+00 -0.00000000000E+00 -0.64930732323E+04  0.65000000000E+04  0.30000000000E+03 0. -1.
     100001    1    1    2    0    0 -0.10022556489E+04  0.16316722913E+03 -0.64184273634E+04  0.65000000000E+04  0.15050000000E+03 0. -1.
     100001    1    1    2    0    0  0.10022556489E+04 -0.16316722913E+03  0.64184273634E+04  0.65000000000E+04  0.15050000000E+03 0.  1.
</event>
<event>
 4    1  0.4521369E-004  0.6500000E+04  0.7818608E-02  0.7223770E-01
         52   -1    0    0    0    0  0.00000000000E+00  0.00000000000E+00  0.64930732323E+04  0.65000000000E+04  0.30000000000E+03 0.  1.
        -52   -1    0    0    0    0 -0.00000000000E+00 -0.00000000000E+00 -0.64930732323E+04  0.65000000000E+04  0.30000000000E+03 0. -1.
     100001    1    1    2    0    0  0.32079234378E+04  0.70825969899E+03  0.56066875396E+04  0.65000000000E+04  0.15050000000E+03 0.  1.
     100001    1    1    2    0    0 -0.32079234378E+04 -0.70825969899E+03 -0.56066875396E+04  0.65000000000E+04  0.15050000000E+03 0. -1.
</event>
<event>
 4    1  0.4521369E-004  0.6500000E+04  0.7818608E-02  0.7223770E-01
         52   -1    0    0    0    0  0.00000000000E+00  0.00000000000E+00  0.64930732323E+04  0.65000000000E+04  0.30000000000E+03 0.  1.
        -52   -1    0    0    0    0 -0.00000000000E+00 -0.00000000000E+00 -0.64930732323E+04  0.65000000000E+04  0.30000000000E+03 0. -1.
     100001    1    1    2    0    0 -0.73008634819E+03  0.24790931766E+02  0.64570666005E+04  0.65000000000E+04  0.15050000000E+03 0.  1.
     100001    1    1    2    0    0  0.73008634819E+03 -0.24790931766E+02 -0.64570666005E+04  0.65000000000E+04  0.15050000000E+03 0. -1.
</event>
<event>
 4    1  0.4521369E-004  0.6500000E+04  0.7818608E-02  0.7223770E-01
         52   -1    0    0    0    0  0.00000000000E+00  0.00000000000E+00  0.64930732323E+04  0.65000000000E+04  0.30000000000E+03 0. -1.
        -52   -1    0    0    0    0 -0.00000000000E+00 -0.00000000000E+00 -0.64930732323E+04  0.65000000000E+04  0.30000000000E+03 0. -1.
     100001    1    1    2    0    0  0.22259897977E+03  0.61360608584E+02  0.64941538571E+04  0.65000000000E+04  0.15050000000E+03 0. -1.
     100001    1    1    2    0    0 -0.22259897977E+03 -0.61360608584E+02 -0.64941538571E+04  0.65000000000E+04  0.15050000000E+03 0. -1.
</event>
<event>
 4    1  0.4521369E-004  0.6500000E+04  0.7818608E-02  0.7223770E-01
         52   -1    0    0    0    0  0.00000000000E+00  0.00000000000E+00  0.64930732323E+04  0.65000000000E+04  0.30000000000E+03 0.  1.
        -52   -1    0    0    0    0 -0.00000000000E+00 -0.00000000000E+00 -0.64930732323E+04  0.65000000000E+04  0.30000000000E+03 0. -1.
     100001    1    1    2    0    0 -0.26922739990E+04 -0.58934639785E+04 -0.49607741200E+03  0.65000000000E+04  0.15050000000E+03 0.  1.
     100001    1    1    2    0    0  0.26922739990E+04  0.58934639785E+04  0.49607741200E+03  0.65000000000E+04  0.15050000000E+03 0. -1.
</event>
<event>
 4    1  0.4521369E-004  0.6500000E+04  0.7818608E-02  0.7223770E-01
         52   -1    0    0    0    0  0.00000000000E+00  0.00000000000E+00  0.64930732323E+04  0.65000000000E+04  0.30000000000E+03 0. -1.
        -52   -1    0    0    0    0 -0.00000000000E+00 -0.00000000000E+00 -0.64930732323E+04  0.65000000000E+04  0.30000000000E+03 0.  1.
     100001    1    1    2    0    0 -0.31820855867E+04  0.58829658510E+02  0.56655291139E+04  0.65000000000E+04  0.15050000000E+03 0. -1.
     100001    1    1    2    0    0  0.31820855867E+04 -0.58829658510E+02 -0.56655291139E+04  0.65000000000E+04  0.15050000000E+03 0.  1.
</event>
<event>
 4    1  0.4521369E-004  0.6500000E+04  0.7818608E-02  0.7223770E-01
         52   -1    0    0    0    0  0.00000000000E+00  0.00000000000E+00  0.64930732323E+04  0.65000000000E+04  0.30000000000E+03 0. -1.
        -52   -1    0    0    0    0 -0.00000000000E+00 -0.00000000000E+00 -0.64930732323E+04  0.65000000000E+04  0.30000000000E+03 0.  1.
     100001    1    1    2    0    0 -0.27959981561E+04  0.83470220366E+03  0.58062910961E+04  0.65000000000E+04  0.15050000000E+03 0. -1.
     100001    1    1    2    0    0  0.27959981561E+04 -0.83470220366E+03 -0.58062910961E+04  0.65000000000E+04  0.15050000000E+03 0.  1.
</event>
<event>
 4    1  0.4521369E-004  0.6500000E+04  0.7818608E-02  0.7223770E-01
         52   -1    0    0    0    0  0.00000000000E+00  0.00000000000E+00  0.64930732323E+04  0.65000000000E+04  0.30000000000E+03 0.  1.
        -52   -1    0    0    0    0 -0.00000000000E+00 -0.00000000000E+00 -0.64930732323E+04  0.65000000000E+04  0.30000000000E+03 0. -1.
     100001    1    1    2    0    0 -0.11381697692E+04  0.96294667313E+03 -0.63249231641E+04  0.65000000000E+04  0.15050000000E+03 0. -1.
     100001    1    1    2    0    0  0.11381697692E+04 -0.96294667313E+03  0.63249231641E+04  0.65000000000E+04  0.15050000000E+03 0.  1.
</event>
<event>
 4    1  0.4521369E-004  0.6500000E+04  0.7818608E-02  0.7223770E-01
         52   -1    0    0    0    0  0.00000000000E+00  0.00000000000E+00  0.64930732323E+04  0.65000000000E+04  0.30000000000E+03 0. -1.
        -52   -1    0    0    0    0 -0.00000000000E+00 -0.00000000000E+00 -0.64930732323E+04  0.65000000000E+04  0.30000000000E+03 0.  1.
     100001    1    1    2    0    0  0.21188492723E+04 -0.25757287622E+04 -0.55770466069E+04  0.65000000000E+04  0.15050000000E+03 0.  1.
     100001    1    1    2    0    0 -0.21188492723E+04  0.25757287622E+04  0.55770466069E+04  0.65000000000E+04  0.15050000000E+03 0. -1.
</event>
<event>
 4    1  0.4521369E-004  0.6500000E+04  0.7818608E-02  0.7223770E-01
         52   -1    0    0    0    0  0.00000000000E+00  0.00000000000E+00  0.64930732323E+04  0.65000000000E+04  0.30000000000E+03 0. -1.
        -52   -1    0    0    0    0 -0.00000000000E+00 -0.00000000000E+00 -0.64930732323E+04  0.65000000000E+04  0.30000000000E+03 0.  1.
     100001    1    1    2    0    0  0.76484723640E+02 -0.77909950958E+03  0.64509304593E+04  0.65000000000E+04  0.15050000000E+03 0. -1.
     100001    1    1    2    0    0 -0.76484723640E+02  0.77909950958E+03 -0.64509304593E+04  0.65000000000E+04  0.15050000000E+03 0.  1.
</event>
<event>
 4    1  0.4521369E-004  0.6500000E+04  0.7818608E-02  0.7223770E-01
         52   -1    0    0    0    0  0.00000000000E+00  0.00000000000E+00  0.64930732323E+04  0.65000000000E+04  0.30000000000E+03 0. -1.
        -52   -1    0    0    0    0 -0.00000000000E+00 -0.00000000000E+00 -0.64930732323E+04  0.65000000000E+04  0.30000000000E+03 0.  1.
     100001    1    1    2    0    0 -0.77656196421E+03  0.19812290818E+02 -0.64516593787E+04  0.65000000000E+04  0.15050000000E+03 0.  1.
     100001    1    1    2    0    0  0.77656196421E+03 -0.19812290818E+02  0.64516593787E+04  0.65000000000E+04  0.15050000000E+03 0. -1.
</event>
<event>
 4    1  0.4521369E-004  0.6500000E+04  0.7818608E-02  0.7223770E-01
         52   -1    0    0    0    0  0.00000000000E+00  0.00000000000E+00  0.64930732323E+04  0.65000000000E+04  0.30000000000E+03 0.  1.
        -52   -1    0    0    0    0 -0.00000000000E+00 -0.00000000000E+00 -0.64930732323E+04  0.65000000000E+04  0.30000000000E+03 0.  1.
     100001    1    1    2    0    0 -0.63758066610E+02 -0.79442981777E+03  0.64491988591E+04  0.65000000000E+04  0.15050000000E+03 0.  1.
     100001    1    1    2    0    0  0.63758066610E+02  0.79442981777E+03 -0.64491988591E+04  0.65000000000E+04  0.15050000000E+03 0.  1.
</event>
<event>
 4    1  0.4521369E-004  0.6500000E+04  0.7818608E-02  0.7223770E-01
         52   -1    0    0    0    0  0.00000000000E+00  0.00000000000E+00  0.64930732323E+04  0.65000000000E+04  0.30000000000E+03 0. -1.
        -52   -1    0    0    0    0 -0.00000000000E+00 -0.00000000000E+00 -0.64930732323E+04  0.65000000000E+04  0.30000000000E+03 0.  1.
     100001    1    1    2    0    0  0.82943501302E+03 -0.12484337932E+04 -0.63230372744E+04  0.65000000000E+04  0.15050000000E+03 0.  1.
     100001    1    1    2    0    0 -0.82943501302E+03  0.12484337932E+04  0.63230372744E+04  0.65000000000E+04  0.15050000000E+03 0. -1.
</event>
<event>
 4    1  0.4521369E-004  0.6500000E+04  0.7818608E-02  0.7223770E-01
         52   -1    0    0    0    0  0.00000000000E+00  0.00000000000E+00  0.64930732323E+04  0.65000000000E+04  0.30000000000E+03 0. -1.
        -52   -1    0    0    0    0 -0.00000000000E+00 -0.00000000000E+00 -0.64930732323E+04  0.65000000000E+04  0.30000000000E+03 0.  1.
     100001    1    1    2    0    0 -0.11894914747E+02 -0.59685851451E+03  0.64707780193E+04  0.65000000000E+04  0.15050000000E+03 0. -1.
     100001    1    1    2    0    0  0.11894914747E+02  0.59685851451E+03 -0.64707780193E+04  0.65000000000E+04  0.15050000000E+03 0.  1.
</event>
<event>
 4    1  0.4521369E-004  0.6500000E+04  0.7818608E-02  0.7223770E-01
         52   -1    0    0    0    0  0.00000000000E+00  0.00000000000E+00  0.64930732323E+04  0.65000000000E+04  0.30000000000E+03 0.  1.
        -52   -1    0    0    0    0 -0.00000000000E+00 -0.00000000000E+00 -0.64930732323E+04  0.65000000000E+04  0.30000000000E+03 0. -1.
     100001    1    1    2    0    0 -0.22543510475E+04 -0.42709631570E+04  0.43478873969E+04  0.65000000000E+04  0.15050000000E+03 0.  1.
     100001    1    1    2    0    0  0.22543510475E+04  0.42709631570E+04 -0.43478873969E+04  0.65000000000E+04  0.15050000000E+03 0. -1.
</event>
<event>
 4    1  0.4521369E-004  0.6500000E+04  0.7818608E-02  0.7223770E-01
         52   -1    0    0    0    0  0.00000000000E+00  0.00000000000E+00  0.64930732323E+04  0.65000000000E+04  0.30000000000E+03 0.  1.
        -52   -1    0    0    0    0 -0.00000000000E+00 -0.00000000000E+00 -0.64930732323E+04  0.65000000000E+04  0.30000000000E+03 0. -1.
     100001    1    1    2    0    0 -0.35624439525E+04  0.96031348901E+03  0.53492187128E+04  0.65000000000E+04  0.15050000000E+03 0.  1.
     100001    1    1    2    0    0  0.35624439525E+04 -0.96031348901E+03 -0.53492187128E+04  0.65000000000E+04  0.15050000000E+03 0. -1.
</event>
<event>
 4    1  0.4521369E-004  0.6500000E+04  0.7818608E-02  0.7223770E-01
         52   -1    0    0    0    0  0.00000000000E+00  0.00000000000E+00  0.64930732323E+04  0.65000000000E+04  0.30000000000E+03 0. -1.
        -52   -1    0    0    0    0 -0.00000000000E+00 -0.00000000000E+00 -0.64930732323E+04  0.65000000000E+04  0.30000000000E+03 0.  1.
     100001    1    1    2    0    0  0.12733872662E+04  0.10876800942E+04  0.62787567745E+04  0.65000000000E+04  0.15050000000E+03 0. -1.
     100001    1    1    2    0    0 -0.12733872662E+04 -0.10876800942E+04 -0.62787567745E+04  0.65000000000E+04  0.15050000000E+03 0.  1.
</event>
<event>
 4    1  0.4521369E-004  0.6500000E+04  0.7818608E-02  0.7223770E-01
         52   -1    0    0    0    0  0.00000000000E+00  0.00000000000E+00  0.64930732323E+04  0.65000000000E+04  0.30000000000E+03 0. -1.
        -52   -1    0    0    0    0 -0.00000000000E+00 -0.00000000000E+00 -0.64930732323E+04  0.65000000000E+04  0.30000000000E+03 0.  1.
     100001    1    1    2    0    0  0.28376160259E+04 -0.33227544274E+04  0.48098428305E+04  0.65000000000E+04  0.15050000000E+03 0. -1.
     100001    1    1    2    0    0 -0.28376160259E+04  0.33227544274E+04 -0.48098428305E+04  0.65000000000E+04  0.15050000000E+03 0.  1.
</event>
<event>
 4    1  0.4521369E-004  0.6500000E+04  0.7818608E-02  0.7223770E-01
         52   -1    0    0    0    0  0.00000000000E+00  0.00000000000E+00  0.64930732323E+04  0.65000000000E+04  0.30000000000E+03 0. -1.
        -52   -1    0    0    0    0 -0.00000000000E+00 -0.00000000000E+00 -0.64930732323E+04  0.65000000000E+04  0.30000000000E+03 0.  1.
     100001    1    1    2    0    0 -0.14187158064E+04  0.13594575983E+03  0.63400405331E+04  0.65000000000E+04  0.15050000000E+03 0. -1.
     100001    1    1    2    0    0  0.14187158064E+04 -0.13594575983E+03 -0.63400405331E+04  0.65000000000E+04  0.15050000000E+03 0.  1.
</event>
<event>
 4    1  0.4521369E-004  0.6500000E+04  0.7818608E-02  0.7223770E-01
         52   -1    0    0    0    0  0.00000000000E+00  0.00000000000E+00  0.64930732323E+04  0.65000000000E+04  0.30000000000E+03 0. -1.
        -52   -1    0    0    0    0 -0.00000000000E+00 -0.00000000000E+00 -0.64930732323E+04  0.65000000000E+04  0.30000000000E+03 0.  1.
     100001    1    1    2    0    0  0.40345411748E+03  0.62977134778E+03 -0.64550726235E+04  0.65000000000E+04  0.15050000000E+03 0.  1.
     100001    1    1    2    0    0 -0.40345411748E+03 -0.62977134778E+03  0.64550726235E+04  0.65000000000E+04  0.15050000000E+03 0. -1.
</event>
<event>
 4    1  0.4521369E-004  0.6500000E+04  0.7818608E-02  0.7223770E-01
         52   -1    0    0    0    0  0.00000000000E+00  0.00000000000E+00  0.64930732323E+04  0.65000000000E+04  0.30000000000E+03 0. -1.
        -52   -1    0    0    0    0 -0.00000000000E+00 -0.00000000000E+00 -0.64930732323E+04  0.65000000000E+04  0.30000000000E+03 0.  1.
     100001    1    1    2    0    0  0.16955576430E+03 -0.39953076149E+03  0.64837470465E+04  0.65000000000E+04  0.15050000000E+03 0. -1.
     100001    1    1    2    0    0 -0.16955576430E+03  0.39953076149E+03 -0.64837470465E+04  0.65000000000E+04  0.15050000000E+03 0.  1.
</event>
<event>
 4    1  0.4521369E-004  0.6500000E+04  0.7818608E-02  0.7223770E-01
         52   -1    0    0    0    0  0.00000000000E+00  0.00000000000E+00  0.64930732323E+04  0.65000000000E+04  0.30000000000E+03 0. -1.
        -52   -1    0    0    0    0 -0.00000000000E+00 -0.00000000000E+00 -0.64930732323E+04  0.65000000000E+04  0.30000000000E+03 0.  1.
     100001    1    1    2    0    0  0.46227406915E+03 -0.47672937822E+03 -0.64642386663E+04  0.65000000000E+04  0.15050000000E+03 0.  1.
     100001    1    1    2    0    0 -0.46227406915E+03  0.47672937822E+03  0.64642386663E+04  0.65000000000E+04  0.15050000000E+03 0. -1.
</event>
<event>
 4    1  0.4521369E-004  0.6500000E+04  0.7818608E-02  0.7223770E-01
         52   -1    0    0    0    0  0.00000000000E+00  0.00000000000E+00  0.64930732323E+04  0.65000000000E+04  0.30000000000E+03 0.  1.
        -52   -1    0    0    0    0 -0.00000000000E+00 -0.00000000000E+00 -0.64930732323E+04  0.65000000000E+04  0.30000000000E+03 0.  1.
     100001    1    1    2    0    0 -0.65429990856E+02 -0.54988869706E+03  0.64746189917E+04  0.65000000000E+04  0.15050000000E+03 0.  1.
     100001    1    1    2    0    0  0.65429990856E+02  0.54988869706E+03 -0.64746189917E+04  0.65000000000E+04  0.15050000000E+03 0.  1.
</event>
<event>
 4    1  0.4521369E-004  0.6500000E+04  0.7818608E-02  0.7223770E-01
         52   -1    0    0    0    0  0.00000000000E+00  0.00000000000E+00  0.64930732323E+04  0.65000000000E+04  0.30000000000E+03 0.  1.
        -52   -1    0    0    0    0 -0.00000000000E+00 -0.00000000000E+00 -0.64930732323E+04  0.65000000000E+04  0.30000000000E+03 0. -1.
     100001    1    1    2    0    0  0.67410880756E+03 -0.44358722394E+04 -0.47006344828E+04  0.65000000000E+04  0.15050000000E+03 0. -1.
     100001    1    1    2    0    0 -0.67410880756E+03  0.44358722394E+04  0.47006344828E+04  0.65000000000E+04  0.15050000000E+03 0.  1.
</event>
<event>
 4    1  0.4521369E-004  0.6500000E+04  0.7818608E-02  0.7223770E-01
         52   -1    0    0    0    0  0.00000000000E+00  0.00000000000E+00  0.64930732323E+04  0.65000000000E+04  0.30000000000E+03 0.  1.
        -52   -1    0    0    0    0 -0.00000000000E+00 -0.00000000000E+00 -0.64930732323E+04  0.65000000000E+04  0.30000000000E+03 0. -1.
     100001    1    1    2    0    0 -0.12100085850E+04 -0.49757377838E+04 -0.40006577561E+04  0.65000000000E+04  0.15050000000E+03 0. -1.
     100001    1    1    2    0    0  0.12100085850E+04  0.49757377838E+04  0.40006577561E+04  0.65000000000E+04  0.15050000000E+03 0.  1.
</event>
<event>
 4    1  0.4521369E-004  0.6500000E+04  0.7818608E-02  0.7223770E-01
         52   -1    0    0    0    0  0.00000000000E+00  0.00000000000E+00  0.64930732323E+04  0.65000000000E+04  0.30000000000E+03 0.  1.
        -52   -1    0    0    0    0 -0.00000000000E+00 -0.00000000000E+00 -0.64930732323E+04  0.65000000000E+04  0.30000000000E+03 0. -1.
     100001    1    1    2    0    0  0.17125976218E+04 -0.25437346622E+04  0.57292035314E+04  0.65000000000E+04  0.15050000000E+03 0.  1.
     100001    1    1    2    0    0 -0.17125976218E+04  0.25437346622E+04 -0.57292035314E+04  0.65000000000E+04  0.15050000000E+03 0. -1.
</event>
<event>
 4    1  0.4521369E-004  0.6500000E+04  0.7818608E-02  0.7223770E-01
         52   -1    0    0    0    0  0.00000000000E+00  0.00000000000E+00  0.64930732323E+04  0.65000000000E+04  0.30000000000E+03 0. -1.
        -52   -1    0    0    0    0 -0.00000000000E+00 -0.00000000000E+00 -0.64930732323E+04  0.65000000000E+04  0.30000000000E+03 0.  1.
     100001    1    1    2    0    0  0.37391265404E+03  0.61340722348E+03  0.64584263296E+04  0.65000000000E+04  0.15050000000E+03 0. -1.
     100001    1    1    2    0    0 -0.37391265404E+03 -0.61340722348E+03 -0.64584263296E+04  0.65000000000E+04  0.15050000000E+03 0.  1.
</event>
<event>
 4    1  0.4521369E-004  0.6500000E+04  0.7818608E-02  0.7223770E-01
         52   -1    0    0    0    0  0.00000000000E+00  0.00000000000E+00  0.64930732323E+04  0.65000000000E+04  0.30000000000E+03 0.  1.
        -52   -1    0    0    0    0 -0.00000000000E+00 -0.00000000000E+00 -0.64930732323E+04  0.65000000000E+04  0.30000000000E+03 0.  1.
     100001    1    1    2    0    0 -0.74729227339E+03 -0.88614253292E+03  0.63940327978E+04  0.65000000000E+04  0.15050000000E+03 0.  1.
     100001    1    1    2    0    0  0.74729227339E+03  0.88614253292E+03 -0.63940327978E+04  0.65000000000E+04  0.15050000000E+03 0.  1.
</event>
<event>
 4    1  0.4521369E-004  0.6500000E+04  0.7818608E-02  0.7223770E-01
         52   -1    0    0    0    0  0.00000000000E+00  0.00000000000E+00  0.64930732323E+04  0.65000000000E+04  0.30000000000E+03 0.  1.
        -52   -1    0    0    0    0 -0.00000000000E+00 -0.00000000000E+00 -0.64930732323E+04  0.65000000000E+04  0.30000000000E+03 0. -1.
     100001    1    1    2    0    0 -0.10528032088E+03  0.96701027821E+03 -0.64250413949E+04  0.65000000000E+04  0.15050000000E+03 0. -1.
     100001    1    1    2    0    0  0.10528032088E+03 -0.96701027821E+03  0.64250413949E+04  0.65000000000E+04  0.15050000000E+03 0.  1.
</event>
<event>
 4    1  0.4521369E-004  0.6500000E+04  0.7818608E-02  0.7223770E-01
         52   -1    0    0    0    0  0.00000000000E+00  0.00000000000E+00  0.64930732323E+04  0.65000000000E+04  0.30000000000E+03 0.  1.
        -52   -1    0    0    0    0 -0.00000000000E+00 -0.00000000000E+00 -0.64930732323E+04  0.65000000000E+04  0.30000000000E+03 0.  1.
     100001    1    1    2    0    0  0.82922863295E+02 -0.57941570876E+02  0.64974699940E+04  0.65000000000E+04  0.15050000000E+03 0.  1.
     100001    1    1    2    0    0 -0.82922863295E+02  0.57941570876E+02 -0.64974699940E+04  0.65000000000E+04  0.15050000000E+03 0.  1.
</event>
<event>
 4    1  0.4521369E-004  0.6500000E+04  0.7818608E-02  0.7223770E-01
         52   -1    0    0    0    0  0.00000000000E+00  0.00000000000E+00  0.64930732323E+04  0.65000000000E+04  0.30000000000E+03 0. -1.
        -52   -1    0    0    0    0 -0.00000000000E+00 -0.00000000000E+00 -0.64930732323E+04  0.65000000000E+04  0.30000000000E+03 0. -1.
     100001    1    1    2    0    0  0.59220922778E+02 -0.30602811163E+03 -0.64907772591E+04  0.65000000000E+04  0.15050000000E+03 0. -1.
     100001    1    1    2    0    0 -0.59220922778E+02  0.30602811163E+03  0.64907772591E+04  0.65000000000E+04  0.15050000000E+03 0. -1.
</event>
<event>
 4    1  0.4521369E-004  0.6500000E+04  0.7818608E-02  0.7223770E-01
         52   -1    0    0    0    0  0.00000000000E+00  0.00000000000E+00  0.64930732323E+04  0.65000000000E+04  0.30000000000E+03 0. -1.
        -52   -1    0    0    0    0 -0.00000000000E+00 -0.00000000000E+00 -0.64930732323E+04  0.65000000000E+04  0.30000000000E+03 0.  1.
     100001    1    1    2    0    0 -0.24866850760E+03 -0.55265443025E+03  0.64699371561E+04  0.65000000000E+04  0.15050000000E+03 0. -1.
     100001    1    1    2    0    0  0.24866850760E+03  0.55265443025E+03 -0.64699371561E+04  0.65000000000E+04  0.15050000000E+03 0.  1.
</event>
<event>
 4    1  0.4521369E-004  0.6500000E+04  0.7818608E-02  0.7223770E-01
         52   -1    0    0    0    0  0.00000000000E+00  0.00000000000E+00  0.64930732323E+04  0.65000000000E+04  0.30000000000E+03 0.  1.
        -52   -1    0    0    0    0 -0.00000000000E+00 -0.00000000000E+00 -0.64930732323E+04  0.65000000000E+04  0.30000000000E+03 0. -1.
     100001    1    1    2    0    0  0.57176774382E+04 -0.30813874819E+04 -0.20140915909E+03  0.65000000000E+04  0.15050000000E+03 0.  1.
     100001    1    1    2    0    0 -0.57176774382E+04  0.30813874819E+04  0.20140915909E+03  0.65000000000E+04  0.15050000000E+03 0. -1.
</event>
<event>
 4    1  0.4521369E-004  0.6500000E+04  0.7818608E-02  0.7223770E-01
         52   -1    0    0    0    0  0.00000000000E+00  0.00000000000E+00  0.64930732323E+04  0.65000000000E+04  0.30000000000E+03 0. -1.
        -52   -1    0    0    0    0 -0.00000000000E+00 -0.00000000000E+00 -0.64930732323E+04  0.65000000000E+04  0.30000000000E+03 0.  1.
     100001    1    1    2    0    0  0.24254052414E+04 -0.13928164427E+04 -0.58655623364E+04  0.65000000000E+04  0.15050000000E+03 0.  1.
     100001    1    1    2    0    0 -0.24254052414E+04  0.13928164427E+04  0.58655623364E+04  0.65000000000E+04  0.15050000000E+03 0. -1.
</event>
<event>
 4    1  0.4521369E-004  0.6500000E+04  0.7818608E-02  0.7223770E-01
         52   -1    0    0    0    0  0.00000000000E+00  0.00000000000E+00  0.64930732323E+04  0.65000000000E+04  0.30000000000E+03 0.  1.
        -52   -1    0    0    0    0 -0.00000000000E+00 -0.00000000000E+00 -0.64930732323E+04  0.65000000000E+04  0.30000000000E+03 0.  1.
     100001    1    1    2    0    0 -0.41417223363E+03  0.49414792790E+02 -0.64848569213E+04  0.65000000000E+04  0.15050000000E+03 0.  1.
     100001    1    1    2    0    0  0.41417223363E+03 -0.49414792790E+02  0.64848569213E+04  0.65000000000E+04  0.15050000000E+03 0.  1.
</event>
<event>
 4    1  0.4521369E-004  0.6500000E+04  0.7818608E-02  0.7223770E-01
         52   -1    0    0    0    0  0.00000000000E+00  0.00000000000E+00  0.64930732323E+04  0.65000000000E+04  0.30000000000E+03 0.  1.
        -52   -1    0    0    0    0 -0.00000000000E+00 -0.00000000000E+00 -0.64930732323E+04  0.65000000000E+04  0.30000000000E+03 0. -1.
     100001    1    1    2    0    0  0.44445004050E+04 -0.90691127863E+02  0.47397828029E+04  0.65000000000E+04  0.15050000000E+03 0.  1.
     100001    1    1    2    0    0 -0.44445004050E+04  0.90691127863E+02 -0.47397828029E+04  0.65000000000E+04  0.15050000000E+03 0. -1.
</event>
<event>
 4    1  0.4521369E-004  0.6500000E+04  0.7818608E-02  0.7223770E-01
         52   -1    0    0    0    0  0.00000000000E+00  0.00000000000E+00  0.64930732323E+04  0.65000000000E+04  0.30000000000E+03 0.  1.
        -52   -1    0    0    0    0 -0.00000000000E+00 -0.00000000000E+00 -0.64930732323E+04  0.65000000000E+04  0.30000000000E+03 0. -1.
     100001    1    1    2    0    0 -0.27803605241E+04  0.11937132842E+04  0.57508254800E+04  0.65000000000E+04  0.15050000000E+03 0.  1.
     100001    1    1    2    0    0  0.27803605241E+04 -0.11937132842E+04 -0.57508254800E+04  0.65000000000E+04  0.15050000000E+03 0. -1.
</event>
<event>
 4    1  0.4521369E-004  0.6500000E+04  0.7818608E-02  0.7223770E-01
         52   -1    0    0    0    0  0.00000000000E+00  0.00000000000E+00  0.64930732323E+04  0.65000000000E+04  0.30000000000E+03 0.  1.
        -52   -1    0    0    0    0 -0.00000000000E+00 -0.00000000000E+00 -0.64930732323E+04  0.65000000000E+04  0.30000000000E+03 0. -1.
     100001    1    1    2    0    0  0.11571307277E+04 -0.13366558678E+04 -0.62531391573E+04  0.65000000000E+04  0.15050000000E+03 0. -1.
     100001    1    1    2    0    0 -0.11571307277E+04  0.13366558678E+04  0.62531391573E+04  0.65000000000E+04  0.15050000000E+03 0.  1.
</event>
<event>
 4    1  0.4521369E-004  0.6500000E+04  0.7818608E-02  0.7223770E-01
         52   -1    0    0    0    0  0.00000000000E+00  0.00000000000E+00  0.64930732323E+04  0.65000000000E+04  0.30000000000E+03 0.  1.
        -52   -1    0    0    0    0 -0.00000000000E+00 -0.00000000000E+00 -0.64930732323E+04  0.65000000000E+04  0.30000000000E+03 0. -1.
     100001    1    1    2    0    0  0.86191573247E+03  0.85007906185E+03 -0.63844981485E+04  0.65000000000E+04  0.15050000000E+03 0. -1.
     100001    1    1    2    0    0 -0.86191573247E+03 -0.85007906185E+03  0.63844981485E+04  0.65000000000E+04  0.15050000000E+03 0.  1.
</event>
<event>
 4    1  0.4521369E-004  0.6500000E+04  0.7818608E-02  0.7223770E-01
         52   -1    0    0    0    0  0.00000000000E+00  0.00000000000E+00  0.64930732323E+04  0.65000000000E+04  0.30000000000E+03 0.  1.
        -52   -1    0    0    0    0 -0.00000000000E+00 -0.00000000000E+00 -0.64930732323E+04  0.65000000000E+04  0.30000000000E+03 0. -1.
     100001    1    1    2    0    0  0.14123429740E+04 -0.12136441527E+04 -0.62257292701E+04  0.65000000000E+04  0.15050000000E+03 0. -1.
     100001    1    1    2    0    0 -0.14123429740E+04  0.12136441527E+04  0.62257292701E+04  0.65000000000E+04  0.15050000000E+03 0.  1.
</event>
<event>
 4    1  0.4521369E-004  0.6500000E+04  0.7818608E-02  0.7223770E-01
         52   -1    0    0    0    0  0.00000000000E+00  0.00000000000E+00  0.64930732323E+04  0.65000000000E+04  0.30000000000E+03 0. -1.
        -52   -1    0    0    0    0 -0.00000000000E+00 -0.00000000000E+00 -0.64930732323E+04  0.65000000000E+04  0.30000000000E+03 0.  1.
     100001    1    1    2    0    0 -0.19471961281E+04 -0.58107591632E+04  0.21612160779E+04  0.65000000000E+04  0.15050000000E+03 0. -1.
     100001    1    1    2    0    0  0.19471961281E+04  0.58107591632E+04 -0.21612160779E+04  0.65000000000E+04  0.15050000000E+03 0.  1.
</event>
<event>
 4    1  0.4521369E-004  0.6500000E+04  0.7818608E-02  0.7223770E-01
         52   -1    0    0    0    0  0.00000000000E+00  0.00000000000E+00  0.64930732323E+04  0.65000000000E+04  0.30000000000E+03 0. -1.
        -52   -1    0    0    0    0 -0.00000000000E+00 -0.00000000000E+00 -0.64930732323E+04  0.65000000000E+04  0.30000000000E+03 0. -1.
     100001    1    1    2    0    0  0.20168306438E+02  0.36206758808E+03  0.64881314761E+04  0.65000000000E+04  0.15050000000E+03 0. -1.
     100001    1    1    2    0    0 -0.20168306438E+02 -0.36206758808E+03 -0.64881314761E+04  0.65000000000E+04  0.15050000000E+03 0. -1.
</event>
<event>
 4    1  0.4521369E-004  0.6500000E+04  0.7818608E-02  0.7223770E-01
         52   -1    0    0    0    0  0.00000000000E+00  0.00000000000E+00  0.64930732323E+04  0.65000000000E+04  0.30000000000E+03 0. -1.
        -52   -1    0    0    0    0 -0.00000000000E+00 -0.00000000000E+00 -0.64930732323E+04  0.65000000000E+04  0.30000000000E+03 0. -1.
     100001    1    1    2    0    0 -0.21343364853E+03 -0.20980454582E+03 -0.64913617893E+04  0.65000000000E+04  0.15050000000E+03 0. -1.
     100001    1    1    2    0    0  0.21343364853E+03  0.20980454582E+03  0.64913617893E+04  0.65000000000E+04  0.15050000000E+03 0. -1.
</event>
<event>
 4    1  0.4521369E-004  0.6500000E+04  0.7818608E-02  0.7223770E-01
         52   -1    0    0    0    0  0.00000000000E+00  0.00000000000E+00  0.64930732323E+04  0.65000000000E+04  0.30000000000E+03 0.  1.
        -52   -1    0    0    0    0 -0.00000000000E+00 -0.00000000000E+00 -0.64930732323E+04  0.65000000000E+04  0.30000000000E+03 0. -1.
     100001    1    1    2    0    0 -0.86664540717E+03 -0.63057279038E+04  0.13092253784E+04  0.65000000000E+04  0.15050000000E+03 0.  1.
     100001    1    1    2    0    0  0.86664540717E+03  0.63057279038E+04 -0.13092253784E+04  0.65000000000E+04  0.15050000000E+03 0. -1.
</event>
<event>
 4    1  0.4521369E-004  0.6500000E+04  0.7818608E-02  0.7223770E-01
         52   -1    0    0    0    0  0.00000000000E+00  0.00000000000E+00  0.64930732323E+04  0.65000000000E+04  0.30000000000E+03 0.  1.
        -52   -1    0    0    0    0 -0.00000000000E+00 -0.00000000000E+00 -0.64930732323E+04  0.65000000000E+04  0.30000000000E+03 0. -1.
     100001    1    1    2    0    0 -0.34640646882E+03 -0.51824639770E+03  0.64682898033E+04  0.65000000000E+04  0.15050000000E+03 0.  1.
     100001    1    1    2    0    0  0.34640646882E+03  0.51824639770E+03 -0.64682898033E+04  0.65000000000E+04  0.15050000000E+03 0. -1.
</event>
<event>
 4    1  0.4521369E-004  0.6500000E+04  0.7818608E-02  0.7223770E-01
         52   -1    0    0    0    0  0.00000000000E+00  0.00000000000E+00  0.64930732323E+04  0.65000000000E+04  0.30000000000E+03 0. -1.
        -52   -1    0    0    0    0 -0.00000000000E+00 -0.00000000000E+00 -0.64930732323E+04  0.65000000000E+04  0.30000000000E+03 0.  1.
     100001    1    1    2    0    0 -0.11433402951E+04 -0.64141601489E+03 -0.63646451759E+04  0.65000000000E+04  0.15050000000E+03 0.  1.
     100001    1    1    2    0    0  0.11433402951E+04  0.64141601489E+03  0.63646451759E+04  0.65000000000E+04  0.15050000000E+03 0. -1.
</event>
<event>
 4    1  0.4521369E-004  0.6500000E+04  0.7818608E-02  0.7223770E-01
         52   -1    0    0    0    0  0.00000000000E+00  0.00000000000E+00  0.64930732323E+04  0.65000000000E+04  0.30000000000E+03 0.  1.
        -52   -1    0    0    0    0 -0.00000000000E+00 -0.00000000000E+00 -0.64930732323E+04  0.65000000000E+04  0.30000000000E+03 0. -1.
     100001    1    1    2    0    0 -0.47556466915E+03 -0.15913566299E+04  0.62824176932E+04  0.65000000000E+04  0.15050000000E+03 0.  1.
     100001    1    1    2    0    0  0.47556466915E+03  0.15913566299E+04 -0.62824176932E+04  0.65000000000E+04  0.15050000000E+03 0. -1.
</event>
<event>
 4    1  0.4521369E-004  0.6500000E+04  0.7818608E-02  0.7223770E-01
         52   -1    0    0    0    0  0.00000000000E+00  0.00000000000E+00  0.64930732323E+04  0.65000000000E+04  0.30000000000E+03 0. -1.
        -52   -1    0    0    0    0 -0.00000000000E+00 -0.00000000000E+00 -0.64930732323E+04  0.65000000000E+04  0.30000000000E+03 0.  1.
     100001    1    1    2    0    0  0.11240024263E+04  0.58187286143E+04  0.26657767365E+04  0.65000000000E+04  0.15050000000E+03 0. -1.
     100001    1    1    2    0    0 -0.11240024263E+04 -0.58187286143E+04 -0.26657767365E+04  0.65000000000E+04  0.15050000000E+03 0.  1.
</event>
<event>
 4    1  0.4521369E-004  0.6500000E+04  0.7818608E-02  0.7223770E-01
         52   -1    0    0    0    0  0.00000000000E+00  0.00000000000E+00  0.64930732323E+04  0.65000000000E+04  0.30000000000E+03 0.  1.
        -52   -1    0    0    0    0 -0.00000000000E+00 -0.00000000000E+00 -0.64930732323E+04  0.65000000000E+04  0.30000000000E+03 0. -1.
     100001    1    1    2    0    0  0.97675058625E+03  0.39011474571E+03  0.64125750309E+04  0.65000000000E+04  0.15050000000E+03 0.  1.
     100001    1    1    2    0    0 -0.97675058625E+03 -0.39011474571E+03 -0.64125750309E+04  0.65000000000E+04  0.15050000000E+03 0. -1.
</event>
<event>
 4    1  0.4521369E-004  0.6500000E+04  0.7818608E-02  0.7223770E-01
         52   -1    0    0    0    0  0.00000000000E+00  0.00000000000E+00  0.64930732323E+04  0.65000000000E+04  0.30000000000E+03 0. -1.
        -52   -1    0    0    0    0 -0.00000000000E+00 -0.00000000000E+00 -0.64930732323E+04  0.65000000000E+04  0.30000000000E+03 0.  1.
     100001    1    1    2    0    0  0.39678635512E+04  0.26837333329E+04 -0.43910117270E+04  0.65000000000E+04  0.15050000000E+03 0.  1.
     100001    1    1    2    0    0 -0.39678635512E+04 -0.26837333329E+04  0.43910117270E+04  0.65000000000E+04  0.15050000000E+03 0. -1.
</event>
<event>
 4    1  0.4521369E-004  0.6500000E+04  0.7818608E-02  0.7223770E-01
         52   -1    0    0    0    0  0.00000000000E+00  0.00000000000E+00  0.64930732323E+04  0.65000000000E+04  0.30000000000E+03 0.  1.
        -52   -1    0    0    0    0 -0.00000000000E+00 -0.00000000000E+00 -0.64930732323E+04  0.65000000000E+04  0.30000000000E+03 0. -1.
     100001    1    1    2    0    0 -0.65709911146E+01  0.99894548716E+03 -0.64210135092E+04  0.65000000000E+04  0.15050000000E+03 0. -1.
     100001    1    1    2    0    0  0.65709911146E+01 -0.99894548716E+03  0.64210135092E+04  0.65000000000E+04  0.15050000000E+03 0.  1.
</event>
<event>
 4    1  0.4521369E-004  0.6500000E+04  0.7818608E-02  0.7223770E-01
         52   -1    0    0    0    0  0.00000000000E+00  0.00000000000E+00  0.64930732323E+04  0.65000000000E+04  0.30000000000E+03 0.  1.
        -52   -1    0    0    0    0 -0.00000000000E+00 -0.00000000000E+00 -0.64930732323E+04  0.65000000000E+04  0.30000000000E+03 0. -1.
     100001    1    1    2    0    0 -0.21602258441E+03  0.12245145766E+04  0.63781853254E+04  0.65000000000E+04  0.15050000000E+03 0.  1.
     100001    1    1    2    0    0  0.21602258441E+03 -0.12245145766E+04 -0.63781853254E+04  0.65000000000E+04  0.15050000000E+03 0. -1.
</event>
<event>
 4    1  0.4521369E-004  0.6500000E+04  0.7818608E-02  0.7223770E-01
         52   -1    0    0    0    0  0.00000000000E+00  0.00000000000E+00  0.64930732323E+04  0.65000000000E+04  0.30000000000E+03 0.  1.
        -52   -1    0    0    0    0 -0.00000000000E+00 -0.00000000000E+00 -0.64930732323E+04  0.65000000000E+04  0.30000000000E+03 0. -1.
     100001    1    1    2    0    0 -0.71222494799E+03  0.12819222660E+03  0.64578364896E+04  0.65000000000E+04  0.15050000000E+03 0.  1.
     100001    1    1    2    0    0  0.71222494799E+03 -0.12819222660E+03 -0.64578364896E+04  0.65000000000E+04  0.15050000000E+03 0. -1.
</event>
<event>
 4    1  0.4521369E-004  0.6500000E+04  0.7818608E-02  0.7223770E-01
         52   -1    0    0    0    0  0.00000000000E+00  0.00000000000E+00  0.64930732323E+04  0.65000000000E+04  0.30000000000E+03 0.  1.
        -52   -1    0    0    0    0 -0.00000000000E+00 -0.00000000000E+00 -0.64930732323E+04  0.65000000000E+04  0.30000000000E+03 0. -1.
     100001    1    1    2    0    0  0.69695520369E+03 -0.48382739239E+04 -0.42816712428E+04  0.65000000000E+04  0.15050000000E+03 0. -1.
     100001    1    1    2    0    0 -0.69695520369E+03  0.48382739239E+04  0.42816712428E+04  0.65000000000E+04  0.15050000000E+03 0.  1.
</event>
<event>
 4    1  0.4521369E-004  0.6500000E+04  0.7818608E-02  0.7223770E-01
         52   -1    0    0    0    0  0.00000000000E+00  0.00000000000E+00  0.64930732323E+04  0.65000000000E+04  0.30000000000E+03 0.  1.
        -52   -1    0    0    0    0 -0.00000000000E+00 -0.00000000000E+00 -0.64930732323E+04  0.65000000000E+04  0.30000000000E+03 0.  1.
     100001    1    1    2    0    0 -0.88479010452E+02  0.33429461809E+03 -0.64890498783E+04  0.65000000000E+04  0.15050000000E+03 0.  1.
     100001    1    1    2    0    0  0.88479010452E+02 -0.33429461809E+03  0.64890498783E+04  0.65000000000E+04  0.15050000000E+03 0.  1.
</event>
<event>
 4    1  0.6346169E-004  0.6500000E+04  0.7818608E-02  0.7223770E-01
         52   -1    0    0    0    0  0.00000000000E+00  0.00000000000E+00  0.64930732323E+04  0.65000000000E+04  0.30000000000E+03 0.  1.
        -52   -1    0    0    0    0 -0.00000000000E+00 -0.00000000000E+00 -0.64930732323E+04  0.65000000000E+04  0.30000000000E+03 0. -1.
     100001    1    1    2    0    0 -0.43148420128E+02  0.17853993788E+03 -0.64956609713E+04  0.65000000000E+04  0.15050000000E+03 0. -1.
     100001    1    1    2    0    0  0.43148420128E+02 -0.17853993788E+03  0.64956609713E+04  0.65000000000E+04  0.15050000000E+03 0.  1.
</event>
<event>
 4    1  0.4521369E-004  0.6500000E+04  0.7818608E-02  0.7223770E-01
         52   -1    0    0    0    0  0.00000000000E+00  0.00000000000E+00  0.64930732323E+04  0.65000000000E+04  0.30000000000E+03 0. -1.
        -52   -1    0    0    0    0 -0.00000000000E+00 -0.00000000000E+00 -0.64930732323E+04  0.65000000000E+04  0.30000000000E+03 0. -1.
     100001    1    1    2    0    0  0.90598676633E+02  0.16982047200E+03  0.64954062719E+04  0.65000000000E+04  0.15050000000E+03 0. -1.
     100001    1    1    2    0    0 -0.90598676633E+02 -0.16982047200E+03 -0.64954062719E+04  0.65000000000E+04  0.15050000000E+03 0. -1.
</event>
<event>
 4    1  0.4521369E-004  0.6500000E+04  0.7818608E-02  0.7223770E-01
         52   -1    0    0    0    0  0.00000000000E+00  0.00000000000E+00  0.64930732323E+04  0.65000000000E+04  0.30000000000E+03 0.  1.
        -52   -1    0    0    0    0 -0.00000000000E+00 -0.00000000000E+00 -0.64930732323E+04  0.65000000000E+04  0.30000000000E+03 0. -1.
     100001    1    1    2    0    0 -0.11620070387E+03 -0.14199959351E+04  0.63401465828E+04  0.65000000000E+04  0.15050000000E+03 0.  1.
     100001    1    1    2    0    0  0.11620070387E+03  0.14199959351E+04 -0.63401465828E+04  0.65000000000E+04  0.15050000000E+03 0. -1.
</event>
<event>
 4    1  0.4521369E-004  0.6500000E+04  0.7818608E-02  0.7223770E-01
         52   -1    0    0    0    0  0.00000000000E+00  0.00000000000E+00  0.64930732323E+04  0.65000000000E+04  0.30000000000E+03 0.  1.
        -52   -1    0    0    0    0 -0.00000000000E+00 -0.00000000000E+00 -0.64930732323E+04  0.65000000000E+04  0.30000000000E+03 0. -1.
     100001    1    1    2    0    0  0.41213584367E+04  0.18446025456E+03  0.50207299072E+04  0.65000000000E+04  0.15050000000E+03 0.  1.
     100001    1    1    2    0    0 -0.41213584367E+04 -0.18446025456E+03 -0.50207299072E+04  0.65000000000E+04  0.15050000000E+03 0. -1.
</event>
<event>
 4    1  0.4521369E-004  0.6500000E+04  0.7818608E-02  0.7223770E-01
         52   -1    0    0    0    0  0.00000000000E+00  0.00000000000E+00  0.64930732323E+04  0.65000000000E+04  0.30000000000E+03 0. -1.
        -52   -1    0    0    0    0 -0.00000000000E+00 -0.00000000000E+00 -0.64930732323E+04  0.65000000000E+04  0.30000000000E+03 0.  1.
     100001    1    1    2    0    0  0.52195443232E+02  0.63047512215E+04  0.15731298170E+04  0.65000000000E+04  0.15050000000E+03 0. -1.
     100001    1    1    2    0    0 -0.52195443232E+02 -0.63047512215E+04 -0.15731298170E+04  0.65000000000E+04  0.15050000000E+03 0.  1.
</event>
<event>
 4    1  0.4521369E-004  0.6500000E+04  0.7818608E-02  0.7223770E-01
         52   -1    0    0    0    0  0.00000000000E+00  0.00000000000E+00  0.64930732323E+04  0.65000000000E+04  0.30000000000E+03 0. -1.
        -52   -1    0    0    0    0 -0.00000000000E+00 -0.00000000000E+00 -0.64930732323E+04  0.65000000000E+04  0.30000000000E+03 0.  1.
     100001    1    1    2    0    0 -0.82233703900E+03  0.29751507454E+04  0.57183554967E+04  0.65000000000E+04  0.15050000000E+03 0. -1.
     100001    1    1    2    0    0  0.82233703900E+03 -0.29751507454E+04 -0.57183554967E+04  0.65000000000E+04  0.15050000000E+03 0.  1.
</event>
<event>
 4    1  0.4521369E-004  0.6500000E+04  0.7818608E-02  0.7223770E-01
         52   -1    0    0    0    0  0.00000000000E+00  0.00000000000E+00  0.64930732323E+04  0.65000000000E+04  0.30000000000E+03 0. -1.
        -52   -1    0    0    0    0 -0.00000000000E+00 -0.00000000000E+00 -0.64930732323E+04  0.65000000000E+04  0.30000000000E+03 0.  1.
     100001    1    1    2    0    0 -0.53923853319E+03 -0.11047043274E+03  0.64749029211E+04  0.65000000000E+04  0.15050000000E+03 0. -1.
     100001    1    1    2    0    0  0.53923853319E+03  0.11047043274E+03 -0.64749029211E+04  0.65000000000E+04  0.15050000000E+03 0.  1.
</event>
<event>
 4    1  0.4521369E-004  0.6500000E+04  0.7818608E-02  0.7223770E-01
         52   -1    0    0    0    0  0.00000000000E+00  0.00000000000E+00  0.64930732323E+04  0.65000000000E+04  0.30000000000E+03 0. -1.
        -52   -1    0    0    0    0 -0.00000000000E+00 -0.00000000000E+00 -0.64930732323E+04  0.65000000000E+04  0.30000000000E+03 0.  1.
     100001    1    1    2    0    0  0.54161670900E+04  0.36520696293E+02 -0.35904247718E+04  0.65000000000E+04  0.15050000000E+03 0.  1.
     100001    1    1    2    0    0 -0.54161670900E+04 -0.36520696293E+02  0.35904247718E+04  0.65000000000E+04  0.15050000000E+03 0. -1.
</event>
<event>
 4    1  0.4521369E-004  0.6500000E+04  0.7818608E-02  0.7223770E-01
         52   -1    0    0    0    0  0.00000000000E+00  0.00000000000E+00  0.64930732323E+04  0.65000000000E+04  0.30000000000E+03 0.  1.
        -52   -1    0    0    0    0 -0.00000000000E+00 -0.00000000000E+00 -0.64930732323E+04  0.65000000000E+04  0.30000000000E+03 0. -1.
     100001    1    1    2    0    0 -0.26190582950E+04  0.45674803956E+04  0.38086751283E+04  0.65000000000E+04  0.15050000000E+03 0.  1.
     100001    1    1    2    0    0  0.26190582950E+04 -0.45674803956E+04 -0.38086751283E+04  0.65000000000E+04  0.15050000000E+03 0. -1.
</event>
<event>
 4    1  0.4521369E-004  0.6500000E+04  0.7818608E-02  0.7223770E-01
         52   -1    0    0    0    0  0.00000000000E+00  0.00000000000E+00  0.64930732323E+04  0.65000000000E+04  0.30000000000E+03 0.  1.
        -52   -1    0    0    0    0 -0.00000000000E+00 -0.00000000000E+00 -0.64930732323E+04  0.65000000000E+04  0.30000000000E+03 0. -1.
     100001    1    1    2    0    0  0.13060488406E+04 -0.18342706855E+03 -0.63630134910E+04  0.65000000000E+04  0.15050000000E+03 0. -1.
     100001    1    1    2    0    0 -0.13060488406E+04  0.18342706855E+03  0.63630134910E+04  0.65000000000E+04  0.15050000000E+03 0.  1.
</event>
<event>
 4    1  0.4521369E-004  0.6500000E+04  0.7818608E-02  0.7223770E-01
         52   -1    0    0    0    0  0.00000000000E+00  0.00000000000E+00  0.64930732323E+04  0.65000000000E+04  0.30000000000E+03 0. -1.
        -52   -1    0    0    0    0 -0.00000000000E+00 -0.00000000000E+00 -0.64930732323E+04  0.65000000000E+04  0.30000000000E+03 0. -1.
     100001    1    1    2    0    0 -0.26270389147E+03 -0.14832030313E+03  0.64912508427E+04  0.65000000000E+04  0.15050000000E+03 0. -1.
     100001    1    1    2    0    0  0.26270389147E+03  0.14832030313E+03 -0.64912508427E+04  0.65000000000E+04  0.15050000000E+03 0. -1.
</event>
<event>
 4    1  0.4521369E-004  0.6500000E+04  0.7818608E-02  0.7223770E-01
         52   -1    0    0    0    0  0.00000000000E+00  0.00000000000E+00  0.64930732323E+04  0.65000000000E+04  0.30000000000E+03 0.  1.
        -52   -1    0    0    0    0 -0.00000000000E+00 -0.00000000000E+00 -0.64930732323E+04  0.65000000000E+04  0.30000000000E+03 0. -1.
     100001    1    1    2    0    0 -0.64046530266E+01  0.25608962717E+04 -0.59723629340E+04  0.65000000000E+04  0.15050000000E+03 0. -1.
     100001    1    1    2    0    0  0.64046530266E+01 -0.25608962717E+04  0.59723629340E+04  0.65000000000E+04  0.15050000000E+03 0.  1.
</event>
<event>
 4    1  0.4521369E-004  0.6500000E+04  0.7818608E-02  0.7223770E-01
         52   -1    0    0    0    0  0.00000000000E+00  0.00000000000E+00  0.64930732323E+04  0.65000000000E+04  0.30000000000E+03 0.  1.
        -52   -1    0    0    0    0 -0.00000000000E+00 -0.00000000000E+00 -0.64930732323E+04  0.65000000000E+04  0.30000000000E+03 0. -1.
     100001    1    1    2    0    0  0.18982912928E+04  0.50406899330E+03  0.61943324392E+04  0.65000000000E+04  0.15050000000E+03 0.  1.
     100001    1    1    2    0    0 -0.18982912928E+04 -0.50406899330E+03 -0.61943324392E+04  0.65000000000E+04  0.15050000000E+03 0. -1.
</event>
<event>
 4    1  0.4521369E-004  0.6500000E+04  0.7818608E-02  0.7223770E-01
         52   -1    0    0    0    0  0.00000000000E+00  0.00000000000E+00  0.64930732323E+04  0.65000000000E+04  0.30000000000E+03 0.  1.
        -52   -1    0    0    0    0 -0.00000000000E+00 -0.00000000000E+00 -0.64930732323E+04  0.65000000000E+04  0.30000000000E+03 0. -1.
     100001    1    1    2    0    0 -0.19656489385E+04 -0.15941678920E+04 -0.59851652218E+04  0.65000000000E+04  0.15050000000E+03 0. -1.
     100001    1    1    2    0    0  0.19656489385E+04  0.15941678920E+04  0.59851652218E+04  0.65000000000E+04  0.15050000000E+03 0.  1.
</event>
<event>
 4    1  0.4521369E-004  0.6500000E+04  0.7818608E-02  0.7223770E-01
         52   -1    0    0    0    0  0.00000000000E+00  0.00000000000E+00  0.64930732323E+04  0.65000000000E+04  0.30000000000E+03 0.  1.
        -52   -1    0    0    0    0 -0.00000000000E+00 -0.00000000000E+00 -0.64930732323E+04  0.65000000000E+04  0.30000000000E+03 0. -1.
     100001    1    1    2    0    0 -0.15740129494E+03  0.19623069041E+03 -0.64933864892E+04  0.65000000000E+04  0.15050000000E+03 0. -1.
     100001    1    1    2    0    0  0.15740129494E+03 -0.19623069041E+03  0.64933864892E+04  0.65000000000E+04  0.15050000000E+03 0.  1.
</event>
<event>
 4    1  0.4521369E-004  0.6500000E+04  0.7818608E-02  0.7223770E-01
         52   -1    0    0    0    0  0.00000000000E+00  0.00000000000E+00  0.64930732323E+04  0.65000000000E+04  0.30000000000E+03 0.  1.
        -52   -1    0    0    0    0 -0.00000000000E+00 -0.00000000000E+00 -0.64930732323E+04  0.65000000000E+04  0.30000000000E+03 0. -1.
     100001    1    1    2    0    0  0.18373292232E+04  0.54011441107E+04 -0.31111434186E+04  0.65000000000E+04  0.15050000000E+03 0. -1.
     100001    1    1    2    0    0 -0.18373292232E+04 -0.54011441107E+04  0.31111434186E+04  0.65000000000E+04  0.15050000000E+03 0.  1.
</event>
<event>
 4    1  0.4521369E-004  0.6500000E+04  0.7818608E-02  0.7223770E-01
         52   -1    0    0    0    0  0.00000000000E+00  0.00000000000E+00  0.64930732323E+04  0.65000000000E+04  0.30000000000E+03 0.  1.
        -52   -1    0    0    0    0 -0.00000000000E+00 -0.00000000000E+00 -0.64930732323E+04  0.65000000000E+04  0.30000000000E+03 0. -1.
     100001    1    1    2    0    0 -0.58289268477E+03 -0.24975005515E+03  0.64672413576E+04  0.65000000000E+04  0.15050000000E+03 0.  1.
     100001    1    1    2    0    0  0.58289268477E+03  0.24975005515E+03 -0.64672413576E+04  0.65000000000E+04  0.15050000000E+03 0. -1.
</event>
<event>
 4    1  0.4521369E-004  0.6500000E+04  0.7818608E-02  0.7223770E-01
         52   -1    0    0    0    0  0.00000000000E+00  0.00000000000E+00  0.64930732323E+04  0.65000000000E+04  0.30000000000E+03 0. -1.
        -52   -1    0    0    0    0 -0.00000000000E+00 -0.00000000000E+00 -0.64930732323E+04  0.65000000000E+04  0.30000000000E+03 0. -1.
     100001    1    1    2    0    0 -0.60678950737E+02 -0.52780561230E+03  0.64765028411E+04  0.65000000000E+04  0.15050000000E+03 0. -1.
     100001    1    1    2    0    0  0.60678950737E+02  0.52780561230E+03 -0.64765028411E+04  0.65000000000E+04  0.15050000000E+03 0. -1.
</event>
<event>
 4    1  0.4521369E-004  0.6500000E+04  0.7818608E-02  0.7223770E-01
         52   -1    0    0    0    0  0.00000000000E+00  0.00000000000E+00  0.64930732323E+04  0.65000000000E+04  0.30000000000E+03 0.  1.
        -52   -1    0    0    0    0 -0.00000000000E+00 -0.00000000000E+00 -0.64930732323E+04  0.65000000000E+04  0.30000000000E+03 0. -1.
     100001    1    1    2    0    0 -0.14521829865E+03 -0.15195805497E+04  0.63164179998E+04  0.65000000000E+04  0.15050000000E+03 0.  1.
     100001    1    1    2    0    0  0.14521829865E+03  0.15195805497E+04 -0.63164179998E+04  0.65000000000E+04  0.15050000000E+03 0. -1.
</event>
<event>
 4    1  0.4521369E-004  0.6500000E+04  0.7818608E-02  0.7223770E-01
         52   -1    0    0    0    0  0.00000000000E+00  0.00000000000E+00  0.64930732323E+04  0.65000000000E+04  0.30000000000E+03 0.  1.
        -52   -1    0    0    0    0 -0.00000000000E+00 -0.00000000000E+00 -0.64930732323E+04  0.65000000000E+04  0.30000000000E+03 0. -1.
     100001    1    1    2    0    0  0.32198975123E+03  0.60911442918E+02 -0.64899893795E+04  0.65000000000E+04  0.15050000000E+03 0. -1.
     100001    1    1    2    0    0 -0.32198975123E+03 -0.60911442918E+02  0.64899893795E+04  0.65000000000E+04  0.15050000000E+03 0.  1.
</event>
<event>
 4    1  0.4521369E-004  0.6500000E+04  0.7818608E-02  0.7223770E-01
         52   -1    0    0    0    0  0.00000000000E+00  0.00000000000E+00  0.64930732323E+04  0.65000000000E+04  0.30000000000E+03 0.  1.
        -52   -1    0    0    0    0 -0.00000000000E+00 -0.00000000000E+00 -0.64930732323E+04  0.65000000000E+04  0.30000000000E+03 0. -1.
     100001    1    1    2    0    0  0.16794557537E+04  0.44434109282E+02  0.62773245679E+04  0.65000000000E+04  0.15050000000E+03 0.  1.
     100001    1    1    2    0    0 -0.16794557537E+04 -0.44434109282E+02 -0.62773245679E+04  0.65000000000E+04  0.15050000000E+03 0. -1.
</event>
<event>
 4    1  0.4521369E-004  0.6500000E+04  0.7818608E-02  0.7223770E-01
         52   -1    0    0    0    0  0.00000000000E+00  0.00000000000E+00  0.64930732323E+04  0.65000000000E+04  0.30000000000E+03 0. -1.
        -52   -1    0    0    0    0 -0.00000000000E+00 -0.00000000000E+00 -0.64930732323E+04  0.65000000000E+04  0.30000000000E+03 0.  1.
     100001    1    1    2    0    0  0.27021797940E+04  0.13567048811E+03  0.59082288065E+04  0.65000000000E+04  0.15050000000E+03 0. -1.
     100001    1    1    2    0    0 -0.27021797940E+04 -0.13567048811E+03 -0.59082288065E+04  0.65000000000E+04  0.15050000000E+03 0.  1.
</event>
<event>
 4    1  0.4521369E-004  0.6500000E+04  0.7818608E-02  0.7223770E-01
         52   -1    0    0    0    0  0.00000000000E+00  0.00000000000E+00  0.64930732323E+04  0.65000000000E+04  0.30000000000E+03 0. -1.
        -52   -1    0    0    0    0 -0.00000000000E+00 -0.00000000000E+00 -0.64930732323E+04  0.65000000000E+04  0.30000000000E+03 0.  1.
     100001    1    1    2    0    0 -0.13220758318E+04 -0.25456535130E+04  0.58308758722E+04  0.65000000000E+04  0.15050000000E+03 0. -1.
     100001    1    1    2    0    0  0.13220758318E+04  0.25456535130E+04 -0.58308758722E+04  0.65000000000E+04  0.15050000000E+03 0.  1.
</event>
<event>
 4    1  0.4521369E-004  0.6500000E+04  0.7818608E-02  0.7223770E-01
         52   -1    0    0    0    0  0.00000000000E+00  0.00000000000E+00  0.64930732323E+04  0.65000000000E+04  0.30000000000E+03 0. -1.
        -52   -1    0    0    0    0 -0.00000000000E+00 -0.00000000000E+00 -0.64930732323E+04  0.65000000000E+04  0.30000000000E+03 0.  1.
     100001    1    1    2    0    0 -0.11189142436E+04  0.53189367714E+03 -0.63790649614E+04  0.65000000000E+04  0.15050000000E+03 0.  1.
     100001    1    1    2    0    0  0.11189142436E+04 -0.53189367714E+03  0.63790649614E+04  0.65000000000E+04  0.15050000000E+03 0. -1.
</event>
<event>
 4    1  0.4521369E-004  0.6500000E+04  0.7818608E-02  0.7223770E-01
         52   -1    0    0    0    0  0.00000000000E+00  0.00000000000E+00  0.64930732323E+04  0.65000000000E+04  0.30000000000E+03 0.  1.
        -52   -1    0    0    0    0 -0.00000000000E+00 -0.00000000000E+00 -0.64930732323E+04  0.65000000000E+04  0.30000000000E+03 0. -1.
     100001    1    1    2    0    0 -0.67157173692E+03  0.39456303788E+03 -0.64514076884E+04  0.65000000000E+04  0.15050000000E+03 0. -1.
     100001    1    1    2    0    0  0.67157173692E+03 -0.39456303788E+03  0.64514076884E+04  0.65000000000E+04  0.15050000000E+03 0.  1.
</event>
<event>
 4    1  0.4521369E-004  0.6500000E+04  0.7818608E-02  0.7223770E-01
         52   -1    0    0    0    0  0.00000000000E+00  0.00000000000E+00  0.64930732323E+04  0.65000000000E+04  0.30000000000E+03 0. -1.
        -52   -1    0    0    0    0 -0.00000000000E+00 -0.00000000000E+00 -0.64930732323E+04  0.65000000000E+04  0.30000000000E+03 0.  1.
     100001    1    1    2    0    0  0.74525402867E+01  0.58551449344E+04 -0.28186117163E+04  0.65000000000E+04  0.15050000000E+03 0.  1.
     100001    1    1    2    0    0 -0.74525402867E+01 -0.58551449344E+04  0.28186117163E+04  0.65000000000E+04  0.15050000000E+03 0. -1.
</event>
<event>
 4    1  0.4521369E-004  0.6500000E+04  0.7818608E-02  0.7223770E-01
         52   -1    0    0    0    0  0.00000000000E+00  0.00000000000E+00  0.64930732323E+04  0.65000000000E+04  0.30000000000E+03 0.  1.
        -52   -1    0    0    0    0 -0.00000000000E+00 -0.00000000000E+00 -0.64930732323E+04  0.65000000000E+04  0.30000000000E+03 0. -1.
     100001    1    1    2    0    0 -0.85634199361E+03 -0.31448675013E+03  0.64339044307E+04  0.65000000000E+04  0.15050000000E+03 0.  1.
     100001    1    1    2    0    0  0.85634199361E+03  0.31448675013E+03 -0.64339044307E+04  0.65000000000E+04  0.15050000000E+03 0. -1.
</event>
<event>
 4    1  0.4521369E-004  0.6500000E+04  0.7818608E-02  0.7223770E-01
         52   -1    0    0    0    0  0.00000000000E+00  0.00000000000E+00  0.64930732323E+04  0.65000000000E+04  0.30000000000E+03 0.  1.
        -52   -1    0    0    0    0 -0.00000000000E+00 -0.00000000000E+00 -0.64930732323E+04  0.65000000000E+04  0.30000000000E+03 0. -1.
     100001    1    1    2    0    0 -0.37883885218E+03 -0.88773717032E+03  0.64261772144E+04  0.65000000000E+04  0.15050000000E+03 0.  1.
     100001    1    1    2    0    0  0.37883885218E+03  0.88773717032E+03 -0.64261772144E+04  0.65000000000E+04  0.15050000000E+03 0. -1.
</event>
<event>
 4    1  0.4521369E-004  0.6500000E+04  0.7818608E-02  0.7223770E-01
         52   -1    0    0    0    0  0.00000000000E+00  0.00000000000E+00  0.64930732323E+04  0.65000000000E+04  0.30000000000E+03 0. -1.
        -52   -1    0    0    0    0 -0.00000000000E+00 -0.00000000000E+00 -0.64930732323E+04  0.65000000000E+04  0.30000000000E+03 0.  1.
     100001    1    1    2    0    0 -0.11970178341E+03  0.26804426024E+04 -0.59184667515E+04  0.65000000000E+04  0.15050000000E+03 0.  1.
     100001    1    1    2    0    0  0.11970178341E+03 -0.26804426024E+04  0.59184667515E+04  0.65000000000E+04  0.15050000000E+03 0. -1.
</event>
<event>
 4    1  0.4521369E-004  0.6500000E+04  0.7818608E-02  0.7223770E-01
         52   -1    0    0    0    0  0.00000000000E+00  0.00000000000E+00  0.64930732323E+04  0.65000000000E+04  0.30000000000E+03 0. -1.
        -52   -1    0    0    0    0 -0.00000000000E+00 -0.00000000000E+00 -0.64930732323E+04  0.65000000000E+04  0.30000000000E+03 0.  1.
     100001    1    1    2    0    0 -0.30290155778E+03  0.12962933510E+04  0.63604421186E+04  0.65000000000E+04  0.15050000000E+03 0. -1.
     100001    1    1    2    0    0  0.30290155778E+03 -0.12962933510E+04 -0.63604421186E+04  0.65000000000E+04  0.15050000000E+03 0.  1.
</event>
<event>
 4    1  0.4521369E-004  0.6500000E+04  0.7818608E-02  0.7223770E-01
         52   -1    0    0    0    0  0.00000000000E+00  0.00000000000E+00  0.64930732323E+04  0.65000000000E+04  0.30000000000E+03 0.  1.
        -52   -1    0    0    0    0 -0.00000000000E+00 -0.00000000000E+00 -0.64930732323E+04  0.65000000000E+04  0.30000000000E+03 0. -1.
     100001    1    1    2    0    0  0.27416484565E+04 -0.79734729714E+03  0.58373753330E+04  0.65000000000E+04  0.15050000000E+03 0.  1.
     100001    1    1    2    0    0 -0.27416484565E+04  0.79734729714E+03 -0.58373753330E+04  0.65000000000E+04  0.15050000000E+03 0. -1.
</event>
<event>
 4    1  0.4521369E-004  0.6500000E+04  0.7818608E-02  0.7223770E-01
         52   -1    0    0    0    0  0.00000000000E+00  0.00000000000E+00  0.64930732323E+04  0.65000000000E+04  0.30000000000E+03 0. -1.
        -52   -1    0    0    0    0 -0.00000000000E+00 -0.00000000000E+00 -0.64930732323E+04  0.65000000000E+04  0.30000000000E+03 0.  1.
     100001    1    1    2    0    0 -0.64446904568E+04  0.68244656835E+03 -0.47705486885E+03  0.65000000000E+04  0.15050000000E+03 0.  1.
     100001    1    1    2    0    0  0.64446904568E+04 -0.68244656835E+03  0.47705486885E+03  0.65000000000E+04  0.15050000000E+03 0. -1.
</event>
<event>
 4    1  0.4521369E-004  0.6500000E+04  0.7818608E-02  0.7223770E-01
         52   -1    0    0    0    0  0.00000000000E+00  0.00000000000E+00  0.64930732323E+04  0.65000000000E+04  0.30000000000E+03 0.  1.
        -52   -1    0    0    0    0 -0.00000000000E+00 -0.00000000000E+00 -0.64930732323E+04  0.65000000000E+04  0.30000000000E+03 0. -1.
     100001    1    1    2    0    0 -0.39365140759E+04  0.28323074571E+04 -0.43254180317E+04  0.65000000000E+04  0.15050000000E+03 0. -1.
     100001    1    1    2    0    0  0.39365140759E+04 -0.28323074571E+04  0.43254180317E+04  0.65000000000E+04  0.15050000000E+03 0.  1.
</event>
<event>
 4    1  0.4521369E-004  0.6500000E+04  0.7818608E-02  0.7223770E-01
         52   -1    0    0    0    0  0.00000000000E+00  0.00000000000E+00  0.64930732323E+04  0.65000000000E+04  0.30000000000E+03 0. -1.
        -52   -1    0    0    0    0 -0.00000000000E+00 -0.00000000000E+00 -0.64930732323E+04  0.65000000000E+04  0.30000000000E+03 0.  1.
     100001    1    1    2    0    0 -0.27246956482E+04  0.12806466522E+04 -0.57587609368E+04  0.65000000000E+04  0.15050000000E+03 0.  1.
     100001    1    1    2    0    0  0.27246956482E+04 -0.12806466522E+04  0.57587609368E+04  0.65000000000E+04  0.15050000000E+03 0. -1.
</event>
<event>
 4    1  0.4521369E-004  0.6500000E+04  0.7818608E-02  0.7223770E-01
         52   -1    0    0    0    0  0.00000000000E+00  0.00000000000E+00  0.64930732323E+04  0.65000000000E+04  0.30000000000E+03 0. -1.
        -52   -1    0    0    0    0 -0.00000000000E+00 -0.00000000000E+00 -0.64930732323E+04  0.65000000000E+04  0.30000000000E+03 0.  1.
     100001    1    1    2    0    0  0.26879519585E+03 -0.30765716713E+03  0.64854025288E+04  0.65000000000E+04  0.15050000000E+03 0. -1.
     100001    1    1    2    0    0 -0.26879519585E+03  0.30765716713E+03 -0.64854025288E+04  0.65000000000E+04  0.15050000000E+03 0.  1.
</event>
<event>
 4    1  0.4521369E-004  0.6500000E+04  0.7818608E-02  0.7223770E-01
         52   -1    0    0    0    0  0.00000000000E+00  0.00000000000E+00  0.64930732323E+04  0.65000000000E+04  0.30000000000E+03 0. -1.
        -52   -1    0    0    0    0 -0.00000000000E+00 -0.00000000000E+00 -0.64930732323E+04  0.65000000000E+04  0.30000000000E+03 0.  1.
     100001    1    1    2    0    0  0.72225427536E+03  0.35986437905E+03  0.64479606187E+04  0.65000000000E+04  0.15050000000E+03 0. -1.
     100001    1    1    2    0    0 -0.72225427536E+03 -0.35986437905E+03 -0.64479606187E+04  0.65000000000E+04  0.15050000000E+03 0.  1.
</event>
<event>
 4    1  0.4521369E-004  0.6500000E+04  0.7818608E-02  0.7223770E-01
         52   -1    0    0    0    0  0.00000000000E+00  0.00000000000E+00  0.64930732323E+04  0.65000000000E+04  0.30000000000E+03 0.  1.
        -52   -1    0    0    0    0 -0.00000000000E+00 -0.00000000000E+00 -0.64930732323E+04  0.65000000000E+04  0.30000000000E+03 0. -1.
     100001    1    1    2    0    0 -0.41936627200E+04  0.34828477152E+04 -0.35369923005E+04  0.65000000000E+04  0.15050000000E+03 0.  1.
     100001    1    1    2    0    0  0.41936627200E+04 -0.34828477152E+04  0.35369923005E+04  0.65000000000E+04  0.15050000000E+03 0. -1.
</event>
<event>
 4    1  0.4521369E-004  0.6500000E+04  0.7818608E-02  0.7223770E-01
         52   -1    0    0    0    0  0.00000000000E+00  0.00000000000E+00  0.64930732323E+04  0.65000000000E+04  0.30000000000E+03 0. -1.
        -52   -1    0    0    0    0 -0.00000000000E+00 -0.00000000000E+00 -0.64930732323E+04  0.65000000000E+04  0.30000000000E+03 0.  1.
     100001    1    1    2    0    0  0.23919533054E+04 -0.60261102036E+04  0.43806957058E+03  0.65000000000E+04  0.15050000000E+03 0.  1.
     100001    1    1    2    0    0 -0.23919533054E+04  0.60261102036E+04 -0.43806957058E+03  0.65000000000E+04  0.15050000000E+03 0. -1.
</event>
<event>
 4    1  0.5623742E-004  0.6500000E+04  0.7818608E-02  0.7223770E-01
         52   -1    0    0    0    0  0.00000000000E+00  0.00000000000E+00  0.64930732323E+04  0.65000000000E+04  0.30000000000E+03 0. -1.
        -52   -1    0    0    0    0 -0.00000000000E+00 -0.00000000000E+00 -0.64930732323E+04  0.65000000000E+04  0.30000000000E+03 0. -1.
     100001    1    1    2    0    0 -0.20815324372E+03 -0.25688731305E+02  0.64948719823E+04  0.65000000000E+04  0.15050000000E+03 0. -1.
     100001    1    1    2    0    0  0.20815324372E+03  0.25688731305E+02 -0.64948719823E+04  0.65000000000E+04  0.15050000000E+03 0. -1.
</event>
<event>
 4    1  0.4521369E-004  0.6500000E+04  0.7818608E-02  0.7223770E-01
         52   -1    0    0    0    0  0.00000000000E+00  0.00000000000E+00  0.64930732323E+04  0.65000000000E+04  0.30000000000E+03 0.  1.
        -52   -1    0    0    0    0 -0.00000000000E+00 -0.00000000000E+00 -0.64930732323E+04  0.65000000000E+04  0.30000000000E+03 0. -1.
     100001    1    1    2    0    0 -0.62808419105E+02 -0.13574237674E+04  0.63545893312E+04  0.65000000000E+04  0.15050000000E+03 0.  1.
     100001    1    1    2    0    0  0.62808419105E+02  0.13574237674E+04 -0.63545893312E+04  0.65000000000E+04  0.15050000000E+03 0. -1.
</event>
<event>
 4    1  0.4521369E-004  0.6500000E+04  0.7818608E-02  0.7223770E-01
         52   -1    0    0    0    0  0.00000000000E+00  0.00000000000E+00  0.64930732323E+04  0.65000000000E+04  0.30000000000E+03 0.  1.
        -52   -1    0    0    0    0 -0.00000000000E+00 -0.00000000000E+00 -0.64930732323E+04  0.65000000000E+04  0.30000000000E+03 0.  1.
     100001    1    1    2    0    0  0.31164250026E+03  0.28610817852E+03 -0.64844715137E+04  0.65000000000E+04  0.15050000000E+03 0.  1.
     100001    1    1    2    0    0 -0.31164250026E+03 -0.28610817852E+03  0.64844715137E+04  0.65000000000E+04  0.15050000000E+03 0.  1.
</event>
<event>
 4    1  0.4521369E-004  0.6500000E+04  0.7818608E-02  0.7223770E-01
         52   -1    0    0    0    0  0.00000000000E+00  0.00000000000E+00  0.64930732323E+04  0.65000000000E+04  0.30000000000E+03 0. -1.
        -52   -1    0    0    0    0 -0.00000000000E+00 -0.00000000000E+00 -0.64930732323E+04  0.65000000000E+04  0.30000000000E+03 0.  1.
     100001    1    1    2    0    0 -0.48946145506E+03 -0.51069638766E+03  0.64596413549E+04  0.65000000000E+04  0.15050000000E+03 0. -1.
     100001    1    1    2    0    0  0.48946145506E+03  0.51069638766E+03 -0.64596413549E+04  0.65000000000E+04  0.15050000000E+03 0.  1.
</event>
<event>
 4    1  0.4521369E-004  0.6500000E+04  0.7818608E-02  0.7223770E-01
         52   -1    0    0    0    0  0.00000000000E+00  0.00000000000E+00  0.64930732323E+04  0.65000000000E+04  0.30000000000E+03 0.  1.
        -52   -1    0    0    0    0 -0.00000000000E+00 -0.00000000000E+00 -0.64930732323E+04  0.65000000000E+04  0.30000000000E+03 0. -1.
     100001    1    1    2    0    0 -0.18400754051E+03 -0.53865562053E+03  0.64732790066E+04  0.65000000000E+04  0.15050000000E+03 0.  1.
     100001    1    1    2    0    0  0.18400754051E+03  0.53865562053E+03 -0.64732790066E+04  0.65000000000E+04  0.15050000000E+03 0. -1.
</event>
<event>
 4    1  0.4521369E-004  0.6500000E+04  0.7818608E-02  0.7223770E-01
         52   -1    0    0    0    0  0.00000000000E+00  0.00000000000E+00  0.64930732323E+04  0.65000000000E+04  0.30000000000E+03 0.  1.
        -52   -1    0    0    0    0 -0.00000000000E+00 -0.00000000000E+00 -0.64930732323E+04  0.65000000000E+04  0.30000000000E+03 0.  1.
     100001    1    1    2    0    0  0.11617592817E+03 -0.39932657434E+03 -0.64849357122E+04  0.65000000000E+04  0.15050000000E+03 0.  1.
     100001    1    1    2    0    0 -0.11617592817E+03  0.39932657434E+03  0.64849357122E+04  0.65000000000E+04  0.15050000000E+03 0.  1.
</event>
<event>
 4    1  0.4521369E-004  0.6500000E+04  0.7818608E-02  0.7223770E-01
         52   -1    0    0    0    0  0.00000000000E+00  0.00000000000E+00  0.64930732323E+04  0.65000000000E+04  0.30000000000E+03 0.  1.
        -52   -1    0    0    0    0 -0.00000000000E+00 -0.00000000000E+00 -0.64930732323E+04  0.65000000000E+04  0.30000000000E+03 0. -1.
     100001    1    1    2    0    0 -0.49818647524E+04  0.23905548428E+04 -0.34195936721E+04  0.65000000000E+04  0.15050000000E+03 0. -1.
     100001    1    1    2    0    0  0.49818647524E+04 -0.23905548428E+04  0.34195936721E+04  0.65000000000E+04  0.15050000000E+03 0.  1.
</event>
<event>
 4    1  0.4521369E-004  0.6500000E+04  0.7818608E-02  0.7223770E-01
         52   -1    0    0    0    0  0.00000000000E+00  0.00000000000E+00  0.64930732323E+04  0.65000000000E+04  0.30000000000E+03 0.  1.
        -52   -1    0    0    0    0 -0.00000000000E+00 -0.00000000000E+00 -0.64930732323E+04  0.65000000000E+04  0.30000000000E+03 0.  1.
     100001    1    1    2    0    0  0.64433562996E+02 -0.22603370481E+03 -0.64940054535E+04  0.65000000000E+04  0.15050000000E+03 0.  1.
     100001    1    1    2    0    0 -0.64433562996E+02  0.22603370481E+03  0.64940054535E+04  0.65000000000E+04  0.15050000000E+03 0.  1.
</event>
<event>
 4    1  0.4521369E-004  0.6500000E+04  0.7818608E-02  0.7223770E-01
         52   -1    0    0    0    0  0.00000000000E+00  0.00000000000E+00  0.64930732323E+04  0.65000000000E+04  0.30000000000E+03 0. -1.
        -52   -1    0    0    0    0 -0.00000000000E+00 -0.00000000000E+00 -0.64930732323E+04  0.65000000000E+04  0.30000000000E+03 0. -1.
     100001    1    1    2    0    0  0.12600354711E+03  0.28098440063E+03  0.64909568341E+04  0.65000000000E+04  0.15050000000E+03 0. -1.
     100001    1    1    2    0    0 -0.12600354711E+03 -0.28098440063E+03 -0.64909568341E+04  0.65000000000E+04  0.15050000000E+03 0. -1.
</event>
<event>
 4    1  0.4521369E-004  0.6500000E+04  0.7818608E-02  0.7223770E-01
         52   -1    0    0    0    0  0.00000000000E+00  0.00000000000E+00  0.64930732323E+04  0.65000000000E+04  0.30000000000E+03 0. -1.
        -52   -1    0    0    0    0 -0.00000000000E+00 -0.00000000000E+00 -0.64930732323E+04  0.65000000000E+04  0.30000000000E+03 0.  1.
     100001    1    1    2    0    0 -0.43262086233E+04 -0.23585803745E+04 -0.42365513468E+04  0.65000000000E+04  0.15050000000E+03 0.  1.
     100001    1    1    2    0    0  0.43262086233E+04  0.23585803745E+04  0.42365513468E+04  0.65000000000E+04  0.15050000000E+03 0. -1.
</event>
<event>
 4    1  0.6186751E-004  0.6500000E+04  0.7818608E-02  0.7223770E-01
         52   -1    0    0    0    0  0.00000000000E+00  0.00000000000E+00  0.64930732323E+04  0.65000000000E+04  0.30000000000E+03 0.  1.
        -52   -1    0    0    0    0 -0.00000000000E+00 -0.00000000000E+00 -0.64930732323E+04  0.65000000000E+04  0.30000000000E+03 0.  1.
     100001    1    1    2    0    0  0.11811667820E+03 -0.29497160637E+02 -0.64971169081E+04  0.65000000000E+04  0.15050000000E+03 0.  1.
     100001    1    1    2    0    0 -0.11811667820E+03  0.29497160637E+02  0.64971169081E+04  0.65000000000E+04  0.15050000000E+03 0.  1.
</event>
<event>
 4    1  0.4521369E-004  0.6500000E+04  0.7818608E-02  0.7223770E-01
         52   -1    0    0    0    0  0.00000000000E+00  0.00000000000E+00  0.64930732323E+04  0.65000000000E+04  0.30000000000E+03 0. -1.
        -52   -1    0    0    0    0 -0.00000000000E+00 -0.00000000000E+00 -0.64930732323E+04  0.65000000000E+04  0.30000000000E+03 0.  1.
     100001    1    1    2    0    0  0.33505687229E+03  0.66646384620E+03 -0.64553011226E+04  0.65000000000E+04  0.15050000000E+03 0.  1.
     100001    1    1    2    0    0 -0.33505687229E+03 -0.66646384620E+03  0.64553011226E+04  0.65000000000E+04  0.15050000000E+03 0. -1.
</event>
<event>
 4    1  0.4521369E-004  0.6500000E+04  0.7818608E-02  0.7223770E-01
         52   -1    0    0    0    0  0.00000000000E+00  0.00000000000E+00  0.64930732323E+04  0.65000000000E+04  0.30000000000E+03 0. -1.
        -52   -1    0    0    0    0 -0.00000000000E+00 -0.00000000000E+00 -0.64930732323E+04  0.65000000000E+04  0.30000000000E+03 0.  1.
     100001    1    1    2    0    0 -0.10465776084E+03 -0.25629970754E+04  0.59705479225E+04  0.65000000000E+04  0.15050000000E+03 0. -1.
     100001    1    1    2    0    0  0.10465776084E+03  0.25629970754E+04 -0.59705479225E+04  0.65000000000E+04  0.15050000000E+03 0.  1.
</event>
<event>
 4    1  0.4521369E-004  0.6500000E+04  0.7818608E-02  0.7223770E-01
         52   -1    0    0    0    0  0.00000000000E+00  0.00000000000E+00  0.64930732323E+04  0.65000000000E+04  0.30000000000E+03 0. -1.
        -52   -1    0    0    0    0 -0.00000000000E+00 -0.00000000000E+00 -0.64930732323E+04  0.65000000000E+04  0.30000000000E+03 0.  1.
     100001    1    1    2    0    0  0.17272883948E+03  0.13864111785E+04  0.63462885644E+04  0.65000000000E+04  0.15050000000E+03 0. -1.
     100001    1    1    2    0    0 -0.17272883948E+03 -0.13864111785E+04 -0.63462885644E+04  0.65000000000E+04  0.15050000000E+03 0.  1.
</event>
<event>
 4    1  0.4521369E-004  0.6500000E+04  0.7818608E-02  0.7223770E-01
         52   -1    0    0    0    0  0.00000000000E+00  0.00000000000E+00  0.64930732323E+04  0.65000000000E+04  0.30000000000E+03 0. -1.
        -52   -1    0    0    0    0 -0.00000000000E+00 -0.00000000000E+00 -0.64930732323E+04  0.65000000000E+04  0.30000000000E+03 0.  1.
     100001    1    1    2    0    0 -0.42813171472E+03 -0.39603944468E+03 -0.64720325820E+04  0.65000000000E+04  0.15050000000E+03 0.  1.
     100001    1    1    2    0    0  0.42813171472E+03  0.39603944468E+03  0.64720325820E+04  0.65000000000E+04  0.15050000000E+03 0. -1.
</event>
<event>
 4    1  0.4521369E-004  0.6500000E+04  0.7818608E-02  0.7223770E-01
         52   -1    0    0    0    0  0.00000000000E+00  0.00000000000E+00  0.64930732323E+04  0.65000000000E+04  0.30000000000E+03 0.  1.
        -52   -1    0    0    0    0 -0.00000000000E+00 -0.00000000000E+00 -0.64930732323E+04  0.65000000000E+04  0.30000000000E+03 0. -1.
     100001    1    1    2    0    0  0.47328374022E+04  0.42298594460E+04 -0.13913622611E+04  0.65000000000E+04  0.15050000000E+03 0.  1.
     100001    1    1    2    0    0 -0.47328374022E+04 -0.42298594460E+04  0.13913622611E+04  0.65000000000E+04  0.15050000000E+03 0. -1.
</event>
<event>
 4    1  0.4521369E-004  0.6500000E+04  0.7818608E-02  0.7223770E-01
         52   -1    0    0    0    0  0.00000000000E+00  0.00000000000E+00  0.64930732323E+04  0.65000000000E+04  0.30000000000E+03 0. -1.
        -52   -1    0    0    0    0 -0.00000000000E+00 -0.00000000000E+00 -0.64930732323E+04  0.65000000000E+04  0.30000000000E+03 0.  1.
     100001    1    1    2    0    0  0.29364890059E+04  0.14650560913E+04 -0.56087425255E+04  0.65000000000E+04  0.15050000000E+03 0.  1.
     100001    1    1    2    0    0 -0.29364890059E+04 -0.14650560913E+04  0.56087425255E+04  0.65000000000E+04  0.15050000000E+03 0. -1.
</event>
<event>
 4    1  0.4521369E-004  0.6500000E+04  0.7818608E-02  0.7223770E-01
         52   -1    0    0    0    0  0.00000000000E+00  0.00000000000E+00  0.64930732323E+04  0.65000000000E+04  0.30000000000E+03 0. -1.
        -52   -1    0    0    0    0 -0.00000000000E+00 -0.00000000000E+00 -0.64930732323E+04  0.65000000000E+04  0.30000000000E+03 0. -1.
     100001    1    1    2    0    0  0.41390709187E+03  0.70362922689E+02  0.64846803875E+04  0.65000000000E+04  0.15050000000E+03 0. -1.
     100001    1    1    2    0    0 -0.41390709187E+03 -0.70362922689E+02 -0.64846803875E+04  0.65000000000E+04  0.15050000000E+03 0. -1.
</event>
<event>
 4    1  0.4521369E-004  0.6500000E+04  0.7818608E-02  0.7223770E-01
         52   -1    0    0    0    0  0.00000000000E+00  0.00000000000E+00  0.64930732323E+04  0.65000000000E+04  0.30000000000E+03 0.  1.
        -52   -1    0    0    0    0 -0.00000000000E+00 -0.00000000000E+00 -0.64930732323E+04  0.65000000000E+04  0.30000000000E+03 0.  1.
     100001    1    1    2    0    0  0.39153597742E+03  0.52736607644E+03 -0.64649775212E+04  0.65000000000E+04  0.15050000000E+03 0.  1.
     100001    1    1    2    0    0 -0.39153597742E+03 -0.52736607644E+03  0.64649775212E+04  0.65000000000E+04  0.15050000000E+03 0.  1.
</event>
<event>
 4    1  0.4521369E-004  0.6500000E+04  0.7818608E-02  0.7223770E-01
         52   -1    0    0    0    0  0.00000000000E+00  0.00000000000E+00  0.64930732323E+04  0.65000000000E+04  0.30000000000E+03 0. -1.
        -52   -1    0    0    0    0 -0.00000000000E+00 -0.00000000000E+00 -0.64930732323E+04  0.65000000000E+04  0.30000000000E+03 0. -1.
     100001    1    1    2    0    0  0.33880828637E+03  0.38035218821E+03  0.64782629545E+04  0.65000000000E+04  0.15050000000E+03 0. -1.
     100001    1    1    2    0    0 -0.33880828637E+03 -0.38035218821E+03 -0.64782629545E+04  0.65000000000E+04  0.15050000000E+03 0. -1.
</event>
<event>
 4    1  0.4521369E-004  0.6500000E+04  0.7818608E-02  0.7223770E-01
         52   -1    0    0    0    0  0.00000000000E+00  0.00000000000E+00  0.64930732323E+04  0.65000000000E+04  0.30000000000E+03 0.  1.
        -52   -1    0    0    0    0 -0.00000000000E+00 -0.00000000000E+00 -0.64930732323E+04  0.65000000000E+04  0.30000000000E+03 0. -1.
     100001    1    1    2    0    0  0.13249765201E+03 -0.75530678669E+03  0.64528525305E+04  0.65000000000E+04  0.15050000000E+03 0.  1.
     100001    1    1    2    0    0 -0.13249765201E+03  0.75530678669E+03 -0.64528525305E+04  0.65000000000E+04  0.15050000000E+03 0. -1.
</event>
<event>
 4    1  0.4521369E-004  0.6500000E+04  0.7818608E-02  0.7223770E-01
         52   -1    0    0    0    0  0.00000000000E+00  0.00000000000E+00  0.64930732323E+04  0.65000000000E+04  0.30000000000E+03 0. -1.
        -52   -1    0    0    0    0 -0.00000000000E+00 -0.00000000000E+00 -0.64930732323E+04  0.65000000000E+04  0.30000000000E+03 0.  1.
     100001    1    1    2    0    0 -0.44951712956E+04 -0.34769090322E+04  0.31514898628E+04  0.65000000000E+04  0.15050000000E+03 0. -1.
     100001    1    1    2    0    0  0.44951712956E+04  0.34769090322E+04 -0.31514898628E+04  0.65000000000E+04  0.15050000000E+03 0.  1.
</event>
<event>
 4    1  0.4521369E-004  0.6500000E+04  0.7818608E-02  0.7223770E-01
         52   -1    0    0    0    0  0.00000000000E+00  0.00000000000E+00  0.64930732323E+04  0.65000000000E+04  0.30000000000E+03 0. -1.
        -52   -1    0    0    0    0 -0.00000000000E+00 -0.00000000000E+00 -0.64930732323E+04  0.65000000000E+04  0.30000000000E+03 0.  1.
     100001    1    1    2    0    0 -0.35903411009E+03 -0.92182057615E+03  0.64225143895E+04  0.65000000000E+04  0.15050000000E+03 0. -1.
     100001    1    1    2    0    0  0.35903411009E+03  0.92182057615E+03 -0.64225143895E+04  0.65000000000E+04  0.15050000000E+03 0.  1.
</event>
<event>
 4    1  0.4521369E-004  0.6500000E+04  0.7818608E-02  0.7223770E-01
         52   -1    0    0    0    0  0.00000000000E+00  0.00000000000E+00  0.64930732323E+04  0.65000000000E+04  0.30000000000E+03 0.  1.
        -52   -1    0    0    0    0 -0.00000000000E+00 -0.00000000000E+00 -0.64930732323E+04  0.65000000000E+04  0.30000000000E+03 0. -1.
     100001    1    1    2    0    0 -0.34737787414E+03 -0.69460871151E+03 -0.64516817265E+04  0.65000000000E+04  0.15050000000E+03 0. -1.
     100001    1    1    2    0    0  0.34737787414E+03  0.69460871151E+03  0.64516817265E+04  0.65000000000E+04  0.15050000000E+03 0.  1.
</event>
<event>
 4    1  0.4521369E-004  0.6500000E+04  0.7818608E-02  0.7223770E-01
         52   -1    0    0    0    0  0.00000000000E+00  0.00000000000E+00  0.64930732323E+04  0.65000000000E+04  0.30000000000E+03 0.  1.
        -52   -1    0    0    0    0 -0.00000000000E+00 -0.00000000000E+00 -0.64930732323E+04  0.65000000000E+04  0.30000000000E+03 0. -1.
     100001    1    1    2    0    0  0.31942359199E+04  0.21212953049E+04  0.52463618696E+04  0.65000000000E+04  0.15050000000E+03 0.  1.
     100001    1    1    2    0    0 -0.31942359199E+04 -0.21212953049E+04 -0.52463618696E+04  0.65000000000E+04  0.15050000000E+03 0. -1.
</event>
<event>
 4    1  0.4521369E-004  0.6500000E+04  0.7818608E-02  0.7223770E-01
         52   -1    0    0    0    0  0.00000000000E+00  0.00000000000E+00  0.64930732323E+04  0.65000000000E+04  0.30000000000E+03 0.  1.
        -52   -1    0    0    0    0 -0.00000000000E+00 -0.00000000000E+00 -0.64930732323E+04  0.65000000000E+04  0.30000000000E+03 0. -1.
     100001    1    1    2    0    0 -0.15540605019E+04  0.13231685784E+04 -0.61693979139E+04  0.65000000000E+04  0.15050000000E+03 0. -1.
     100001    1    1    2    0    0  0.15540605019E+04 -0.13231685784E+04  0.61693979139E+04  0.65000000000E+04  0.15050000000E+03 0.  1.
</event>
<event>
 4    1  0.4521369E-004  0.6500000E+04  0.7818608E-02  0.7223770E-01
         52   -1    0    0    0    0  0.00000000000E+00  0.00000000000E+00  0.64930732323E+04  0.65000000000E+04  0.30000000000E+03 0. -1.
        -52   -1    0    0    0    0 -0.00000000000E+00 -0.00000000000E+00 -0.64930732323E+04  0.65000000000E+04  0.30000000000E+03 0.  1.
     100001    1    1    2    0    0 -0.17016489523E+04  0.20457941847E+02 -0.62714688922E+04  0.65000000000E+04  0.15050000000E+03 0.  1.
     100001    1    1    2    0    0  0.17016489523E+04 -0.20457941847E+02  0.62714688922E+04  0.65000000000E+04  0.15050000000E+03 0. -1.
</event>
<event>
 4    1  0.4521369E-004  0.6500000E+04  0.7818608E-02  0.7223770E-01
         52   -1    0    0    0    0  0.00000000000E+00  0.00000000000E+00  0.64930732323E+04  0.65000000000E+04  0.30000000000E+03 0.  1.
        -52   -1    0    0    0    0 -0.00000000000E+00 -0.00000000000E+00 -0.64930732323E+04  0.65000000000E+04  0.30000000000E+03 0. -1.
     100001    1    1    2    0    0  0.33711219629E+04 -0.36838906412E+04 -0.41583453686E+04  0.65000000000E+04  0.15050000000E+03 0. -1.
     100001    1    1    2    0    0 -0.33711219629E+04  0.36838906412E+04  0.41583453686E+04  0.65000000000E+04  0.15050000000E+03 0.  1.
</event>
<event>
 4    1  0.4521369E-004  0.6500000E+04  0.7818608E-02  0.7223770E-01
         52   -1    0    0    0    0  0.00000000000E+00  0.00000000000E+00  0.64930732323E+04  0.65000000000E+04  0.30000000000E+03 0. -1.
        -52   -1    0    0    0    0 -0.00000000000E+00 -0.00000000000E+00 -0.64930732323E+04  0.65000000000E+04  0.30000000000E+03 0. -1.
     100001    1    1    2    0    0 -0.30107998576E+03  0.11886609065E+02 -0.64912679270E+04  0.65000000000E+04  0.15050000000E+03 0. -1.
     100001    1    1    2    0    0  0.30107998576E+03 -0.11886609065E+02  0.64912679270E+04  0.65000000000E+04  0.15050000000E+03 0. -1.
</event>
<event>
 4    1  0.4521369E-004  0.6500000E+04  0.7818608E-02  0.7223770E-01
         52   -1    0    0    0    0  0.00000000000E+00  0.00000000000E+00  0.64930732323E+04  0.65000000000E+04  0.30000000000E+03 0. -1.
        -52   -1    0    0    0    0 -0.00000000000E+00 -0.00000000000E+00 -0.64930732323E+04  0.65000000000E+04  0.30000000000E+03 0.  1.
     100001    1    1    2    0    0 -0.57838133922E+03 -0.46907319739E+03  0.64554469336E+04  0.65000000000E+04  0.15050000000E+03 0. -1.
     100001    1    1    2    0    0  0.57838133922E+03  0.46907319739E+03 -0.64554469336E+04  0.65000000000E+04  0.15050000000E+03 0.  1.
</event>
<event>
 4    1  0.4521369E-004  0.6500000E+04  0.7818608E-02  0.7223770E-01
         52   -1    0    0    0    0  0.00000000000E+00  0.00000000000E+00  0.64930732323E+04  0.65000000000E+04  0.30000000000E+03 0.  1.
        -52   -1    0    0    0    0 -0.00000000000E+00 -0.00000000000E+00 -0.64930732323E+04  0.65000000000E+04  0.30000000000E+03 0. -1.
     100001    1    1    2    0    0 -0.43175120228E+04  0.39111827186E+04 -0.28790778775E+04  0.65000000000E+04  0.15050000000E+03 0. -1.
     100001    1    1    2    0    0  0.43175120228E+04 -0.39111827186E+04  0.28790778775E+04  0.65000000000E+04  0.15050000000E+03 0.  1.
</event>
<event>
 4    1  0.4521369E-004  0.6500000E+04  0.7818608E-02  0.7223770E-01
         52   -1    0    0    0    0  0.00000000000E+00  0.00000000000E+00  0.64930732323E+04  0.65000000000E+04  0.30000000000E+03 0.  1.
        -52   -1    0    0    0    0 -0.00000000000E+00 -0.00000000000E+00 -0.64930732323E+04  0.65000000000E+04  0.30000000000E+03 0.  1.
     100001    1    1    2    0    0  0.13168564968E+03 -0.70738979883E+03  0.64582976327E+04  0.65000000000E+04  0.15050000000E+03 0.  1.
     100001    1    1    2    0    0 -0.13168564968E+03  0.70738979883E+03 -0.64582976327E+04  0.65000000000E+04  0.15050000000E+03 0.  1.
</event>
<event>
 4    1  0.4521369E-004  0.6500000E+04  0.7818608E-02  0.7223770E-01
         52   -1    0    0    0    0  0.00000000000E+00  0.00000000000E+00  0.64930732323E+04  0.65000000000E+04  0.30000000000E+03 0.  1.
        -52   -1    0    0    0    0 -0.00000000000E+00 -0.00000000000E+00 -0.64930732323E+04  0.65000000000E+04  0.30000000000E+03 0.  1.
     100001    1    1    2    0    0 -0.46593953893E+03 -0.24056662670E+03 -0.64770655234E+04  0.65000000000E+04  0.15050000000E+03 0.  1.
     100001    1    1    2    0    0  0.46593953893E+03  0.24056662670E+03  0.64770655234E+04  0.65000000000E+04  0.15050000000E+03 0.  1.
</event>
<event>
 4    1  0.4521369E-004  0.6500000E+04  0.7818608E-02  0.7223770E-01
         52   -1    0    0    0    0  0.00000000000E+00  0.00000000000E+00  0.64930732323E+04  0.65000000000E+04  0.30000000000E+03 0. -1.
        -52   -1    0    0    0    0 -0.00000000000E+00 -0.00000000000E+00 -0.64930732323E+04  0.65000000000E+04  0.30000000000E+03 0.  1.
     100001    1    1    2    0    0  0.72926146738E+03 -0.82507070571E+02 -0.64566802651E+04  0.65000000000E+04  0.15050000000E+03 0.  1.
     100001    1    1    2    0    0 -0.72926146738E+03  0.82507070571E+02  0.64566802651E+04  0.65000000000E+04  0.15050000000E+03 0. -1.
</event>
<event>
 4    1  0.4521369E-004  0.6500000E+04  0.7818608E-02  0.7223770E-01
         52   -1    0    0    0    0  0.00000000000E+00  0.00000000000E+00  0.64930732323E+04  0.65000000000E+04  0.30000000000E+03 0.  1.
        -52   -1    0    0    0    0 -0.00000000000E+00 -0.00000000000E+00 -0.64930732323E+04  0.65000000000E+04  0.30000000000E+03 0. -1.
     100001    1    1    2    0    0  0.10740276223E+04 -0.17269880626E+04  0.61718171269E+04  0.65000000000E+04  0.15050000000E+03 0.  1.
     100001    1    1    2    0    0 -0.10740276223E+04  0.17269880626E+04 -0.61718171269E+04  0.65000000000E+04  0.15050000000E+03 0. -1.
</event>
<event>
 4    1  0.4521369E-004  0.6500000E+04  0.7818608E-02  0.7223770E-01
         52   -1    0    0    0    0  0.00000000000E+00  0.00000000000E+00  0.64930732323E+04  0.65000000000E+04  0.30000000000E+03 0.  1.
        -52   -1    0    0    0    0 -0.00000000000E+00 -0.00000000000E+00 -0.64930732323E+04  0.65000000000E+04  0.30000000000E+03 0. -1.
     100001    1    1    2    0    0 -0.22658994471E+04 -0.33400088303E+04 -0.50928764426E+04  0.65000000000E+04  0.15050000000E+03 0. -1.
     100001    1    1    2    0    0  0.22658994471E+04  0.33400088303E+04  0.50928764426E+04  0.65000000000E+04  0.15050000000E+03 0.  1.
</event>
<event>
 4    1  0.4521369E-004  0.6500000E+04  0.7818608E-02  0.7223770E-01
         52   -1    0    0    0    0  0.00000000000E+00  0.00000000000E+00  0.64930732323E+04  0.65000000000E+04  0.30000000000E+03 0.  1.
        -52   -1    0    0    0    0 -0.00000000000E+00 -0.00000000000E+00 -0.64930732323E+04  0.65000000000E+04  0.30000000000E+03 0. -1.
     100001    1    1    2    0    0 -0.54002495299E+03  0.43457684759E+03 -0.64611814526E+04  0.65000000000E+04  0.15050000000E+03 0. -1.
     100001    1    1    2    0    0  0.54002495299E+03 -0.43457684759E+03  0.64611814526E+04  0.65000000000E+04  0.15050000000E+03 0.  1.
</event>
<event>
 4    1  0.4521369E-004  0.6500000E+04  0.7818608E-02  0.7223770E-01
         52   -1    0    0    0    0  0.00000000000E+00  0.00000000000E+00  0.64930732323E+04  0.65000000000E+04  0.30000000000E+03 0. -1.
        -52   -1    0    0    0    0 -0.00000000000E+00 -0.00000000000E+00 -0.64930732323E+04  0.65000000000E+04  0.30000000000E+03 0.  1.
     100001    1    1    2    0    0 -0.54266626569E+04  0.32032873145E+04  0.15867049310E+04  0.65000000000E+04  0.15050000000E+03 0. -1.
     100001    1    1    2    0    0  0.54266626569E+04 -0.32032873145E+04 -0.15867049310E+04  0.65000000000E+04  0.15050000000E+03 0.  1.
</event>
<event>
 4    1  0.4521369E-004  0.6500000E+04  0.7818608E-02  0.7223770E-01
         52   -1    0    0    0    0  0.00000000000E+00  0.00000000000E+00  0.64930732323E+04  0.65000000000E+04  0.30000000000E+03 0.  1.
        -52   -1    0    0    0    0 -0.00000000000E+00 -0.00000000000E+00 -0.64930732323E+04  0.65000000000E+04  0.30000000000E+03 0. -1.
     100001    1    1    2    0    0  0.18283150259E+04  0.11495869848E+04 -0.61288713219E+04  0.65000000000E+04  0.15050000000E+03 0. -1.
     100001    1    1    2    0    0 -0.18283150259E+04 -0.11495869848E+04  0.61288713219E+04  0.65000000000E+04  0.15050000000E+03 0.  1.
</event>
<event>
 4    1  0.4521369E-004  0.6500000E+04  0.7818608E-02  0.7223770E-01
         52   -1    0    0    0    0  0.00000000000E+00  0.00000000000E+00  0.64930732323E+04  0.65000000000E+04  0.30000000000E+03 0. -1.
        -52   -1    0    0    0    0 -0.00000000000E+00 -0.00000000000E+00 -0.64930732323E+04  0.65000000000E+04  0.30000000000E+03 0. -1.
     100001    1    1    2    0    0 -0.39219740947E+03  0.19726802866E+03 -0.64834108513E+04  0.65000000000E+04  0.15050000000E+03 0. -1.
     100001    1    1    2    0    0  0.39219740947E+03 -0.19726802866E+03  0.64834108513E+04  0.65000000000E+04  0.15050000000E+03 0. -1.
</event>
<event>
 4    1  0.4521369E-004  0.6500000E+04  0.7818608E-02  0.7223770E-01
         52   -1    0    0    0    0  0.00000000000E+00  0.00000000000E+00  0.64930732323E+04  0.65000000000E+04  0.30000000000E+03 0. -1.
        -52   -1    0    0    0    0 -0.00000000000E+00 -0.00000000000E+00 -0.64930732323E+04  0.65000000000E+04  0.30000000000E+03 0.  1.
     100001    1    1    2    0    0 -0.22703515978E+04  0.24726895154E+04  0.55640506767E+04  0.65000000000E+04  0.15050000000E+03 0. -1.
     100001    1    1    2    0    0  0.22703515978E+04 -0.24726895154E+04 -0.55640506767E+04  0.65000000000E+04  0.15050000000E+03 0.  1.
</event>
<event>
 4    1  0.4521369E-004  0.6500000E+04  0.7818608E-02  0.7223770E-01
         52   -1    0    0    0    0  0.00000000000E+00  0.00000000000E+00  0.64930732323E+04  0.65000000000E+04  0.30000000000E+03 0. -1.
        -52   -1    0    0    0    0 -0.00000000000E+00 -0.00000000000E+00 -0.64930732323E+04  0.65000000000E+04  0.30000000000E+03 0.  1.
     100001    1    1    2    0    0  0.27235974912E+03 -0.84246231139E+03  0.64376569628E+04  0.65000000000E+04  0.15050000000E+03 0. -1.
     100001    1    1    2    0    0 -0.27235974912E+03  0.84246231139E+03 -0.64376569628E+04  0.65000000000E+04  0.15050000000E+03 0.  1.
</event>
<event>
 4    1  0.4521369E-004  0.6500000E+04  0.7818608E-02  0.7223770E-01
         52   -1    0    0    0    0  0.00000000000E+00  0.00000000000E+00  0.64930732323E+04  0.65000000000E+04  0.30000000000E+03 0.  1.
        -52   -1    0    0    0    0 -0.00000000000E+00 -0.00000000000E+00 -0.64930732323E+04  0.65000000000E+04  0.30000000000E+03 0.  1.
     100001    1    1    2    0    0  0.67453349697E+03 -0.25208422750E+03  0.64582356611E+04  0.65000000000E+04  0.15050000000E+03 0.  1.
     100001    1    1    2    0    0 -0.67453349697E+03  0.25208422750E+03 -0.64582356611E+04  0.65000000000E+04  0.15050000000E+03 0.  1.
</event>
<event>
 4    1  0.4521369E-004  0.6500000E+04  0.7818608E-02  0.7223770E-01
         52   -1    0    0    0    0  0.00000000000E+00  0.00000000000E+00  0.64930732323E+04  0.65000000000E+04  0.30000000000E+03 0.  1.
        -52   -1    0    0    0    0 -0.00000000000E+00 -0.00000000000E+00 -0.64930732323E+04  0.65000000000E+04  0.30000000000E+03 0. -1.
     100001    1    1    2    0    0 -0.79987294436E+03  0.12324283467E+03 -0.64476634703E+04  0.65000000000E+04  0.15050000000E+03 0. -1.
     100001    1    1    2    0    0  0.79987294436E+03 -0.12324283467E+03  0.64476634703E+04  0.65000000000E+04  0.15050000000E+03 0.  1.
</event>
<event>
 4    1  0.4521369E-004  0.6500000E+04  0.7818608E-02  0.7223770E-01
         52   -1    0    0    0    0  0.00000000000E+00  0.00000000000E+00  0.64930732323E+04  0.65000000000E+04  0.30000000000E+03 0. -1.
        -52   -1    0    0    0    0 -0.00000000000E+00 -0.00000000000E+00 -0.64930732323E+04  0.65000000000E+04  0.30000000000E+03 0.  1.
     100001    1    1    2    0    0 -0.51351163489E+03 -0.26653440168E+03  0.64724504605E+04  0.65000000000E+04  0.15050000000E+03 0. -1.
     100001    1    1    2    0    0  0.51351163489E+03  0.26653440168E+03 -0.64724504605E+04  0.65000000000E+04  0.15050000000E+03 0.  1.
</event>
<event>
 4    1  0.4521369E-004  0.6500000E+04  0.7818608E-02  0.7223770E-01
         52   -1    0    0    0    0  0.00000000000E+00  0.00000000000E+00  0.64930732323E+04  0.65000000000E+04  0.30000000000E+03 0.  1.
        -52   -1    0    0    0    0 -0.00000000000E+00 -0.00000000000E+00 -0.64930732323E+04  0.65000000000E+04  0.30000000000E+03 0.  1.
     100001    1    1    2    0    0  0.79885542556E+02 -0.69526431878E+02 -0.64973944105E+04  0.65000000000E+04  0.15050000000E+03 0.  1.
     100001    1    1    2    0    0 -0.79885542556E+02  0.69526431878E+02  0.64973944105E+04  0.65000000000E+04  0.15050000000E+03 0.  1.
</event>
<event>
 4    1  0.4521369E-004  0.6500000E+04  0.7818608E-02  0.7223770E-01
         52   -1    0    0    0    0  0.00000000000E+00  0.00000000000E+00  0.64930732323E+04  0.65000000000E+04  0.30000000000E+03 0. -1.
        -52   -1    0    0    0    0 -0.00000000000E+00 -0.00000000000E+00 -0.64930732323E+04  0.65000000000E+04  0.30000000000E+03 0.  1.
     100001    1    1    2    0    0  0.92086867556E+03 -0.13175804264E+04  0.62962951370E+04  0.65000000000E+04  0.15050000000E+03 0. -1.
     100001    1    1    2    0    0 -0.92086867556E+03  0.13175804264E+04 -0.62962951370E+04  0.65000000000E+04  0.15050000000E+03 0.  1.
</event>
<event>
 4    1  0.4521369E-004  0.6500000E+04  0.7818608E-02  0.7223770E-01
         52   -1    0    0    0    0  0.00000000000E+00  0.00000000000E+00  0.64930732323E+04  0.65000000000E+04  0.30000000000E+03 0.  1.
        -52   -1    0    0    0    0 -0.00000000000E+00 -0.00000000000E+00 -0.64930732323E+04  0.65000000000E+04  0.30000000000E+03 0. -1.
     100001    1    1    2    0    0 -0.13313481252E+04 -0.28304626815E+04  0.56959058040E+04  0.65000000000E+04  0.15050000000E+03 0.  1.
     100001    1    1    2    0    0  0.13313481252E+04  0.28304626815E+04 -0.56959058040E+04  0.65000000000E+04  0.15050000000E+03 0. -1.
</event>
<event>
 4    1  0.4521369E-004  0.6500000E+04  0.7818608E-02  0.7223770E-01
         52   -1    0    0    0    0  0.00000000000E+00  0.00000000000E+00  0.64930732323E+04  0.65000000000E+04  0.30000000000E+03 0. -1.
        -52   -1    0    0    0    0 -0.00000000000E+00 -0.00000000000E+00 -0.64930732323E+04  0.65000000000E+04  0.30000000000E+03 0.  1.
     100001    1    1    2    0    0  0.37358478120E+03 -0.12484606594E+03  0.64863084741E+04  0.65000000000E+04  0.15050000000E+03 0. -1.
     100001    1    1    2    0    0 -0.37358478120E+03  0.12484606594E+03 -0.64863084741E+04  0.65000000000E+04  0.15050000000E+03 0.  1.
</event>
<event>
 4    1  0.4521369E-004  0.6500000E+04  0.7818608E-02  0.7223770E-01
         52   -1    0    0    0    0  0.00000000000E+00  0.00000000000E+00  0.64930732323E+04  0.65000000000E+04  0.30000000000E+03 0.  1.
        -52   -1    0    0    0    0 -0.00000000000E+00 -0.00000000000E+00 -0.64930732323E+04  0.65000000000E+04  0.30000000000E+03 0. -1.
     100001    1    1    2    0    0 -0.23918658770E+03  0.76130983222E+03 -0.64490733339E+04  0.65000000000E+04  0.15050000000E+03 0. -1.
     100001    1    1    2    0    0  0.23918658770E+03 -0.76130983222E+03  0.64490733339E+04  0.65000000000E+04  0.15050000000E+03 0.  1.
</event>
<event>
 4    1  0.4521369E-004  0.6500000E+04  0.7818608E-02  0.7223770E-01
         52   -1    0    0    0    0  0.00000000000E+00  0.00000000000E+00  0.64930732323E+04  0.65000000000E+04  0.30000000000E+03 0. -1.
        -52   -1    0    0    0    0 -0.00000000000E+00 -0.00000000000E+00 -0.64930732323E+04  0.65000000000E+04  0.30000000000E+03 0. -1.
     100001    1    1    2    0    0 -0.27522036449E+03 -0.16433790962E+03 -0.64903464124E+04  0.65000000000E+04  0.15050000000E+03 0. -1.
     100001    1    1    2    0    0  0.27522036449E+03  0.16433790962E+03  0.64903464124E+04  0.65000000000E+04  0.15050000000E+03 0. -1.
</event>
<event>
 4    1  0.4521369E-004  0.6500000E+04  0.7818608E-02  0.7223770E-01
         52   -1    0    0    0    0  0.00000000000E+00  0.00000000000E+00  0.64930732323E+04  0.65000000000E+04  0.30000000000E+03 0. -1.
        -52   -1    0    0    0    0 -0.00000000000E+00 -0.00000000000E+00 -0.64930732323E+04  0.65000000000E+04  0.30000000000E+03 0.  1.
     100001    1    1    2    0    0 -0.21220712358E+03 -0.12310711943E+03 -0.64936247600E+04  0.65000000000E+04  0.15050000000E+03 0.  1.
     100001    1    1    2    0    0  0.21220712358E+03  0.12310711943E+03  0.64936247600E+04  0.65000000000E+04  0.15050000000E+03 0. -1.
</event>
<event>
 4    1  0.4521369E-004  0.6500000E+04  0.7818608E-02  0.7223770E-01
         52   -1    0    0    0    0  0.00000000000E+00  0.00000000000E+00  0.64930732323E+04  0.65000000000E+04  0.30000000000E+03 0.  1.
        -52   -1    0    0    0    0 -0.00000000000E+00 -0.00000000000E+00 -0.64930732323E+04  0.65000000000E+04  0.30000000000E+03 0. -1.
     100001    1    1    2    0    0  0.79821843561E+03 -0.55287746011E+04 -0.33200675429E+04  0.65000000000E+04  0.15050000000E+03 0. -1.
     100001    1    1    2    0    0 -0.79821843561E+03  0.55287746011E+04  0.33200675429E+04  0.65000000000E+04  0.15050000000E+03 0.  1.
</event>
<event>
 4    1  0.4521369E-004  0.6500000E+04  0.7818608E-02  0.7223770E-01
         52   -1    0    0    0    0  0.00000000000E+00  0.00000000000E+00  0.64930732323E+04  0.65000000000E+04  0.30000000000E+03 0.  1.
        -52   -1    0    0    0    0 -0.00000000000E+00 -0.00000000000E+00 -0.64930732323E+04  0.65000000000E+04  0.30000000000E+03 0.  1.
     100001    1    1    2    0    0 -0.96534570624E+02  0.76499890294E+03 -0.64523489913E+04  0.65000000000E+04  0.15050000000E+03 0.  1.
     100001    1    1    2    0    0  0.96534570624E+02 -0.76499890294E+03  0.64523489913E+04  0.65000000000E+04  0.15050000000E+03 0.  1.
</event>
<event>
 4    1  0.4521369E-004  0.6500000E+04  0.7818608E-02  0.7223770E-01
         52   -1    0    0    0    0  0.00000000000E+00  0.00000000000E+00  0.64930732323E+04  0.65000000000E+04  0.30000000000E+03 0. -1.
        -52   -1    0    0    0    0 -0.00000000000E+00 -0.00000000000E+00 -0.64930732323E+04  0.65000000000E+04  0.30000000000E+03 0.  1.
     100001    1    1    2    0    0  0.16872201614E+04  0.65641420098E+03 -0.62409741446E+04  0.65000000000E+04  0.15050000000E+03 0.  1.
     100001    1    1    2    0    0 -0.16872201614E+04 -0.65641420098E+03  0.62409741446E+04  0.65000000000E+04  0.15050000000E+03 0. -1.
</event>
<event>
 4    1  0.4521369E-004  0.6500000E+04  0.7818608E-02  0.7223770E-01
         52   -1    0    0    0    0  0.00000000000E+00  0.00000000000E+00  0.64930732323E+04  0.65000000000E+04  0.30000000000E+03 0.  1.
        -52   -1    0    0    0    0 -0.00000000000E+00 -0.00000000000E+00 -0.64930732323E+04  0.65000000000E+04  0.30000000000E+03 0. -1.
     100001    1    1    2    0    0 -0.27034144838E+03  0.28894409510E+04  0.58142408139E+04  0.65000000000E+04  0.15050000000E+03 0.  1.
     100001    1    1    2    0    0  0.27034144838E+03 -0.28894409510E+04 -0.58142408139E+04  0.65000000000E+04  0.15050000000E+03 0. -1.
</event>
<event>
 4    1  0.4521369E-004  0.6500000E+04  0.7818608E-02  0.7223770E-01
         52   -1    0    0    0    0  0.00000000000E+00  0.00000000000E+00  0.64930732323E+04  0.65000000000E+04  0.30000000000E+03 0.  1.
        -52   -1    0    0    0    0 -0.00000000000E+00 -0.00000000000E+00 -0.64930732323E+04  0.65000000000E+04  0.30000000000E+03 0. -1.
     100001    1    1    2    0    0  0.56089466332E+03  0.17220215174E+04 -0.62407843113E+04  0.65000000000E+04  0.15050000000E+03 0. -1.
     100001    1    1    2    0    0 -0.56089466332E+03 -0.17220215174E+04  0.62407843113E+04  0.65000000000E+04  0.15050000000E+03 0.  1.
</event>
<event>
 4    1  0.4521369E-004  0.6500000E+04  0.7818608E-02  0.7223770E-01
         52   -1    0    0    0    0  0.00000000000E+00  0.00000000000E+00  0.64930732323E+04  0.65000000000E+04  0.30000000000E+03 0. -1.
        -52   -1    0    0    0    0 -0.00000000000E+00 -0.00000000000E+00 -0.64930732323E+04  0.65000000000E+04  0.30000000000E+03 0.  1.
     100001    1    1    2    0    0 -0.12050042579E+04  0.17162464267E+04 -0.61505944990E+04  0.65000000000E+04  0.15050000000E+03 0.  1.
     100001    1    1    2    0    0  0.12050042579E+04 -0.17162464267E+04  0.61505944990E+04  0.65000000000E+04  0.15050000000E+03 0. -1.
</event>
<event>
 4    1  0.4521369E-004  0.6500000E+04  0.7818608E-02  0.7223770E-01
         52   -1    0    0    0    0  0.00000000000E+00  0.00000000000E+00  0.64930732323E+04  0.65000000000E+04  0.30000000000E+03 0.  1.
        -52   -1    0    0    0    0 -0.00000000000E+00 -0.00000000000E+00 -0.64930732323E+04  0.65000000000E+04  0.30000000000E+03 0. -1.
     100001    1    1    2    0    0  0.13152576631E+04  0.23594583619E+03  0.63593849225E+04  0.65000000000E+04  0.15050000000E+03 0.  1.
     100001    1    1    2    0    0 -0.13152576631E+04 -0.23594583619E+03 -0.63593849225E+04  0.65000000000E+04  0.15050000000E+03 0. -1.
</event>
<event>
 4    1  0.4521369E-004  0.6500000E+04  0.7818608E-02  0.7223770E-01
         52   -1    0    0    0    0  0.00000000000E+00  0.00000000000E+00  0.64930732323E+04  0.65000000000E+04  0.30000000000E+03 0.  1.
        -52   -1    0    0    0    0 -0.00000000000E+00 -0.00000000000E+00 -0.64930732323E+04  0.65000000000E+04  0.30000000000E+03 0. -1.
     100001    1    1    2    0    0 -0.58134459374E+04  0.18594705815E+04  0.22301491519E+04  0.65000000000E+04  0.15050000000E+03 0.  1.
     100001    1    1    2    0    0  0.58134459374E+04 -0.18594705815E+04 -0.22301491519E+04  0.65000000000E+04  0.15050000000E+03 0. -1.
</event>
<event>
 4    1  0.4521369E-004  0.6500000E+04  0.7818608E-02  0.7223770E-01
         52   -1    0    0    0    0  0.00000000000E+00  0.00000000000E+00  0.64930732323E+04  0.65000000000E+04  0.30000000000E+03 0.  1.
        -52   -1    0    0    0    0 -0.00000000000E+00 -0.00000000000E+00 -0.64930732323E+04  0.65000000000E+04  0.30000000000E+03 0. -1.
     100001    1    1    2    0    0 -0.50347414181E+03 -0.31733373064E+02  0.64786461959E+04  0.65000000000E+04  0.15050000000E+03 0.  1.
     100001    1    1    2    0    0  0.50347414181E+03  0.31733373064E+02 -0.64786461959E+04  0.65000000000E+04  0.15050000000E+03 0. -1.
</event>
<event>
 4    1  0.5197537E-004  0.6500000E+04  0.7818608E-02  0.7223770E-01
         52   -1    0    0    0    0  0.00000000000E+00  0.00000000000E+00  0.64930732323E+04  0.65000000000E+04  0.30000000000E+03 0. -1.
        -52   -1    0    0    0    0 -0.00000000000E+00 -0.00000000000E+00 -0.64930732323E+04  0.65000000000E+04  0.30000000000E+03 0. -1.
     100001    1    1    2    0    0 -0.14769744794E+03  0.16710856364E+03 -0.64944291467E+04  0.65000000000E+04  0.15050000000E+03 0. -1.
     100001    1    1    2    0    0  0.14769744794E+03 -0.16710856364E+03  0.64944291467E+04  0.65000000000E+04  0.15050000000E+03 0. -1.
</event>
<event>
 4    1  0.4521369E-004  0.6500000E+04  0.7818608E-02  0.7223770E-01
         52   -1    0    0    0    0  0.00000000000E+00  0.00000000000E+00  0.64930732323E+04  0.65000000000E+04  0.30000000000E+03 0. -1.
        -52   -1    0    0    0    0 -0.00000000000E+00 -0.00000000000E+00 -0.64930732323E+04  0.65000000000E+04  0.30000000000E+03 0.  1.
     100001    1    1    2    0    0 -0.52089974794E+04 -0.38102457328E+04  0.75876377451E+03  0.65000000000E+04  0.15050000000E+03 0. -1.
     100001    1    1    2    0    0  0.52089974794E+04  0.38102457328E+04 -0.75876377451E+03  0.65000000000E+04  0.15050000000E+03 0.  1.
</event>
<event>
 4    1  0.4521369E-004  0.6500000E+04  0.7818608E-02  0.7223770E-01
         52   -1    0    0    0    0  0.00000000000E+00  0.00000000000E+00  0.64930732323E+04  0.65000000000E+04  0.30000000000E+03 0. -1.
        -52   -1    0    0    0    0 -0.00000000000E+00 -0.00000000000E+00 -0.64930732323E+04  0.65000000000E+04  0.30000000000E+03 0.  1.
     100001    1    1    2    0    0 -0.87323647431E+03 -0.41743158284E+03  0.64257730028E+04  0.65000000000E+04  0.15050000000E+03 0. -1.
     100001    1    1    2    0    0  0.87323647431E+03  0.41743158284E+03 -0.64257730028E+04  0.65000000000E+04  0.15050000000E+03 0.  1.
</event>
<event>
 4    1  0.4521369E-004  0.6500000E+04  0.7818608E-02  0.7223770E-01
         52   -1    0    0    0    0  0.00000000000E+00  0.00000000000E+00  0.64930732323E+04  0.65000000000E+04  0.30000000000E+03 0. -1.
        -52   -1    0    0    0    0 -0.00000000000E+00 -0.00000000000E+00 -0.64930732323E+04  0.65000000000E+04  0.30000000000E+03 0. -1.
     100001    1    1    2    0    0 -0.70324652209E+03 -0.38411747058E+03 -0.64486624852E+04  0.65000000000E+04  0.15050000000E+03 0. -1.
     100001    1    1    2    0    0  0.70324652209E+03  0.38411747058E+03  0.64486624852E+04  0.65000000000E+04  0.15050000000E+03 0. -1.
</event>
<event>
 4    1  0.4521369E-004  0.6500000E+04  0.7818608E-02  0.7223770E-01
         52   -1    0    0    0    0  0.00000000000E+00  0.00000000000E+00  0.64930732323E+04  0.65000000000E+04  0.30000000000E+03 0.  1.
        -52   -1    0    0    0    0 -0.00000000000E+00 -0.00000000000E+00 -0.64930732323E+04  0.65000000000E+04  0.30000000000E+03 0. -1.
     100001    1    1    2    0    0 -0.14039340608E+03  0.15985010094E+04  0.62970178628E+04  0.65000000000E+04  0.15050000000E+03 0.  1.
     100001    1    1    2    0    0  0.14039340608E+03 -0.15985010094E+04 -0.62970178628E+04  0.65000000000E+04  0.15050000000E+03 0. -1.
</event>
<event>
 4    1  0.4521369E-004  0.6500000E+04  0.7818608E-02  0.7223770E-01
         52   -1    0    0    0    0  0.00000000000E+00  0.00000000000E+00  0.64930732323E+04  0.65000000000E+04  0.30000000000E+03 0.  1.
        -52   -1    0    0    0    0 -0.00000000000E+00 -0.00000000000E+00 -0.64930732323E+04  0.65000000000E+04  0.30000000000E+03 0. -1.
     100001    1    1    2    0    0  0.27372059935E+03  0.30167475319E+04 -0.57490574108E+04  0.65000000000E+04  0.15050000000E+03 0. -1.
     100001    1    1    2    0    0 -0.27372059935E+03 -0.30167475319E+04  0.57490574108E+04  0.65000000000E+04  0.15050000000E+03 0.  1.
</event>
<event>
 4    1  0.4521369E-004  0.6500000E+04  0.7818608E-02  0.7223770E-01
         52   -1    0    0    0    0  0.00000000000E+00  0.00000000000E+00  0.64930732323E+04  0.65000000000E+04  0.30000000000E+03 0. -1.
        -52   -1    0    0    0    0 -0.00000000000E+00 -0.00000000000E+00 -0.64930732323E+04  0.65000000000E+04  0.30000000000E+03 0.  1.
     100001    1    1    2    0    0 -0.35664774424E+03  0.34395190484E+04 -0.55018052358E+04  0.65000000000E+04  0.15050000000E+03 0.  1.
     100001    1    1    2    0    0  0.35664774424E+03 -0.34395190484E+04  0.55018052358E+04  0.65000000000E+04  0.15050000000E+03 0. -1.
</event>
<event>
 4    1  0.4521369E-004  0.6500000E+04  0.7818608E-02  0.7223770E-01
         52   -1    0    0    0    0  0.00000000000E+00  0.00000000000E+00  0.64930732323E+04  0.65000000000E+04  0.30000000000E+03 0.  1.
        -52   -1    0    0    0    0 -0.00000000000E+00 -0.00000000000E+00 -0.64930732323E+04  0.65000000000E+04  0.30000000000E+03 0. -1.
     100001    1    1    2    0    0 -0.13654958734E+04  0.28284193257E+04 -0.56888324714E+04  0.65000000000E+04  0.15050000000E+03 0. -1.
     100001    1    1    2    0    0  0.13654958734E+04 -0.28284193257E+04  0.56888324714E+04  0.65000000000E+04  0.15050000000E+03 0.  1.
</event>
<event>
 4    1  0.4521369E-004  0.6500000E+04  0.7818608E-02  0.7223770E-01
         52   -1    0    0    0    0  0.00000000000E+00  0.00000000000E+00  0.64930732323E+04  0.65000000000E+04  0.30000000000E+03 0.  1.
        -52   -1    0    0    0    0 -0.00000000000E+00 -0.00000000000E+00 -0.64930732323E+04  0.65000000000E+04  0.30000000000E+03 0. -1.
     100001    1    1    2    0    0  0.38239536424E+04 -0.46538822162E+04 -0.24384643956E+04  0.65000000000E+04  0.15050000000E+03 0. -1.
     100001    1    1    2    0    0 -0.38239536424E+04  0.46538822162E+04  0.24384643956E+04  0.65000000000E+04  0.15050000000E+03 0.  1.
</event>
<event>
 4    1  0.4521369E-004  0.6500000E+04  0.7818608E-02  0.7223770E-01
         52   -1    0    0    0    0  0.00000000000E+00  0.00000000000E+00  0.64930732323E+04  0.65000000000E+04  0.30000000000E+03 0.  1.
        -52   -1    0    0    0    0 -0.00000000000E+00 -0.00000000000E+00 -0.64930732323E+04  0.65000000000E+04  0.30000000000E+03 0. -1.
     100001    1    1    2    0    0  0.22126508043E+04  0.10748277063E+04 -0.60146713601E+04  0.65000000000E+04  0.15050000000E+03 0. -1.
     100001    1    1    2    0    0 -0.22126508043E+04 -0.10748277063E+04  0.60146713601E+04  0.65000000000E+04  0.15050000000E+03 0.  1.
</event>
<event>
 4    1  0.4521369E-004  0.6500000E+04  0.7818608E-02  0.7223770E-01
         52   -1    0    0    0    0  0.00000000000E+00  0.00000000000E+00  0.64930732323E+04  0.65000000000E+04  0.30000000000E+03 0.  1.
        -52   -1    0    0    0    0 -0.00000000000E+00 -0.00000000000E+00 -0.64930732323E+04  0.65000000000E+04  0.30000000000E+03 0.  1.
     100001    1    1    2    0    0  0.43696382515E+02  0.35264676557E+03 -0.64885345522E+04  0.65000000000E+04  0.15050000000E+03 0.  1.
     100001    1    1    2    0    0 -0.43696382515E+02 -0.35264676557E+03  0.64885345522E+04  0.65000000000E+04  0.15050000000E+03 0.  1.
</event>
<event>
 4    1  0.4521369E-004  0.6500000E+04  0.7818608E-02  0.7223770E-01
         52   -1    0    0    0    0  0.00000000000E+00  0.00000000000E+00  0.64930732323E+04  0.65000000000E+04  0.30000000000E+03 0.  1.
        -52   -1    0    0    0    0 -0.00000000000E+00 -0.00000000000E+00 -0.64930732323E+04  0.65000000000E+04  0.30000000000E+03 0. -1.
     100001    1    1    2    0    0  0.68311939405E+03  0.10719133798E+04 -0.63727309177E+04  0.65000000000E+04  0.15050000000E+03 0. -1.
     100001    1    1    2    0    0 -0.68311939405E+03 -0.10719133798E+04  0.63727309177E+04  0.65000000000E+04  0.15050000000E+03 0.  1.
</event>
<event>
 4    1  0.4521369E-004  0.6500000E+04  0.7818608E-02  0.7223770E-01
         52   -1    0    0    0    0  0.00000000000E+00  0.00000000000E+00  0.64930732323E+04  0.65000000000E+04  0.30000000000E+03 0.  1.
        -52   -1    0    0    0    0 -0.00000000000E+00 -0.00000000000E+00 -0.64930732323E+04  0.65000000000E+04  0.30000000000E+03 0. -1.
     100001    1    1    2    0    0 -0.58224743300E+03 -0.21302821656E+02 -0.64720849706E+04  0.65000000000E+04  0.15050000000E+03 0. -1.
     100001    1    1    2    0    0  0.58224743300E+03  0.21302821656E+02  0.64720849706E+04  0.65000000000E+04  0.15050000000E+03 0.  1.
</event>
<event>
 4    1  0.4521369E-004  0.6500000E+04  0.7818608E-02  0.7223770E-01
         52   -1    0    0    0    0  0.00000000000E+00  0.00000000000E+00  0.64930732323E+04  0.65000000000E+04  0.30000000000E+03 0.  1.
        -52   -1    0    0    0    0 -0.00000000000E+00 -0.00000000000E+00 -0.64930732323E+04  0.65000000000E+04  0.30000000000E+03 0. -1.
     100001    1    1    2    0    0  0.53343784396E+02 -0.18977052410E+04  0.62147581618E+04  0.65000000000E+04  0.15050000000E+03 0.  1.
     100001    1    1    2    0    0 -0.53343784396E+02  0.18977052410E+04 -0.62147581618E+04  0.65000000000E+04  0.15050000000E+03 0. -1.
</event>
<event>
 4    1  0.4521369E-004  0.6500000E+04  0.7818608E-02  0.7223770E-01
         52   -1    0    0    0    0  0.00000000000E+00  0.00000000000E+00  0.64930732323E+04  0.65000000000E+04  0.30000000000E+03 0.  1.
        -52   -1    0    0    0    0 -0.00000000000E+00 -0.00000000000E+00 -0.64930732323E+04  0.65000000000E+04  0.30000000000E+03 0. -1.
     100001    1    1    2    0    0  0.76714561428E+03  0.40848659682E+03 -0.64398739162E+04  0.65000000000E+04  0.15050000000E+03 0. -1.
     100001    1    1    2    0    0 -0.76714561428E+03 -0.40848659682E+03  0.64398739162E+04  0.65000000000E+04  0.15050000000E+03 0.  1.
</event>
<event>
 4    1  0.4521369E-004  0.6500000E+04  0.7818608E-02  0.7223770E-01
         52   -1    0    0    0    0  0.00000000000E+00  0.00000000000E+00  0.64930732323E+04  0.65000000000E+04  0.30000000000E+03 0.  1.
        -52   -1    0    0    0    0 -0.00000000000E+00 -0.00000000000E+00 -0.64930732323E+04  0.65000000000E+04  0.30000000000E+03 0. -1.
     100001    1    1    2    0    0  0.16391306281E+03  0.50110901702E+03  0.64768334864E+04  0.65000000000E+04  0.15050000000E+03 0.  1.
     100001    1    1    2    0    0 -0.16391306281E+03 -0.50110901702E+03 -0.64768334864E+04  0.65000000000E+04  0.15050000000E+03 0. -1.
</event>
<event>
 4    1  0.4521369E-004  0.6500000E+04  0.7818608E-02  0.7223770E-01
         52   -1    0    0    0    0  0.00000000000E+00  0.00000000000E+00  0.64930732323E+04  0.65000000000E+04  0.30000000000E+03 0. -1.
        -52   -1    0    0    0    0 -0.00000000000E+00 -0.00000000000E+00 -0.64930732323E+04  0.65000000000E+04  0.30000000000E+03 0.  1.
     100001    1    1    2    0    0 -0.10738651417E+04  0.13673819270E+04  0.62613441107E+04  0.65000000000E+04  0.15050000000E+03 0. -1.
     100001    1    1    2    0    0  0.10738651417E+04 -0.13673819270E+04 -0.62613441107E+04  0.65000000000E+04  0.15050000000E+03 0.  1.
</event>
<event>
 4    1  0.6217146E-004  0.6500000E+04  0.7818608E-02  0.7223770E-01
         52   -1    0    0    0    0  0.00000000000E+00  0.00000000000E+00  0.64930732323E+04  0.65000000000E+04  0.30000000000E+03 0.  1.
        -52   -1    0    0    0    0 -0.00000000000E+00 -0.00000000000E+00 -0.64930732323E+04  0.65000000000E+04  0.30000000000E+03 0.  1.
     100001    1    1    2    0    0 -0.87399884778E+02  0.17572673030E+01  0.64976694224E+04  0.65000000000E+04  0.15050000000E+03 0.  1.
     100001    1    1    2    0    0  0.87399884778E+02 -0.17572673030E+01 -0.64976694224E+04  0.65000000000E+04  0.15050000000E+03 0.  1.
</event>
<event>
 4    1  0.4521369E-004  0.6500000E+04  0.7818608E-02  0.7223770E-01
         52   -1    0    0    0    0  0.00000000000E+00  0.00000000000E+00  0.64930732323E+04  0.65000000000E+04  0.30000000000E+03 0.  1.
        -52   -1    0    0    0    0 -0.00000000000E+00 -0.00000000000E+00 -0.64930732323E+04  0.65000000000E+04  0.30000000000E+03 0. -1.
     100001    1    1    2    0    0 -0.11088653887E+04 -0.11996104527E+04  0.62895708964E+04  0.65000000000E+04  0.15050000000E+03 0.  1.
     100001    1    1    2    0    0  0.11088653887E+04  0.11996104527E+04 -0.62895708964E+04  0.65000000000E+04  0.15050000000E+03 0. -1.
</event>
<event>
 4    1  0.4521369E-004  0.6500000E+04  0.7818608E-02  0.7223770E-01
         52   -1    0    0    0    0  0.00000000000E+00  0.00000000000E+00  0.64930732323E+04  0.65000000000E+04  0.30000000000E+03 0. -1.
        -52   -1    0    0    0    0 -0.00000000000E+00 -0.00000000000E+00 -0.64930732323E+04  0.65000000000E+04  0.30000000000E+03 0.  1.
     100001    1    1    2    0    0  0.89754244118E+03 -0.54886074896E+03  0.64125282997E+04  0.65000000000E+04  0.15050000000E+03 0. -1.
     100001    1    1    2    0    0 -0.89754244118E+03  0.54886074896E+03 -0.64125282997E+04  0.65000000000E+04  0.15050000000E+03 0.  1.
</event>
<event>
 4    1  0.4521369E-004  0.6500000E+04  0.7818608E-02  0.7223770E-01
         52   -1    0    0    0    0  0.00000000000E+00  0.00000000000E+00  0.64930732323E+04  0.65000000000E+04  0.30000000000E+03 0. -1.
        -52   -1    0    0    0    0 -0.00000000000E+00 -0.00000000000E+00 -0.64930732323E+04  0.65000000000E+04  0.30000000000E+03 0. -1.
     100001    1    1    2    0    0  0.13061814145E+02 -0.38731674507E+03 -0.64866913660E+04  0.65000000000E+04  0.15050000000E+03 0. -1.
     100001    1    1    2    0    0 -0.13061814145E+02  0.38731674507E+03  0.64866913660E+04  0.65000000000E+04  0.15050000000E+03 0. -1.
</event>
<event>
 4    1  0.4521369E-004  0.6500000E+04  0.7818608E-02  0.7223770E-01
         52   -1    0    0    0    0  0.00000000000E+00  0.00000000000E+00  0.64930732323E+04  0.65000000000E+04  0.30000000000E+03 0. -1.
        -52   -1    0    0    0    0 -0.00000000000E+00 -0.00000000000E+00 -0.64930732323E+04  0.65000000000E+04  0.30000000000E+03 0.  1.
     100001    1    1    2    0    0 -0.97763569067E+03 -0.15242171870E+03 -0.64224875108E+04  0.65000000000E+04  0.15050000000E+03 0.  1.
     100001    1    1    2    0    0  0.97763569067E+03  0.15242171870E+03  0.64224875108E+04  0.65000000000E+04  0.15050000000E+03 0. -1.
</event>
<event>
 4    1  0.4521369E-004  0.6500000E+04  0.7818608E-02  0.7223770E-01
         52   -1    0    0    0    0  0.00000000000E+00  0.00000000000E+00  0.64930732323E+04  0.65000000000E+04  0.30000000000E+03 0. -1.
        -52   -1    0    0    0    0 -0.00000000000E+00 -0.00000000000E+00 -0.64930732323E+04  0.65000000000E+04  0.30000000000E+03 0.  1.
     100001    1    1    2    0    0 -0.25214926750E+04  0.44800940309E+04  0.39746926817E+04  0.65000000000E+04  0.15050000000E+03 0. -1.
     100001    1    1    2    0    0  0.25214926750E+04 -0.44800940309E+04 -0.39746926817E+04  0.65000000000E+04  0.15050000000E+03 0.  1.
</event>
<event>
 4    1  0.4521369E-004  0.6500000E+04  0.7818608E-02  0.7223770E-01
         52   -1    0    0    0    0  0.00000000000E+00  0.00000000000E+00  0.64930732323E+04  0.65000000000E+04  0.30000000000E+03 0.  1.
        -52   -1    0    0    0    0 -0.00000000000E+00 -0.00000000000E+00 -0.64930732323E+04  0.65000000000E+04  0.30000000000E+03 0. -1.
     100001    1    1    2    0    0 -0.59399319584E+01 -0.10987512124E+04  0.64046904875E+04  0.65000000000E+04  0.15050000000E+03 0.  1.
     100001    1    1    2    0    0  0.59399319584E+01  0.10987512124E+04 -0.64046904875E+04  0.65000000000E+04  0.15050000000E+03 0. -1.
</event>
<event>
 4    1  0.4521369E-004  0.6500000E+04  0.7818608E-02  0.7223770E-01
         52   -1    0    0    0    0  0.00000000000E+00  0.00000000000E+00  0.64930732323E+04  0.65000000000E+04  0.30000000000E+03 0.  1.
        -52   -1    0    0    0    0 -0.00000000000E+00 -0.00000000000E+00 -0.64930732323E+04  0.65000000000E+04  0.30000000000E+03 0. -1.
     100001    1    1    2    0    0  0.16131870681E+04  0.26202225119E+04  0.57235837743E+04  0.65000000000E+04  0.15050000000E+03 0.  1.
     100001    1    1    2    0    0 -0.16131870681E+04 -0.26202225119E+04 -0.57235837743E+04  0.65000000000E+04  0.15050000000E+03 0. -1.
</event>
<event>
 4    1  0.4521369E-004  0.6500000E+04  0.7818608E-02  0.7223770E-01
         52   -1    0    0    0    0  0.00000000000E+00  0.00000000000E+00  0.64930732323E+04  0.65000000000E+04  0.30000000000E+03 0.  1.
        -52   -1    0    0    0    0 -0.00000000000E+00 -0.00000000000E+00 -0.64930732323E+04  0.65000000000E+04  0.30000000000E+03 0. -1.
     100001    1    1    2    0    0 -0.23763669725E+03 -0.27314008588E+04 -0.58915471566E+04  0.65000000000E+04  0.15050000000E+03 0. -1.
     100001    1    1    2    0    0  0.23763669725E+03  0.27314008588E+04  0.58915471566E+04  0.65000000000E+04  0.15050000000E+03 0.  1.
</event>
<event>
 4    1  0.4521369E-004  0.6500000E+04  0.7818608E-02  0.7223770E-01
         52   -1    0    0    0    0  0.00000000000E+00  0.00000000000E+00  0.64930732323E+04  0.65000000000E+04  0.30000000000E+03 0.  1.
        -52   -1    0    0    0    0 -0.00000000000E+00 -0.00000000000E+00 -0.64930732323E+04  0.65000000000E+04  0.30000000000E+03 0. -1.
     100001    1    1    2    0    0 -0.35676613764E+04  0.20991460852E+04 -0.50092641941E+04  0.65000000000E+04  0.15050000000E+03 0.  1.
     100001    1    1    2    0    0  0.35676613764E+04 -0.20991460852E+04  0.50092641941E+04  0.65000000000E+04  0.15050000000E+03 0. -1.
</event>
<event>
 4    1  0.4521369E-004  0.6500000E+04  0.7818608E-02  0.7223770E-01
         52   -1    0    0    0    0  0.00000000000E+00  0.00000000000E+00  0.64930732323E+04  0.65000000000E+04  0.30000000000E+03 0.  1.
        -52   -1    0    0    0    0 -0.00000000000E+00 -0.00000000000E+00 -0.64930732323E+04  0.65000000000E+04  0.30000000000E+03 0. -1.
     100001    1    1    2    0    0 -0.17129659983E+04  0.71997407714E+03  0.62269362103E+04  0.65000000000E+04  0.15050000000E+03 0.  1.
     100001    1    1    2    0    0  0.17129659983E+04 -0.71997407714E+03 -0.62269362103E+04  0.65000000000E+04  0.15050000000E+03 0. -1.
</event>
<event>
 4    1  0.4521369E-004  0.6500000E+04  0.7818608E-02  0.7223770E-01
         52   -1    0    0    0    0  0.00000000000E+00  0.00000000000E+00  0.64930732323E+04  0.65000000000E+04  0.30000000000E+03 0. -1.
        -52   -1    0    0    0    0 -0.00000000000E+00 -0.00000000000E+00 -0.64930732323E+04  0.65000000000E+04  0.30000000000E+03 0.  1.
     100001    1    1    2    0    0  0.11405756859E+04  0.81656502315E+03 -0.63450499145E+04  0.65000000000E+04  0.15050000000E+03 0.  1.
     100001    1    1    2    0    0 -0.11405756859E+04 -0.81656502315E+03  0.63450499145E+04  0.65000000000E+04  0.15050000000E+03 0. -1.
</event>
<event>
 4    1  0.4521369E-004  0.6500000E+04  0.7818608E-02  0.7223770E-01
         52   -1    0    0    0    0  0.00000000000E+00  0.00000000000E+00  0.64930732323E+04  0.65000000000E+04  0.30000000000E+03 0. -1.
        -52   -1    0    0    0    0 -0.00000000000E+00 -0.00000000000E+00 -0.64930732323E+04  0.65000000000E+04  0.30000000000E+03 0.  1.
     100001    1    1    2    0    0 -0.47654959913E+03  0.96418626092E+03 -0.64086344165E+04  0.65000000000E+04  0.15050000000E+03 0.  1.
     100001    1    1    2    0    0  0.47654959913E+03 -0.96418626092E+03  0.64086344165E+04  0.65000000000E+04  0.15050000000E+03 0. -1.
</event>
<event>
 4    1  0.4521369E-004  0.6500000E+04  0.7818608E-02  0.7223770E-01
         52   -1    0    0    0    0  0.00000000000E+00  0.00000000000E+00  0.64930732323E+04  0.65000000000E+04  0.30000000000E+03 0. -1.
        -52   -1    0    0    0    0 -0.00000000000E+00 -0.00000000000E+00 -0.64930732323E+04  0.65000000000E+04  0.30000000000E+03 0.  1.
     100001    1    1    2    0    0  0.21842476389E+03 -0.31060896925E+03 -0.64871536471E+04  0.65000000000E+04  0.15050000000E+03 0.  1.
     100001    1    1    2    0    0 -0.21842476389E+03  0.31060896925E+03  0.64871536471E+04  0.65000000000E+04  0.15050000000E+03 0. -1.
</event>
<event>
 4    1  0.4521369E-004  0.6500000E+04  0.7818608E-02  0.7223770E-01
         52   -1    0    0    0    0  0.00000000000E+00  0.00000000000E+00  0.64930732323E+04  0.65000000000E+04  0.30000000000E+03 0. -1.
        -52   -1    0    0    0    0 -0.00000000000E+00 -0.00000000000E+00 -0.64930732323E+04  0.65000000000E+04  0.30000000000E+03 0.  1.
     100001    1    1    2    0    0  0.63094476421E+03  0.40333281497E+04  0.50558404338E+04  0.65000000000E+04  0.15050000000E+03 0. -1.
     100001    1    1    2    0    0 -0.63094476421E+03 -0.40333281497E+04 -0.50558404338E+04  0.65000000000E+04  0.15050000000E+03 0.  1.
</event>
<event>
 4    1  0.4521369E-004  0.6500000E+04  0.7818608E-02  0.7223770E-01
         52   -1    0    0    0    0  0.00000000000E+00  0.00000000000E+00  0.64930732323E+04  0.65000000000E+04  0.30000000000E+03 0.  1.
        -52   -1    0    0    0    0 -0.00000000000E+00 -0.00000000000E+00 -0.64930732323E+04  0.65000000000E+04  0.30000000000E+03 0. -1.
     100001    1    1    2    0    0  0.27107545591E+04  0.64842091974E+03  0.58701541531E+04  0.65000000000E+04  0.15050000000E+03 0.  1.
     100001    1    1    2    0    0 -0.27107545591E+04 -0.64842091974E+03 -0.58701541531E+04  0.65000000000E+04  0.15050000000E+03 0. -1.
</event>
<event>
 4    1  0.4521369E-004  0.6500000E+04  0.7818608E-02  0.7223770E-01
         52   -1    0    0    0    0  0.00000000000E+00  0.00000000000E+00  0.64930732323E+04  0.65000000000E+04  0.30000000000E+03 0.  1.
        -52   -1    0    0    0    0 -0.00000000000E+00 -0.00000000000E+00 -0.64930732323E+04  0.65000000000E+04  0.30000000000E+03 0. -1.
     100001    1    1    2    0    0  0.40799703027E+04  0.69763757383E+03 -0.50094404772E+04  0.65000000000E+04  0.15050000000E+03 0. -1.
     100001    1    1    2    0    0 -0.40799703027E+04 -0.69763757383E+03  0.50094404772E+04  0.65000000000E+04  0.15050000000E+03 0.  1.
</event>
<event>
 4    1  0.4521369E-004  0.6500000E+04  0.7818608E-02  0.7223770E-01
         52   -1    0    0    0    0  0.00000000000E+00  0.00000000000E+00  0.64930732323E+04  0.65000000000E+04  0.30000000000E+03 0. -1.
        -52   -1    0    0    0    0 -0.00000000000E+00 -0.00000000000E+00 -0.64930732323E+04  0.65000000000E+04  0.30000000000E+03 0.  1.
     100001    1    1    2    0    0  0.22400886961E+03 -0.54355455675E+02  0.64941677882E+04  0.65000000000E+04  0.15050000000E+03 0. -1.
     100001    1    1    2    0    0 -0.22400886961E+03  0.54355455675E+02 -0.64941677882E+04  0.65000000000E+04  0.15050000000E+03 0.  1.
</event>
<event>
 4    1  0.4521369E-004  0.6500000E+04  0.7818608E-02  0.7223770E-01
         52   -1    0    0    0    0  0.00000000000E+00  0.00000000000E+00  0.64930732323E+04  0.65000000000E+04  0.30000000000E+03 0. -1.
        -52   -1    0    0    0    0 -0.00000000000E+00 -0.00000000000E+00 -0.64930732323E+04  0.65000000000E+04  0.30000000000E+03 0.  1.
     100001    1    1    2    0    0  0.21469782254E+04  0.12465335113E+04  0.60053300038E+04  0.65000000000E+04  0.15050000000E+03 0. -1.
     100001    1    1    2    0    0 -0.21469782254E+04 -0.12465335113E+04 -0.60053300038E+04  0.65000000000E+04  0.15050000000E+03 0.  1.
</event>
<event>
 4    1  0.4521369E-004  0.6500000E+04  0.7818608E-02  0.7223770E-01
         52   -1    0    0    0    0  0.00000000000E+00  0.00000000000E+00  0.64930732323E+04  0.65000000000E+04  0.30000000000E+03 0.  1.
        -52   -1    0    0    0    0 -0.00000000000E+00 -0.00000000000E+00 -0.64930732323E+04  0.65000000000E+04  0.30000000000E+03 0. -1.
     100001    1    1    2    0    0  0.17464284011E+03 -0.42031686689E+03  0.64822976914E+04  0.65000000000E+04  0.15050000000E+03 0.  1.
     100001    1    1    2    0    0 -0.17464284011E+03  0.42031686689E+03 -0.64822976914E+04  0.65000000000E+04  0.15050000000E+03 0. -1.
</event>
<event>
 4    1  0.4521369E-004  0.6500000E+04  0.7818608E-02  0.7223770E-01
         52   -1    0    0    0    0  0.00000000000E+00  0.00000000000E+00  0.64930732323E+04  0.65000000000E+04  0.30000000000E+03 0. -1.
        -52   -1    0    0    0    0 -0.00000000000E+00 -0.00000000000E+00 -0.64930732323E+04  0.65000000000E+04  0.30000000000E+03 0.  1.
     100001    1    1    2    0    0  0.89169626108E+03 -0.59615535260E+04 -0.24273662857E+04  0.65000000000E+04  0.15050000000E+03 0. -1.
     100001    1    1    2    0    0 -0.89169626108E+03  0.59615535260E+04  0.24273662857E+04  0.65000000000E+04  0.15050000000E+03 0.  1.
</event>
<event>
 4    1  0.4521369E-004  0.6500000E+04  0.7818608E-02  0.7223770E-01
         52   -1    0    0    0    0  0.00000000000E+00  0.00000000000E+00  0.64930732323E+04  0.65000000000E+04  0.30000000000E+03 0.  1.
        -52   -1    0    0    0    0 -0.00000000000E+00 -0.00000000000E+00 -0.64930732323E+04  0.65000000000E+04  0.30000000000E+03 0. -1.
     100001    1    1    2    0    0  0.84189626773E+03 -0.16942513940E+03 -0.64412619529E+04  0.65000000000E+04  0.15050000000E+03 0. -1.
     100001    1    1    2    0    0 -0.84189626773E+03  0.16942513940E+03  0.64412619529E+04  0.65000000000E+04  0.15050000000E+03 0.  1.
</event>
<event>
 4    1  0.4521369E-004  0.6500000E+04  0.7818608E-02  0.7223770E-01
         52   -1    0    0    0    0  0.00000000000E+00  0.00000000000E+00  0.64930732323E+04  0.65000000000E+04  0.30000000000E+03 0.  1.
        -52   -1    0    0    0    0 -0.00000000000E+00 -0.00000000000E+00 -0.64930732323E+04  0.65000000000E+04  0.30000000000E+03 0. -1.
     100001    1    1    2    0    0 -0.15949543191E+03 -0.94709452205E+03 -0.64268906108E+04  0.65000000000E+04  0.15050000000E+03 0. -1.
     100001    1    1    2    0    0  0.15949543191E+03  0.94709452205E+03  0.64268906108E+04  0.65000000000E+04  0.15050000000E+03 0.  1.
</event>
<event>
 4    1  0.4521369E-004  0.6500000E+04  0.7818608E-02  0.7223770E-01
         52   -1    0    0    0    0  0.00000000000E+00  0.00000000000E+00  0.64930732323E+04  0.65000000000E+04  0.30000000000E+03 0.  1.
        -52   -1    0    0    0    0 -0.00000000000E+00 -0.00000000000E+00 -0.64930732323E+04  0.65000000000E+04  0.30000000000E+03 0. -1.
     100001    1    1    2    0    0 -0.13114392643E+03 -0.25731616527E+04 -0.59656508555E+04  0.65000000000E+04  0.15050000000E+03 0. -1.
     100001    1    1    2    0    0  0.13114392643E+03  0.25731616527E+04  0.59656508555E+04  0.65000000000E+04  0.15050000000E+03 0.  1.
</event>
<event>
 4    1  0.4521369E-004  0.6500000E+04  0.7818608E-02  0.7223770E-01
         52   -1    0    0    0    0  0.00000000000E+00  0.00000000000E+00  0.64930732323E+04  0.65000000000E+04  0.30000000000E+03 0. -1.
        -52   -1    0    0    0    0 -0.00000000000E+00 -0.00000000000E+00 -0.64930732323E+04  0.65000000000E+04  0.30000000000E+03 0.  1.
     100001    1    1    2    0    0  0.23672286293E+03  0.17355675116E+04  0.62577246223E+04  0.65000000000E+04  0.15050000000E+03 0. -1.
     100001    1    1    2    0    0 -0.23672286293E+03 -0.17355675116E+04 -0.62577246223E+04  0.65000000000E+04  0.15050000000E+03 0.  1.
</event>
<event>
 4    1  0.4521369E-004  0.6500000E+04  0.7818608E-02  0.7223770E-01
         52   -1    0    0    0    0  0.00000000000E+00  0.00000000000E+00  0.64930732323E+04  0.65000000000E+04  0.30000000000E+03 0. -1.
        -52   -1    0    0    0    0 -0.00000000000E+00 -0.00000000000E+00 -0.64930732323E+04  0.65000000000E+04  0.30000000000E+03 0.  1.
     100001    1    1    2    0    0  0.62039489037E+03 -0.57007152564E+03 -0.64434058064E+04  0.65000000000E+04  0.15050000000E+03 0.  1.
     100001    1    1    2    0    0 -0.62039489037E+03  0.57007152564E+03  0.64434058064E+04  0.65000000000E+04  0.15050000000E+03 0. -1.
</event>
<event>
 4    1  0.4521369E-004  0.6500000E+04  0.7818608E-02  0.7223770E-01
         52   -1    0    0    0    0  0.00000000000E+00  0.00000000000E+00  0.64930732323E+04  0.65000000000E+04  0.30000000000E+03 0. -1.
        -52   -1    0    0    0    0 -0.00000000000E+00 -0.00000000000E+00 -0.64930732323E+04  0.65000000000E+04  0.30000000000E+03 0.  1.
     100001    1    1    2    0    0  0.11631457727E+04  0.17463704693E+04 -0.61501733183E+04  0.65000000000E+04  0.15050000000E+03 0.  1.
     100001    1    1    2    0    0 -0.11631457727E+04 -0.17463704693E+04  0.61501733183E+04  0.65000000000E+04  0.15050000000E+03 0. -1.
</event>
<event>
 4    1  0.4521369E-004  0.6500000E+04  0.7818608E-02  0.7223770E-01
         52   -1    0    0    0    0  0.00000000000E+00  0.00000000000E+00  0.64930732323E+04  0.65000000000E+04  0.30000000000E+03 0. -1.
        -52   -1    0    0    0    0 -0.00000000000E+00 -0.00000000000E+00 -0.64930732323E+04  0.65000000000E+04  0.30000000000E+03 0. -1.
     100001    1    1    2    0    0 -0.19449378080E+03 -0.72123922142E+02 -0.64949457318E+04  0.65000000000E+04  0.15050000000E+03 0. -1.
     100001    1    1    2    0    0  0.19449378080E+03  0.72123922142E+02  0.64949457318E+04  0.65000000000E+04  0.15050000000E+03 0. -1.
</event>
<event>
 4    1  0.4521369E-004  0.6500000E+04  0.7818608E-02  0.7223770E-01
         52   -1    0    0    0    0  0.00000000000E+00  0.00000000000E+00  0.64930732323E+04  0.65000000000E+04  0.30000000000E+03 0.  1.
        -52   -1    0    0    0    0 -0.00000000000E+00 -0.00000000000E+00 -0.64930732323E+04  0.65000000000E+04  0.30000000000E+03 0. -1.
     100001    1    1    2    0    0 -0.31747168834E+04 -0.16765233930E+03 -0.56674875521E+04  0.65000000000E+04  0.15050000000E+03 0. -1.
     100001    1    1    2    0    0  0.31747168834E+04  0.16765233930E+03  0.56674875521E+04  0.65000000000E+04  0.15050000000E+03 0.  1.
</event>
<event>
 4    1  0.4521369E-004  0.6500000E+04  0.7818608E-02  0.7223770E-01
         52   -1    0    0    0    0  0.00000000000E+00  0.00000000000E+00  0.64930732323E+04  0.65000000000E+04  0.30000000000E+03 0. -1.
        -52   -1    0    0    0    0 -0.00000000000E+00 -0.00000000000E+00 -0.64930732323E+04  0.65000000000E+04  0.30000000000E+03 0.  1.
     100001    1    1    2    0    0  0.26083421149E+04 -0.42895567262E+04  0.41259670689E+04  0.65000000000E+04  0.15050000000E+03 0. -1.
     100001    1    1    2    0    0 -0.26083421149E+04  0.42895567262E+04 -0.41259670689E+04  0.65000000000E+04  0.15050000000E+03 0.  1.
</event>
<event>
 4    1  0.4521369E-004  0.6500000E+04  0.7818608E-02  0.7223770E-01
         52   -1    0    0    0    0  0.00000000000E+00  0.00000000000E+00  0.64930732323E+04  0.65000000000E+04  0.30000000000E+03 0.  1.
        -52   -1    0    0    0    0 -0.00000000000E+00 -0.00000000000E+00 -0.64930732323E+04  0.65000000000E+04  0.30000000000E+03 0. -1.
     100001    1    1    2    0    0 -0.79664536291E+03  0.14410706805E+04  0.62861769948E+04  0.65000000000E+04  0.15050000000E+03 0.  1.
     100001    1    1    2    0    0  0.79664536291E+03 -0.14410706805E+04 -0.62861769948E+04  0.65000000000E+04  0.15050000000E+03 0. -1.
</event>
<event>
 4    1  0.6222643E-004  0.6500000E+04  0.7818608E-02  0.7223770E-01
         52   -1    0    0    0    0  0.00000000000E+00  0.00000000000E+00  0.64930732323E+04  0.65000000000E+04  0.30000000000E+03 0.  1.
        -52   -1    0    0    0    0 -0.00000000000E+00 -0.00000000000E+00 -0.64930732323E+04  0.65000000000E+04  0.30000000000E+03 0.  1.
     100001    1    1    2    0    0  0.11980609739E+03 -0.12415647250E+03 -0.64959665500E+04  0.65000000000E+04  0.15050000000E+03 0.  1.
     100001    1    1    2    0    0 -0.11980609739E+03  0.12415647250E+03  0.64959665500E+04  0.65000000000E+04  0.15050000000E+03 0.  1.
</event>
<event>
 4    1  0.4521369E-004  0.6500000E+04  0.7818608E-02  0.7223770E-01
         52   -1    0    0    0    0  0.00000000000E+00  0.00000000000E+00  0.64930732323E+04  0.65000000000E+04  0.30000000000E+03 0. -1.
        -52   -1    0    0    0    0 -0.00000000000E+00 -0.00000000000E+00 -0.64930732323E+04  0.65000000000E+04  0.30000000000E+03 0.  1.
     100001    1    1    2    0    0 -0.12507829917E+02  0.71766448168E+03 -0.64584944837E+04  0.65000000000E+04  0.15050000000E+03 0.  1.
     100001    1    1    2    0    0  0.12507829917E+02 -0.71766448168E+03  0.64584944837E+04  0.65000000000E+04  0.15050000000E+03 0. -1.
</event>
<event>
 4    1  0.4521369E-004  0.6500000E+04  0.7818608E-02  0.7223770E-01
         52   -1    0    0    0    0  0.00000000000E+00  0.00000000000E+00  0.64930732323E+04  0.65000000000E+04  0.30000000000E+03 0. -1.
        -52   -1    0    0    0    0 -0.00000000000E+00 -0.00000000000E+00 -0.64930732323E+04  0.65000000000E+04  0.30000000000E+03 0.  1.
     100001    1    1    2    0    0  0.20354740372E+03  0.47210713938E+02  0.64948971780E+04  0.65000000000E+04  0.15050000000E+03 0. -1.
     100001    1    1    2    0    0 -0.20354740372E+03 -0.47210713938E+02 -0.64948971780E+04  0.65000000000E+04  0.15050000000E+03 0.  1.
</event>
<event>
 4    1  0.4521369E-004  0.6500000E+04  0.7818608E-02  0.7223770E-01
         52   -1    0    0    0    0  0.00000000000E+00  0.00000000000E+00  0.64930732323E+04  0.65000000000E+04  0.30000000000E+03 0. -1.
        -52   -1    0    0    0    0 -0.00000000000E+00 -0.00000000000E+00 -0.64930732323E+04  0.65000000000E+04  0.30000000000E+03 0.  1.
     100001    1    1    2    0    0  0.38763685194E+04  0.21764860589E+03  0.52109256314E+04  0.65000000000E+04  0.15050000000E+03 0. -1.
     100001    1    1    2    0    0 -0.38763685194E+04 -0.21764860589E+03 -0.52109256314E+04  0.65000000000E+04  0.15050000000E+03 0.  1.
</event>
<event>
 4    1  0.4521369E-004  0.6500000E+04  0.7818608E-02  0.7223770E-01
         52   -1    0    0    0    0  0.00000000000E+00  0.00000000000E+00  0.64930732323E+04  0.65000000000E+04  0.30000000000E+03 0. -1.
        -52   -1    0    0    0    0 -0.00000000000E+00 -0.00000000000E+00 -0.64930732323E+04  0.65000000000E+04  0.30000000000E+03 0. -1.
     100001    1    1    2    0    0  0.60202769222E+02 -0.16054508496E+03 -0.64959949702E+04  0.65000000000E+04  0.15050000000E+03 0. -1.
     100001    1    1    2    0    0 -0.60202769222E+02  0.16054508496E+03  0.64959949702E+04  0.65000000000E+04  0.15050000000E+03 0. -1.
</event>
<event>
 4    1  0.5817119E-004  0.6500000E+04  0.7818608E-02  0.7223770E-01
         52   -1    0    0    0    0  0.00000000000E+00  0.00000000000E+00  0.64930732323E+04  0.65000000000E+04  0.30000000000E+03 0. -1.
        -52   -1    0    0    0    0 -0.00000000000E+00 -0.00000000000E+00 -0.64930732323E+04  0.65000000000E+04  0.30000000000E+03 0. -1.
     100001    1    1    2    0    0  0.12439086172E+03 -0.13624893601E+03  0.64956379895E+04  0.65000000000E+04  0.15050000000E+03 0. -1.
     100001    1    1    2    0    0 -0.12439086172E+03  0.13624893601E+03 -0.64956379895E+04  0.65000000000E+04  0.15050000000E+03 0. -1.
</event>
<event>
 4    1  0.4521369E-004  0.6500000E+04  0.7818608E-02  0.7223770E-01
         52   -1    0    0    0    0  0.00000000000E+00  0.00000000000E+00  0.64930732323E+04  0.65000000000E+04  0.30000000000E+03 0.  1.
        -52   -1    0    0    0    0 -0.00000000000E+00 -0.00000000000E+00 -0.64930732323E+04  0.65000000000E+04  0.30000000000E+03 0. -1.
     100001    1    1    2    0    0 -0.16617722470E+04 -0.44999767206E+04 -0.43836140641E+04  0.65000000000E+04  0.15050000000E+03 0. -1.
     100001    1    1    2    0    0  0.16617722470E+04  0.44999767206E+04  0.43836140641E+04  0.65000000000E+04  0.15050000000E+03 0.  1.
</event>
<event>
 4    1  0.4521369E-004  0.6500000E+04  0.7818608E-02  0.7223770E-01
         52   -1    0    0    0    0  0.00000000000E+00  0.00000000000E+00  0.64930732323E+04  0.65000000000E+04  0.30000000000E+03 0.  1.
        -52   -1    0    0    0    0 -0.00000000000E+00 -0.00000000000E+00 -0.64930732323E+04  0.65000000000E+04  0.30000000000E+03 0. -1.
     100001    1    1    2    0    0  0.21901954118E+04  0.74014986976E+03  0.60731023356E+04  0.65000000000E+04  0.15050000000E+03 0.  1.
     100001    1    1    2    0    0 -0.21901954118E+04 -0.74014986976E+03 -0.60731023356E+04  0.65000000000E+04  0.15050000000E+03 0. -1.
</event>
<event>
 4    1  0.4521369E-004  0.6500000E+04  0.7818608E-02  0.7223770E-01
         52   -1    0    0    0    0  0.00000000000E+00  0.00000000000E+00  0.64930732323E+04  0.65000000000E+04  0.30000000000E+03 0.  1.
        -52   -1    0    0    0    0 -0.00000000000E+00 -0.00000000000E+00 -0.64930732323E+04  0.65000000000E+04  0.30000000000E+03 0. -1.
     100001    1    1    2    0    0  0.23955132957E+04 -0.25687732618E+04 -0.54671994412E+04  0.65000000000E+04  0.15050000000E+03 0. -1.
     100001    1    1    2    0    0 -0.23955132957E+04  0.25687732618E+04  0.54671994412E+04  0.65000000000E+04  0.15050000000E+03 0.  1.
</event>
<event>
 4    1  0.4521369E-004  0.6500000E+04  0.7818608E-02  0.7223770E-01
         52   -1    0    0    0    0  0.00000000000E+00  0.00000000000E+00  0.64930732323E+04  0.65000000000E+04  0.30000000000E+03 0.  1.
        -52   -1    0    0    0    0 -0.00000000000E+00 -0.00000000000E+00 -0.64930732323E+04  0.65000000000E+04  0.30000000000E+03 0.  1.
     100001    1    1    2    0    0  0.12813511192E+04  0.28843901064E+03 -0.63641411044E+04  0.65000000000E+04  0.15050000000E+03 0.  1.
     100001    1    1    2    0    0 -0.12813511192E+04 -0.28843901064E+03  0.63641411044E+04  0.65000000000E+04  0.15050000000E+03 0.  1.
</event>
<event>
 4    1  0.4521369E-004  0.6500000E+04  0.7818608E-02  0.7223770E-01
         52   -1    0    0    0    0  0.00000000000E+00  0.00000000000E+00  0.64930732323E+04  0.65000000000E+04  0.30000000000E+03 0. -1.
        -52   -1    0    0    0    0 -0.00000000000E+00 -0.00000000000E+00 -0.64930732323E+04  0.65000000000E+04  0.30000000000E+03 0.  1.
     100001    1    1    2    0    0  0.44548563071E+04  0.18342350651E+04 -0.43608699544E+04  0.65000000000E+04  0.15050000000E+03 0.  1.
     100001    1    1    2    0    0 -0.44548563071E+04 -0.18342350651E+04  0.43608699544E+04  0.65000000000E+04  0.15050000000E+03 0. -1.
</event>
<event>
 4    1  0.4521369E-004  0.6500000E+04  0.7818608E-02  0.7223770E-01
         52   -1    0    0    0    0  0.00000000000E+00  0.00000000000E+00  0.64930732323E+04  0.65000000000E+04  0.30000000000E+03 0. -1.
        -52   -1    0    0    0    0 -0.00000000000E+00 -0.00000000000E+00 -0.64930732323E+04  0.65000000000E+04  0.30000000000E+03 0.  1.
     100001    1    1    2    0    0 -0.16838890104E+03  0.19292707667E+03 -0.64932098435E+04  0.65000000000E+04  0.15050000000E+03 0.  1.
     100001    1    1    2    0    0  0.16838890104E+03 -0.19292707667E+03  0.64932098435E+04  0.65000000000E+04  0.15050000000E+03 0. -1.
</event>
<event>
 4    1  0.4521369E-004  0.6500000E+04  0.7818608E-02  0.7223770E-01
         52   -1    0    0    0    0  0.00000000000E+00  0.00000000000E+00  0.64930732323E+04  0.65000000000E+04  0.30000000000E+03 0. -1.
        -52   -1    0    0    0    0 -0.00000000000E+00 -0.00000000000E+00 -0.64930732323E+04  0.65000000000E+04  0.30000000000E+03 0.  1.
     100001    1    1    2    0    0 -0.30243053370E+04  0.48608966606E+04 -0.30745098200E+04  0.65000000000E+04  0.15050000000E+03 0.  1.
     100001    1    1    2    0    0  0.30243053370E+04 -0.48608966606E+04  0.30745098200E+04  0.65000000000E+04  0.15050000000E+03 0. -1.
</event>
<event>
 4    1  0.4521369E-004  0.6500000E+04  0.7818608E-02  0.7223770E-01
         52   -1    0    0    0    0  0.00000000000E+00  0.00000000000E+00  0.64930732323E+04  0.65000000000E+04  0.30000000000E+03 0. -1.
        -52   -1    0    0    0    0 -0.00000000000E+00 -0.00000000000E+00 -0.64930732323E+04  0.65000000000E+04  0.30000000000E+03 0.  1.
     100001    1    1    2    0    0  0.11508013906E+04  0.13350330875E+04  0.62546536726E+04  0.65000000000E+04  0.15050000000E+03 0. -1.
     100001    1    1    2    0    0 -0.11508013906E+04 -0.13350330875E+04 -0.62546536726E+04  0.65000000000E+04  0.15050000000E+03 0.  1.
</event>
<event>
 4    1  0.4521369E-004  0.6500000E+04  0.7818608E-02  0.7223770E-01
         52   -1    0    0    0    0  0.00000000000E+00  0.00000000000E+00  0.64930732323E+04  0.65000000000E+04  0.30000000000E+03 0. -1.
        -52   -1    0    0    0    0 -0.00000000000E+00 -0.00000000000E+00 -0.64930732323E+04  0.65000000000E+04  0.30000000000E+03 0.  1.
     100001    1    1    2    0    0  0.15380569466E+04  0.19782112817E+03 -0.63105148269E+04  0.65000000000E+04  0.15050000000E+03 0.  1.
     100001    1    1    2    0    0 -0.15380569466E+04 -0.19782112817E+03  0.63105148269E+04  0.65000000000E+04  0.15050000000E+03 0. -1.
</event>
<event>
 4    1  0.4521369E-004  0.6500000E+04  0.7818608E-02  0.7223770E-01
         52   -1    0    0    0    0  0.00000000000E+00  0.00000000000E+00  0.64930732323E+04  0.65000000000E+04  0.30000000000E+03 0.  1.
        -52   -1    0    0    0    0 -0.00000000000E+00 -0.00000000000E+00 -0.64930732323E+04  0.65000000000E+04  0.30000000000E+03 0. -1.
     100001    1    1    2    0    0  0.40793485462E+03 -0.11482205068E+04 -0.63829874332E+04  0.65000000000E+04  0.15050000000E+03 0. -1.
     100001    1    1    2    0    0 -0.40793485462E+03  0.11482205068E+04  0.63829874332E+04  0.65000000000E+04  0.15050000000E+03 0.  1.
</event>
<event>
 4    1  0.4521369E-004  0.6500000E+04  0.7818608E-02  0.7223770E-01
         52   -1    0    0    0    0  0.00000000000E+00  0.00000000000E+00  0.64930732323E+04  0.65000000000E+04  0.30000000000E+03 0.  1.
        -52   -1    0    0    0    0 -0.00000000000E+00 -0.00000000000E+00 -0.64930732323E+04  0.65000000000E+04  0.30000000000E+03 0. -1.
     100001    1    1    2    0    0  0.65817868887E+03 -0.20285933033E+03  0.64616560304E+04  0.65000000000E+04  0.15050000000E+03 0.  1.
     100001    1    1    2    0    0 -0.65817868887E+03  0.20285933033E+03 -0.64616560304E+04  0.65000000000E+04  0.15050000000E+03 0. -1.
</event>
<event>
 4    1  0.4521369E-004  0.6500000E+04  0.7818608E-02  0.7223770E-01
         52   -1    0    0    0    0  0.00000000000E+00  0.00000000000E+00  0.64930732323E+04  0.65000000000E+04  0.30000000000E+03 0. -1.
        -52   -1    0    0    0    0 -0.00000000000E+00 -0.00000000000E+00 -0.64930732323E+04  0.65000000000E+04  0.30000000000E+03 0.  1.
     100001    1    1    2    0    0 -0.84206704301E+03  0.19172882910E+04  0.61516077942E+04  0.65000000000E+04  0.15050000000E+03 0. -1.
     100001    1    1    2    0    0  0.84206704301E+03 -0.19172882910E+04 -0.61516077942E+04  0.65000000000E+04  0.15050000000E+03 0.  1.
</event>
<event>
 4    1  0.4521369E-004  0.6500000E+04  0.7818608E-02  0.7223770E-01
         52   -1    0    0    0    0  0.00000000000E+00  0.00000000000E+00  0.64930732323E+04  0.65000000000E+04  0.30000000000E+03 0.  1.
        -52   -1    0    0    0    0 -0.00000000000E+00 -0.00000000000E+00 -0.64930732323E+04  0.65000000000E+04  0.30000000000E+03 0.  1.
     100001    1    1    2    0    0 -0.95838644258E+03 -0.62723635751E+03 -0.63965162181E+04  0.65000000000E+04  0.15050000000E+03 0.  1.
     100001    1    1    2    0    0  0.95838644258E+03  0.62723635751E+03  0.63965162181E+04  0.65000000000E+04  0.15050000000E+03 0.  1.
</event>
<event>
 4    1  0.4521369E-004  0.6500000E+04  0.7818608E-02  0.7223770E-01
         52   -1    0    0    0    0  0.00000000000E+00  0.00000000000E+00  0.64930732323E+04  0.65000000000E+04  0.30000000000E+03 0.  1.
        -52   -1    0    0    0    0 -0.00000000000E+00 -0.00000000000E+00 -0.64930732323E+04  0.65000000000E+04  0.30000000000E+03 0. -1.
     100001    1    1    2    0    0 -0.22314254416E+04  0.45182504943E+04 -0.41028651841E+04  0.65000000000E+04  0.15050000000E+03 0. -1.
     100001    1    1    2    0    0  0.22314254416E+04 -0.45182504943E+04  0.41028651841E+04  0.65000000000E+04  0.15050000000E+03 0.  1.
</event>
<event>
 4    1  0.4521369E-004  0.6500000E+04  0.7818608E-02  0.7223770E-01
         52   -1    0    0    0    0  0.00000000000E+00  0.00000000000E+00  0.64930732323E+04  0.65000000000E+04  0.30000000000E+03 0. -1.
        -52   -1    0    0    0    0 -0.00000000000E+00 -0.00000000000E+00 -0.64930732323E+04  0.65000000000E+04  0.30000000000E+03 0.  1.
     100001    1    1    2    0    0 -0.13108492096E+03  0.28130547147E+03  0.64908422971E+04  0.65000000000E+04  0.15050000000E+03 0. -1.
     100001    1    1    2    0    0  0.13108492096E+03 -0.28130547147E+03 -0.64908422971E+04  0.65000000000E+04  0.15050000000E+03 0.  1.
</event>
<event>
 4    1  0.4521369E-004  0.6500000E+04  0.7818608E-02  0.7223770E-01
         52   -1    0    0    0    0  0.00000000000E+00  0.00000000000E+00  0.64930732323E+04  0.65000000000E+04  0.30000000000E+03 0.  1.
        -52   -1    0    0    0    0 -0.00000000000E+00 -0.00000000000E+00 -0.64930732323E+04  0.65000000000E+04  0.30000000000E+03 0. -1.
     100001    1    1    2    0    0  0.75527915457E+03  0.11133815618E+04 -0.63574589772E+04  0.65000000000E+04  0.15050000000E+03 0. -1.
     100001    1    1    2    0    0 -0.75527915457E+03 -0.11133815618E+04  0.63574589772E+04  0.65000000000E+04  0.15050000000E+03 0.  1.
</event>
<event>
 4    1  0.4521369E-004  0.6500000E+04  0.7818608E-02  0.7223770E-01
         52   -1    0    0    0    0  0.00000000000E+00  0.00000000000E+00  0.64930732323E+04  0.65000000000E+04  0.30000000000E+03 0. -1.
        -52   -1    0    0    0    0 -0.00000000000E+00 -0.00000000000E+00 -0.64930732323E+04  0.65000000000E+04  0.30000000000E+03 0. -1.
     100001    1    1    2    0    0  0.12230672817E+03 -0.40369084651E+03 -0.64845527613E+04  0.65000000000E+04  0.15050000000E+03 0. -1.
     100001    1    1    2    0    0 -0.12230672817E+03  0.40369084651E+03  0.64845527613E+04  0.65000000000E+04  0.15050000000E+03 0. -1.
</event>
<event>
 4    1  0.4521369E-004  0.6500000E+04  0.7818608E-02  0.7223770E-01
         52   -1    0    0    0    0  0.00000000000E+00  0.00000000000E+00  0.64930732323E+04  0.65000000000E+04  0.30000000000E+03 0. -1.
        -52   -1    0    0    0    0 -0.00000000000E+00 -0.00000000000E+00 -0.64930732323E+04  0.65000000000E+04  0.30000000000E+03 0.  1.
     100001    1    1    2    0    0 -0.29676669019E+04 -0.81123757902E+03 -0.57238270851E+04  0.65000000000E+04  0.15050000000E+03 0.  1.
     100001    1    1    2    0    0  0.29676669019E+04  0.81123757902E+03  0.57238270851E+04  0.65000000000E+04  0.15050000000E+03 0. -1.
</event>
<event>
 4    1  0.4521369E-004  0.6500000E+04  0.7818608E-02  0.7223770E-01
         52   -1    0    0    0    0  0.00000000000E+00  0.00000000000E+00  0.64930732323E+04  0.65000000000E+04  0.30000000000E+03 0. -1.
        -52   -1    0    0    0    0 -0.00000000000E+00 -0.00000000000E+00 -0.64930732323E+04  0.65000000000E+04  0.30000000000E+03 0. -1.
     100001    1    1    2    0    0 -0.18369453027E+03  0.35039051804E+03  0.64862032465E+04  0.65000000000E+04  0.15050000000E+03 0. -1.
     100001    1    1    2    0    0  0.18369453027E+03 -0.35039051804E+03 -0.64862032465E+04  0.65000000000E+04  0.15050000000E+03 0. -1.
</event>
<event>
 4    1  0.4521369E-004  0.6500000E+04  0.7818608E-02  0.7223770E-01
         52   -1    0    0    0    0  0.00000000000E+00  0.00000000000E+00  0.64930732323E+04  0.65000000000E+04  0.30000000000E+03 0. -1.
        -52   -1    0    0    0    0 -0.00000000000E+00 -0.00000000000E+00 -0.64930732323E+04  0.65000000000E+04  0.30000000000E+03 0.  1.
     100001    1    1    2    0    0  0.11735942282E+04 -0.17953499015E+03 -0.63888804594E+04  0.65000000000E+04  0.15050000000E+03 0.  1.
     100001    1    1    2    0    0 -0.11735942282E+04  0.17953499015E+03  0.63888804594E+04  0.65000000000E+04  0.15050000000E+03 0. -1.
</event>
<event>
 4    1  0.4521369E-004  0.6500000E+04  0.7818608E-02  0.7223770E-01
         52   -1    0    0    0    0  0.00000000000E+00  0.00000000000E+00  0.64930732323E+04  0.65000000000E+04  0.30000000000E+03 0.  1.
        -52   -1    0    0    0    0 -0.00000000000E+00 -0.00000000000E+00 -0.64930732323E+04  0.65000000000E+04  0.30000000000E+03 0. -1.
     100001    1    1    2    0    0 -0.87825865382E+03 -0.20219881519E+04  0.61129023713E+04  0.65000000000E+04  0.15050000000E+03 0.  1.
     100001    1    1    2    0    0  0.87825865382E+03  0.20219881519E+04 -0.61129023713E+04  0.65000000000E+04  0.15050000000E+03 0. -1.
</event>
<event>
 4    1  0.5854775E-004  0.6500000E+04  0.7818608E-02  0.7223770E-01
         52   -1    0    0    0    0  0.00000000000E+00  0.00000000000E+00  0.64930732323E+04  0.65000000000E+04  0.30000000000E+03 0.  1.
        -52   -1    0    0    0    0 -0.00000000000E+00 -0.00000000000E+00 -0.64930732323E+04  0.65000000000E+04  0.30000000000E+03 0.  1.
     100001    1    1    2    0    0  0.16092482633E+03  0.12460988840E+03  0.64950693088E+04  0.65000000000E+04  0.15050000000E+03 0.  1.
     100001    1    1    2    0    0 -0.16092482633E+03 -0.12460988840E+03 -0.64950693088E+04  0.65000000000E+04  0.15050000000E+03 0.  1.
</event>
<event>
 4    1  0.4521369E-004  0.6500000E+04  0.7818608E-02  0.7223770E-01
         52   -1    0    0    0    0  0.00000000000E+00  0.00000000000E+00  0.64930732323E+04  0.65000000000E+04  0.30000000000E+03 0.  1.
        -52   -1    0    0    0    0 -0.00000000000E+00 -0.00000000000E+00 -0.64930732323E+04  0.65000000000E+04  0.30000000000E+03 0. -1.
     100001    1    1    2    0    0 -0.40134995026E+03 -0.71921394253E+03 -0.64458513225E+04  0.65000000000E+04  0.15050000000E+03 0. -1.
     100001    1    1    2    0    0  0.40134995026E+03  0.71921394253E+03  0.64458513225E+04  0.65000000000E+04  0.15050000000E+03 0.  1.
</event>
<event>
 4    1  0.4521369E-004  0.6500000E+04  0.7818608E-02  0.7223770E-01
         52   -1    0    0    0    0  0.00000000000E+00  0.00000000000E+00  0.64930732323E+04  0.65000000000E+04  0.30000000000E+03 0.  1.
        -52   -1    0    0    0    0 -0.00000000000E+00 -0.00000000000E+00 -0.64930732323E+04  0.65000000000E+04  0.30000000000E+03 0. -1.
     100001    1    1    2    0    0 -0.39272049382E+04  0.31499269594E+04  0.41088162861E+04  0.65000000000E+04  0.15050000000E+03 0.  1.
     100001    1    1    2    0    0  0.39272049382E+04 -0.31499269594E+04 -0.41088162861E+04  0.65000000000E+04  0.15050000000E+03 0. -1.
</event>
<event>
 4    1  0.4521369E-004  0.6500000E+04  0.7818608E-02  0.7223770E-01
         52   -1    0    0    0    0  0.00000000000E+00  0.00000000000E+00  0.64930732323E+04  0.65000000000E+04  0.30000000000E+03 0. -1.
        -52   -1    0    0    0    0 -0.00000000000E+00 -0.00000000000E+00 -0.64930732323E+04  0.65000000000E+04  0.30000000000E+03 0.  1.
     100001    1    1    2    0    0  0.23309888776E+03  0.39946338442E+03 -0.64817778165E+04  0.65000000000E+04  0.15050000000E+03 0.  1.
     100001    1    1    2    0    0 -0.23309888776E+03 -0.39946338442E+03  0.64817778165E+04  0.65000000000E+04  0.15050000000E+03 0. -1.
</event>
<event>
 4    1  0.4521369E-004  0.6500000E+04  0.7818608E-02  0.7223770E-01
         52   -1    0    0    0    0  0.00000000000E+00  0.00000000000E+00  0.64930732323E+04  0.65000000000E+04  0.30000000000E+03 0.  1.
        -52   -1    0    0    0    0 -0.00000000000E+00 -0.00000000000E+00 -0.64930732323E+04  0.65000000000E+04  0.30000000000E+03 0. -1.
     100001    1    1    2    0    0 -0.22366635381E+04 -0.90500092200E+03  0.60337102432E+04  0.65000000000E+04  0.15050000000E+03 0.  1.
     100001    1    1    2    0    0  0.22366635381E+04  0.90500092200E+03 -0.60337102432E+04  0.65000000000E+04  0.15050000000E+03 0. -1.
</event>
<event>
 4    1  0.4521369E-004  0.6500000E+04  0.7818608E-02  0.7223770E-01
         52   -1    0    0    0    0  0.00000000000E+00  0.00000000000E+00  0.64930732323E+04  0.65000000000E+04  0.30000000000E+03 0. -1.
        -52   -1    0    0    0    0 -0.00000000000E+00 -0.00000000000E+00 -0.64930732323E+04  0.65000000000E+04  0.30000000000E+03 0.  1.
     100001    1    1    2    0    0  0.11715253369E+04 -0.10329747048E+02 -0.63917737312E+04  0.65000000000E+04  0.15050000000E+03 0.  1.
     100001    1    1    2    0    0 -0.11715253369E+04  0.10329747048E+02  0.63917737312E+04  0.65000000000E+04  0.15050000000E+03 0. -1.
</event>
<event>
 4    1  0.4521369E-004  0.6500000E+04  0.7818608E-02  0.7223770E-01
         52   -1    0    0    0    0  0.00000000000E+00  0.00000000000E+00  0.64930732323E+04  0.65000000000E+04  0.30000000000E+03 0. -1.
        -52   -1    0    0    0    0 -0.00000000000E+00 -0.00000000000E+00 -0.64930732323E+04  0.65000000000E+04  0.30000000000E+03 0.  1.
     100001    1    1    2    0    0  0.57220969116E+03 -0.38067871540E+03 -0.64618116295E+04  0.65000000000E+04  0.15050000000E+03 0.  1.
     100001    1    1    2    0    0 -0.57220969116E+03  0.38067871540E+03  0.64618116295E+04  0.65000000000E+04  0.15050000000E+03 0. -1.
</event>
<event>
 4    1  0.4521369E-004  0.6500000E+04  0.7818608E-02  0.7223770E-01
         52   -1    0    0    0    0  0.00000000000E+00  0.00000000000E+00  0.64930732323E+04  0.65000000000E+04  0.30000000000E+03 0. -1.
        -52   -1    0    0    0    0 -0.00000000000E+00 -0.00000000000E+00 -0.64930732323E+04  0.65000000000E+04  0.30000000000E+03 0.  1.
     100001    1    1    2    0    0  0.10603621375E+04 -0.61938333883E+03 -0.63811712222E+04  0.65000000000E+04  0.15050000000E+03 0.  1.
     100001    1    1    2    0    0 -0.10603621375E+04  0.61938333883E+03  0.63811712222E+04  0.65000000000E+04  0.15050000000E+03 0. -1.
</event>
<event>
 4    1  0.4521369E-004  0.6500000E+04  0.7818608E-02  0.7223770E-01
         52   -1    0    0    0    0  0.00000000000E+00  0.00000000000E+00  0.64930732323E+04  0.65000000000E+04  0.30000000000E+03 0. -1.
        -52   -1    0    0    0    0 -0.00000000000E+00 -0.00000000000E+00 -0.64930732323E+04  0.65000000000E+04  0.30000000000E+03 0.  1.
     100001    1    1    2    0    0  0.21685291528E+04  0.12725664143E+04 -0.59921119637E+04  0.65000000000E+04  0.15050000000E+03 0.  1.
     100001    1    1    2    0    0 -0.21685291528E+04 -0.12725664143E+04  0.59921119637E+04  0.65000000000E+04  0.15050000000E+03 0. -1.
</event>
<event>
 4    1  0.4521369E-004  0.6500000E+04  0.7818608E-02  0.7223770E-01
         52   -1    0    0    0    0  0.00000000000E+00  0.00000000000E+00  0.64930732323E+04  0.65000000000E+04  0.30000000000E+03 0. -1.
        -52   -1    0    0    0    0 -0.00000000000E+00 -0.00000000000E+00 -0.64930732323E+04  0.65000000000E+04  0.30000000000E+03 0.  1.
     100001    1    1    2    0    0 -0.30419332433E+04  0.21216833950E+04  0.53359583455E+04  0.65000000000E+04  0.15050000000E+03 0. -1.
     100001    1    1    2    0    0  0.30419332433E+04 -0.21216833950E+04 -0.53359583455E+04  0.65000000000E+04  0.15050000000E+03 0.  1.
</event>
<event>
 4    1  0.4521369E-004  0.6500000E+04  0.7818608E-02  0.7223770E-01
         52   -1    0    0    0    0  0.00000000000E+00  0.00000000000E+00  0.64930732323E+04  0.65000000000E+04  0.30000000000E+03 0.  1.
        -52   -1    0    0    0    0 -0.00000000000E+00 -0.00000000000E+00 -0.64930732323E+04  0.65000000000E+04  0.30000000000E+03 0. -1.
     100001    1    1    2    0    0 -0.29926926648E+04  0.38481463456E+04  0.42968488532E+04  0.65000000000E+04  0.15050000000E+03 0.  1.
     100001    1    1    2    0    0  0.29926926648E+04 -0.38481463456E+04 -0.42968488532E+04  0.65000000000E+04  0.15050000000E+03 0. -1.
</event>
<event>
 4    1  0.4521369E-004  0.6500000E+04  0.7818608E-02  0.7223770E-01
         52   -1    0    0    0    0  0.00000000000E+00  0.00000000000E+00  0.64930732323E+04  0.65000000000E+04  0.30000000000E+03 0. -1.
        -52   -1    0    0    0    0 -0.00000000000E+00 -0.00000000000E+00 -0.64930732323E+04  0.65000000000E+04  0.30000000000E+03 0.  1.
     100001    1    1    2    0    0  0.72779378045E+03 -0.16809320786E+03 -0.64551847872E+04  0.65000000000E+04  0.15050000000E+03 0.  1.
     100001    1    1    2    0    0 -0.72779378045E+03  0.16809320786E+03  0.64551847872E+04  0.65000000000E+04  0.15050000000E+03 0. -1.
</event>
<event>
 4    1  0.4521369E-004  0.6500000E+04  0.7818608E-02  0.7223770E-01
         52   -1    0    0    0    0  0.00000000000E+00  0.00000000000E+00  0.64930732323E+04  0.65000000000E+04  0.30000000000E+03 0. -1.
        -52   -1    0    0    0    0 -0.00000000000E+00 -0.00000000000E+00 -0.64930732323E+04  0.65000000000E+04  0.30000000000E+03 0.  1.
     100001    1    1    2    0    0  0.30497720478E+04  0.50521384812E+04 -0.27206868569E+04  0.65000000000E+04  0.15050000000E+03 0.  1.
     100001    1    1    2    0    0 -0.30497720478E+04 -0.50521384812E+04  0.27206868569E+04  0.65000000000E+04  0.15050000000E+03 0. -1.
</event>
<event>
 4    1  0.4521369E-004  0.6500000E+04  0.7818608E-02  0.7223770E-01
         52   -1    0    0    0    0  0.00000000000E+00  0.00000000000E+00  0.64930732323E+04  0.65000000000E+04  0.30000000000E+03 0. -1.
        -52   -1    0    0    0    0 -0.00000000000E+00 -0.00000000000E+00 -0.64930732323E+04  0.65000000000E+04  0.30000000000E+03 0.  1.
     100001    1    1    2    0    0  0.19536469374E+04  0.20613921120E+04 -0.58447648331E+04  0.65000000000E+04  0.15050000000E+03 0.  1.
     100001    1    1    2    0    0 -0.19536469374E+04 -0.20613921120E+04  0.58447648331E+04  0.65000000000E+04  0.15050000000E+03 0. -1.
</event>
<event>
 4    1  0.4521369E-004  0.6500000E+04  0.7818608E-02  0.7223770E-01
         52   -1    0    0    0    0  0.00000000000E+00  0.00000000000E+00  0.64930732323E+04  0.65000000000E+04  0.30000000000E+03 0.  1.
        -52   -1    0    0    0    0 -0.00000000000E+00 -0.00000000000E+00 -0.64930732323E+04  0.65000000000E+04  0.30000000000E+03 0. -1.
     100001    1    1    2    0    0  0.40678945713E+04 -0.47369642543E+04  0.18002091990E+04  0.65000000000E+04  0.15050000000E+03 0.  1.
     100001    1    1    2    0    0 -0.40678945713E+04  0.47369642543E+04 -0.18002091990E+04  0.65000000000E+04  0.15050000000E+03 0. -1.
</event>
<event>
 4    1  0.4521369E-004  0.6500000E+04  0.7818608E-02  0.7223770E-01
         52   -1    0    0    0    0  0.00000000000E+00  0.00000000000E+00  0.64930732323E+04  0.65000000000E+04  0.30000000000E+03 0. -1.
        -52   -1    0    0    0    0 -0.00000000000E+00 -0.00000000000E+00 -0.64930732323E+04  0.65000000000E+04  0.30000000000E+03 0.  1.
     100001    1    1    2    0    0 -0.72748284159E+03  0.21111422471E+04  0.61025565854E+04  0.65000000000E+04  0.15050000000E+03 0. -1.
     100001    1    1    2    0    0  0.72748284159E+03 -0.21111422471E+04 -0.61025565854E+04  0.65000000000E+04  0.15050000000E+03 0.  1.
</event>
<event>
 4    1  0.4521369E-004  0.6500000E+04  0.7818608E-02  0.7223770E-01
         52   -1    0    0    0    0  0.00000000000E+00  0.00000000000E+00  0.64930732323E+04  0.65000000000E+04  0.30000000000E+03 0. -1.
        -52   -1    0    0    0    0 -0.00000000000E+00 -0.00000000000E+00 -0.64930732323E+04  0.65000000000E+04  0.30000000000E+03 0.  1.
     100001    1    1    2    0    0 -0.17989359024E+03  0.62026528217E+03 -0.64660852937E+04  0.65000000000E+04  0.15050000000E+03 0.  1.
     100001    1    1    2    0    0  0.17989359024E+03 -0.62026528217E+03  0.64660852937E+04  0.65000000000E+04  0.15050000000E+03 0. -1.
</event>
<event>
 4    1  0.4521369E-004  0.6500000E+04  0.7818608E-02  0.7223770E-01
         52   -1    0    0    0    0  0.00000000000E+00  0.00000000000E+00  0.64930732323E+04  0.65000000000E+04  0.30000000000E+03 0. -1.
        -52   -1    0    0    0    0 -0.00000000000E+00 -0.00000000000E+00 -0.64930732323E+04  0.65000000000E+04  0.30000000000E+03 0.  1.
     100001    1    1    2    0    0 -0.16572605788E+04  0.26132319470E+02 -0.62833235016E+04  0.65000000000E+04  0.15050000000E+03 0.  1.
     100001    1    1    2    0    0  0.16572605788E+04 -0.26132319470E+02  0.62833235016E+04  0.65000000000E+04  0.15050000000E+03 0. -1.
</event>
<event>
 4    1  0.4521369E-004  0.6500000E+04  0.7818608E-02  0.7223770E-01
         52   -1    0    0    0    0  0.00000000000E+00  0.00000000000E+00  0.64930732323E+04  0.65000000000E+04  0.30000000000E+03 0.  1.
        -52   -1    0    0    0    0 -0.00000000000E+00 -0.00000000000E+00 -0.64930732323E+04  0.65000000000E+04  0.30000000000E+03 0. -1.
     100001    1    1    2    0    0 -0.11670634711E+04  0.88791839527E+03 -0.63306329484E+04  0.65000000000E+04  0.15050000000E+03 0. -1.
     100001    1    1    2    0    0  0.11670634711E+04 -0.88791839527E+03  0.63306329484E+04  0.65000000000E+04  0.15050000000E+03 0.  1.
</event>
<event>
 4    1  0.4521369E-004  0.6500000E+04  0.7818608E-02  0.7223770E-01
         52   -1    0    0    0    0  0.00000000000E+00  0.00000000000E+00  0.64930732323E+04  0.65000000000E+04  0.30000000000E+03 0.  1.
        -52   -1    0    0    0    0 -0.00000000000E+00 -0.00000000000E+00 -0.64930732323E+04  0.65000000000E+04  0.30000000000E+03 0.  1.
     100001    1    1    2    0    0  0.71895754624E+02  0.33066987854E+01  0.64978588640E+04  0.65000000000E+04  0.15050000000E+03 0.  1.
     100001    1    1    2    0    0 -0.71895754624E+02 -0.33066987854E+01 -0.64978588640E+04  0.65000000000E+04  0.15050000000E+03 0.  1.
</event>
<event>
 4    1  0.4521369E-004  0.6500000E+04  0.7818608E-02  0.7223770E-01
         52   -1    0    0    0    0  0.00000000000E+00  0.00000000000E+00  0.64930732323E+04  0.65000000000E+04  0.30000000000E+03 0.  1.
        -52   -1    0    0    0    0 -0.00000000000E+00 -0.00000000000E+00 -0.64930732323E+04  0.65000000000E+04  0.30000000000E+03 0. -1.
     100001    1    1    2    0    0  0.38130648058E+04 -0.48777921681E+04  0.19735830617E+04  0.65000000000E+04  0.15050000000E+03 0.  1.
     100001    1    1    2    0    0 -0.38130648058E+04  0.48777921681E+04 -0.19735830617E+04  0.65000000000E+04  0.15050000000E+03 0. -1.
</event>
<event>
 4    1  0.4521369E-004  0.6500000E+04  0.7818608E-02  0.7223770E-01
         52   -1    0    0    0    0  0.00000000000E+00  0.00000000000E+00  0.64930732323E+04  0.65000000000E+04  0.30000000000E+03 0.  1.
        -52   -1    0    0    0    0 -0.00000000000E+00 -0.00000000000E+00 -0.64930732323E+04  0.65000000000E+04  0.30000000000E+03 0. -1.
     100001    1    1    2    0    0 -0.14439240721E+04 -0.57585073210E+02 -0.63355439374E+04  0.65000000000E+04  0.15050000000E+03 0. -1.
     100001    1    1    2    0    0  0.14439240721E+04  0.57585073210E+02  0.63355439374E+04  0.65000000000E+04  0.15050000000E+03 0.  1.
</event>
<event>
 4    1  0.4521369E-004  0.6500000E+04  0.7818608E-02  0.7223770E-01
         52   -1    0    0    0    0  0.00000000000E+00  0.00000000000E+00  0.64930732323E+04  0.65000000000E+04  0.30000000000E+03 0.  1.
        -52   -1    0    0    0    0 -0.00000000000E+00 -0.00000000000E+00 -0.64930732323E+04  0.65000000000E+04  0.30000000000E+03 0. -1.
     100001    1    1    2    0    0 -0.13451163059E+04  0.17989804662E+04 -0.60976783414E+04  0.65000000000E+04  0.15050000000E+03 0. -1.
     100001    1    1    2    0    0  0.13451163059E+04 -0.17989804662E+04  0.60976783414E+04  0.65000000000E+04  0.15050000000E+03 0.  1.
</event>
<event>
 4    1  0.4521369E-004  0.6500000E+04  0.7818608E-02  0.7223770E-01
         52   -1    0    0    0    0  0.00000000000E+00  0.00000000000E+00  0.64930732323E+04  0.65000000000E+04  0.30000000000E+03 0.  1.
        -52   -1    0    0    0    0 -0.00000000000E+00 -0.00000000000E+00 -0.64930732323E+04  0.65000000000E+04  0.30000000000E+03 0. -1.
     100001    1    1    2    0    0 -0.25719740210E+03 -0.63266924674E+03 -0.64622696377E+04  0.65000000000E+04  0.15050000000E+03 0. -1.
     100001    1    1    2    0    0  0.25719740210E+03  0.63266924674E+03  0.64622696377E+04  0.65000000000E+04  0.15050000000E+03 0.  1.
</event>
<event>
 4    1  0.5073973E-004  0.6500000E+04  0.7818608E-02  0.7223770E-01
         52   -1    0    0    0    0  0.00000000000E+00  0.00000000000E+00  0.64930732323E+04  0.65000000000E+04  0.30000000000E+03 0.  1.
        -52   -1    0    0    0    0 -0.00000000000E+00 -0.00000000000E+00 -0.64930732323E+04  0.65000000000E+04  0.30000000000E+03 0. -1.
     100001    1    1    2    0    0  0.24596764787E+03  0.61505974564E+02  0.64933093782E+04  0.65000000000E+04  0.15050000000E+03 0.  1.
     100001    1    1    2    0    0 -0.24596764787E+03 -0.61505974564E+02 -0.64933093782E+04  0.65000000000E+04  0.15050000000E+03 0. -1.
</event>
<event>
 4    1  0.4521369E-004  0.6500000E+04  0.7818608E-02  0.7223770E-01
         52   -1    0    0    0    0  0.00000000000E+00  0.00000000000E+00  0.64930732323E+04  0.65000000000E+04  0.30000000000E+03 0.  1.
        -52   -1    0    0    0    0 -0.00000000000E+00 -0.00000000000E+00 -0.64930732323E+04  0.65000000000E+04  0.30000000000E+03 0. -1.
     100001    1    1    2    0    0  0.40550404695E+03  0.55910212258E+03  0.64614488340E+04  0.65000000000E+04  0.15050000000E+03 0.  1.
     100001    1    1    2    0    0 -0.40550404695E+03 -0.55910212258E+03 -0.64614488340E+04  0.65000000000E+04  0.15050000000E+03 0. -1.
</event>
<event>
 4    1  0.5182475E-004  0.6500000E+04  0.7818608E-02  0.7223770E-01
         52   -1    0    0    0    0  0.00000000000E+00  0.00000000000E+00  0.64930732323E+04  0.65000000000E+04  0.30000000000E+03 0. -1.
        -52   -1    0    0    0    0 -0.00000000000E+00 -0.00000000000E+00 -0.64930732323E+04  0.65000000000E+04  0.30000000000E+03 0. -1.
     100001    1    1    2    0    0  0.95792291628E+02 -0.17755389732E+02  0.64975270937E+04  0.65000000000E+04  0.15050000000E+03 0. -1.
     100001    1    1    2    0    0 -0.95792291628E+02  0.17755389732E+02 -0.64975270937E+04  0.65000000000E+04  0.15050000000E+03 0. -1.
</event>
<event>
 4    1  0.4521369E-004  0.6500000E+04  0.7818608E-02  0.7223770E-01
         52   -1    0    0    0    0  0.00000000000E+00  0.00000000000E+00  0.64930732323E+04  0.65000000000E+04  0.30000000000E+03 0.  1.
        -52   -1    0    0    0    0 -0.00000000000E+00 -0.00000000000E+00 -0.64930732323E+04  0.65000000000E+04  0.30000000000E+03 0. -1.
     100001    1    1    2    0    0 -0.52040478117E+04  0.32357224130E+04 -0.21622526655E+04  0.65000000000E+04  0.15050000000E+03 0.  1.
     100001    1    1    2    0    0  0.52040478117E+04 -0.32357224130E+04  0.21622526655E+04  0.65000000000E+04  0.15050000000E+03 0. -1.
</event>
<event>
 4    1  0.4521369E-004  0.6500000E+04  0.7818608E-02  0.7223770E-01
         52   -1    0    0    0    0  0.00000000000E+00  0.00000000000E+00  0.64930732323E+04  0.65000000000E+04  0.30000000000E+03 0. -1.
        -52   -1    0    0    0    0 -0.00000000000E+00 -0.00000000000E+00 -0.64930732323E+04  0.65000000000E+04  0.30000000000E+03 0.  1.
     100001    1    1    2    0    0  0.55937577441E+04  0.32219255987E+04  0.74593531021E+03  0.65000000000E+04  0.15050000000E+03 0.  1.
     100001    1    1    2    0    0 -0.55937577441E+04 -0.32219255987E+04 -0.74593531021E+03  0.65000000000E+04  0.15050000000E+03 0. -1.
</event>
<event>
 4    1  0.4521369E-004  0.6500000E+04  0.7818608E-02  0.7223770E-01
         52   -1    0    0    0    0  0.00000000000E+00  0.00000000000E+00  0.64930732323E+04  0.65000000000E+04  0.30000000000E+03 0.  1.
        -52   -1    0    0    0    0 -0.00000000000E+00 -0.00000000000E+00 -0.64930732323E+04  0.65000000000E+04  0.30000000000E+03 0. -1.
     100001    1    1    2    0    0 -0.24051388205E+03  0.12255247302E+04 -0.63771147048E+04  0.65000000000E+04  0.15050000000E+03 0. -1.
     100001    1    1    2    0    0  0.24051388205E+03 -0.12255247302E+04  0.63771147048E+04  0.65000000000E+04  0.15050000000E+03 0.  1.
</event>
<event>
 4    1  0.4521369E-004  0.6500000E+04  0.7818608E-02  0.7223770E-01
         52   -1    0    0    0    0  0.00000000000E+00  0.00000000000E+00  0.64930732323E+04  0.65000000000E+04  0.30000000000E+03 0.  1.
        -52   -1    0    0    0    0 -0.00000000000E+00 -0.00000000000E+00 -0.64930732323E+04  0.65000000000E+04  0.30000000000E+03 0. -1.
     100001    1    1    2    0    0  0.52125639013E+03  0.96955582986E+03  0.64043425126E+04  0.65000000000E+04  0.15050000000E+03 0.  1.
     100001    1    1    2    0    0 -0.52125639013E+03 -0.96955582986E+03 -0.64043425126E+04  0.65000000000E+04  0.15050000000E+03 0. -1.
</event>
<event>
 4    1  0.4521369E-004  0.6500000E+04  0.7818608E-02  0.7223770E-01
         52   -1    0    0    0    0  0.00000000000E+00  0.00000000000E+00  0.64930732323E+04  0.65000000000E+04  0.30000000000E+03 0. -1.
        -52   -1    0    0    0    0 -0.00000000000E+00 -0.00000000000E+00 -0.64930732323E+04  0.65000000000E+04  0.30000000000E+03 0.  1.
     100001    1    1    2    0    0  0.20700410821E+03  0.30706672416E+03 -0.64876967466E+04  0.65000000000E+04  0.15050000000E+03 0.  1.
     100001    1    1    2    0    0 -0.20700410821E+03 -0.30706672416E+03  0.64876967466E+04  0.65000000000E+04  0.15050000000E+03 0. -1.
</event>
<event>
 4    1  0.4521369E-004  0.6500000E+04  0.7818608E-02  0.7223770E-01
         52   -1    0    0    0    0  0.00000000000E+00  0.00000000000E+00  0.64930732323E+04  0.65000000000E+04  0.30000000000E+03 0.  1.
        -52   -1    0    0    0    0 -0.00000000000E+00 -0.00000000000E+00 -0.64930732323E+04  0.65000000000E+04  0.30000000000E+03 0.  1.
     100001    1    1    2    0    0 -0.37891360493E+03  0.41336825699E+03 -0.64740173705E+04  0.65000000000E+04  0.15050000000E+03 0.  1.
     100001    1    1    2    0    0  0.37891360493E+03 -0.41336825699E+03  0.64740173705E+04  0.65000000000E+04  0.15050000000E+03 0.  1.
</event>
<event>
 4    1  0.4521369E-004  0.6500000E+04  0.7818608E-02  0.7223770E-01
         52   -1    0    0    0    0  0.00000000000E+00  0.00000000000E+00  0.64930732323E+04  0.65000000000E+04  0.30000000000E+03 0. -1.
        -52   -1    0    0    0    0 -0.00000000000E+00 -0.00000000000E+00 -0.64930732323E+04  0.65000000000E+04  0.30000000000E+03 0. -1.
     100001    1    1    2    0    0  0.46218128631E+03  0.46015552968E+03 -0.64654462411E+04  0.65000000000E+04  0.15050000000E+03 0. -1.
     100001    1    1    2    0    0 -0.46218128631E+03 -0.46015552968E+03  0.64654462411E+04  0.65000000000E+04  0.15050000000E+03 0. -1.
</event>
<event>
 4    1  0.4521369E-004  0.6500000E+04  0.7818608E-02  0.7223770E-01
         52   -1    0    0    0    0  0.00000000000E+00  0.00000000000E+00  0.64930732323E+04  0.65000000000E+04  0.30000000000E+03 0. -1.
        -52   -1    0    0    0    0 -0.00000000000E+00 -0.00000000000E+00 -0.64930732323E+04  0.65000000000E+04  0.30000000000E+03 0.  1.
     100001    1    1    2    0    0  0.78435745210E+03 -0.10010547708E+04 -0.63725993506E+04  0.65000000000E+04  0.15050000000E+03 0.  1.
     100001    1    1    2    0    0 -0.78435745210E+03  0.10010547708E+04  0.63725993506E+04  0.65000000000E+04  0.15050000000E+03 0. -1.
</event>
<event>
 4    1  0.4521369E-004  0.6500000E+04  0.7818608E-02  0.7223770E-01
         52   -1    0    0    0    0  0.00000000000E+00  0.00000000000E+00  0.64930732323E+04  0.65000000000E+04  0.30000000000E+03 0. -1.
        -52   -1    0    0    0    0 -0.00000000000E+00 -0.00000000000E+00 -0.64930732323E+04  0.65000000000E+04  0.30000000000E+03 0.  1.
     100001    1    1    2    0    0 -0.18161236969E+04  0.33864160643E+04  0.52403464300E+04  0.65000000000E+04  0.15050000000E+03 0. -1.
     100001    1    1    2    0    0  0.18161236969E+04 -0.33864160643E+04 -0.52403464300E+04  0.65000000000E+04  0.15050000000E+03 0.  1.
</event>
<event>
 4    1  0.4521369E-004  0.6500000E+04  0.7818608E-02  0.7223770E-01
         52   -1    0    0    0    0  0.00000000000E+00  0.00000000000E+00  0.64930732323E+04  0.65000000000E+04  0.30000000000E+03 0.  1.
        -52   -1    0    0    0    0 -0.00000000000E+00 -0.00000000000E+00 -0.64930732323E+04  0.65000000000E+04  0.30000000000E+03 0.  1.
     100001    1    1    2    0    0 -0.40720988801E+03 -0.95428345189E+03  0.64148946173E+04  0.65000000000E+04  0.15050000000E+03 0.  1.
     100001    1    1    2    0    0  0.40720988801E+03  0.95428345189E+03 -0.64148946173E+04  0.65000000000E+04  0.15050000000E+03 0.  1.
</event>
<event>
 4    1  0.4521369E-004  0.6500000E+04  0.7818608E-02  0.7223770E-01
         52   -1    0    0    0    0  0.00000000000E+00  0.00000000000E+00  0.64930732323E+04  0.65000000000E+04  0.30000000000E+03 0. -1.
        -52   -1    0    0    0    0 -0.00000000000E+00 -0.00000000000E+00 -0.64930732323E+04  0.65000000000E+04  0.30000000000E+03 0.  1.
     100001    1    1    2    0    0  0.45154299448E+04  0.46391638788E+04  0.56249503916E+03  0.65000000000E+04  0.15050000000E+03 0. -1.
     100001    1    1    2    0    0 -0.45154299448E+04 -0.46391638788E+04 -0.56249503916E+03  0.65000000000E+04  0.15050000000E+03 0.  1.
</event>
<event>
 4    1  0.4521369E-004  0.6500000E+04  0.7818608E-02  0.7223770E-01
         52   -1    0    0    0    0  0.00000000000E+00  0.00000000000E+00  0.64930732323E+04  0.65000000000E+04  0.30000000000E+03 0.  1.
        -52   -1    0    0    0    0 -0.00000000000E+00 -0.00000000000E+00 -0.64930732323E+04  0.65000000000E+04  0.30000000000E+03 0. -1.
     100001    1    1    2    0    0  0.63352844348E+02 -0.88975185962E+03  0.64367443475E+04  0.65000000000E+04  0.15050000000E+03 0.  1.
     100001    1    1    2    0    0 -0.63352844348E+02  0.88975185962E+03 -0.64367443475E+04  0.65000000000E+04  0.15050000000E+03 0. -1.
</event>
<event>
 4    1  0.4521369E-004  0.6500000E+04  0.7818608E-02  0.7223770E-01
         52   -1    0    0    0    0  0.00000000000E+00  0.00000000000E+00  0.64930732323E+04  0.65000000000E+04  0.30000000000E+03 0. -1.
        -52   -1    0    0    0    0 -0.00000000000E+00 -0.00000000000E+00 -0.64930732323E+04  0.65000000000E+04  0.30000000000E+03 0.  1.
     100001    1    1    2    0    0 -0.20021251138E+04  0.25728992895E+04  0.56213018087E+04  0.65000000000E+04  0.15050000000E+03 0. -1.
     100001    1    1    2    0    0  0.20021251138E+04 -0.25728992895E+04 -0.56213018087E+04  0.65000000000E+04  0.15050000000E+03 0.  1.
</event>
<event>
 4    1  0.4521369E-004  0.6500000E+04  0.7818608E-02  0.7223770E-01
         52   -1    0    0    0    0  0.00000000000E+00  0.00000000000E+00  0.64930732323E+04  0.65000000000E+04  0.30000000000E+03 0.  1.
        -52   -1    0    0    0    0 -0.00000000000E+00 -0.00000000000E+00 -0.64930732323E+04  0.65000000000E+04  0.30000000000E+03 0. -1.
     100001    1    1    2    0    0 -0.40310964219E+04  0.37353721090E+04  0.34676514523E+04  0.65000000000E+04  0.15050000000E+03 0.  1.
     100001    1    1    2    0    0  0.40310964219E+04 -0.37353721090E+04 -0.34676514523E+04  0.65000000000E+04  0.15050000000E+03 0. -1.
</event>
<event>
 4    1  0.4521369E-004  0.6500000E+04  0.7818608E-02  0.7223770E-01
         52   -1    0    0    0    0  0.00000000000E+00  0.00000000000E+00  0.64930732323E+04  0.65000000000E+04  0.30000000000E+03 0. -1.
        -52   -1    0    0    0    0 -0.00000000000E+00 -0.00000000000E+00 -0.64930732323E+04  0.65000000000E+04  0.30000000000E+03 0.  1.
     100001    1    1    2    0    0 -0.40327102721E+04  0.19440836644E+04  0.47101100112E+04  0.65000000000E+04  0.15050000000E+03 0. -1.
     100001    1    1    2    0    0  0.40327102721E+04 -0.19440836644E+04 -0.47101100112E+04  0.65000000000E+04  0.15050000000E+03 0.  1.
</event>
<event>
 4    1  0.4521369E-004  0.6500000E+04  0.7818608E-02  0.7223770E-01
         52   -1    0    0    0    0  0.00000000000E+00  0.00000000000E+00  0.64930732323E+04  0.65000000000E+04  0.30000000000E+03 0. -1.
        -52   -1    0    0    0    0 -0.00000000000E+00 -0.00000000000E+00 -0.64930732323E+04  0.65000000000E+04  0.30000000000E+03 0.  1.
     100001    1    1    2    0    0 -0.16432503225E+04  0.26613909063E+03 -0.62814208673E+04  0.65000000000E+04  0.15050000000E+03 0.  1.
     100001    1    1    2    0    0  0.16432503225E+04 -0.26613909063E+03  0.62814208673E+04  0.65000000000E+04  0.15050000000E+03 0. -1.
</event>
<event>
 4    1  0.4521369E-004  0.6500000E+04  0.7818608E-02  0.7223770E-01
         52   -1    0    0    0    0  0.00000000000E+00  0.00000000000E+00  0.64930732323E+04  0.65000000000E+04  0.30000000000E+03 0. -1.
        -52   -1    0    0    0    0 -0.00000000000E+00 -0.00000000000E+00 -0.64930732323E+04  0.65000000000E+04  0.30000000000E+03 0. -1.
     100001    1    1    2    0    0  0.64730489503E+03  0.24834292722E+03  0.64611664515E+04  0.65000000000E+04  0.15050000000E+03 0. -1.
     100001    1    1    2    0    0 -0.64730489503E+03 -0.24834292722E+03 -0.64611664515E+04  0.65000000000E+04  0.15050000000E+03 0. -1.
</event>
<event>
 4    1  0.4521369E-004  0.6500000E+04  0.7818608E-02  0.7223770E-01
         52   -1    0    0    0    0  0.00000000000E+00  0.00000000000E+00  0.64930732323E+04  0.65000000000E+04  0.30000000000E+03 0. -1.
        -52   -1    0    0    0    0 -0.00000000000E+00 -0.00000000000E+00 -0.64930732323E+04  0.65000000000E+04  0.30000000000E+03 0.  1.
     100001    1    1    2    0    0 -0.24895773800E+03 -0.35293190254E+03 -0.64838884064E+04  0.65000000000E+04  0.15050000000E+03 0.  1.
     100001    1    1    2    0    0  0.24895773800E+03  0.35293190254E+03  0.64838884064E+04  0.65000000000E+04  0.15050000000E+03 0. -1.
</event>
<event>
 4    1  0.4521369E-004  0.6500000E+04  0.7818608E-02  0.7223770E-01
         52   -1    0    0    0    0  0.00000000000E+00  0.00000000000E+00  0.64930732323E+04  0.65000000000E+04  0.30000000000E+03 0.  1.
        -52   -1    0    0    0    0 -0.00000000000E+00 -0.00000000000E+00 -0.64930732323E+04  0.65000000000E+04  0.30000000000E+03 0. -1.
     100001    1    1    2    0    0 -0.11865799982E+04 -0.12172903420E+03  0.63878446835E+04  0.65000000000E+04  0.15050000000E+03 0.  1.
     100001    1    1    2    0    0  0.11865799982E+04  0.12172903420E+03 -0.63878446835E+04  0.65000000000E+04  0.15050000000E+03 0. -1.
</event>
<event>
 4    1  0.4521369E-004  0.6500000E+04  0.7818608E-02  0.7223770E-01
         52   -1    0    0    0    0  0.00000000000E+00  0.00000000000E+00  0.64930732323E+04  0.65000000000E+04  0.30000000000E+03 0. -1.
        -52   -1    0    0    0    0 -0.00000000000E+00 -0.00000000000E+00 -0.64930732323E+04  0.65000000000E+04  0.30000000000E+03 0.  1.
     100001    1    1    2    0    0  0.58615589841E+03  0.17858419995E+04  0.62204934985E+04  0.65000000000E+04  0.15050000000E+03 0. -1.
     100001    1    1    2    0    0 -0.58615589841E+03 -0.17858419995E+04 -0.62204934985E+04  0.65000000000E+04  0.15050000000E+03 0.  1.
</event>
<event>
 4    1  0.4521369E-004  0.6500000E+04  0.7818608E-02  0.7223770E-01
         52   -1    0    0    0    0  0.00000000000E+00  0.00000000000E+00  0.64930732323E+04  0.65000000000E+04  0.30000000000E+03 0.  1.
        -52   -1    0    0    0    0 -0.00000000000E+00 -0.00000000000E+00 -0.64930732323E+04  0.65000000000E+04  0.30000000000E+03 0. -1.
     100001    1    1    2    0    0 -0.17411335989E+04  0.51383484910E+03 -0.62395334191E+04  0.65000000000E+04  0.15050000000E+03 0. -1.
     100001    1    1    2    0    0  0.17411335989E+04 -0.51383484910E+03  0.62395334191E+04  0.65000000000E+04  0.15050000000E+03 0.  1.
</event>
<event>
 4    1  0.4521369E-004  0.6500000E+04  0.7818608E-02  0.7223770E-01
         52   -1    0    0    0    0  0.00000000000E+00  0.00000000000E+00  0.64930732323E+04  0.65000000000E+04  0.30000000000E+03 0. -1.
        -52   -1    0    0    0    0 -0.00000000000E+00 -0.00000000000E+00 -0.64930732323E+04  0.65000000000E+04  0.30000000000E+03 0.  1.
     100001    1    1    2    0    0 -0.40676976874E+03 -0.39321555345E+04  0.51575227539E+04  0.65000000000E+04  0.15050000000E+03 0. -1.
     100001    1    1    2    0    0  0.40676976874E+03  0.39321555345E+04 -0.51575227539E+04  0.65000000000E+04  0.15050000000E+03 0.  1.
</event>
<event>
 4    1  0.4521369E-004  0.6500000E+04  0.7818608E-02  0.7223770E-01
         52   -1    0    0    0    0  0.00000000000E+00  0.00000000000E+00  0.64930732323E+04  0.65000000000E+04  0.30000000000E+03 0.  1.
        -52   -1    0    0    0    0 -0.00000000000E+00 -0.00000000000E+00 -0.64930732323E+04  0.65000000000E+04  0.30000000000E+03 0. -1.
     100001    1    1    2    0    0 -0.18535788759E+04 -0.46726535609E+03 -0.62107373304E+04  0.65000000000E+04  0.15050000000E+03 0. -1.
     100001    1    1    2    0    0  0.18535788759E+04  0.46726535609E+03  0.62107373304E+04  0.65000000000E+04  0.15050000000E+03 0.  1.
</event>
<event>
 4    1  0.4521369E-004  0.6500000E+04  0.7818608E-02  0.7223770E-01
         52   -1    0    0    0    0  0.00000000000E+00  0.00000000000E+00  0.64930732323E+04  0.65000000000E+04  0.30000000000E+03 0. -1.
        -52   -1    0    0    0    0 -0.00000000000E+00 -0.00000000000E+00 -0.64930732323E+04  0.65000000000E+04  0.30000000000E+03 0.  1.
     100001    1    1    2    0    0 -0.42435297263E+04 -0.22743453375E+04  0.43643050418E+04  0.65000000000E+04  0.15050000000E+03 0. -1.
     100001    1    1    2    0    0  0.42435297263E+04  0.22743453375E+04 -0.43643050418E+04  0.65000000000E+04  0.15050000000E+03 0.  1.
</event>
<event>
 4    1  0.4521369E-004  0.6500000E+04  0.7818608E-02  0.7223770E-01
         52   -1    0    0    0    0  0.00000000000E+00  0.00000000000E+00  0.64930732323E+04  0.65000000000E+04  0.30000000000E+03 0.  1.
        -52   -1    0    0    0    0 -0.00000000000E+00 -0.00000000000E+00 -0.64930732323E+04  0.65000000000E+04  0.30000000000E+03 0. -1.
     100001    1    1    2    0    0 -0.22273055545E+04  0.16486743217E+04 -0.58777829747E+04  0.65000000000E+04  0.15050000000E+03 0. -1.
     100001    1    1    2    0    0  0.22273055545E+04 -0.16486743217E+04  0.58777829747E+04  0.65000000000E+04  0.15050000000E+03 0.  1.
</event>
<event>
 4    1  0.4521369E-004  0.6500000E+04  0.7818608E-02  0.7223770E-01
         52   -1    0    0    0    0  0.00000000000E+00  0.00000000000E+00  0.64930732323E+04  0.65000000000E+04  0.30000000000E+03 0.  1.
        -52   -1    0    0    0    0 -0.00000000000E+00 -0.00000000000E+00 -0.64930732323E+04  0.65000000000E+04  0.30000000000E+03 0. -1.
     100001    1    1    2    0    0  0.26539853799E+03 -0.27716012238E+03  0.64869172673E+04  0.65000000000E+04  0.15050000000E+03 0.  1.
     100001    1    1    2    0    0 -0.26539853799E+03  0.27716012238E+03 -0.64869172673E+04  0.65000000000E+04  0.15050000000E+03 0. -1.
</event>
<event>
 4    1  0.4521369E-004  0.6500000E+04  0.7818608E-02  0.7223770E-01
         52   -1    0    0    0    0  0.00000000000E+00  0.00000000000E+00  0.64930732323E+04  0.65000000000E+04  0.30000000000E+03 0. -1.
        -52   -1    0    0    0    0 -0.00000000000E+00 -0.00000000000E+00 -0.64930732323E+04  0.65000000000E+04  0.30000000000E+03 0.  1.
     100001    1    1    2    0    0 -0.25913204656E+04 -0.12924157706E+04  0.58173937008E+04  0.65000000000E+04  0.15050000000E+03 0. -1.
     100001    1    1    2    0    0  0.25913204656E+04  0.12924157706E+04 -0.58173937008E+04  0.65000000000E+04  0.15050000000E+03 0.  1.
</event>
<event>
 4    1  0.4521369E-004  0.6500000E+04  0.7818608E-02  0.7223770E-01
         52   -1    0    0    0    0  0.00000000000E+00  0.00000000000E+00  0.64930732323E+04  0.65000000000E+04  0.30000000000E+03 0. -1.
        -52   -1    0    0    0    0 -0.00000000000E+00 -0.00000000000E+00 -0.64930732323E+04  0.65000000000E+04  0.30000000000E+03 0.  1.
     100001    1    1    2    0    0  0.35924783761E+03  0.35049546717E+03 -0.64788458593E+04  0.65000000000E+04  0.15050000000E+03 0.  1.
     100001    1    1    2    0    0 -0.35924783761E+03 -0.35049546717E+03  0.64788458593E+04  0.65000000000E+04  0.15050000000E+03 0. -1.
</event>
<event>
 4    1  0.4521369E-004  0.6500000E+04  0.7818608E-02  0.7223770E-01
         52   -1    0    0    0    0  0.00000000000E+00  0.00000000000E+00  0.64930732323E+04  0.65000000000E+04  0.30000000000E+03 0. -1.
        -52   -1    0    0    0    0 -0.00000000000E+00 -0.00000000000E+00 -0.64930732323E+04  0.65000000000E+04  0.30000000000E+03 0.  1.
     100001    1    1    2    0    0  0.18796477436E+03  0.13736940502E+03  0.64940856662E+04  0.65000000000E+04  0.15050000000E+03 0. -1.
     100001    1    1    2    0    0 -0.18796477436E+03 -0.13736940502E+03 -0.64940856662E+04  0.65000000000E+04  0.15050000000E+03 0.  1.
</event>
<event>
 4    1  0.6038962E-004  0.6500000E+04  0.7818608E-02  0.7223770E-01
         52   -1    0    0    0    0  0.00000000000E+00  0.00000000000E+00  0.64930732323E+04  0.65000000000E+04  0.30000000000E+03 0.  1.
        -52   -1    0    0    0    0 -0.00000000000E+00 -0.00000000000E+00 -0.64930732323E+04  0.65000000000E+04  0.30000000000E+03 0.  1.
     100001    1    1    2    0    0  0.12055802850E+03 -0.94219050856E+02  0.64964558247E+04  0.65000000000E+04  0.15050000000E+03 0.  1.
     100001    1    1    2    0    0 -0.12055802850E+03  0.94219050856E+02 -0.64964558247E+04  0.65000000000E+04  0.15050000000E+03 0.  1.
</event>
<event>
 4    1  0.4521369E-004  0.6500000E+04  0.7818608E-02  0.7223770E-01
         52   -1    0    0    0    0  0.00000000000E+00  0.00000000000E+00  0.64930732323E+04  0.65000000000E+04  0.30000000000E+03 0.  1.
        -52   -1    0    0    0    0 -0.00000000000E+00 -0.00000000000E+00 -0.64930732323E+04  0.65000000000E+04  0.30000000000E+03 0. -1.
     100001    1    1    2    0    0  0.52827464734E+04  0.13390873866E+04 -0.35393197678E+04  0.65000000000E+04  0.15050000000E+03 0. -1.
     100001    1    1    2    0    0 -0.52827464734E+04 -0.13390873866E+04  0.35393197678E+04  0.65000000000E+04  0.15050000000E+03 0.  1.
</event>
<event>
 4    1  0.4521369E-004  0.6500000E+04  0.7818608E-02  0.7223770E-01
         52   -1    0    0    0    0  0.00000000000E+00  0.00000000000E+00  0.64930732323E+04  0.65000000000E+04  0.30000000000E+03 0.  1.
        -52   -1    0    0    0    0 -0.00000000000E+00 -0.00000000000E+00 -0.64930732323E+04  0.65000000000E+04  0.30000000000E+03 0. -1.
     100001    1    1    2    0    0  0.47795563181E+04 -0.30794965097E+04  0.31464094456E+04  0.65000000000E+04  0.15050000000E+03 0.  1.
     100001    1    1    2    0    0 -0.47795563181E+04  0.30794965097E+04 -0.31464094456E+04  0.65000000000E+04  0.15050000000E+03 0. -1.
</event>
<event>
 4    1  0.4521369E-004  0.6500000E+04  0.7818608E-02  0.7223770E-01
         52   -1    0    0    0    0  0.00000000000E+00  0.00000000000E+00  0.64930732323E+04  0.65000000000E+04  0.30000000000E+03 0.  1.
        -52   -1    0    0    0    0 -0.00000000000E+00 -0.00000000000E+00 -0.64930732323E+04  0.65000000000E+04  0.30000000000E+03 0. -1.
     100001    1    1    2    0    0  0.16979193790E+04 -0.17391868508E+04  0.60265785177E+04  0.65000000000E+04  0.15050000000E+03 0.  1.
     100001    1    1    2    0    0 -0.16979193790E+04  0.17391868508E+04 -0.60265785177E+04  0.65000000000E+04  0.15050000000E+03 0. -1.
</event>
<event>
 4    1  0.4521369E-004  0.6500000E+04  0.7818608E-02  0.7223770E-01
         52   -1    0    0    0    0  0.00000000000E+00  0.00000000000E+00  0.64930732323E+04  0.65000000000E+04  0.30000000000E+03 0. -1.
        -52   -1    0    0    0    0 -0.00000000000E+00 -0.00000000000E+00 -0.64930732323E+04  0.65000000000E+04  0.30000000000E+03 0. -1.
     100001    1    1    2    0    0 -0.39183460271E+03 -0.34314142264E+03 -0.64773504891E+04  0.65000000000E+04  0.15050000000E+03 0. -1.
     100001    1    1    2    0    0  0.39183460271E+03  0.34314142264E+03  0.64773504891E+04  0.65000000000E+04  0.15050000000E+03 0. -1.
</event>
<event>
 4    1  0.4521369E-004  0.6500000E+04  0.7818608E-02  0.7223770E-01
         52   -1    0    0    0    0  0.00000000000E+00  0.00000000000E+00  0.64930732323E+04  0.65000000000E+04  0.30000000000E+03 0.  1.
        -52   -1    0    0    0    0 -0.00000000000E+00 -0.00000000000E+00 -0.64930732323E+04  0.65000000000E+04  0.30000000000E+03 0. -1.
     100001    1    1    2    0    0 -0.21181963629E+04  0.96364799191E+03 -0.60672874059E+04  0.65000000000E+04  0.15050000000E+03 0. -1.
     100001    1    1    2    0    0  0.21181963629E+04 -0.96364799191E+03  0.60672874059E+04  0.65000000000E+04  0.15050000000E+03 0.  1.
</event>
<event>
 4    1  0.4521369E-004  0.6500000E+04  0.7818608E-02  0.7223770E-01
         52   -1    0    0    0    0  0.00000000000E+00  0.00000000000E+00  0.64930732323E+04  0.65000000000E+04  0.30000000000E+03 0.  1.
        -52   -1    0    0    0    0 -0.00000000000E+00 -0.00000000000E+00 -0.64930732323E+04  0.65000000000E+04  0.30000000000E+03 0. -1.
     100001    1    1    2    0    0 -0.14546793062E+04  0.23311458088E+02 -0.63333020173E+04  0.65000000000E+04  0.15050000000E+03 0. -1.
     100001    1    1    2    0    0  0.14546793062E+04 -0.23311458088E+02  0.63333020173E+04  0.65000000000E+04  0.15050000000E+03 0.  1.
</event>
<event>
 4    1  0.4521369E-004  0.6500000E+04  0.7818608E-02  0.7223770E-01
         52   -1    0    0    0    0  0.00000000000E+00  0.00000000000E+00  0.64930732323E+04  0.65000000000E+04  0.30000000000E+03 0. -1.
        -52   -1    0    0    0    0 -0.00000000000E+00 -0.00000000000E+00 -0.64930732323E+04  0.65000000000E+04  0.30000000000E+03 0. -1.
     100001    1    1    2    0    0 -0.18215076366E+03 -0.24542320252E+03 -0.64910660373E+04  0.65000000000E+04  0.15050000000E+03 0. -1.
     100001    1    1    2    0    0  0.18215076366E+03  0.24542320252E+03  0.64910660373E+04  0.65000000000E+04  0.15050000000E+03 0. -1.
</event>
<event>
 4    1  0.4521369E-004  0.6500000E+04  0.7818608E-02  0.7223770E-01
         52   -1    0    0    0    0  0.00000000000E+00  0.00000000000E+00  0.64930732323E+04  0.65000000000E+04  0.30000000000E+03 0.  1.
        -52   -1    0    0    0    0 -0.00000000000E+00 -0.00000000000E+00 -0.64930732323E+04  0.65000000000E+04  0.30000000000E+03 0. -1.
     100001    1    1    2    0    0  0.33836469607E+04  0.54690221009E+04  0.93170824544E+03  0.65000000000E+04  0.15050000000E+03 0.  1.
     100001    1    1    2    0    0 -0.33836469607E+04 -0.54690221009E+04 -0.93170824544E+03  0.65000000000E+04  0.15050000000E+03 0. -1.
</event>
<event>
 4    1  0.6319693E-004  0.6500000E+04  0.7818608E-02  0.7223770E-01
         52   -1    0    0    0    0  0.00000000000E+00  0.00000000000E+00  0.64930732323E+04  0.65000000000E+04  0.30000000000E+03 0. -1.
        -52   -1    0    0    0    0 -0.00000000000E+00 -0.00000000000E+00 -0.64930732323E+04  0.65000000000E+04  0.30000000000E+03 0.  1.
     100001    1    1    2    0    0 -0.13349493836E+03  0.47761771134E+02  0.64967105265E+04  0.65000000000E+04  0.15050000000E+03 0. -1.
     100001    1    1    2    0    0  0.13349493836E+03 -0.47761771134E+02 -0.64967105265E+04  0.65000000000E+04  0.15050000000E+03 0.  1.
</event>
<event>
 4    1  0.4521369E-004  0.6500000E+04  0.7818608E-02  0.7223770E-01
         52   -1    0    0    0    0  0.00000000000E+00  0.00000000000E+00  0.64930732323E+04  0.65000000000E+04  0.30000000000E+03 0. -1.
        -52   -1    0    0    0    0 -0.00000000000E+00 -0.00000000000E+00 -0.64930732323E+04  0.65000000000E+04  0.30000000000E+03 0.  1.
     100001    1    1    2    0    0  0.22506856869E+02  0.47172311225E+03 -0.64810740234E+04  0.65000000000E+04  0.15050000000E+03 0.  1.
     100001    1    1    2    0    0 -0.22506856869E+02 -0.47172311225E+03  0.64810740234E+04  0.65000000000E+04  0.15050000000E+03 0. -1.
</event>
<event>
 4    1  0.4521369E-004  0.6500000E+04  0.7818608E-02  0.7223770E-01
         52   -1    0    0    0    0  0.00000000000E+00  0.00000000000E+00  0.64930732323E+04  0.65000000000E+04  0.30000000000E+03 0.  1.
        -52   -1    0    0    0    0 -0.00000000000E+00 -0.00000000000E+00 -0.64930732323E+04  0.65000000000E+04  0.30000000000E+03 0. -1.
     100001    1    1    2    0    0 -0.89500015749E+03 -0.49555127233E+03 -0.64172231849E+04  0.65000000000E+04  0.15050000000E+03 0. -1.
     100001    1    1    2    0    0  0.89500015749E+03  0.49555127233E+03  0.64172231849E+04  0.65000000000E+04  0.15050000000E+03 0.  1.
</event>
<event>
 4    1  0.4521369E-004  0.6500000E+04  0.7818608E-02  0.7223770E-01
         52   -1    0    0    0    0  0.00000000000E+00  0.00000000000E+00  0.64930732323E+04  0.65000000000E+04  0.30000000000E+03 0.  1.
        -52   -1    0    0    0    0 -0.00000000000E+00 -0.00000000000E+00 -0.64930732323E+04  0.65000000000E+04  0.30000000000E+03 0. -1.
     100001    1    1    2    0    0  0.89569509091E+03  0.23341775557E+03 -0.64319978394E+04  0.65000000000E+04  0.15050000000E+03 0. -1.
     100001    1    1    2    0    0 -0.89569509091E+03 -0.23341775557E+03  0.64319978394E+04  0.65000000000E+04  0.15050000000E+03 0.  1.
</event>
<event>
 4    1  0.4521369E-004  0.6500000E+04  0.7818608E-02  0.7223770E-01
         52   -1    0    0    0    0  0.00000000000E+00  0.00000000000E+00  0.64930732323E+04  0.65000000000E+04  0.30000000000E+03 0.  1.
        -52   -1    0    0    0    0 -0.00000000000E+00 -0.00000000000E+00 -0.64930732323E+04  0.65000000000E+04  0.30000000000E+03 0. -1.
     100001    1    1    2    0    0  0.22966122765E+04 -0.12259108685E+03 -0.60776552409E+04  0.65000000000E+04  0.15050000000E+03 0. -1.
     100001    1    1    2    0    0 -0.22966122765E+04  0.12259108685E+03  0.60776552409E+04  0.65000000000E+04  0.15050000000E+03 0.  1.
</event>
<event>
 4    1  0.4521369E-004  0.6500000E+04  0.7818608E-02  0.7223770E-01
         52   -1    0    0    0    0  0.00000000000E+00  0.00000000000E+00  0.64930732323E+04  0.65000000000E+04  0.30000000000E+03 0.  1.
        -52   -1    0    0    0    0 -0.00000000000E+00 -0.00000000000E+00 -0.64930732323E+04  0.65000000000E+04  0.30000000000E+03 0. -1.
     100001    1    1    2    0    0 -0.25429124274E+02  0.84215686050E+03 -0.64434055384E+04  0.65000000000E+04  0.15050000000E+03 0. -1.
     100001    1    1    2    0    0  0.25429124274E+02 -0.84215686050E+03  0.64434055384E+04  0.65000000000E+04  0.15050000000E+03 0.  1.
</event>
<event>
 4    1  0.4521369E-004  0.6500000E+04  0.7818608E-02  0.7223770E-01
         52   -1    0    0    0    0  0.00000000000E+00  0.00000000000E+00  0.64930732323E+04  0.65000000000E+04  0.30000000000E+03 0. -1.
        -52   -1    0    0    0    0 -0.00000000000E+00 -0.00000000000E+00 -0.64930732323E+04  0.65000000000E+04  0.30000000000E+03 0. -1.
     100001    1    1    2    0    0 -0.37699162163E+03 -0.46425053566E+03 -0.64706799107E+04  0.65000000000E+04  0.15050000000E+03 0. -1.
     100001    1    1    2    0    0  0.37699162163E+03  0.46425053566E+03  0.64706799107E+04  0.65000000000E+04  0.15050000000E+03 0. -1.
</event>
<event>
 4    1  0.4521369E-004  0.6500000E+04  0.7818608E-02  0.7223770E-01
         52   -1    0    0    0    0  0.00000000000E+00  0.00000000000E+00  0.64930732323E+04  0.65000000000E+04  0.30000000000E+03 0.  1.
        -52   -1    0    0    0    0 -0.00000000000E+00 -0.00000000000E+00 -0.64930732323E+04  0.65000000000E+04  0.30000000000E+03 0. -1.
     100001    1    1    2    0    0 -0.10850751071E+02 -0.30924364445E+04 -0.57152488002E+04  0.65000000000E+04  0.15050000000E+03 0. -1.
     100001    1    1    2    0    0  0.10850751071E+02  0.30924364445E+04  0.57152488002E+04  0.65000000000E+04  0.15050000000E+03 0.  1.
</event>
<event>
 4    1  0.4521369E-004  0.6500000E+04  0.7818608E-02  0.7223770E-01
         52   -1    0    0    0    0  0.00000000000E+00  0.00000000000E+00  0.64930732323E+04  0.65000000000E+04  0.30000000000E+03 0.  1.
        -52   -1    0    0    0    0 -0.00000000000E+00 -0.00000000000E+00 -0.64930732323E+04  0.65000000000E+04  0.30000000000E+03 0. -1.
     100001    1    1    2    0    0 -0.15711393338E+04 -0.16493619588E+04 -0.60859244222E+04  0.65000000000E+04  0.15050000000E+03 0. -1.
     100001    1    1    2    0    0  0.15711393338E+04  0.16493619588E+04  0.60859244222E+04  0.65000000000E+04  0.15050000000E+03 0.  1.
</event>
<event>
 4    1  0.4521369E-004  0.6500000E+04  0.7818608E-02  0.7223770E-01
         52   -1    0    0    0    0  0.00000000000E+00  0.00000000000E+00  0.64930732323E+04  0.65000000000E+04  0.30000000000E+03 0.  1.
        -52   -1    0    0    0    0 -0.00000000000E+00 -0.00000000000E+00 -0.64930732323E+04  0.65000000000E+04  0.30000000000E+03 0. -1.
     100001    1    1    2    0    0  0.67324216142E+03  0.51320721382E+03  0.64428808074E+04  0.65000000000E+04  0.15050000000E+03 0.  1.
     100001    1    1    2    0    0 -0.67324216142E+03 -0.51320721382E+03 -0.64428808074E+04  0.65000000000E+04  0.15050000000E+03 0. -1.
</event>
<event>
 4    1  0.4521369E-004  0.6500000E+04  0.7818608E-02  0.7223770E-01
         52   -1    0    0    0    0  0.00000000000E+00  0.00000000000E+00  0.64930732323E+04  0.65000000000E+04  0.30000000000E+03 0. -1.
        -52   -1    0    0    0    0 -0.00000000000E+00 -0.00000000000E+00 -0.64930732323E+04  0.65000000000E+04  0.30000000000E+03 0.  1.
     100001    1    1    2    0    0 -0.26221117866E+04 -0.17011890605E+04 -0.56971778372E+04  0.65000000000E+04  0.15050000000E+03 0.  1.
     100001    1    1    2    0    0  0.26221117866E+04  0.17011890605E+04  0.56971778372E+04  0.65000000000E+04  0.15050000000E+03 0. -1.
</event>
<event>
 4    1  0.4521369E-004  0.6500000E+04  0.7818608E-02  0.7223770E-01
         52   -1    0    0    0    0  0.00000000000E+00  0.00000000000E+00  0.64930732323E+04  0.65000000000E+04  0.30000000000E+03 0.  1.
        -52   -1    0    0    0    0 -0.00000000000E+00 -0.00000000000E+00 -0.64930732323E+04  0.65000000000E+04  0.30000000000E+03 0. -1.
     100001    1    1    2    0    0  0.11042734450E+04 -0.28580167103E+04 -0.57305907542E+04  0.65000000000E+04  0.15050000000E+03 0. -1.
     100001    1    1    2    0    0 -0.11042734450E+04  0.28580167103E+04  0.57305907542E+04  0.65000000000E+04  0.15050000000E+03 0.  1.
</event>
<event>
 4    1  0.4521369E-004  0.6500000E+04  0.7818608E-02  0.7223770E-01
         52   -1    0    0    0    0  0.00000000000E+00  0.00000000000E+00  0.64930732323E+04  0.65000000000E+04  0.30000000000E+03 0. -1.
        -52   -1    0    0    0    0 -0.00000000000E+00 -0.00000000000E+00 -0.64930732323E+04  0.65000000000E+04  0.30000000000E+03 0.  1.
     100001    1    1    2    0    0  0.41458756708E+03 -0.81083869759E+01 -0.64850135816E+04  0.65000000000E+04  0.15050000000E+03 0.  1.
     100001    1    1    2    0    0 -0.41458756708E+03  0.81083869759E+01  0.64850135816E+04  0.65000000000E+04  0.15050000000E+03 0. -1.
</event>
<event>
 4    1  0.4521369E-004  0.6500000E+04  0.7818608E-02  0.7223770E-01
         52   -1    0    0    0    0  0.00000000000E+00  0.00000000000E+00  0.64930732323E+04  0.65000000000E+04  0.30000000000E+03 0.  1.
        -52   -1    0    0    0    0 -0.00000000000E+00 -0.00000000000E+00 -0.64930732323E+04  0.65000000000E+04  0.30000000000E+03 0. -1.
     100001    1    1    2    0    0 -0.10774380642E+03 -0.15244787364E+04  0.63159880941E+04  0.65000000000E+04  0.15050000000E+03 0.  1.
     100001    1    1    2    0    0  0.10774380642E+03  0.15244787364E+04 -0.63159880941E+04  0.65000000000E+04  0.15050000000E+03 0. -1.
</event>
<event>
 4    1  0.4521369E-004  0.6500000E+04  0.7818608E-02  0.7223770E-01
         52   -1    0    0    0    0  0.00000000000E+00  0.00000000000E+00  0.64930732323E+04  0.65000000000E+04  0.30000000000E+03 0. -1.
        -52   -1    0    0    0    0 -0.00000000000E+00 -0.00000000000E+00 -0.64930732323E+04  0.65000000000E+04  0.30000000000E+03 0.  1.
     100001    1    1    2    0    0 -0.29479238705E+03 -0.11706815676E+04 -0.63851352269E+04  0.65000000000E+04  0.15050000000E+03 0.  1.
     100001    1    1    2    0    0  0.29479238705E+03  0.11706815676E+04  0.63851352269E+04  0.65000000000E+04  0.15050000000E+03 0. -1.
</event>
<event>
 4    1  0.4521369E-004  0.6500000E+04  0.7818608E-02  0.7223770E-01
         52   -1    0    0    0    0  0.00000000000E+00  0.00000000000E+00  0.64930732323E+04  0.65000000000E+04  0.30000000000E+03 0. -1.
        -52   -1    0    0    0    0 -0.00000000000E+00 -0.00000000000E+00 -0.64930732323E+04  0.65000000000E+04  0.30000000000E+03 0. -1.
     100001    1    1    2    0    0 -0.79712995890E+02  0.10242818529E+03  0.64969611400E+04  0.65000000000E+04  0.15050000000E+03 0. -1.
     100001    1    1    2    0    0  0.79712995890E+02 -0.10242818529E+03 -0.64969611400E+04  0.65000000000E+04  0.15050000000E+03 0. -1.
</event>
<event>
 4    1  0.4521369E-004  0.6500000E+04  0.7818608E-02  0.7223770E-01
         52   -1    0    0    0    0  0.00000000000E+00  0.00000000000E+00  0.64930732323E+04  0.65000000000E+04  0.30000000000E+03 0.  1.
        -52   -1    0    0    0    0 -0.00000000000E+00 -0.00000000000E+00 -0.64930732323E+04  0.65000000000E+04  0.30000000000E+03 0. -1.
     100001    1    1    2    0    0 -0.16970294346E+04 -0.10171064028E+04  0.61897443738E+04  0.65000000000E+04  0.15050000000E+03 0.  1.
     100001    1    1    2    0    0  0.16970294346E+04  0.10171064028E+04 -0.61897443738E+04  0.65000000000E+04  0.15050000000E+03 0. -1.
</event>
<event>
 4    1  0.4521369E-004  0.6500000E+04  0.7818608E-02  0.7223770E-01
         52   -1    0    0    0    0  0.00000000000E+00  0.00000000000E+00  0.64930732323E+04  0.65000000000E+04  0.30000000000E+03 0.  1.
        -52   -1    0    0    0    0 -0.00000000000E+00 -0.00000000000E+00 -0.64930732323E+04  0.65000000000E+04  0.30000000000E+03 0. -1.
     100001    1    1    2    0    0  0.76505182982E+03 -0.12047834164E+04  0.63396011205E+04  0.65000000000E+04  0.15050000000E+03 0.  1.
     100001    1    1    2    0    0 -0.76505182982E+03  0.12047834164E+04 -0.63396011205E+04  0.65000000000E+04  0.15050000000E+03 0. -1.
</event>
<event>
 4    1  0.4521369E-004  0.6500000E+04  0.7818608E-02  0.7223770E-01
         52   -1    0    0    0    0  0.00000000000E+00  0.00000000000E+00  0.64930732323E+04  0.65000000000E+04  0.30000000000E+03 0. -1.
        -52   -1    0    0    0    0 -0.00000000000E+00 -0.00000000000E+00 -0.64930732323E+04  0.65000000000E+04  0.30000000000E+03 0.  1.
     100001    1    1    2    0    0  0.16608907125E+04 -0.10034029214E+04  0.62017718733E+04  0.65000000000E+04  0.15050000000E+03 0. -1.
     100001    1    1    2    0    0 -0.16608907125E+04  0.10034029214E+04 -0.62017718733E+04  0.65000000000E+04  0.15050000000E+03 0.  1.
</event>
<event>
 4    1  0.4521369E-004  0.6500000E+04  0.7818608E-02  0.7223770E-01
         52   -1    0    0    0    0  0.00000000000E+00  0.00000000000E+00  0.64930732323E+04  0.65000000000E+04  0.30000000000E+03 0. -1.
        -52   -1    0    0    0    0 -0.00000000000E+00 -0.00000000000E+00 -0.64930732323E+04  0.65000000000E+04  0.30000000000E+03 0.  1.
     100001    1    1    2    0    0 -0.16518731954E+02  0.21627300442E+03 -0.64946364694E+04  0.65000000000E+04  0.15050000000E+03 0.  1.
     100001    1    1    2    0    0  0.16518731954E+02 -0.21627300442E+03  0.64946364694E+04  0.65000000000E+04  0.15050000000E+03 0. -1.
</event>
<event>
 4    1  0.4521369E-004  0.6500000E+04  0.7818608E-02  0.7223770E-01
         52   -1    0    0    0    0  0.00000000000E+00  0.00000000000E+00  0.64930732323E+04  0.65000000000E+04  0.30000000000E+03 0.  1.
        -52   -1    0    0    0    0 -0.00000000000E+00 -0.00000000000E+00 -0.64930732323E+04  0.65000000000E+04  0.30000000000E+03 0. -1.
     100001    1    1    2    0    0  0.18599667627E+04  0.61825677357E+04 -0.73738021743E+03  0.65000000000E+04  0.15050000000E+03 0.  1.
     100001    1    1    2    0    0 -0.18599667627E+04 -0.61825677357E+04  0.73738021743E+03  0.65000000000E+04  0.15050000000E+03 0. -1.
</event>
<event>
 4    1  0.4521369E-004  0.6500000E+04  0.7818608E-02  0.7223770E-01
         52   -1    0    0    0    0  0.00000000000E+00  0.00000000000E+00  0.64930732323E+04  0.65000000000E+04  0.30000000000E+03 0.  1.
        -52   -1    0    0    0    0 -0.00000000000E+00 -0.00000000000E+00 -0.64930732323E+04  0.65000000000E+04  0.30000000000E+03 0. -1.
     100001    1    1    2    0    0  0.32836012651E+03 -0.39661565552E+02  0.64898348467E+04  0.65000000000E+04  0.15050000000E+03 0.  1.
     100001    1    1    2    0    0 -0.32836012651E+03  0.39661565552E+02 -0.64898348467E+04  0.65000000000E+04  0.15050000000E+03 0. -1.
</event>
<event>
 4    1  0.4521369E-004  0.6500000E+04  0.7818608E-02  0.7223770E-01
         52   -1    0    0    0    0  0.00000000000E+00  0.00000000000E+00  0.64930732323E+04  0.65000000000E+04  0.30000000000E+03 0.  1.
        -52   -1    0    0    0    0 -0.00000000000E+00 -0.00000000000E+00 -0.64930732323E+04  0.65000000000E+04  0.30000000000E+03 0. -1.
     100001    1    1    2    0    0  0.74035927866E+02 -0.76513057330E+03  0.64526307532E+04  0.65000000000E+04  0.15050000000E+03 0.  1.
     100001    1    1    2    0    0 -0.74035927866E+02  0.76513057330E+03 -0.64526307532E+04  0.65000000000E+04  0.15050000000E+03 0. -1.
</event>
<event>
 4    1  0.4521369E-004  0.6500000E+04  0.7818608E-02  0.7223770E-01
         52   -1    0    0    0    0  0.00000000000E+00  0.00000000000E+00  0.64930732323E+04  0.65000000000E+04  0.30000000000E+03 0. -1.
        -52   -1    0    0    0    0 -0.00000000000E+00 -0.00000000000E+00 -0.64930732323E+04  0.65000000000E+04  0.30000000000E+03 0.  1.
     100001    1    1    2    0    0 -0.57414317442E+04 -0.18514597996E+04  0.24156588931E+04  0.65000000000E+04  0.15050000000E+03 0. -1.
     100001    1    1    2    0    0  0.57414317442E+04  0.18514597996E+04 -0.24156588931E+04  0.65000000000E+04  0.15050000000E+03 0.  1.
</event>
<event>
 4    1  0.4521369E-004  0.6500000E+04  0.7818608E-02  0.7223770E-01
         52   -1    0    0    0    0  0.00000000000E+00  0.00000000000E+00  0.64930732323E+04  0.65000000000E+04  0.30000000000E+03 0.  1.
        -52   -1    0    0    0    0 -0.00000000000E+00 -0.00000000000E+00 -0.64930732323E+04  0.65000000000E+04  0.30000000000E+03 0. -1.
     100001    1    1    2    0    0  0.15043825845E+04 -0.30515055940E+03 -0.63143539595E+04  0.65000000000E+04  0.15050000000E+03 0. -1.
     100001    1    1    2    0    0 -0.15043825845E+04  0.30515055940E+03  0.63143539595E+04  0.65000000000E+04  0.15050000000E+03 0.  1.
</event>
<event>
 4    1  0.4521369E-004  0.6500000E+04  0.7818608E-02  0.7223770E-01
         52   -1    0    0    0    0  0.00000000000E+00  0.00000000000E+00  0.64930732323E+04  0.65000000000E+04  0.30000000000E+03 0. -1.
        -52   -1    0    0    0    0 -0.00000000000E+00 -0.00000000000E+00 -0.64930732323E+04  0.65000000000E+04  0.30000000000E+03 0.  1.
     100001    1    1    2    0    0  0.21569992186E+04 -0.11870510382E+04  0.60137853265E+04  0.65000000000E+04  0.15050000000E+03 0. -1.
     100001    1    1    2    0    0 -0.21569992186E+04  0.11870510382E+04 -0.60137853265E+04  0.65000000000E+04  0.15050000000E+03 0.  1.
</event>
<event>
 4    1  0.4521369E-004  0.6500000E+04  0.7818608E-02  0.7223770E-01
         52   -1    0    0    0    0  0.00000000000E+00  0.00000000000E+00  0.64930732323E+04  0.65000000000E+04  0.30000000000E+03 0.  1.
        -52   -1    0    0    0    0 -0.00000000000E+00 -0.00000000000E+00 -0.64930732323E+04  0.65000000000E+04  0.30000000000E+03 0. -1.
     100001    1    1    2    0    0  0.13126577566E+04  0.85545196598E+03  0.63065427373E+04  0.65000000000E+04  0.15050000000E+03 0.  1.
     100001    1    1    2    0    0 -0.13126577566E+04 -0.85545196598E+03 -0.63065427373E+04  0.65000000000E+04  0.15050000000E+03 0. -1.
</event>
<event>
 4    1  0.4521369E-004  0.6500000E+04  0.7818608E-02  0.7223770E-01
         52   -1    0    0    0    0  0.00000000000E+00  0.00000000000E+00  0.64930732323E+04  0.65000000000E+04  0.30000000000E+03 0. -1.
        -52   -1    0    0    0    0 -0.00000000000E+00 -0.00000000000E+00 -0.64930732323E+04  0.65000000000E+04  0.30000000000E+03 0.  1.
     100001    1    1    2    0    0  0.64154472738E+03 -0.38490354814E+04  0.51962193926E+04  0.65000000000E+04  0.15050000000E+03 0. -1.
     100001    1    1    2    0    0 -0.64154472738E+03  0.38490354814E+04 -0.51962193926E+04  0.65000000000E+04  0.15050000000E+03 0.  1.
</event>
<event>
 4    1  0.4521369E-004  0.6500000E+04  0.7818608E-02  0.7223770E-01
         52   -1    0    0    0    0  0.00000000000E+00  0.00000000000E+00  0.64930732323E+04  0.65000000000E+04  0.30000000000E+03 0. -1.
        -52   -1    0    0    0    0 -0.00000000000E+00 -0.00000000000E+00 -0.64930732323E+04  0.65000000000E+04  0.30000000000E+03 0.  1.
     100001    1    1    2    0    0 -0.16752585443E+03 -0.55408016975E+03 -0.64724245846E+04  0.65000000000E+04  0.15050000000E+03 0.  1.
     100001    1    1    2    0    0  0.16752585443E+03  0.55408016975E+03  0.64724245846E+04  0.65000000000E+04  0.15050000000E+03 0. -1.
</event>
<event>
 4    1  0.4521369E-004  0.6500000E+04  0.7818608E-02  0.7223770E-01
         52   -1    0    0    0    0  0.00000000000E+00  0.00000000000E+00  0.64930732323E+04  0.65000000000E+04  0.30000000000E+03 0. -1.
        -52   -1    0    0    0    0 -0.00000000000E+00 -0.00000000000E+00 -0.64930732323E+04  0.65000000000E+04  0.30000000000E+03 0.  1.
     100001    1    1    2    0    0  0.35447674813E+03  0.92739112629E+01 -0.64885753428E+04  0.65000000000E+04  0.15050000000E+03 0.  1.
     100001    1    1    2    0    0 -0.35447674813E+03 -0.92739112629E+01  0.64885753428E+04  0.65000000000E+04  0.15050000000E+03 0. -1.
</event>
<event>
 4    1  0.4521369E-004  0.6500000E+04  0.7818608E-02  0.7223770E-01
         52   -1    0    0    0    0  0.00000000000E+00  0.00000000000E+00  0.64930732323E+04  0.65000000000E+04  0.30000000000E+03 0. -1.
        -52   -1    0    0    0    0 -0.00000000000E+00 -0.00000000000E+00 -0.64930732323E+04  0.65000000000E+04  0.30000000000E+03 0.  1.
     100001    1    1    2    0    0 -0.12866098953E+04  0.10112828344E+04  0.62888227639E+04  0.65000000000E+04  0.15050000000E+03 0. -1.
     100001    1    1    2    0    0  0.12866098953E+04 -0.10112828344E+04 -0.62888227639E+04  0.65000000000E+04  0.15050000000E+03 0.  1.
</event>
<event>
 4    1  0.4521369E-004  0.6500000E+04  0.7818608E-02  0.7223770E-01
         52   -1    0    0    0    0  0.00000000000E+00  0.00000000000E+00  0.64930732323E+04  0.65000000000E+04  0.30000000000E+03 0.  1.
        -52   -1    0    0    0    0 -0.00000000000E+00 -0.00000000000E+00 -0.64930732323E+04  0.65000000000E+04  0.30000000000E+03 0. -1.
     100001    1    1    2    0    0 -0.32107304823E+04 -0.19676558935E+04  0.52959314388E+04  0.65000000000E+04  0.15050000000E+03 0.  1.
     100001    1    1    2    0    0  0.32107304823E+04  0.19676558935E+04 -0.52959314388E+04  0.65000000000E+04  0.15050000000E+03 0. -1.
</event>
<event>
 4    1  0.4521369E-004  0.6500000E+04  0.7818608E-02  0.7223770E-01
         52   -1    0    0    0    0  0.00000000000E+00  0.00000000000E+00  0.64930732323E+04  0.65000000000E+04  0.30000000000E+03 0. -1.
        -52   -1    0    0    0    0 -0.00000000000E+00 -0.00000000000E+00 -0.64930732323E+04  0.65000000000E+04  0.30000000000E+03 0.  1.
     100001    1    1    2    0    0  0.54352379722E+04 -0.28961741802E+04  0.20730926303E+04  0.65000000000E+04  0.15050000000E+03 0. -1.
     100001    1    1    2    0    0 -0.54352379722E+04  0.28961741802E+04 -0.20730926303E+04  0.65000000000E+04  0.15050000000E+03 0.  1.
</event>
<event>
 4    1  0.4521369E-004  0.6500000E+04  0.7818608E-02  0.7223770E-01
         52   -1    0    0    0    0  0.00000000000E+00  0.00000000000E+00  0.64930732323E+04  0.65000000000E+04  0.30000000000E+03 0.  1.
        -52   -1    0    0    0    0 -0.00000000000E+00 -0.00000000000E+00 -0.64930732323E+04  0.65000000000E+04  0.30000000000E+03 0. -1.
     100001    1    1    2    0    0  0.34507300498E+04  0.49307993858E+04  0.24509241706E+04  0.65000000000E+04  0.15050000000E+03 0.  1.
     100001    1    1    2    0    0 -0.34507300498E+04 -0.49307993858E+04 -0.24509241706E+04  0.65000000000E+04  0.15050000000E+03 0. -1.
</event>
<event>
 4    1  0.4521369E-004  0.6500000E+04  0.7818608E-02  0.7223770E-01
         52   -1    0    0    0    0  0.00000000000E+00  0.00000000000E+00  0.64930732323E+04  0.65000000000E+04  0.30000000000E+03 0.  1.
        -52   -1    0    0    0    0 -0.00000000000E+00 -0.00000000000E+00 -0.64930732323E+04  0.65000000000E+04  0.30000000000E+03 0. -1.
     100001    1    1    2    0    0 -0.28599110825E+04 -0.13228693526E+04 -0.56831571354E+04  0.65000000000E+04  0.15050000000E+03 0. -1.
     100001    1    1    2    0    0  0.28599110825E+04  0.13228693526E+04  0.56831571354E+04  0.65000000000E+04  0.15050000000E+03 0.  1.
</event>
<event>
 4    1  0.4521369E-004  0.6500000E+04  0.7818608E-02  0.7223770E-01
         52   -1    0    0    0    0  0.00000000000E+00  0.00000000000E+00  0.64930732323E+04  0.65000000000E+04  0.30000000000E+03 0. -1.
        -52   -1    0    0    0    0 -0.00000000000E+00 -0.00000000000E+00 -0.64930732323E+04  0.65000000000E+04  0.30000000000E+03 0. -1.
     100001    1    1    2    0    0 -0.93573570344E+02  0.28447005357E+03 -0.64913535203E+04  0.65000000000E+04  0.15050000000E+03 0. -1.
     100001    1    1    2    0    0  0.93573570344E+02 -0.28447005357E+03  0.64913535203E+04  0.65000000000E+04  0.15050000000E+03 0. -1.
</event>
<event>
 4    1  0.4521369E-004  0.6500000E+04  0.7818608E-02  0.7223770E-01
         52   -1    0    0    0    0  0.00000000000E+00  0.00000000000E+00  0.64930732323E+04  0.65000000000E+04  0.30000000000E+03 0.  1.
        -52   -1    0    0    0    0 -0.00000000000E+00 -0.00000000000E+00 -0.64930732323E+04  0.65000000000E+04  0.30000000000E+03 0. -1.
     100001    1    1    2    0    0 -0.21523634167E+04  0.50977918819E+04  0.34069340178E+04  0.65000000000E+04  0.15050000000E+03 0.  1.
     100001    1    1    2    0    0  0.21523634167E+04 -0.50977918819E+04 -0.34069340178E+04  0.65000000000E+04  0.15050000000E+03 0. -1.
</event>
<event>
 4    1  0.4521369E-004  0.6500000E+04  0.7818608E-02  0.7223770E-01
         52   -1    0    0    0    0  0.00000000000E+00  0.00000000000E+00  0.64930732323E+04  0.65000000000E+04  0.30000000000E+03 0.  1.
        -52   -1    0    0    0    0 -0.00000000000E+00 -0.00000000000E+00 -0.64930732323E+04  0.65000000000E+04  0.30000000000E+03 0.  1.
     100001    1    1    2    0    0 -0.76796103198E+01 -0.96600915472E+03  0.64260498820E+04  0.65000000000E+04  0.15050000000E+03 0.  1.
     100001    1    1    2    0    0  0.76796103198E+01  0.96600915472E+03 -0.64260498820E+04  0.65000000000E+04  0.15050000000E+03 0.  1.
</event>
<event>
 4    1  0.4521369E-004  0.6500000E+04  0.7818608E-02  0.7223770E-01
         52   -1    0    0    0    0  0.00000000000E+00  0.00000000000E+00  0.64930732323E+04  0.65000000000E+04  0.30000000000E+03 0.  1.
        -52   -1    0    0    0    0 -0.00000000000E+00 -0.00000000000E+00 -0.64930732323E+04  0.65000000000E+04  0.30000000000E+03 0. -1.
     100001    1    1    2    0    0  0.56264482902E+03  0.35886070036E+04  0.53881982443E+04  0.65000000000E+04  0.15050000000E+03 0.  1.
     100001    1    1    2    0    0 -0.56264482902E+03 -0.35886070036E+04 -0.53881982443E+04  0.65000000000E+04  0.15050000000E+03 0. -1.
</event>
<event>
 4    1  0.4521369E-004  0.6500000E+04  0.7818608E-02  0.7223770E-01
         52   -1    0    0    0    0  0.00000000000E+00  0.00000000000E+00  0.64930732323E+04  0.65000000000E+04  0.30000000000E+03 0.  1.
        -52   -1    0    0    0    0 -0.00000000000E+00 -0.00000000000E+00 -0.64930732323E+04  0.65000000000E+04  0.30000000000E+03 0.  1.
     100001    1    1    2    0    0  0.50471581256E+03  0.23167063567E+03 -0.64744837953E+04  0.65000000000E+04  0.15050000000E+03 0.  1.
     100001    1    1    2    0    0 -0.50471581256E+03 -0.23167063567E+03  0.64744837953E+04  0.65000000000E+04  0.15050000000E+03 0.  1.
</event>
<event>
 4    1  0.4521369E-004  0.6500000E+04  0.7818608E-02  0.7223770E-01
         52   -1    0    0    0    0  0.00000000000E+00  0.00000000000E+00  0.64930732323E+04  0.65000000000E+04  0.30000000000E+03 0.  1.
        -52   -1    0    0    0    0 -0.00000000000E+00 -0.00000000000E+00 -0.64930732323E+04  0.65000000000E+04  0.30000000000E+03 0. -1.
     100001    1    1    2    0    0  0.78434880253E+03  0.13545347997E+04  0.63069312809E+04  0.65000000000E+04  0.15050000000E+03 0.  1.
     100001    1    1    2    0    0 -0.78434880253E+03 -0.13545347997E+04 -0.63069312809E+04  0.65000000000E+04  0.15050000000E+03 0. -1.
</event>
<event>
 4    1  0.4521369E-004  0.6500000E+04  0.7818608E-02  0.7223770E-01
         52   -1    0    0    0    0  0.00000000000E+00  0.00000000000E+00  0.64930732323E+04  0.65000000000E+04  0.30000000000E+03 0.  1.
        -52   -1    0    0    0    0 -0.00000000000E+00 -0.00000000000E+00 -0.64930732323E+04  0.65000000000E+04  0.30000000000E+03 0. -1.
     100001    1    1    2    0    0  0.33065267043E+03 -0.11762002407E+04 -0.63823641039E+04  0.65000000000E+04  0.15050000000E+03 0. -1.
     100001    1    1    2    0    0 -0.33065267043E+03  0.11762002407E+04  0.63823641039E+04  0.65000000000E+04  0.15050000000E+03 0.  1.
</event>
<event>
 4    1  0.4521369E-004  0.6500000E+04  0.7818608E-02  0.7223770E-01
         52   -1    0    0    0    0  0.00000000000E+00  0.00000000000E+00  0.64930732323E+04  0.65000000000E+04  0.30000000000E+03 0.  1.
        -52   -1    0    0    0    0 -0.00000000000E+00 -0.00000000000E+00 -0.64930732323E+04  0.65000000000E+04  0.30000000000E+03 0. -1.
     100001    1    1    2    0    0  0.57398155524E+03  0.18686349828E+03 -0.64701605048E+04  0.65000000000E+04  0.15050000000E+03 0. -1.
     100001    1    1    2    0    0 -0.57398155524E+03 -0.18686349828E+03  0.64701605048E+04  0.65000000000E+04  0.15050000000E+03 0.  1.
</event>
<event>
 4    1  0.4521369E-004  0.6500000E+04  0.7818608E-02  0.7223770E-01
         52   -1    0    0    0    0  0.00000000000E+00  0.00000000000E+00  0.64930732323E+04  0.65000000000E+04  0.30000000000E+03 0.  1.
        -52   -1    0    0    0    0 -0.00000000000E+00 -0.00000000000E+00 -0.64930732323E+04  0.65000000000E+04  0.30000000000E+03 0. -1.
     100001    1    1    2    0    0 -0.31394330225E+03 -0.83155883942E+03  0.64371810018E+04  0.65000000000E+04  0.15050000000E+03 0.  1.
     100001    1    1    2    0    0  0.31394330225E+03  0.83155883942E+03 -0.64371810018E+04  0.65000000000E+04  0.15050000000E+03 0. -1.
</event>
<event>
 4    1  0.4521369E-004  0.6500000E+04  0.7818608E-02  0.7223770E-01
         52   -1    0    0    0    0  0.00000000000E+00  0.00000000000E+00  0.64930732323E+04  0.65000000000E+04  0.30000000000E+03 0.  1.
        -52   -1    0    0    0    0 -0.00000000000E+00 -0.00000000000E+00 -0.64930732323E+04  0.65000000000E+04  0.30000000000E+03 0. -1.
     100001    1    1    2    0    0  0.21244190601E+04  0.17197307284E+04 -0.58954829852E+04  0.65000000000E+04  0.15050000000E+03 0. -1.
     100001    1    1    2    0    0 -0.21244190601E+04 -0.17197307284E+04  0.58954829852E+04  0.65000000000E+04  0.15050000000E+03 0.  1.
</event>
<event>
 4    1  0.4521369E-004  0.6500000E+04  0.7818608E-02  0.7223770E-01
         52   -1    0    0    0    0  0.00000000000E+00  0.00000000000E+00  0.64930732323E+04  0.65000000000E+04  0.30000000000E+03 0. -1.
        -52   -1    0    0    0    0 -0.00000000000E+00 -0.00000000000E+00 -0.64930732323E+04  0.65000000000E+04  0.30000000000E+03 0.  1.
     100001    1    1    2    0    0 -0.40094791896E+03 -0.17079384163E+04 -0.62569590763E+04  0.65000000000E+04  0.15050000000E+03 0.  1.
     100001    1    1    2    0    0  0.40094791896E+03  0.17079384163E+04  0.62569590763E+04  0.65000000000E+04  0.15050000000E+03 0. -1.
</event>
<event>
 4    1  0.4521369E-004  0.6500000E+04  0.7818608E-02  0.7223770E-01
         52   -1    0    0    0    0  0.00000000000E+00  0.00000000000E+00  0.64930732323E+04  0.65000000000E+04  0.30000000000E+03 0.  1.
        -52   -1    0    0    0    0 -0.00000000000E+00 -0.00000000000E+00 -0.64930732323E+04  0.65000000000E+04  0.30000000000E+03 0. -1.
     100001    1    1    2    0    0 -0.30631740164E+04 -0.54195770039E+04 -0.18634644601E+04  0.65000000000E+04  0.15050000000E+03 0. -1.
     100001    1    1    2    0    0  0.30631740164E+04  0.54195770039E+04  0.18634644601E+04  0.65000000000E+04  0.15050000000E+03 0.  1.
</event>
<event>
 4    1  0.4521369E-004  0.6500000E+04  0.7818608E-02  0.7223770E-01
         52   -1    0    0    0    0  0.00000000000E+00  0.00000000000E+00  0.64930732323E+04  0.65000000000E+04  0.30000000000E+03 0. -1.
        -52   -1    0    0    0    0 -0.00000000000E+00 -0.00000000000E+00 -0.64930732323E+04  0.65000000000E+04  0.30000000000E+03 0.  1.
     100001    1    1    2    0    0 -0.14832703013E+04 -0.23885383770E+04 -0.58585103384E+04  0.65000000000E+04  0.15050000000E+03 0.  1.
     100001    1    1    2    0    0  0.14832703013E+04  0.23885383770E+04  0.58585103384E+04  0.65000000000E+04  0.15050000000E+03 0. -1.
</event>
<event>
 4    1  0.4521369E-004  0.6500000E+04  0.7818608E-02  0.7223770E-01
         52   -1    0    0    0    0  0.00000000000E+00  0.00000000000E+00  0.64930732323E+04  0.65000000000E+04  0.30000000000E+03 0. -1.
        -52   -1    0    0    0    0 -0.00000000000E+00 -0.00000000000E+00 -0.64930732323E+04  0.65000000000E+04  0.30000000000E+03 0.  1.
     100001    1    1    2    0    0  0.12103193048E+04 -0.32944442318E+04  0.54689225752E+04  0.65000000000E+04  0.15050000000E+03 0. -1.
     100001    1    1    2    0    0 -0.12103193048E+04  0.32944442318E+04 -0.54689225752E+04  0.65000000000E+04  0.15050000000E+03 0.  1.
</event>
<event>
 4    1  0.4521369E-004  0.6500000E+04  0.7818608E-02  0.7223770E-01
         52   -1    0    0    0    0  0.00000000000E+00  0.00000000000E+00  0.64930732323E+04  0.65000000000E+04  0.30000000000E+03 0.  1.
        -52   -1    0    0    0    0 -0.00000000000E+00 -0.00000000000E+00 -0.64930732323E+04  0.65000000000E+04  0.30000000000E+03 0. -1.
     100001    1    1    2    0    0 -0.40594825790E+04 -0.13371107607E+04  0.48949040598E+04  0.65000000000E+04  0.15050000000E+03 0.  1.
     100001    1    1    2    0    0  0.40594825790E+04  0.13371107607E+04 -0.48949040598E+04  0.65000000000E+04  0.15050000000E+03 0. -1.
</event>
<event>
 4    1  0.4521369E-004  0.6500000E+04  0.7818608E-02  0.7223770E-01
         52   -1    0    0    0    0  0.00000000000E+00  0.00000000000E+00  0.64930732323E+04  0.65000000000E+04  0.30000000000E+03 0.  1.
        -52   -1    0    0    0    0 -0.00000000000E+00 -0.00000000000E+00 -0.64930732323E+04  0.65000000000E+04  0.30000000000E+03 0. -1.
     100001    1    1    2    0    0 -0.61855493593E+04 -0.19790602179E+04  0.22282173855E+03  0.65000000000E+04  0.15050000000E+03 0. -1.
     100001    1    1    2    0    0  0.61855493593E+04  0.19790602179E+04 -0.22282173855E+03  0.65000000000E+04  0.15050000000E+03 0.  1.
</event>
<event>
 4    1  0.4521369E-004  0.6500000E+04  0.7818608E-02  0.7223770E-01
         52   -1    0    0    0    0  0.00000000000E+00  0.00000000000E+00  0.64930732323E+04  0.65000000000E+04  0.30000000000E+03 0. -1.
        -52   -1    0    0    0    0 -0.00000000000E+00 -0.00000000000E+00 -0.64930732323E+04  0.65000000000E+04  0.30000000000E+03 0.  1.
     100001    1    1    2    0    0 -0.17689731227E+04 -0.10221613964E+04 -0.61687332509E+04  0.65000000000E+04  0.15050000000E+03 0.  1.
     100001    1    1    2    0    0  0.17689731227E+04  0.10221613964E+04  0.61687332509E+04  0.65000000000E+04  0.15050000000E+03 0. -1.
</event>
<event>
 4    1  0.4521369E-004  0.6500000E+04  0.7818608E-02  0.7223770E-01
         52   -1    0    0    0    0  0.00000000000E+00  0.00000000000E+00  0.64930732323E+04  0.65000000000E+04  0.30000000000E+03 0.  1.
        -52   -1    0    0    0    0 -0.00000000000E+00 -0.00000000000E+00 -0.64930732323E+04  0.65000000000E+04  0.30000000000E+03 0. -1.
     100001    1    1    2    0    0 -0.24812116972E+04 -0.16714638051E+04  0.57686347615E+04  0.65000000000E+04  0.15050000000E+03 0.  1.
     100001    1    1    2    0    0  0.24812116972E+04  0.16714638051E+04 -0.57686347615E+04  0.65000000000E+04  0.15050000000E+03 0. -1.
</event>
<event>
 4    1  0.4521369E-004  0.6500000E+04  0.7818608E-02  0.7223770E-01
         52   -1    0    0    0    0  0.00000000000E+00  0.00000000000E+00  0.64930732323E+04  0.65000000000E+04  0.30000000000E+03 0. -1.
        -52   -1    0    0    0    0 -0.00000000000E+00 -0.00000000000E+00 -0.64930732323E+04  0.65000000000E+04  0.30000000000E+03 0.  1.
     100001    1    1    2    0    0  0.47419955196E+03  0.11222942414E+04 -0.63830196749E+04  0.65000000000E+04  0.15050000000E+03 0.  1.
     100001    1    1    2    0    0 -0.47419955196E+03 -0.11222942414E+04  0.63830196749E+04  0.65000000000E+04  0.15050000000E+03 0. -1.
</event>
<event>
 4    1  0.4521369E-004  0.6500000E+04  0.7818608E-02  0.7223770E-01
         52   -1    0    0    0    0  0.00000000000E+00  0.00000000000E+00  0.64930732323E+04  0.65000000000E+04  0.30000000000E+03 0. -1.
        -52   -1    0    0    0    0 -0.00000000000E+00 -0.00000000000E+00 -0.64930732323E+04  0.65000000000E+04  0.30000000000E+03 0.  1.
     100001    1    1    2    0    0 -0.11211022404E+04  0.75500701308E+03 -0.63561343541E+04  0.65000000000E+04  0.15050000000E+03 0.  1.
     100001    1    1    2    0    0  0.11211022404E+04 -0.75500701308E+03  0.63561343541E+04  0.65000000000E+04  0.15050000000E+03 0. -1.
</event>
<event>
 4    1  0.4521369E-004  0.6500000E+04  0.7818608E-02  0.7223770E-01
         52   -1    0    0    0    0  0.00000000000E+00  0.00000000000E+00  0.64930732323E+04  0.65000000000E+04  0.30000000000E+03 0.  1.
        -52   -1    0    0    0    0 -0.00000000000E+00 -0.00000000000E+00 -0.64930732323E+04  0.65000000000E+04  0.30000000000E+03 0.  1.
     100001    1    1    2    0    0 -0.10007111891E+03 -0.12392876401E+03  0.64963048868E+04  0.65000000000E+04  0.15050000000E+03 0.  1.
     100001    1    1    2    0    0  0.10007111891E+03  0.12392876401E+03 -0.64963048868E+04  0.65000000000E+04  0.15050000000E+03 0.  1.
</event>
<event>
 4    1  0.4521369E-004  0.6500000E+04  0.7818608E-02  0.7223770E-01
         52   -1    0    0    0    0  0.00000000000E+00  0.00000000000E+00  0.64930732323E+04  0.65000000000E+04  0.30000000000E+03 0. -1.
        -52   -1    0    0    0    0 -0.00000000000E+00 -0.00000000000E+00 -0.64930732323E+04  0.65000000000E+04  0.30000000000E+03 0. -1.
     100001    1    1    2    0    0  0.18593108407E+03 -0.67710425988E+01 -0.64955933936E+04  0.65000000000E+04  0.15050000000E+03 0. -1.
     100001    1    1    2    0    0 -0.18593108407E+03  0.67710425988E+01  0.64955933936E+04  0.65000000000E+04  0.15050000000E+03 0. -1.
</event>
<event>
 4    1  0.4521369E-004  0.6500000E+04  0.7818608E-02  0.7223770E-01
         52   -1    0    0    0    0  0.00000000000E+00  0.00000000000E+00  0.64930732323E+04  0.65000000000E+04  0.30000000000E+03 0. -1.
        -52   -1    0    0    0    0 -0.00000000000E+00 -0.00000000000E+00 -0.64930732323E+04  0.65000000000E+04  0.30000000000E+03 0.  1.
     100001    1    1    2    0    0  0.84398240514E+03  0.12227873143E+04  0.63261231915E+04  0.65000000000E+04  0.15050000000E+03 0. -1.
     100001    1    1    2    0    0 -0.84398240514E+03 -0.12227873143E+04 -0.63261231915E+04  0.65000000000E+04  0.15050000000E+03 0.  1.
</event>
<event>
 4    1  0.4521369E-004  0.6500000E+04  0.7818608E-02  0.7223770E-01
         52   -1    0    0    0    0  0.00000000000E+00  0.00000000000E+00  0.64930732323E+04  0.65000000000E+04  0.30000000000E+03 0.  1.
        -52   -1    0    0    0    0 -0.00000000000E+00 -0.00000000000E+00 -0.64930732323E+04  0.65000000000E+04  0.30000000000E+03 0. -1.
     100001    1    1    2    0    0 -0.49227561097E+04 -0.24309039707E+04 -0.34762807595E+04  0.65000000000E+04  0.15050000000E+03 0. -1.
     100001    1    1    2    0    0  0.49227561097E+04  0.24309039707E+04  0.34762807595E+04  0.65000000000E+04  0.15050000000E+03 0.  1.
</event>
<event>
 4    1  0.4521369E-004  0.6500000E+04  0.7818608E-02  0.7223770E-01
         52   -1    0    0    0    0  0.00000000000E+00  0.00000000000E+00  0.64930732323E+04  0.65000000000E+04  0.30000000000E+03 0.  1.
        -52   -1    0    0    0    0 -0.00000000000E+00 -0.00000000000E+00 -0.64930732323E+04  0.65000000000E+04  0.30000000000E+03 0. -1.
     100001    1    1    2    0    0 -0.54543156247E+03 -0.16435321293E+04  0.62632783988E+04  0.65000000000E+04  0.15050000000E+03 0.  1.
     100001    1    1    2    0    0  0.54543156247E+03  0.16435321293E+04 -0.62632783988E+04  0.65000000000E+04  0.15050000000E+03 0. -1.
</event>
<event>
 4    1  0.4521369E-004  0.6500000E+04  0.7818608E-02  0.7223770E-01
         52   -1    0    0    0    0  0.00000000000E+00  0.00000000000E+00  0.64930732323E+04  0.65000000000E+04  0.30000000000E+03 0.  1.
        -52   -1    0    0    0    0 -0.00000000000E+00 -0.00000000000E+00 -0.64930732323E+04  0.65000000000E+04  0.30000000000E+03 0. -1.
     100001    1    1    2    0    0 -0.22403217682E+04 -0.18296276099E+04  0.58190008536E+04  0.65000000000E+04  0.15050000000E+03 0.  1.
     100001    1    1    2    0    0  0.22403217682E+04  0.18296276099E+04 -0.58190008536E+04  0.65000000000E+04  0.15050000000E+03 0. -1.
</event>
<event>
 4    1  0.4521369E-004  0.6500000E+04  0.7818608E-02  0.7223770E-01
         52   -1    0    0    0    0  0.00000000000E+00  0.00000000000E+00  0.64930732323E+04  0.65000000000E+04  0.30000000000E+03 0.  1.
        -52   -1    0    0    0    0 -0.00000000000E+00 -0.00000000000E+00 -0.64930732323E+04  0.65000000000E+04  0.30000000000E+03 0. -1.
     100001    1    1    2    0    0  0.38657748526E+03  0.18365303957E+03  0.64841482987E+04  0.65000000000E+04  0.15050000000E+03 0.  1.
     100001    1    1    2    0    0 -0.38657748526E+03 -0.18365303957E+03 -0.64841482987E+04  0.65000000000E+04  0.15050000000E+03 0. -1.
</event>
<event>
 4    1  0.4521369E-004  0.6500000E+04  0.7818608E-02  0.7223770E-01
         52   -1    0    0    0    0  0.00000000000E+00  0.00000000000E+00  0.64930732323E+04  0.65000000000E+04  0.30000000000E+03 0.  1.
        -52   -1    0    0    0    0 -0.00000000000E+00 -0.00000000000E+00 -0.64930732323E+04  0.65000000000E+04  0.30000000000E+03 0. -1.
     100001    1    1    2    0    0 -0.38383442779E+04 -0.42095971642E+04 -0.31263004765E+04  0.65000000000E+04  0.15050000000E+03 0. -1.
     100001    1    1    2    0    0  0.38383442779E+04  0.42095971642E+04  0.31263004765E+04  0.65000000000E+04  0.15050000000E+03 0.  1.
</event>
<event>
 4    1  0.4521369E-004  0.6500000E+04  0.7818608E-02  0.7223770E-01
         52   -1    0    0    0    0  0.00000000000E+00  0.00000000000E+00  0.64930732323E+04  0.65000000000E+04  0.30000000000E+03 0. -1.
        -52   -1    0    0    0    0 -0.00000000000E+00 -0.00000000000E+00 -0.64930732323E+04  0.65000000000E+04  0.30000000000E+03 0.  1.
     100001    1    1    2    0    0 -0.14291127179E+04 -0.20146046589E+04  0.60105203317E+04  0.65000000000E+04  0.15050000000E+03 0. -1.
     100001    1    1    2    0    0  0.14291127179E+04  0.20146046589E+04 -0.60105203317E+04  0.65000000000E+04  0.15050000000E+03 0.  1.
</event>
<event>
 4    1  0.4521369E-004  0.6500000E+04  0.7818608E-02  0.7223770E-01
         52   -1    0    0    0    0  0.00000000000E+00  0.00000000000E+00  0.64930732323E+04  0.65000000000E+04  0.30000000000E+03 0. -1.
        -52   -1    0    0    0    0 -0.00000000000E+00 -0.00000000000E+00 -0.64930732323E+04  0.65000000000E+04  0.30000000000E+03 0. -1.
     100001    1    1    2    0    0 -0.42547767259E+01  0.35067128095E+03 -0.64887873520E+04  0.65000000000E+04  0.15050000000E+03 0. -1.
     100001    1    1    2    0    0  0.42547767259E+01 -0.35067128095E+03  0.64887873520E+04  0.65000000000E+04  0.15050000000E+03 0. -1.
</event>
<event>
 4    1  0.4521369E-004  0.6500000E+04  0.7818608E-02  0.7223770E-01
         52   -1    0    0    0    0  0.00000000000E+00  0.00000000000E+00  0.64930732323E+04  0.65000000000E+04  0.30000000000E+03 0.  1.
        -52   -1    0    0    0    0 -0.00000000000E+00 -0.00000000000E+00 -0.64930732323E+04  0.65000000000E+04  0.30000000000E+03 0. -1.
     100001    1    1    2    0    0  0.49342344763E+03  0.31424672463E+03 -0.64718723757E+04  0.65000000000E+04  0.15050000000E+03 0. -1.
     100001    1    1    2    0    0 -0.49342344763E+03 -0.31424672463E+03  0.64718723757E+04  0.65000000000E+04  0.15050000000E+03 0.  1.
</event>
<event>
 4    1  0.4521369E-004  0.6500000E+04  0.7818608E-02  0.7223770E-01
         52   -1    0    0    0    0  0.00000000000E+00  0.00000000000E+00  0.64930732323E+04  0.65000000000E+04  0.30000000000E+03 0.  1.
        -52   -1    0    0    0    0 -0.00000000000E+00 -0.00000000000E+00 -0.64930732323E+04  0.65000000000E+04  0.30000000000E+03 0. -1.
     100001    1    1    2    0    0 -0.20425090856E+04 -0.35265761967E+04 -0.50614984653E+04  0.65000000000E+04  0.15050000000E+03 0. -1.
     100001    1    1    2    0    0  0.20425090856E+04  0.35265761967E+04  0.50614984653E+04  0.65000000000E+04  0.15050000000E+03 0.  1.
</event>
<event>
 4    1  0.4521369E-004  0.6500000E+04  0.7818608E-02  0.7223770E-01
         52   -1    0    0    0    0  0.00000000000E+00  0.00000000000E+00  0.64930732323E+04  0.65000000000E+04  0.30000000000E+03 0.  1.
        -52   -1    0    0    0    0 -0.00000000000E+00 -0.00000000000E+00 -0.64930732323E+04  0.65000000000E+04  0.30000000000E+03 0. -1.
     100001    1    1    2    0    0 -0.14380491401E+04  0.40824156949E+04 -0.48469832385E+04  0.65000000000E+04  0.15050000000E+03 0. -1.
     100001    1    1    2    0    0  0.14380491401E+04 -0.40824156949E+04  0.48469832385E+04  0.65000000000E+04  0.15050000000E+03 0.  1.
</event>
<event>
 4    1  0.4521369E-004  0.6500000E+04  0.7818608E-02  0.7223770E-01
         52   -1    0    0    0    0  0.00000000000E+00  0.00000000000E+00  0.64930732323E+04  0.65000000000E+04  0.30000000000E+03 0. -1.
        -52   -1    0    0    0    0 -0.00000000000E+00 -0.00000000000E+00 -0.64930732323E+04  0.65000000000E+04  0.30000000000E+03 0.  1.
     100001    1    1    2    0    0 -0.19166662726E+03  0.50609629939E+03 -0.64756837623E+04  0.65000000000E+04  0.15050000000E+03 0.  1.
     100001    1    1    2    0    0  0.19166662726E+03 -0.50609629939E+03  0.64756837623E+04  0.65000000000E+04  0.15050000000E+03 0. -1.
</event>
<event>
 4    1  0.4521369E-004  0.6500000E+04  0.7818608E-02  0.7223770E-01
         52   -1    0    0    0    0  0.00000000000E+00  0.00000000000E+00  0.64930732323E+04  0.65000000000E+04  0.30000000000E+03 0. -1.
        -52   -1    0    0    0    0 -0.00000000000E+00 -0.00000000000E+00 -0.64930732323E+04  0.65000000000E+04  0.30000000000E+03 0.  1.
     100001    1    1    2    0    0  0.24735721317E+04 -0.89137438902E+02  0.60083978876E+04  0.65000000000E+04  0.15050000000E+03 0. -1.
     100001    1    1    2    0    0 -0.24735721317E+04  0.89137438902E+02 -0.60083978876E+04  0.65000000000E+04  0.15050000000E+03 0.  1.
</event>
<event>
 4    1  0.4521369E-004  0.6500000E+04  0.7818608E-02  0.7223770E-01
         52   -1    0    0    0    0  0.00000000000E+00  0.00000000000E+00  0.64930732323E+04  0.65000000000E+04  0.30000000000E+03 0. -1.
        -52   -1    0    0    0    0 -0.00000000000E+00 -0.00000000000E+00 -0.64930732323E+04  0.65000000000E+04  0.30000000000E+03 0.  1.
     100001    1    1    2    0    0 -0.40901058515E+04 -0.16433762503E+04  0.47746935371E+04  0.65000000000E+04  0.15050000000E+03 0. -1.
     100001    1    1    2    0    0  0.40901058515E+04  0.16433762503E+04 -0.47746935371E+04  0.65000000000E+04  0.15050000000E+03 0.  1.
</event>
<event>
 4    1  0.4521369E-004  0.6500000E+04  0.7818608E-02  0.7223770E-01
         52   -1    0    0    0    0  0.00000000000E+00  0.00000000000E+00  0.64930732323E+04  0.65000000000E+04  0.30000000000E+03 0. -1.
        -52   -1    0    0    0    0 -0.00000000000E+00 -0.00000000000E+00 -0.64930732323E+04  0.65000000000E+04  0.30000000000E+03 0.  1.
     100001    1    1    2    0    0 -0.30056040214E+03  0.74773493990E+03  0.64480931797E+04  0.65000000000E+04  0.15050000000E+03 0. -1.
     100001    1    1    2    0    0  0.30056040214E+03 -0.74773493990E+03 -0.64480931797E+04  0.65000000000E+04  0.15050000000E+03 0.  1.
</event>
<event>
 4    1  0.4521369E-004  0.6500000E+04  0.7818608E-02  0.7223770E-01
         52   -1    0    0    0    0  0.00000000000E+00  0.00000000000E+00  0.64930732323E+04  0.65000000000E+04  0.30000000000E+03 0. -1.
        -52   -1    0    0    0    0 -0.00000000000E+00 -0.00000000000E+00 -0.64930732323E+04  0.65000000000E+04  0.30000000000E+03 0.  1.
     100001    1    1    2    0    0  0.95433529045E+03 -0.55367517699E+04 -0.32651146599E+04  0.65000000000E+04  0.15050000000E+03 0.  1.
     100001    1    1    2    0    0 -0.95433529045E+03  0.55367517699E+04  0.32651146599E+04  0.65000000000E+04  0.15050000000E+03 0. -1.
</event>
<event>
 4    1  0.4521369E-004  0.6500000E+04  0.7818608E-02  0.7223770E-01
         52   -1    0    0    0    0  0.00000000000E+00  0.00000000000E+00  0.64930732323E+04  0.65000000000E+04  0.30000000000E+03 0. -1.
        -52   -1    0    0    0    0 -0.00000000000E+00 -0.00000000000E+00 -0.64930732323E+04  0.65000000000E+04  0.30000000000E+03 0.  1.
     100001    1    1    2    0    0  0.57972892342E+03 -0.42329200940E+04 -0.48962895751E+04  0.65000000000E+04  0.15050000000E+03 0.  1.
     100001    1    1    2    0    0 -0.57972892342E+03  0.42329200940E+04  0.48962895751E+04  0.65000000000E+04  0.15050000000E+03 0. -1.
</event>
<event>
 4    1  0.4521369E-004  0.6500000E+04  0.7818608E-02  0.7223770E-01
         52   -1    0    0    0    0  0.00000000000E+00  0.00000000000E+00  0.64930732323E+04  0.65000000000E+04  0.30000000000E+03 0.  1.
        -52   -1    0    0    0    0 -0.00000000000E+00 -0.00000000000E+00 -0.64930732323E+04  0.65000000000E+04  0.30000000000E+03 0.  1.
     100001    1    1    2    0    0  0.62973379506E+03 -0.25594765459E+03 -0.64626059678E+04  0.65000000000E+04  0.15050000000E+03 0.  1.
     100001    1    1    2    0    0 -0.62973379506E+03  0.25594765459E+03  0.64626059678E+04  0.65000000000E+04  0.15050000000E+03 0.  1.
</event>
<event>
 4    1  0.4521369E-004  0.6500000E+04  0.7818608E-02  0.7223770E-01
         52   -1    0    0    0    0  0.00000000000E+00  0.00000000000E+00  0.64930732323E+04  0.65000000000E+04  0.30000000000E+03 0.  1.
        -52   -1    0    0    0    0 -0.00000000000E+00 -0.00000000000E+00 -0.64930732323E+04  0.65000000000E+04  0.30000000000E+03 0. -1.
     100001    1    1    2    0    0 -0.21722453296E+04 -0.14522898501E+04 -0.59497524460E+04  0.65000000000E+04  0.15050000000E+03 0. -1.
     100001    1    1    2    0    0  0.21722453296E+04  0.14522898501E+04  0.59497524460E+04  0.65000000000E+04  0.15050000000E+03 0.  1.
</event>
<event>
 4    1  0.4521369E-004  0.6500000E+04  0.7818608E-02  0.7223770E-01
         52   -1    0    0    0    0  0.00000000000E+00  0.00000000000E+00  0.64930732323E+04  0.65000000000E+04  0.30000000000E+03 0. -1.
        -52   -1    0    0    0    0 -0.00000000000E+00 -0.00000000000E+00 -0.64930732323E+04  0.65000000000E+04  0.30000000000E+03 0. -1.
     100001    1    1    2    0    0  0.68066527880E+02  0.22645243052E+03 -0.64939538029E+04  0.65000000000E+04  0.15050000000E+03 0. -1.
     100001    1    1    2    0    0 -0.68066527880E+02 -0.22645243052E+03  0.64939538029E+04  0.65000000000E+04  0.15050000000E+03 0. -1.
</event>
<event>
 4    1  0.4521369E-004  0.6500000E+04  0.7818608E-02  0.7223770E-01
         52   -1    0    0    0    0  0.00000000000E+00  0.00000000000E+00  0.64930732323E+04  0.65000000000E+04  0.30000000000E+03 0.  1.
        -52   -1    0    0    0    0 -0.00000000000E+00 -0.00000000000E+00 -0.64930732323E+04  0.65000000000E+04  0.30000000000E+03 0. -1.
     100001    1    1    2    0    0  0.38238347584E+04 -0.18830860555E+04 -0.49050611003E+04  0.65000000000E+04  0.15050000000E+03 0. -1.
     100001    1    1    2    0    0 -0.38238347584E+04  0.18830860555E+04  0.49050611003E+04  0.65000000000E+04  0.15050000000E+03 0.  1.
</event>
<event>
 4    1  0.4521369E-004  0.6500000E+04  0.7818608E-02  0.7223770E-01
         52   -1    0    0    0    0  0.00000000000E+00  0.00000000000E+00  0.64930732323E+04  0.65000000000E+04  0.30000000000E+03 0. -1.
        -52   -1    0    0    0    0 -0.00000000000E+00 -0.00000000000E+00 -0.64930732323E+04  0.65000000000E+04  0.30000000000E+03 0. -1.
     100001    1    1    2    0    0 -0.26639956044E+03  0.82295765316E+03 -0.64404286911E+04  0.65000000000E+04  0.15050000000E+03 0. -1.
     100001    1    1    2    0    0  0.26639956044E+03 -0.82295765316E+03  0.64404286911E+04  0.65000000000E+04  0.15050000000E+03 0. -1.
</event>
<event>
 4    1  0.4521369E-004  0.6500000E+04  0.7818608E-02  0.7223770E-01
         52   -1    0    0    0    0  0.00000000000E+00  0.00000000000E+00  0.64930732323E+04  0.65000000000E+04  0.30000000000E+03 0.  1.
        -52   -1    0    0    0    0 -0.00000000000E+00 -0.00000000000E+00 -0.64930732323E+04  0.65000000000E+04  0.30000000000E+03 0. -1.
     100001    1    1    2    0    0 -0.60667869548E+03 -0.23920228451E+03 -0.64654522640E+04  0.65000000000E+04  0.15050000000E+03 0. -1.
     100001    1    1    2    0    0  0.60667869548E+03  0.23920228451E+03  0.64654522640E+04  0.65000000000E+04  0.15050000000E+03 0.  1.
</event>
<event>
 4    1  0.4521369E-004  0.6500000E+04  0.7818608E-02  0.7223770E-01
         52   -1    0    0    0    0  0.00000000000E+00  0.00000000000E+00  0.64930732323E+04  0.65000000000E+04  0.30000000000E+03 0.  1.
        -52   -1    0    0    0    0 -0.00000000000E+00 -0.00000000000E+00 -0.64930732323E+04  0.65000000000E+04  0.30000000000E+03 0. -1.
     100001    1    1    2    0    0 -0.28732240172E+03  0.48454595051E+03  0.64737941587E+04  0.65000000000E+04  0.15050000000E+03 0.  1.
     100001    1    1    2    0    0  0.28732240172E+03 -0.48454595051E+03 -0.64737941587E+04  0.65000000000E+04  0.15050000000E+03 0. -1.
</event>
<event>
 4    1  0.4521369E-004  0.6500000E+04  0.7818608E-02  0.7223770E-01
         52   -1    0    0    0    0  0.00000000000E+00  0.00000000000E+00  0.64930732323E+04  0.65000000000E+04  0.30000000000E+03 0.  1.
        -52   -1    0    0    0    0 -0.00000000000E+00 -0.00000000000E+00 -0.64930732323E+04  0.65000000000E+04  0.30000000000E+03 0. -1.
     100001    1    1    2    0    0 -0.95890244533E+03  0.21739205317E+03 -0.64234411763E+04  0.65000000000E+04  0.15050000000E+03 0. -1.
     100001    1    1    2    0    0  0.95890244533E+03 -0.21739205317E+03  0.64234411763E+04  0.65000000000E+04  0.15050000000E+03 0.  1.
</event>
<event>
 4    1  0.4521369E-004  0.6500000E+04  0.7818608E-02  0.7223770E-01
         52   -1    0    0    0    0  0.00000000000E+00  0.00000000000E+00  0.64930732323E+04  0.65000000000E+04  0.30000000000E+03 0.  1.
        -52   -1    0    0    0    0 -0.00000000000E+00 -0.00000000000E+00 -0.64930732323E+04  0.65000000000E+04  0.30000000000E+03 0. -1.
     100001    1    1    2    0    0  0.44469624649E+04  0.26991971723E+04 -0.38943817494E+04  0.65000000000E+04  0.15050000000E+03 0. -1.
     100001    1    1    2    0    0 -0.44469624649E+04 -0.26991971723E+04  0.38943817494E+04  0.65000000000E+04  0.15050000000E+03 0.  1.
</event>
<event>
 4    1  0.4521369E-004  0.6500000E+04  0.7818608E-02  0.7223770E-01
         52   -1    0    0    0    0  0.00000000000E+00  0.00000000000E+00  0.64930732323E+04  0.65000000000E+04  0.30000000000E+03 0.  1.
        -52   -1    0    0    0    0 -0.00000000000E+00 -0.00000000000E+00 -0.64930732323E+04  0.65000000000E+04  0.30000000000E+03 0. -1.
     100001    1    1    2    0    0 -0.63749105968E+03 -0.26645081498E+04  0.58924826023E+04  0.65000000000E+04  0.15050000000E+03 0.  1.
     100001    1    1    2    0    0  0.63749105968E+03  0.26645081498E+04 -0.58924826023E+04  0.65000000000E+04  0.15050000000E+03 0. -1.
</event>
<event>
 4    1  0.4521369E-004  0.6500000E+04  0.7818608E-02  0.7223770E-01
         52   -1    0    0    0    0  0.00000000000E+00  0.00000000000E+00  0.64930732323E+04  0.65000000000E+04  0.30000000000E+03 0.  1.
        -52   -1    0    0    0    0 -0.00000000000E+00 -0.00000000000E+00 -0.64930732323E+04  0.65000000000E+04  0.30000000000E+03 0. -1.
     100001    1    1    2    0    0 -0.17087993644E+03 -0.12253599169E+03  0.64948544809E+04  0.65000000000E+04  0.15050000000E+03 0.  1.
     100001    1    1    2    0    0  0.17087993644E+03  0.12253599169E+03 -0.64948544809E+04  0.65000000000E+04  0.15050000000E+03 0. -1.
</event>
<event>
 4    1  0.4521369E-004  0.6500000E+04  0.7818608E-02  0.7223770E-01
         52   -1    0    0    0    0  0.00000000000E+00  0.00000000000E+00  0.64930732323E+04  0.65000000000E+04  0.30000000000E+03 0.  1.
        -52   -1    0    0    0    0 -0.00000000000E+00 -0.00000000000E+00 -0.64930732323E+04  0.65000000000E+04  0.30000000000E+03 0. -1.
     100001    1    1    2    0    0 -0.11009759423E+03  0.37259038820E+03 -0.64866327684E+04  0.65000000000E+04  0.15050000000E+03 0. -1.
     100001    1    1    2    0    0  0.11009759423E+03 -0.37259038820E+03  0.64866327684E+04  0.65000000000E+04  0.15050000000E+03 0.  1.
</event>
<event>
 4    1  0.4521369E-004  0.6500000E+04  0.7818608E-02  0.7223770E-01
         52   -1    0    0    0    0  0.00000000000E+00  0.00000000000E+00  0.64930732323E+04  0.65000000000E+04  0.30000000000E+03 0. -1.
        -52   -1    0    0    0    0 -0.00000000000E+00 -0.00000000000E+00 -0.64930732323E+04  0.65000000000E+04  0.30000000000E+03 0.  1.
     100001    1    1    2    0    0 -0.30827022632E+03 -0.45263646665E+02 -0.64907834981E+04  0.65000000000E+04  0.15050000000E+03 0.  1.
     100001    1    1    2    0    0  0.30827022632E+03  0.45263646665E+02  0.64907834981E+04  0.65000000000E+04  0.15050000000E+03 0. -1.
</event>
<event>
 4    1  0.4521369E-004  0.6500000E+04  0.7818608E-02  0.7223770E-01
         52   -1    0    0    0    0  0.00000000000E+00  0.00000000000E+00  0.64930732323E+04  0.65000000000E+04  0.30000000000E+03 0. -1.
        -52   -1    0    0    0    0 -0.00000000000E+00 -0.00000000000E+00 -0.64930732323E+04  0.65000000000E+04  0.30000000000E+03 0.  1.
     100001    1    1    2    0    0 -0.13966771298E+04  0.15539451923E+04  0.61532021813E+04  0.65000000000E+04  0.15050000000E+03 0. -1.
     100001    1    1    2    0    0  0.13966771298E+04 -0.15539451923E+04 -0.61532021813E+04  0.65000000000E+04  0.15050000000E+03 0.  1.
</event>
<event>
 4    1  0.4521369E-004  0.6500000E+04  0.7818608E-02  0.7223770E-01
         52   -1    0    0    0    0  0.00000000000E+00  0.00000000000E+00  0.64930732323E+04  0.65000000000E+04  0.30000000000E+03 0. -1.
        -52   -1    0    0    0    0 -0.00000000000E+00 -0.00000000000E+00 -0.64930732323E+04  0.65000000000E+04  0.30000000000E+03 0.  1.
     100001    1    1    2    0    0 -0.49012073271E+03 -0.45906811295E+03 -0.64634656250E+04  0.65000000000E+04  0.15050000000E+03 0.  1.
     100001    1    1    2    0    0  0.49012073271E+03  0.45906811295E+03  0.64634656250E+04  0.65000000000E+04  0.15050000000E+03 0. -1.
</event>
<event>
 4    1  0.4521369E-004  0.6500000E+04  0.7818608E-02  0.7223770E-01
         52   -1    0    0    0    0  0.00000000000E+00  0.00000000000E+00  0.64930732323E+04  0.65000000000E+04  0.30000000000E+03 0.  1.
        -52   -1    0    0    0    0 -0.00000000000E+00 -0.00000000000E+00 -0.64930732323E+04  0.65000000000E+04  0.30000000000E+03 0. -1.
     100001    1    1    2    0    0  0.23768193601E+04 -0.26762851903E+03 -0.60420571377E+04  0.65000000000E+04  0.15050000000E+03 0. -1.
     100001    1    1    2    0    0 -0.23768193601E+04  0.26762851903E+03  0.60420571377E+04  0.65000000000E+04  0.15050000000E+03 0.  1.
</event>
<event>
 4    1  0.4521369E-004  0.6500000E+04  0.7818608E-02  0.7223770E-01
         52   -1    0    0    0    0  0.00000000000E+00  0.00000000000E+00  0.64930732323E+04  0.65000000000E+04  0.30000000000E+03 0. -1.
        -52   -1    0    0    0    0 -0.00000000000E+00 -0.00000000000E+00 -0.64930732323E+04  0.65000000000E+04  0.30000000000E+03 0.  1.
     100001    1    1    2    0    0 -0.14171557260E+04 -0.37234887258E+03 -0.63309063897E+04  0.65000000000E+04  0.15050000000E+03 0.  1.
     100001    1    1    2    0    0  0.14171557260E+04  0.37234887258E+03  0.63309063897E+04  0.65000000000E+04  0.15050000000E+03 0. -1.
</event>
<event>
 4    1  0.4521369E-004  0.6500000E+04  0.7818608E-02  0.7223770E-01
         52   -1    0    0    0    0  0.00000000000E+00  0.00000000000E+00  0.64930732323E+04  0.65000000000E+04  0.30000000000E+03 0.  1.
        -52   -1    0    0    0    0 -0.00000000000E+00 -0.00000000000E+00 -0.64930732323E+04  0.65000000000E+04  0.30000000000E+03 0. -1.
     100001    1    1    2    0    0  0.86754624034E+03  0.10110567514E+04  0.63602262158E+04  0.65000000000E+04  0.15050000000E+03 0.  1.
     100001    1    1    2    0    0 -0.86754624034E+03 -0.10110567514E+04 -0.63602262158E+04  0.65000000000E+04  0.15050000000E+03 0. -1.
</event>
<event>
 4    1  0.4521369E-004  0.6500000E+04  0.7818608E-02  0.7223770E-01
         52   -1    0    0    0    0  0.00000000000E+00  0.00000000000E+00  0.64930732323E+04  0.65000000000E+04  0.30000000000E+03 0. -1.
        -52   -1    0    0    0    0 -0.00000000000E+00 -0.00000000000E+00 -0.64930732323E+04  0.65000000000E+04  0.30000000000E+03 0. -1.
     100001    1    1    2    0    0 -0.20660356898E+03  0.44456265996E+03  0.64797398680E+04  0.65000000000E+04  0.15050000000E+03 0. -1.
     100001    1    1    2    0    0  0.20660356898E+03 -0.44456265996E+03 -0.64797398680E+04  0.65000000000E+04  0.15050000000E+03 0. -1.
</event>
<event>
 4    1  0.4521369E-004  0.6500000E+04  0.7818608E-02  0.7223770E-01
         52   -1    0    0    0    0  0.00000000000E+00  0.00000000000E+00  0.64930732323E+04  0.65000000000E+04  0.30000000000E+03 0. -1.
        -52   -1    0    0    0    0 -0.00000000000E+00 -0.00000000000E+00 -0.64930732323E+04  0.65000000000E+04  0.30000000000E+03 0.  1.
     100001    1    1    2    0    0 -0.32846705292E+03 -0.31405891348E+04 -0.56794505924E+04  0.65000000000E+04  0.15050000000E+03 0.  1.
     100001    1    1    2    0    0  0.32846705292E+03  0.31405891348E+04  0.56794505924E+04  0.65000000000E+04  0.15050000000E+03 0. -1.
</event>
<event>
 4    1  0.4521369E-004  0.6500000E+04  0.7818608E-02  0.7223770E-01
         52   -1    0    0    0    0  0.00000000000E+00  0.00000000000E+00  0.64930732323E+04  0.65000000000E+04  0.30000000000E+03 0. -1.
        -52   -1    0    0    0    0 -0.00000000000E+00 -0.00000000000E+00 -0.64930732323E+04  0.65000000000E+04  0.30000000000E+03 0.  1.
     100001    1    1    2    0    0  0.10601230640E+04 -0.15044483394E+04  0.62321845314E+04  0.65000000000E+04  0.15050000000E+03 0. -1.
     100001    1    1    2    0    0 -0.10601230640E+04  0.15044483394E+04 -0.62321845314E+04  0.65000000000E+04  0.15050000000E+03 0.  1.
</event>
<event>
 4    1  0.4521369E-004  0.6500000E+04  0.7818608E-02  0.7223770E-01
         52   -1    0    0    0    0  0.00000000000E+00  0.00000000000E+00  0.64930732323E+04  0.65000000000E+04  0.30000000000E+03 0.  1.
        -52   -1    0    0    0    0 -0.00000000000E+00 -0.00000000000E+00 -0.64930732323E+04  0.65000000000E+04  0.30000000000E+03 0.  1.
     100001    1    1    2    0    0 -0.73614642406E+03  0.92633615970E+02  0.64557615512E+04  0.65000000000E+04  0.15050000000E+03 0.  1.
     100001    1    1    2    0    0  0.73614642406E+03 -0.92633615970E+02 -0.64557615512E+04  0.65000000000E+04  0.15050000000E+03 0.  1.
</event>
<event>
 4    1  0.4521369E-004  0.6500000E+04  0.7818608E-02  0.7223770E-01
         52   -1    0    0    0    0  0.00000000000E+00  0.00000000000E+00  0.64930732323E+04  0.65000000000E+04  0.30000000000E+03 0.  1.
        -52   -1    0    0    0    0 -0.00000000000E+00 -0.00000000000E+00 -0.64930732323E+04  0.65000000000E+04  0.30000000000E+03 0. -1.
     100001    1    1    2    0    0  0.23670781096E+04 -0.16411754555E+04 -0.58250179482E+04  0.65000000000E+04  0.15050000000E+03 0. -1.
     100001    1    1    2    0    0 -0.23670781096E+04  0.16411754555E+04  0.58250179482E+04  0.65000000000E+04  0.15050000000E+03 0.  1.
</event>
<event>
 4    1  0.4521369E-004  0.6500000E+04  0.7818608E-02  0.7223770E-01
         52   -1    0    0    0    0  0.00000000000E+00  0.00000000000E+00  0.64930732323E+04  0.65000000000E+04  0.30000000000E+03 0.  1.
        -52   -1    0    0    0    0 -0.00000000000E+00 -0.00000000000E+00 -0.64930732323E+04  0.65000000000E+04  0.30000000000E+03 0. -1.
     100001    1    1    2    0    0 -0.11046588383E+04 -0.21092549730E+04  0.60463312893E+04  0.65000000000E+04  0.15050000000E+03 0.  1.
     100001    1    1    2    0    0  0.11046588383E+04  0.21092549730E+04 -0.60463312893E+04  0.65000000000E+04  0.15050000000E+03 0. -1.
</event>
<event>
 4    1  0.4521369E-004  0.6500000E+04  0.7818608E-02  0.7223770E-01
         52   -1    0    0    0    0  0.00000000000E+00  0.00000000000E+00  0.64930732323E+04  0.65000000000E+04  0.30000000000E+03 0. -1.
        -52   -1    0    0    0    0 -0.00000000000E+00 -0.00000000000E+00 -0.64930732323E+04  0.65000000000E+04  0.30000000000E+03 0. -1.
     100001    1    1    2    0    0 -0.12536153931E+03 -0.32238639705E+02 -0.64969681317E+04  0.65000000000E+04  0.15050000000E+03 0. -1.
     100001    1    1    2    0    0  0.12536153931E+03  0.32238639705E+02  0.64969681317E+04  0.65000000000E+04  0.15050000000E+03 0. -1.
</event>
<event>
 4    1  0.4521369E-004  0.6500000E+04  0.7818608E-02  0.7223770E-01
         52   -1    0    0    0    0  0.00000000000E+00  0.00000000000E+00  0.64930732323E+04  0.65000000000E+04  0.30000000000E+03 0.  1.
        -52   -1    0    0    0    0 -0.00000000000E+00 -0.00000000000E+00 -0.64930732323E+04  0.65000000000E+04  0.30000000000E+03 0. -1.
     100001    1    1    2    0    0 -0.40392221747E+03  0.10164095686E+04  0.64055529177E+04  0.65000000000E+04  0.15050000000E+03 0.  1.
     100001    1    1    2    0    0  0.40392221747E+03 -0.10164095686E+04 -0.64055529177E+04  0.65000000000E+04  0.15050000000E+03 0. -1.
</event>
<event>
 4    1  0.4521369E-004  0.6500000E+04  0.7818608E-02  0.7223770E-01
         52   -1    0    0    0    0  0.00000000000E+00  0.00000000000E+00  0.64930732323E+04  0.65000000000E+04  0.30000000000E+03 0. -1.
        -52   -1    0    0    0    0 -0.00000000000E+00 -0.00000000000E+00 -0.64930732323E+04  0.65000000000E+04  0.30000000000E+03 0.  1.
     100001    1    1    2    0    0  0.80482311393E+03  0.61328805721E+04 -0.19918296599E+04  0.65000000000E+04  0.15050000000E+03 0. -1.
     100001    1    1    2    0    0 -0.80482311393E+03 -0.61328805721E+04  0.19918296599E+04  0.65000000000E+04  0.15050000000E+03 0.  1.
</event>
<event>
 4    1  0.4521369E-004  0.6500000E+04  0.7818608E-02  0.7223770E-01
         52   -1    0    0    0    0  0.00000000000E+00  0.00000000000E+00  0.64930732323E+04  0.65000000000E+04  0.30000000000E+03 0. -1.
        -52   -1    0    0    0    0 -0.00000000000E+00 -0.00000000000E+00 -0.64930732323E+04  0.65000000000E+04  0.30000000000E+03 0.  1.
     100001    1    1    2    0    0  0.68030024874E+03  0.42989015279E+03 -0.64482350902E+04  0.65000000000E+04  0.15050000000E+03 0.  1.
     100001    1    1    2    0    0 -0.68030024874E+03 -0.42989015279E+03  0.64482350902E+04  0.65000000000E+04  0.15050000000E+03 0. -1.
</event>
<event>
 4    1  0.4521369E-004  0.6500000E+04  0.7818608E-02  0.7223770E-01
         52   -1    0    0    0    0  0.00000000000E+00  0.00000000000E+00  0.64930732323E+04  0.65000000000E+04  0.30000000000E+03 0. -1.
        -52   -1    0    0    0    0 -0.00000000000E+00 -0.00000000000E+00 -0.64930732323E+04  0.65000000000E+04  0.30000000000E+03 0.  1.
     100001    1    1    2    0    0 -0.47686062539E+03 -0.21328832350E+03  0.64772263960E+04  0.65000000000E+04  0.15050000000E+03 0. -1.
     100001    1    1    2    0    0  0.47686062539E+03  0.21328832350E+03 -0.64772263960E+04  0.65000000000E+04  0.15050000000E+03 0.  1.
</event>
<event>
 4    1  0.4521369E-004  0.6500000E+04  0.7818608E-02  0.7223770E-01
         52   -1    0    0    0    0  0.00000000000E+00  0.00000000000E+00  0.64930732323E+04  0.65000000000E+04  0.30000000000E+03 0. -1.
        -52   -1    0    0    0    0 -0.00000000000E+00 -0.00000000000E+00 -0.64930732323E+04  0.65000000000E+04  0.30000000000E+03 0.  1.
     100001    1    1    2    0    0 -0.39752381205E+04 -0.33183977639E+04  0.39259480277E+04  0.65000000000E+04  0.15050000000E+03 0. -1.
     100001    1    1    2    0    0  0.39752381205E+04  0.33183977639E+04 -0.39259480277E+04  0.65000000000E+04  0.15050000000E+03 0.  1.
</event>
<event>
 4    1  0.4521369E-004  0.6500000E+04  0.7818608E-02  0.7223770E-01
         52   -1    0    0    0    0  0.00000000000E+00  0.00000000000E+00  0.64930732323E+04  0.65000000000E+04  0.30000000000E+03 0. -1.
        -52   -1    0    0    0    0 -0.00000000000E+00 -0.00000000000E+00 -0.64930732323E+04  0.65000000000E+04  0.30000000000E+03 0.  1.
     100001    1    1    2    0    0 -0.27808221279E+04  0.55028525198E+04  0.20525574751E+04  0.65000000000E+04  0.15050000000E+03 0. -1.
     100001    1    1    2    0    0  0.27808221279E+04 -0.55028525198E+04 -0.20525574751E+04  0.65000000000E+04  0.15050000000E+03 0.  1.
</event>
<event>
 4    1  0.4531500E-004  0.6500000E+04  0.7818608E-02  0.7223770E-01
         52   -1    0    0    0    0  0.00000000000E+00  0.00000000000E+00  0.64930732323E+04  0.65000000000E+04  0.30000000000E+03 0. -1.
        -52   -1    0    0    0    0 -0.00000000000E+00 -0.00000000000E+00 -0.64930732323E+04  0.65000000000E+04  0.30000000000E+03 0.  1.
     100001    1    1    2    0    0 -0.27961178994E+03 -0.10462652727E+03 -0.64913958658E+04  0.65000000000E+04  0.15050000000E+03 0.  1.
     100001    1    1    2    0    0  0.27961178994E+03  0.10462652727E+03  0.64913958658E+04  0.65000000000E+04  0.15050000000E+03 0. -1.
</event>
<event>
 4    1  0.4521369E-004  0.6500000E+04  0.7818608E-02  0.7223770E-01
         52   -1    0    0    0    0  0.00000000000E+00  0.00000000000E+00  0.64930732323E+04  0.65000000000E+04  0.30000000000E+03 0. -1.
        -52   -1    0    0    0    0 -0.00000000000E+00 -0.00000000000E+00 -0.64930732323E+04  0.65000000000E+04  0.30000000000E+03 0.  1.
     100001    1    1    2    0    0  0.41318711343E+03  0.34620419228E+04 -0.54836932704E+04  0.65000000000E+04  0.15050000000E+03 0.  1.
     100001    1    1    2    0    0 -0.41318711343E+03 -0.34620419228E+04  0.54836932704E+04  0.65000000000E+04  0.15050000000E+03 0. -1.
</event>
<event>
 4    1  0.4521369E-004  0.6500000E+04  0.7818608E-02  0.7223770E-01
         52   -1    0    0    0    0  0.00000000000E+00  0.00000000000E+00  0.64930732323E+04  0.65000000000E+04  0.30000000000E+03 0.  1.
        -52   -1    0    0    0    0 -0.00000000000E+00 -0.00000000000E+00 -0.64930732323E+04  0.65000000000E+04  0.30000000000E+03 0. -1.
     100001    1    1    2    0    0  0.26459514431E+03  0.40194635860E+03  0.64804149778E+04  0.65000000000E+04  0.15050000000E+03 0.  1.
     100001    1    1    2    0    0 -0.26459514431E+03 -0.40194635860E+03 -0.64804149778E+04  0.65000000000E+04  0.15050000000E+03 0. -1.
</event>
<event>
 4    1  0.4521369E-004  0.6500000E+04  0.7818608E-02  0.7223770E-01
         52   -1    0    0    0    0  0.00000000000E+00  0.00000000000E+00  0.64930732323E+04  0.65000000000E+04  0.30000000000E+03 0. -1.
        -52   -1    0    0    0    0 -0.00000000000E+00 -0.00000000000E+00 -0.64930732323E+04  0.65000000000E+04  0.30000000000E+03 0.  1.
     100001    1    1    2    0    0  0.17807404408E+04 -0.34874390713E+04 -0.51859504391E+04  0.65000000000E+04  0.15050000000E+03 0.  1.
     100001    1    1    2    0    0 -0.17807404408E+04  0.34874390713E+04  0.51859504391E+04  0.65000000000E+04  0.15050000000E+03 0. -1.
</event>
<event>
 4    1  0.4521369E-004  0.6500000E+04  0.7818608E-02  0.7223770E-01
         52   -1    0    0    0    0  0.00000000000E+00  0.00000000000E+00  0.64930732323E+04  0.65000000000E+04  0.30000000000E+03 0. -1.
        -52   -1    0    0    0    0 -0.00000000000E+00 -0.00000000000E+00 -0.64930732323E+04  0.65000000000E+04  0.30000000000E+03 0.  1.
     100001    1    1    2    0    0 -0.28064154898E+04 -0.57869456948E+04  0.92878489146E+03  0.65000000000E+04  0.15050000000E+03 0.  1.
     100001    1    1    2    0    0  0.28064154898E+04  0.57869456948E+04 -0.92878489146E+03  0.65000000000E+04  0.15050000000E+03 0. -1.
</event>
<event>
 4    1  0.4521369E-004  0.6500000E+04  0.7818608E-02  0.7223770E-01
         52   -1    0    0    0    0  0.00000000000E+00  0.00000000000E+00  0.64930732323E+04  0.65000000000E+04  0.30000000000E+03 0.  1.
        -52   -1    0    0    0    0 -0.00000000000E+00 -0.00000000000E+00 -0.64930732323E+04  0.65000000000E+04  0.30000000000E+03 0. -1.
     100001    1    1    2    0    0  0.16814276266E+03 -0.35545095633E+03  0.64863496960E+04  0.65000000000E+04  0.15050000000E+03 0.  1.
     100001    1    1    2    0    0 -0.16814276266E+03  0.35545095633E+03 -0.64863496960E+04  0.65000000000E+04  0.15050000000E+03 0. -1.
</event>
<event>
 4    1  0.4521369E-004  0.6500000E+04  0.7818608E-02  0.7223770E-01
         52   -1    0    0    0    0  0.00000000000E+00  0.00000000000E+00  0.64930732323E+04  0.65000000000E+04  0.30000000000E+03 0. -1.
        -52   -1    0    0    0    0 -0.00000000000E+00 -0.00000000000E+00 -0.64930732323E+04  0.65000000000E+04  0.30000000000E+03 0.  1.
     100001    1    1    2    0    0  0.89685209429E+03  0.19410027749E+03 -0.64331431784E+04  0.65000000000E+04  0.15050000000E+03 0.  1.
     100001    1    1    2    0    0 -0.89685209429E+03 -0.19410027749E+03  0.64331431784E+04  0.65000000000E+04  0.15050000000E+03 0. -1.
</event>
<event>
 4    1  0.4521369E-004  0.6500000E+04  0.7818608E-02  0.7223770E-01
         52   -1    0    0    0    0  0.00000000000E+00  0.00000000000E+00  0.64930732323E+04  0.65000000000E+04  0.30000000000E+03 0.  1.
        -52   -1    0    0    0    0 -0.00000000000E+00 -0.00000000000E+00 -0.64930732323E+04  0.65000000000E+04  0.30000000000E+03 0. -1.
     100001    1    1    2    0    0  0.87227484276E+03 -0.71190493135E+03  0.63999748216E+04  0.65000000000E+04  0.15050000000E+03 0.  1.
     100001    1    1    2    0    0 -0.87227484276E+03  0.71190493135E+03 -0.63999748216E+04  0.65000000000E+04  0.15050000000E+03 0. -1.
</event>
<event>
 4    1  0.4521369E-004  0.6500000E+04  0.7818608E-02  0.7223770E-01
         52   -1    0    0    0    0  0.00000000000E+00  0.00000000000E+00  0.64930732323E+04  0.65000000000E+04  0.30000000000E+03 0.  1.
        -52   -1    0    0    0    0 -0.00000000000E+00 -0.00000000000E+00 -0.64930732323E+04  0.65000000000E+04  0.30000000000E+03 0. -1.
     100001    1    1    2    0    0 -0.60194809206E+04 -0.20301537642E+04  0.13680916966E+04  0.65000000000E+04  0.15050000000E+03 0.  1.
     100001    1    1    2    0    0  0.60194809206E+04  0.20301537642E+04 -0.13680916966E+04  0.65000000000E+04  0.15050000000E+03 0. -1.
</event>
<event>
 4    1  0.4521369E-004  0.6500000E+04  0.7818608E-02  0.7223770E-01
         52   -1    0    0    0    0  0.00000000000E+00  0.00000000000E+00  0.64930732323E+04  0.65000000000E+04  0.30000000000E+03 0. -1.
        -52   -1    0    0    0    0 -0.00000000000E+00 -0.00000000000E+00 -0.64930732323E+04  0.65000000000E+04  0.30000000000E+03 0.  1.
     100001    1    1    2    0    0 -0.38052007634E+03 -0.17090062120E+03  0.64848552181E+04  0.65000000000E+04  0.15050000000E+03 0. -1.
     100001    1    1    2    0    0  0.38052007634E+03  0.17090062120E+03 -0.64848552181E+04  0.65000000000E+04  0.15050000000E+03 0.  1.
</event>
<event>
 4    1  0.4521369E-004  0.6500000E+04  0.7818608E-02  0.7223770E-01
         52   -1    0    0    0    0  0.00000000000E+00  0.00000000000E+00  0.64930732323E+04  0.65000000000E+04  0.30000000000E+03 0. -1.
        -52   -1    0    0    0    0 -0.00000000000E+00 -0.00000000000E+00 -0.64930732323E+04  0.65000000000E+04  0.30000000000E+03 0.  1.
     100001    1    1    2    0    0  0.10213619240E+04 -0.24000130649E+03 -0.64129999956E+04  0.65000000000E+04  0.15050000000E+03 0.  1.
     100001    1    1    2    0    0 -0.10213619240E+04  0.24000130649E+03  0.64129999956E+04  0.65000000000E+04  0.15050000000E+03 0. -1.
</event>
<event>
 4    1  0.4521369E-004  0.6500000E+04  0.7818608E-02  0.7223770E-01
         52   -1    0    0    0    0  0.00000000000E+00  0.00000000000E+00  0.64930732323E+04  0.65000000000E+04  0.30000000000E+03 0.  1.
        -52   -1    0    0    0    0 -0.00000000000E+00 -0.00000000000E+00 -0.64930732323E+04  0.65000000000E+04  0.30000000000E+03 0. -1.
     100001    1    1    2    0    0  0.16209774188E+04  0.39825335897E+03 -0.62802210327E+04  0.65000000000E+04  0.15050000000E+03 0. -1.
     100001    1    1    2    0    0 -0.16209774188E+04 -0.39825335897E+03  0.62802210327E+04  0.65000000000E+04  0.15050000000E+03 0.  1.
</event>
<event>
 4    1  0.4521369E-004  0.6500000E+04  0.7818608E-02  0.7223770E-01
         52   -1    0    0    0    0  0.00000000000E+00  0.00000000000E+00  0.64930732323E+04  0.65000000000E+04  0.30000000000E+03 0. -1.
        -52   -1    0    0    0    0 -0.00000000000E+00 -0.00000000000E+00 -0.64930732323E+04  0.65000000000E+04  0.30000000000E+03 0. -1.
     100001    1    1    2    0    0  0.23629537266E+03 -0.27186308560E+03  0.64882666953E+04  0.65000000000E+04  0.15050000000E+03 0. -1.
     100001    1    1    2    0    0 -0.23629537266E+03  0.27186308560E+03 -0.64882666953E+04  0.65000000000E+04  0.15050000000E+03 0. -1.
</event>
<event>
 4    1  0.4521369E-004  0.6500000E+04  0.7818608E-02  0.7223770E-01
         52   -1    0    0    0    0  0.00000000000E+00  0.00000000000E+00  0.64930732323E+04  0.65000000000E+04  0.30000000000E+03 0. -1.
        -52   -1    0    0    0    0 -0.00000000000E+00 -0.00000000000E+00 -0.64930732323E+04  0.65000000000E+04  0.30000000000E+03 0. -1.
     100001    1    1    2    0    0  0.18006532133E+03  0.33388745683E+03  0.64871754559E+04  0.65000000000E+04  0.15050000000E+03 0. -1.
     100001    1    1    2    0    0 -0.18006532133E+03 -0.33388745683E+03 -0.64871754559E+04  0.65000000000E+04  0.15050000000E+03 0. -1.
</event>
<event>
 4    1  0.4521369E-004  0.6500000E+04  0.7818608E-02  0.7223770E-01
         52   -1    0    0    0    0  0.00000000000E+00  0.00000000000E+00  0.64930732323E+04  0.65000000000E+04  0.30000000000E+03 0.  1.
        -52   -1    0    0    0    0 -0.00000000000E+00 -0.00000000000E+00 -0.64930732323E+04  0.65000000000E+04  0.30000000000E+03 0. -1.
     100001    1    1    2    0    0 -0.15827611266E+04 -0.27163703284E+04 -0.56871389296E+04  0.65000000000E+04  0.15050000000E+03 0. -1.
     100001    1    1    2    0    0  0.15827611266E+04  0.27163703284E+04  0.56871389296E+04  0.65000000000E+04  0.15050000000E+03 0.  1.
</event>
<event>
 4    1  0.4521369E-004  0.6500000E+04  0.7818608E-02  0.7223770E-01
         52   -1    0    0    0    0  0.00000000000E+00  0.00000000000E+00  0.64930732323E+04  0.65000000000E+04  0.30000000000E+03 0. -1.
        -52   -1    0    0    0    0 -0.00000000000E+00 -0.00000000000E+00 -0.64930732323E+04  0.65000000000E+04  0.30000000000E+03 0.  1.
     100001    1    1    2    0    0 -0.74763735495E+03  0.60852412243E+03  0.64263587301E+04  0.65000000000E+04  0.15050000000E+03 0. -1.
     100001    1    1    2    0    0  0.74763735495E+03 -0.60852412243E+03 -0.64263587301E+04  0.65000000000E+04  0.15050000000E+03 0.  1.
</event>
<event>
 4    1  0.4521369E-004  0.6500000E+04  0.7818608E-02  0.7223770E-01
         52   -1    0    0    0    0  0.00000000000E+00  0.00000000000E+00  0.64930732323E+04  0.65000000000E+04  0.30000000000E+03 0.  1.
        -52   -1    0    0    0    0 -0.00000000000E+00 -0.00000000000E+00 -0.64930732323E+04  0.65000000000E+04  0.30000000000E+03 0. -1.
     100001    1    1    2    0    0  0.53705141647E+03 -0.12360942828E+04 -0.63569644053E+04  0.65000000000E+04  0.15050000000E+03 0. -1.
     100001    1    1    2    0    0 -0.53705141647E+03  0.12360942828E+04  0.63569644053E+04  0.65000000000E+04  0.15050000000E+03 0.  1.
</event>
<event>
 4    1  0.4521369E-004  0.6500000E+04  0.7818608E-02  0.7223770E-01
         52   -1    0    0    0    0  0.00000000000E+00  0.00000000000E+00  0.64930732323E+04  0.65000000000E+04  0.30000000000E+03 0.  1.
        -52   -1    0    0    0    0 -0.00000000000E+00 -0.00000000000E+00 -0.64930732323E+04  0.65000000000E+04  0.30000000000E+03 0. -1.
     100001    1    1    2    0    0  0.76516054809E+03 -0.19550624310E+03  0.64500896424E+04  0.65000000000E+04  0.15050000000E+03 0.  1.
     100001    1    1    2    0    0 -0.76516054809E+03  0.19550624310E+03 -0.64500896424E+04  0.65000000000E+04  0.15050000000E+03 0. -1.
</event>
<event>
 4    1  0.4521369E-004  0.6500000E+04  0.7818608E-02  0.7223770E-01
         52   -1    0    0    0    0  0.00000000000E+00  0.00000000000E+00  0.64930732323E+04  0.65000000000E+04  0.30000000000E+03 0.  1.
        -52   -1    0    0    0    0 -0.00000000000E+00 -0.00000000000E+00 -0.64930732323E+04  0.65000000000E+04  0.30000000000E+03 0. -1.
     100001    1    1    2    0    0 -0.32845919293E+04  0.36401664840E+04 -0.42647383949E+04  0.65000000000E+04  0.15050000000E+03 0. -1.
     100001    1    1    2    0    0  0.32845919293E+04 -0.36401664840E+04  0.42647383949E+04  0.65000000000E+04  0.15050000000E+03 0.  1.
</event>
<event>
 4    1  0.4521369E-004  0.6500000E+04  0.7818608E-02  0.7223770E-01
         52   -1    0    0    0    0  0.00000000000E+00  0.00000000000E+00  0.64930732323E+04  0.65000000000E+04  0.30000000000E+03 0. -1.
        -52   -1    0    0    0    0 -0.00000000000E+00 -0.00000000000E+00 -0.64930732323E+04  0.65000000000E+04  0.30000000000E+03 0.  1.
     100001    1    1    2    0    0 -0.10410204717E+04  0.44607430719E+04  0.46092729767E+04  0.65000000000E+04  0.15050000000E+03 0. -1.
     100001    1    1    2    0    0  0.10410204717E+04 -0.44607430719E+04 -0.46092729767E+04  0.65000000000E+04  0.15050000000E+03 0.  1.
</event>
<event>
 4    1  0.4521369E-004  0.6500000E+04  0.7818608E-02  0.7223770E-01
         52   -1    0    0    0    0  0.00000000000E+00  0.00000000000E+00  0.64930732323E+04  0.65000000000E+04  0.30000000000E+03 0. -1.
        -52   -1    0    0    0    0 -0.00000000000E+00 -0.00000000000E+00 -0.64930732323E+04  0.65000000000E+04  0.30000000000E+03 0. -1.
     100001    1    1    2    0    0 -0.24937291002E+02  0.21030510151E+02 -0.64981755593E+04  0.65000000000E+04  0.15050000000E+03 0. -1.
     100001    1    1    2    0    0  0.24937291002E+02 -0.21030510151E+02  0.64981755593E+04  0.65000000000E+04  0.15050000000E+03 0. -1.
</event>
<event>
 4    1  0.4521369E-004  0.6500000E+04  0.7818608E-02  0.7223770E-01
         52   -1    0    0    0    0  0.00000000000E+00  0.00000000000E+00  0.64930732323E+04  0.65000000000E+04  0.30000000000E+03 0. -1.
        -52   -1    0    0    0    0 -0.00000000000E+00 -0.00000000000E+00 -0.64930732323E+04  0.65000000000E+04  0.30000000000E+03 0.  1.
     100001    1    1    2    0    0 -0.25790806624E+04  0.17245278999E+04  0.57097895066E+04  0.65000000000E+04  0.15050000000E+03 0. -1.
     100001    1    1    2    0    0  0.25790806624E+04 -0.17245278999E+04 -0.57097895066E+04  0.65000000000E+04  0.15050000000E+03 0.  1.
</event>
<event>
 4    1  0.4521369E-004  0.6500000E+04  0.7818608E-02  0.7223770E-01
         52   -1    0    0    0    0  0.00000000000E+00  0.00000000000E+00  0.64930732323E+04  0.65000000000E+04  0.30000000000E+03 0. -1.
        -52   -1    0    0    0    0 -0.00000000000E+00 -0.00000000000E+00 -0.64930732323E+04  0.65000000000E+04  0.30000000000E+03 0.  1.
     100001    1    1    2    0    0 -0.18571571085E+04  0.17743386437E+04 -0.59690903496E+04  0.65000000000E+04  0.15050000000E+03 0.  1.
     100001    1    1    2    0    0  0.18571571085E+04 -0.17743386437E+04  0.59690903496E+04  0.65000000000E+04  0.15050000000E+03 0. -1.
</event>
<event>
 4    1  0.4521369E-004  0.6500000E+04  0.7818608E-02  0.7223770E-01
         52   -1    0    0    0    0  0.00000000000E+00  0.00000000000E+00  0.64930732323E+04  0.65000000000E+04  0.30000000000E+03 0. -1.
        -52   -1    0    0    0    0 -0.00000000000E+00 -0.00000000000E+00 -0.64930732323E+04  0.65000000000E+04  0.30000000000E+03 0.  1.
     100001    1    1    2    0    0 -0.73160705779E+03  0.25742376294E+04  0.59216046381E+04  0.65000000000E+04  0.15050000000E+03 0. -1.
     100001    1    1    2    0    0  0.73160705779E+03 -0.25742376294E+04 -0.59216046381E+04  0.65000000000E+04  0.15050000000E+03 0.  1.
</event>
<event>
 4    1  0.4521369E-004  0.6500000E+04  0.7818608E-02  0.7223770E-01
         52   -1    0    0    0    0  0.00000000000E+00  0.00000000000E+00  0.64930732323E+04  0.65000000000E+04  0.30000000000E+03 0. -1.
        -52   -1    0    0    0    0 -0.00000000000E+00 -0.00000000000E+00 -0.64930732323E+04  0.65000000000E+04  0.30000000000E+03 0.  1.
     100001    1    1    2    0    0 -0.74752087730E+03  0.24570423788E+03 -0.64504412032E+04  0.65000000000E+04  0.15050000000E+03 0.  1.
     100001    1    1    2    0    0  0.74752087730E+03 -0.24570423788E+03  0.64504412032E+04  0.65000000000E+04  0.15050000000E+03 0. -1.
</event>
<event>
 4    1  0.4521369E-004  0.6500000E+04  0.7818608E-02  0.7223770E-01
         52   -1    0    0    0    0  0.00000000000E+00  0.00000000000E+00  0.64930732323E+04  0.65000000000E+04  0.30000000000E+03 0.  1.
        -52   -1    0    0    0    0 -0.00000000000E+00 -0.00000000000E+00 -0.64930732323E+04  0.65000000000E+04  0.30000000000E+03 0. -1.
     100001    1    1    2    0    0  0.37956407571E+04 -0.22242333951E+04  0.47825983312E+04  0.65000000000E+04  0.15050000000E+03 0.  1.
     100001    1    1    2    0    0 -0.37956407571E+04  0.22242333951E+04 -0.47825983312E+04  0.65000000000E+04  0.15050000000E+03 0. -1.
</event>
<event>
 4    1  0.4521369E-004  0.6500000E+04  0.7818608E-02  0.7223770E-01
         52   -1    0    0    0    0  0.00000000000E+00  0.00000000000E+00  0.64930732323E+04  0.65000000000E+04  0.30000000000E+03 0. -1.
        -52   -1    0    0    0    0 -0.00000000000E+00 -0.00000000000E+00 -0.64930732323E+04  0.65000000000E+04  0.30000000000E+03 0.  1.
     100001    1    1    2    0    0 -0.95463709879E+03  0.87453618634E+02 -0.64271587521E+04  0.65000000000E+04  0.15050000000E+03 0.  1.
     100001    1    1    2    0    0  0.95463709879E+03 -0.87453618634E+02  0.64271587521E+04  0.65000000000E+04  0.15050000000E+03 0. -1.
</event>
<event>
 4    1  0.4521369E-004  0.6500000E+04  0.7818608E-02  0.7223770E-01
         52   -1    0    0    0    0  0.00000000000E+00  0.00000000000E+00  0.64930732323E+04  0.65000000000E+04  0.30000000000E+03 0. -1.
        -52   -1    0    0    0    0 -0.00000000000E+00 -0.00000000000E+00 -0.64930732323E+04  0.65000000000E+04  0.30000000000E+03 0.  1.
     100001    1    1    2    0    0  0.24290498540E+04 -0.15074612987E+04 -0.58356342406E+04  0.65000000000E+04  0.15050000000E+03 0.  1.
     100001    1    1    2    0    0 -0.24290498540E+04  0.15074612987E+04  0.58356342406E+04  0.65000000000E+04  0.15050000000E+03 0. -1.
</event>
<event>
 4    1  0.4521369E-004  0.6500000E+04  0.7818608E-02  0.7223770E-01
         52   -1    0    0    0    0  0.00000000000E+00  0.00000000000E+00  0.64930732323E+04  0.65000000000E+04  0.30000000000E+03 0. -1.
        -52   -1    0    0    0    0 -0.00000000000E+00 -0.00000000000E+00 -0.64930732323E+04  0.65000000000E+04  0.30000000000E+03 0. -1.
     100001    1    1    2    0    0 -0.26608887942E+04 -0.73807643105E+03  0.58823688899E+04  0.65000000000E+04  0.15050000000E+03 0. -1.
     100001    1    1    2    0    0  0.26608887942E+04  0.73807643105E+03 -0.58823688899E+04  0.65000000000E+04  0.15050000000E+03 0. -1.
</event>
<event>
 4    1  0.4521369E-004  0.6500000E+04  0.7818608E-02  0.7223770E-01
         52   -1    0    0    0    0  0.00000000000E+00  0.00000000000E+00  0.64930732323E+04  0.65000000000E+04  0.30000000000E+03 0.  1.
        -52   -1    0    0    0    0 -0.00000000000E+00 -0.00000000000E+00 -0.64930732323E+04  0.65000000000E+04  0.30000000000E+03 0. -1.
     100001    1    1    2    0    0  0.55209359695E+04 -0.28748128460E+04 -0.18660297079E+04  0.65000000000E+04  0.15050000000E+03 0.  1.
     100001    1    1    2    0    0 -0.55209359695E+04  0.28748128460E+04  0.18660297079E+04  0.65000000000E+04  0.15050000000E+03 0. -1.
</event>
<event>
 4    1  0.4521369E-004  0.6500000E+04  0.7818608E-02  0.7223770E-01
         52   -1    0    0    0    0  0.00000000000E+00  0.00000000000E+00  0.64930732323E+04  0.65000000000E+04  0.30000000000E+03 0.  1.
        -52   -1    0    0    0    0 -0.00000000000E+00 -0.00000000000E+00 -0.64930732323E+04  0.65000000000E+04  0.30000000000E+03 0. -1.
     100001    1    1    2    0    0 -0.16140915313E+04  0.40294839314E+04 -0.48358367968E+04  0.65000000000E+04  0.15050000000E+03 0. -1.
     100001    1    1    2    0    0  0.16140915313E+04 -0.40294839314E+04  0.48358367968E+04  0.65000000000E+04  0.15050000000E+03 0.  1.
</event>
<event>
 4    1  0.4521369E-004  0.6500000E+04  0.7818608E-02  0.7223770E-01
         52   -1    0    0    0    0  0.00000000000E+00  0.00000000000E+00  0.64930732323E+04  0.65000000000E+04  0.30000000000E+03 0.  1.
        -52   -1    0    0    0    0 -0.00000000000E+00 -0.00000000000E+00 -0.64930732323E+04  0.65000000000E+04  0.30000000000E+03 0. -1.
     100001    1    1    2    0    0  0.39580270714E+04 -0.40236542692E+03  0.51380417977E+04  0.65000000000E+04  0.15050000000E+03 0.  1.
     100001    1    1    2    0    0 -0.39580270714E+04  0.40236542692E+03 -0.51380417977E+04  0.65000000000E+04  0.15050000000E+03 0. -1.
</event>
<event>
 4    1  0.4521369E-004  0.6500000E+04  0.7818608E-02  0.7223770E-01
         52   -1    0    0    0    0  0.00000000000E+00  0.00000000000E+00  0.64930732323E+04  0.65000000000E+04  0.30000000000E+03 0.  1.
        -52   -1    0    0    0    0 -0.00000000000E+00 -0.00000000000E+00 -0.64930732323E+04  0.65000000000E+04  0.30000000000E+03 0. -1.
     100001    1    1    2    0    0 -0.13592863597E+04 -0.21902684389E+03 -0.63507257525E+04  0.65000000000E+04  0.15050000000E+03 0. -1.
     100001    1    1    2    0    0  0.13592863597E+04  0.21902684389E+03  0.63507257525E+04  0.65000000000E+04  0.15050000000E+03 0.  1.
</event>
<event>
 4    1  0.4521369E-004  0.6500000E+04  0.7818608E-02  0.7223770E-01
         52   -1    0    0    0    0  0.00000000000E+00  0.00000000000E+00  0.64930732323E+04  0.65000000000E+04  0.30000000000E+03 0.  1.
        -52   -1    0    0    0    0 -0.00000000000E+00 -0.00000000000E+00 -0.64930732323E+04  0.65000000000E+04  0.30000000000E+03 0. -1.
     100001    1    1    2    0    0 -0.32970622517E+04  0.75929433304E+03  0.55479908412E+04  0.65000000000E+04  0.15050000000E+03 0.  1.
     100001    1    1    2    0    0  0.32970622517E+04 -0.75929433304E+03 -0.55479908412E+04  0.65000000000E+04  0.15050000000E+03 0. -1.
</event>
<event>
 4    1  0.4521369E-004  0.6500000E+04  0.7818608E-02  0.7223770E-01
         52   -1    0    0    0    0  0.00000000000E+00  0.00000000000E+00  0.64930732323E+04  0.65000000000E+04  0.30000000000E+03 0. -1.
        -52   -1    0    0    0    0 -0.00000000000E+00 -0.00000000000E+00 -0.64930732323E+04  0.65000000000E+04  0.30000000000E+03 0.  1.
     100001    1    1    2    0    0 -0.12083950849E+04  0.60020401729E+03  0.63566411104E+04  0.65000000000E+04  0.15050000000E+03 0. -1.
     100001    1    1    2    0    0  0.12083950849E+04 -0.60020401729E+03 -0.63566411104E+04  0.65000000000E+04  0.15050000000E+03 0.  1.
</event>
<event>
 4    1  0.4521369E-004  0.6500000E+04  0.7818608E-02  0.7223770E-01
         52   -1    0    0    0    0  0.00000000000E+00  0.00000000000E+00  0.64930732323E+04  0.65000000000E+04  0.30000000000E+03 0. -1.
        -52   -1    0    0    0    0 -0.00000000000E+00 -0.00000000000E+00 -0.64930732323E+04  0.65000000000E+04  0.30000000000E+03 0.  1.
     100001    1    1    2    0    0  0.88973821384E+03  0.13394908250E+03 -0.64356641696E+04  0.65000000000E+04  0.15050000000E+03 0.  1.
     100001    1    1    2    0    0 -0.88973821384E+03 -0.13394908250E+03  0.64356641696E+04  0.65000000000E+04  0.15050000000E+03 0. -1.
</event>
<event>
 4    1  0.4521369E-004  0.6500000E+04  0.7818608E-02  0.7223770E-01
         52   -1    0    0    0    0  0.00000000000E+00  0.00000000000E+00  0.64930732323E+04  0.65000000000E+04  0.30000000000E+03 0. -1.
        -52   -1    0    0    0    0 -0.00000000000E+00 -0.00000000000E+00 -0.64930732323E+04  0.65000000000E+04  0.30000000000E+03 0.  1.
     100001    1    1    2    0    0  0.26930496570E+03 -0.52384570530E+03  0.64715075726E+04  0.65000000000E+04  0.15050000000E+03 0. -1.
     100001    1    1    2    0    0 -0.26930496570E+03  0.52384570530E+03 -0.64715075726E+04  0.65000000000E+04  0.15050000000E+03 0.  1.
</event>
<event>
 4    1  0.7983295E-004  0.6500000E+04  0.7818608E-02  0.7223770E-01
         52   -1    0    0    0    0  0.00000000000E+00  0.00000000000E+00  0.64930732323E+04  0.65000000000E+04  0.30000000000E+03 0.  1.
        -52   -1    0    0    0    0 -0.00000000000E+00 -0.00000000000E+00 -0.64930732323E+04  0.65000000000E+04  0.30000000000E+03 0.  1.
     100001    1    1    2    0    0 -0.10491226710E+02 -0.63011648955E+02  0.64979434605E+04  0.65000000000E+04  0.15050000000E+03 0.  1.
     100001    1    1    2    0    0  0.10491226710E+02  0.63011648955E+02 -0.64979434605E+04  0.65000000000E+04  0.15050000000E+03 0.  1.
</event>
<event>
 4    1  0.4521369E-004  0.6500000E+04  0.7818608E-02  0.7223770E-01
         52   -1    0    0    0    0  0.00000000000E+00  0.00000000000E+00  0.64930732323E+04  0.65000000000E+04  0.30000000000E+03 0.  1.
        -52   -1    0    0    0    0 -0.00000000000E+00 -0.00000000000E+00 -0.64930732323E+04  0.65000000000E+04  0.30000000000E+03 0. -1.
     100001    1    1    2    0    0  0.11605967082E+03  0.81786410495E+03  0.64455394040E+04  0.65000000000E+04  0.15050000000E+03 0.  1.
     100001    1    1    2    0    0 -0.11605967082E+03 -0.81786410495E+03 -0.64455394040E+04  0.65000000000E+04  0.15050000000E+03 0. -1.
</event>
<event>
 4    1  0.4521369E-004  0.6500000E+04  0.7818608E-02  0.7223770E-01
         52   -1    0    0    0    0  0.00000000000E+00  0.00000000000E+00  0.64930732323E+04  0.65000000000E+04  0.30000000000E+03 0. -1.
        -52   -1    0    0    0    0 -0.00000000000E+00 -0.00000000000E+00 -0.64930732323E+04  0.65000000000E+04  0.30000000000E+03 0. -1.
     100001    1    1    2    0    0 -0.23868120300E+03 -0.27945384552E+03  0.64878568558E+04  0.65000000000E+04  0.15050000000E+03 0. -1.
     100001    1    1    2    0    0  0.23868120300E+03  0.27945384552E+03 -0.64878568558E+04  0.65000000000E+04  0.15050000000E+03 0. -1.
</event>
<event>
 4    1  0.4521369E-004  0.6500000E+04  0.7818608E-02  0.7223770E-01
         52   -1    0    0    0    0  0.00000000000E+00  0.00000000000E+00  0.64930732323E+04  0.65000000000E+04  0.30000000000E+03 0. -1.
        -52   -1    0    0    0    0 -0.00000000000E+00 -0.00000000000E+00 -0.64930732323E+04  0.65000000000E+04  0.30000000000E+03 0.  1.
     100001    1    1    2    0    0 -0.18167236853E+04 -0.30017839596E+04  0.54695665149E+04  0.65000000000E+04  0.15050000000E+03 0. -1.
     100001    1    1    2    0    0  0.18167236853E+04  0.30017839596E+04 -0.54695665149E+04  0.65000000000E+04  0.15050000000E+03 0.  1.
</event>
<event>
 4    1  0.4521369E-004  0.6500000E+04  0.7818608E-02  0.7223770E-01
         52   -1    0    0    0    0  0.00000000000E+00  0.00000000000E+00  0.64930732323E+04  0.65000000000E+04  0.30000000000E+03 0. -1.
        -52   -1    0    0    0    0 -0.00000000000E+00 -0.00000000000E+00 -0.64930732323E+04  0.65000000000E+04  0.30000000000E+03 0.  1.
     100001    1    1    2    0    0  0.10551323204E+04 -0.46455905670E+04  0.44195626278E+04  0.65000000000E+04  0.15050000000E+03 0. -1.
     100001    1    1    2    0    0 -0.10551323204E+04  0.46455905670E+04 -0.44195626278E+04  0.65000000000E+04  0.15050000000E+03 0.  1.
</event>
<event>
 4    1  0.4521369E-004  0.6500000E+04  0.7818608E-02  0.7223770E-01
         52   -1    0    0    0    0  0.00000000000E+00  0.00000000000E+00  0.64930732323E+04  0.65000000000E+04  0.30000000000E+03 0. -1.
        -52   -1    0    0    0    0 -0.00000000000E+00 -0.00000000000E+00 -0.64930732323E+04  0.65000000000E+04  0.30000000000E+03 0.  1.
     100001    1    1    2    0    0 -0.98171916956E+03  0.28987183181E+04 -0.57324522967E+04  0.65000000000E+04  0.15050000000E+03 0.  1.
     100001    1    1    2    0    0  0.98171916956E+03 -0.28987183181E+04  0.57324522967E+04  0.65000000000E+04  0.15050000000E+03 0. -1.
</event>
<event>
 4    1  0.4648414E-004  0.6500000E+04  0.7818608E-02  0.7223770E-01
         52   -1    0    0    0    0  0.00000000000E+00  0.00000000000E+00  0.64930732323E+04  0.65000000000E+04  0.30000000000E+03 0.  1.
        -52   -1    0    0    0    0 -0.00000000000E+00 -0.00000000000E+00 -0.64930732323E+04  0.65000000000E+04  0.30000000000E+03 0.  1.
     100001    1    1    2    0    0  0.26296575868E+03 -0.10385654111E+03 -0.64921038638E+04  0.65000000000E+04  0.15050000000E+03 0.  1.
     100001    1    1    2    0    0 -0.26296575868E+03  0.10385654111E+03  0.64921038638E+04  0.65000000000E+04  0.15050000000E+03 0.  1.
</event>
<event>
 4    1  0.4521369E-004  0.6500000E+04  0.7818608E-02  0.7223770E-01
         52   -1    0    0    0    0  0.00000000000E+00  0.00000000000E+00  0.64930732323E+04  0.65000000000E+04  0.30000000000E+03 0. -1.
        -52   -1    0    0    0    0 -0.00000000000E+00 -0.00000000000E+00 -0.64930732323E+04  0.65000000000E+04  0.30000000000E+03 0.  1.
     100001    1    1    2    0    0 -0.13142554515E+04 -0.41552705538E+01 -0.63639661448E+04  0.65000000000E+04  0.15050000000E+03 0.  1.
     100001    1    1    2    0    0  0.13142554515E+04  0.41552705538E+01  0.63639661448E+04  0.65000000000E+04  0.15050000000E+03 0. -1.
</event>
<event>
 4    1  0.4521369E-004  0.6500000E+04  0.7818608E-02  0.7223770E-01
         52   -1    0    0    0    0  0.00000000000E+00  0.00000000000E+00  0.64930732323E+04  0.65000000000E+04  0.30000000000E+03 0.  1.
        -52   -1    0    0    0    0 -0.00000000000E+00 -0.00000000000E+00 -0.64930732323E+04  0.65000000000E+04  0.30000000000E+03 0. -1.
     100001    1    1    2    0    0 -0.62880289602E+04 -0.96345016896E+03  0.13265765404E+04  0.65000000000E+04  0.15050000000E+03 0.  1.
     100001    1    1    2    0    0  0.62880289602E+04  0.96345016896E+03 -0.13265765404E+04  0.65000000000E+04  0.15050000000E+03 0. -1.
</event>
<event>
 4    1  0.4521369E-004  0.6500000E+04  0.7818608E-02  0.7223770E-01
         52   -1    0    0    0    0  0.00000000000E+00  0.00000000000E+00  0.64930732323E+04  0.65000000000E+04  0.30000000000E+03 0.  1.
        -52   -1    0    0    0    0 -0.00000000000E+00 -0.00000000000E+00 -0.64930732323E+04  0.65000000000E+04  0.30000000000E+03 0. -1.
     100001    1    1    2    0    0 -0.17464626271E+03 -0.73858226298E+03  0.64537852981E+04  0.65000000000E+04  0.15050000000E+03 0.  1.
     100001    1    1    2    0    0  0.17464626271E+03  0.73858226298E+03 -0.64537852981E+04  0.65000000000E+04  0.15050000000E+03 0. -1.
</event>
<event>
 4    1  0.4521369E-004  0.6500000E+04  0.7818608E-02  0.7223770E-01
         52   -1    0    0    0    0  0.00000000000E+00  0.00000000000E+00  0.64930732323E+04  0.65000000000E+04  0.30000000000E+03 0. -1.
        -52   -1    0    0    0    0 -0.00000000000E+00 -0.00000000000E+00 -0.64930732323E+04  0.65000000000E+04  0.30000000000E+03 0.  1.
     100001    1    1    2    0    0  0.58679414024E+03  0.53263093485E+02  0.64714902016E+04  0.65000000000E+04  0.15050000000E+03 0. -1.
     100001    1    1    2    0    0 -0.58679414024E+03 -0.53263093485E+02 -0.64714902016E+04  0.65000000000E+04  0.15050000000E+03 0.  1.
</event>
<event>
 4    1  0.4521369E-004  0.6500000E+04  0.7818608E-02  0.7223770E-01
         52   -1    0    0    0    0  0.00000000000E+00  0.00000000000E+00  0.64930732323E+04  0.65000000000E+04  0.30000000000E+03 0. -1.
        -52   -1    0    0    0    0 -0.00000000000E+00 -0.00000000000E+00 -0.64930732323E+04  0.65000000000E+04  0.30000000000E+03 0.  1.
     100001    1    1    2    0    0  0.35198063419E+04  0.70132859973E+03 -0.54172364966E+04  0.65000000000E+04  0.15050000000E+03 0.  1.
     100001    1    1    2    0    0 -0.35198063419E+04 -0.70132859973E+03  0.54172364966E+04  0.65000000000E+04  0.15050000000E+03 0. -1.
</event>
<event>
 4    1  0.4521369E-004  0.6500000E+04  0.7818608E-02  0.7223770E-01
         52   -1    0    0    0    0  0.00000000000E+00  0.00000000000E+00  0.64930732323E+04  0.65000000000E+04  0.30000000000E+03 0. -1.
        -52   -1    0    0    0    0 -0.00000000000E+00 -0.00000000000E+00 -0.64930732323E+04  0.65000000000E+04  0.30000000000E+03 0.  1.
     100001    1    1    2    0    0  0.83526565826E+03 -0.15861467175E+04  0.62461043556E+04  0.65000000000E+04  0.15050000000E+03 0. -1.
     100001    1    1    2    0    0 -0.83526565826E+03  0.15861467175E+04 -0.62461043556E+04  0.65000000000E+04  0.15050000000E+03 0.  1.
</event>
<event>
 4    1  0.4521369E-004  0.6500000E+04  0.7818608E-02  0.7223770E-01
         52   -1    0    0    0    0  0.00000000000E+00  0.00000000000E+00  0.64930732323E+04  0.65000000000E+04  0.30000000000E+03 0. -1.
        -52   -1    0    0    0    0 -0.00000000000E+00 -0.00000000000E+00 -0.64930732323E+04  0.65000000000E+04  0.30000000000E+03 0. -1.
     100001    1    1    2    0    0 -0.17742560493E+03 -0.83838542252E+02  0.64952937581E+04  0.65000000000E+04  0.15050000000E+03 0. -1.
     100001    1    1    2    0    0  0.17742560493E+03  0.83838542252E+02 -0.64952937581E+04  0.65000000000E+04  0.15050000000E+03 0. -1.
</event>
<event>
 4    1  0.4521369E-004  0.6500000E+04  0.7818608E-02  0.7223770E-01
         52   -1    0    0    0    0  0.00000000000E+00  0.00000000000E+00  0.64930732323E+04  0.65000000000E+04  0.30000000000E+03 0. -1.
        -52   -1    0    0    0    0 -0.00000000000E+00 -0.00000000000E+00 -0.64930732323E+04  0.65000000000E+04  0.30000000000E+03 0.  1.
     100001    1    1    2    0    0 -0.17507929407E+03 -0.49088257536E+03  0.64773243927E+04  0.65000000000E+04  0.15050000000E+03 0. -1.
     100001    1    1    2    0    0  0.17507929407E+03  0.49088257536E+03 -0.64773243927E+04  0.65000000000E+04  0.15050000000E+03 0.  1.
</event>
<event>
 4    1  0.4521369E-004  0.6500000E+04  0.7818608E-02  0.7223770E-01
         52   -1    0    0    0    0  0.00000000000E+00  0.00000000000E+00  0.64930732323E+04  0.65000000000E+04  0.30000000000E+03 0. -1.
        -52   -1    0    0    0    0 -0.00000000000E+00 -0.00000000000E+00 -0.64930732323E+04  0.65000000000E+04  0.30000000000E+03 0.  1.
     100001    1    1    2    0    0 -0.27304338708E+04 -0.30752067725E+04 -0.50314196738E+04  0.65000000000E+04  0.15050000000E+03 0.  1.
     100001    1    1    2    0    0  0.27304338708E+04  0.30752067725E+04  0.50314196738E+04  0.65000000000E+04  0.15050000000E+03 0. -1.
</event>
<event>
 4    1  0.4521369E-004  0.6500000E+04  0.7818608E-02  0.7223770E-01
         52   -1    0    0    0    0  0.00000000000E+00  0.00000000000E+00  0.64930732323E+04  0.65000000000E+04  0.30000000000E+03 0. -1.
        -52   -1    0    0    0    0 -0.00000000000E+00 -0.00000000000E+00 -0.64930732323E+04  0.65000000000E+04  0.30000000000E+03 0.  1.
     100001    1    1    2    0    0 -0.86675965146E+03  0.16111931863E+03  0.64381766069E+04  0.65000000000E+04  0.15050000000E+03 0. -1.
     100001    1    1    2    0    0  0.86675965146E+03 -0.16111931863E+03 -0.64381766069E+04  0.65000000000E+04  0.15050000000E+03 0.  1.
</event>
<event>
 4    1  0.4521369E-004  0.6500000E+04  0.7818608E-02  0.7223770E-01
         52   -1    0    0    0    0  0.00000000000E+00  0.00000000000E+00  0.64930732323E+04  0.65000000000E+04  0.30000000000E+03 0. -1.
        -52   -1    0    0    0    0 -0.00000000000E+00 -0.00000000000E+00 -0.64930732323E+04  0.65000000000E+04  0.30000000000E+03 0. -1.
     100001    1    1    2    0    0 -0.97080703864E+03  0.62823898728E+03  0.63945444887E+04  0.65000000000E+04  0.15050000000E+03 0. -1.
     100001    1    1    2    0    0  0.97080703864E+03 -0.62823898728E+03 -0.63945444887E+04  0.65000000000E+04  0.15050000000E+03 0. -1.
</event>
<event>
 4    1  0.4521369E-004  0.6500000E+04  0.7818608E-02  0.7223770E-01
         52   -1    0    0    0    0  0.00000000000E+00  0.00000000000E+00  0.64930732323E+04  0.65000000000E+04  0.30000000000E+03 0.  1.
        -52   -1    0    0    0    0 -0.00000000000E+00 -0.00000000000E+00 -0.64930732323E+04  0.65000000000E+04  0.30000000000E+03 0. -1.
     100001    1    1    2    0    0  0.37692214854E+04 -0.13248447302E+03  0.52917640734E+04  0.65000000000E+04  0.15050000000E+03 0.  1.
     100001    1    1    2    0    0 -0.37692214854E+04  0.13248447302E+03 -0.52917640734E+04  0.65000000000E+04  0.15050000000E+03 0. -1.
</event>
<event>
 4    1  0.4521369E-004  0.6500000E+04  0.7818608E-02  0.7223770E-01
         52   -1    0    0    0    0  0.00000000000E+00  0.00000000000E+00  0.64930732323E+04  0.65000000000E+04  0.30000000000E+03 0. -1.
        -52   -1    0    0    0    0 -0.00000000000E+00 -0.00000000000E+00 -0.64930732323E+04  0.65000000000E+04  0.30000000000E+03 0.  1.
     100001    1    1    2    0    0  0.21045537936E+04 -0.67802012522E+03 -0.61105230373E+04  0.65000000000E+04  0.15050000000E+03 0.  1.
     100001    1    1    2    0    0 -0.21045537936E+04  0.67802012522E+03  0.61105230373E+04  0.65000000000E+04  0.15050000000E+03 0. -1.
</event>
<event>
 4    1  0.4521369E-004  0.6500000E+04  0.7818608E-02  0.7223770E-01
         52   -1    0    0    0    0  0.00000000000E+00  0.00000000000E+00  0.64930732323E+04  0.65000000000E+04  0.30000000000E+03 0. -1.
        -52   -1    0    0    0    0 -0.00000000000E+00 -0.00000000000E+00 -0.64930732323E+04  0.65000000000E+04  0.30000000000E+03 0.  1.
     100001    1    1    2    0    0 -0.15909694198E+04 -0.83383383743E+03 -0.62450690298E+04  0.65000000000E+04  0.15050000000E+03 0.  1.
     100001    1    1    2    0    0  0.15909694198E+04  0.83383383743E+03  0.62450690298E+04  0.65000000000E+04  0.15050000000E+03 0. -1.
</event>
<event>
 4    1  0.4521369E-004  0.6500000E+04  0.7818608E-02  0.7223770E-01
         52   -1    0    0    0    0  0.00000000000E+00  0.00000000000E+00  0.64930732323E+04  0.65000000000E+04  0.30000000000E+03 0. -1.
        -52   -1    0    0    0    0 -0.00000000000E+00 -0.00000000000E+00 -0.64930732323E+04  0.65000000000E+04  0.30000000000E+03 0.  1.
     100001    1    1    2    0    0  0.20502828062E+04  0.37952694935E+04  0.48600020202E+04  0.65000000000E+04  0.15050000000E+03 0. -1.
     100001    1    1    2    0    0 -0.20502828062E+04 -0.37952694935E+04 -0.48600020202E+04  0.65000000000E+04  0.15050000000E+03 0.  1.
</event>
<event>
 4    1  0.4521369E-004  0.6500000E+04  0.7818608E-02  0.7223770E-01
         52   -1    0    0    0    0  0.00000000000E+00  0.00000000000E+00  0.64930732323E+04  0.65000000000E+04  0.30000000000E+03 0.  1.
        -52   -1    0    0    0    0 -0.00000000000E+00 -0.00000000000E+00 -0.64930732323E+04  0.65000000000E+04  0.30000000000E+03 0. -1.
     100001    1    1    2    0    0 -0.15217058168E+03  0.10249038985E+04 -0.64151200973E+04  0.65000000000E+04  0.15050000000E+03 0. -1.
     100001    1    1    2    0    0  0.15217058168E+03 -0.10249038985E+04  0.64151200973E+04  0.65000000000E+04  0.15050000000E+03 0.  1.
</event>
<event>
 4    1  0.4521369E-004  0.6500000E+04  0.7818608E-02  0.7223770E-01
         52   -1    0    0    0    0  0.00000000000E+00  0.00000000000E+00  0.64930732323E+04  0.65000000000E+04  0.30000000000E+03 0. -1.
        -52   -1    0    0    0    0 -0.00000000000E+00 -0.00000000000E+00 -0.64930732323E+04  0.65000000000E+04  0.30000000000E+03 0.  1.
     100001    1    1    2    0    0  0.57996992240E+03 -0.41325522284E+03 -0.64591179553E+04  0.65000000000E+04  0.15050000000E+03 0.  1.
     100001    1    1    2    0    0 -0.57996992240E+03  0.41325522284E+03  0.64591179553E+04  0.65000000000E+04  0.15050000000E+03 0. -1.
</event>
<event>
 4    1  0.4521369E-004  0.6500000E+04  0.7818608E-02  0.7223770E-01
         52   -1    0    0    0    0  0.00000000000E+00  0.00000000000E+00  0.64930732323E+04  0.65000000000E+04  0.30000000000E+03 0. -1.
        -52   -1    0    0    0    0 -0.00000000000E+00 -0.00000000000E+00 -0.64930732323E+04  0.65000000000E+04  0.30000000000E+03 0. -1.
     100001    1    1    2    0    0  0.12963473402E+03  0.35657447656E+03 -0.64871718976E+04  0.65000000000E+04  0.15050000000E+03 0. -1.
     100001    1    1    2    0    0 -0.12963473402E+03 -0.35657447656E+03  0.64871718976E+04  0.65000000000E+04  0.15050000000E+03 0. -1.
</event>
<event>
 4    1  0.4521369E-004  0.6500000E+04  0.7818608E-02  0.7223770E-01
         52   -1    0    0    0    0  0.00000000000E+00  0.00000000000E+00  0.64930732323E+04  0.65000000000E+04  0.30000000000E+03 0.  1.
        -52   -1    0    0    0    0 -0.00000000000E+00 -0.00000000000E+00 -0.64930732323E+04  0.65000000000E+04  0.30000000000E+03 0. -1.
     100001    1    1    2    0    0  0.47315926441E+04  0.25765802511E+03  0.44466833868E+04  0.65000000000E+04  0.15050000000E+03 0.  1.
     100001    1    1    2    0    0 -0.47315926441E+04 -0.25765802511E+03 -0.44466833868E+04  0.65000000000E+04  0.15050000000E+03 0. -1.
</event>
<event>
 4    1  0.4521369E-004  0.6500000E+04  0.7818608E-02  0.7223770E-01
         52   -1    0    0    0    0  0.00000000000E+00  0.00000000000E+00  0.64930732323E+04  0.65000000000E+04  0.30000000000E+03 0. -1.
        -52   -1    0    0    0    0 -0.00000000000E+00 -0.00000000000E+00 -0.64930732323E+04  0.65000000000E+04  0.30000000000E+03 0.  1.
     100001    1    1    2    0    0  0.32386116583E+04  0.17664053037E+04  0.53496314434E+04  0.65000000000E+04  0.15050000000E+03 0. -1.
     100001    1    1    2    0    0 -0.32386116583E+04 -0.17664053037E+04 -0.53496314434E+04  0.65000000000E+04  0.15050000000E+03 0.  1.
</event>
<event>
 4    1  0.4521369E-004  0.6500000E+04  0.7818608E-02  0.7223770E-01
         52   -1    0    0    0    0  0.00000000000E+00  0.00000000000E+00  0.64930732323E+04  0.65000000000E+04  0.30000000000E+03 0.  1.
        -52   -1    0    0    0    0 -0.00000000000E+00 -0.00000000000E+00 -0.64930732323E+04  0.65000000000E+04  0.30000000000E+03 0. -1.
     100001    1    1    2    0    0  0.78418055830E+03  0.59725021850E+04 -0.24375455384E+04  0.65000000000E+04  0.15050000000E+03 0. -1.
     100001    1    1    2    0    0 -0.78418055830E+03 -0.59725021850E+04  0.24375455384E+04  0.65000000000E+04  0.15050000000E+03 0.  1.
</event>
<event>
 4    1  0.4521369E-004  0.6500000E+04  0.7818608E-02  0.7223770E-01
         52   -1    0    0    0    0  0.00000000000E+00  0.00000000000E+00  0.64930732323E+04  0.65000000000E+04  0.30000000000E+03 0.  1.
        -52   -1    0    0    0    0 -0.00000000000E+00 -0.00000000000E+00 -0.64930732323E+04  0.65000000000E+04  0.30000000000E+03 0. -1.
     100001    1    1    2    0    0  0.11889499176E+02 -0.86967741868E+03  0.64397880072E+04  0.65000000000E+04  0.15050000000E+03 0.  1.
     100001    1    1    2    0    0 -0.11889499176E+02  0.86967741868E+03 -0.64397880072E+04  0.65000000000E+04  0.15050000000E+03 0. -1.
</event>
<event>
 4    1  0.4521369E-004  0.6500000E+04  0.7818608E-02  0.7223770E-01
         52   -1    0    0    0    0  0.00000000000E+00  0.00000000000E+00  0.64930732323E+04  0.65000000000E+04  0.30000000000E+03 0. -1.
        -52   -1    0    0    0    0 -0.00000000000E+00 -0.00000000000E+00 -0.64930732323E+04  0.65000000000E+04  0.30000000000E+03 0.  1.
     100001    1    1    2    0    0  0.71601776548E+03 -0.28924321354E+04 -0.57748164172E+04  0.65000000000E+04  0.15050000000E+03 0.  1.
     100001    1    1    2    0    0 -0.71601776548E+03  0.28924321354E+04  0.57748164172E+04  0.65000000000E+04  0.15050000000E+03 0. -1.
</event>
<event>
 4    1  0.4521369E-004  0.6500000E+04  0.7818608E-02  0.7223770E-01
         52   -1    0    0    0    0  0.00000000000E+00  0.00000000000E+00  0.64930732323E+04  0.65000000000E+04  0.30000000000E+03 0. -1.
        -52   -1    0    0    0    0 -0.00000000000E+00 -0.00000000000E+00 -0.64930732323E+04  0.65000000000E+04  0.30000000000E+03 0.  1.
     100001    1    1    2    0    0 -0.45566236957E+03  0.49568921779E+02 -0.64820725449E+04  0.65000000000E+04  0.15050000000E+03 0.  1.
     100001    1    1    2    0    0  0.45566236957E+03 -0.49568921779E+02  0.64820725449E+04  0.65000000000E+04  0.15050000000E+03 0. -1.
</event>
<event>
 4    1  0.4521369E-004  0.6500000E+04  0.7818608E-02  0.7223770E-01
         52   -1    0    0    0    0  0.00000000000E+00  0.00000000000E+00  0.64930732323E+04  0.65000000000E+04  0.30000000000E+03 0.  1.
        -52   -1    0    0    0    0 -0.00000000000E+00 -0.00000000000E+00 -0.64930732323E+04  0.65000000000E+04  0.30000000000E+03 0. -1.
     100001    1    1    2    0    0  0.76773977261E+02 -0.55318185877E+03 -0.64742138780E+04  0.65000000000E+04  0.15050000000E+03 0. -1.
     100001    1    1    2    0    0 -0.76773977261E+02  0.55318185877E+03  0.64742138780E+04  0.65000000000E+04  0.15050000000E+03 0.  1.
</event>
<event>
 4    1  0.4521369E-004  0.6500000E+04  0.7818608E-02  0.7223770E-01
         52   -1    0    0    0    0  0.00000000000E+00  0.00000000000E+00  0.64930732323E+04  0.65000000000E+04  0.30000000000E+03 0. -1.
        -52   -1    0    0    0    0 -0.00000000000E+00 -0.00000000000E+00 -0.64930732323E+04  0.65000000000E+04  0.30000000000E+03 0.  1.
     100001    1    1    2    0    0  0.55943022866E+02 -0.11704868766E+04 -0.63917275130E+04  0.65000000000E+04  0.15050000000E+03 0.  1.
     100001    1    1    2    0    0 -0.55943022866E+02  0.11704868766E+04  0.63917275130E+04  0.65000000000E+04  0.15050000000E+03 0. -1.
</event>
<event>
 4    1  0.4521369E-004  0.6500000E+04  0.7818608E-02  0.7223770E-01
         52   -1    0    0    0    0  0.00000000000E+00  0.00000000000E+00  0.64930732323E+04  0.65000000000E+04  0.30000000000E+03 0. -1.
        -52   -1    0    0    0    0 -0.00000000000E+00 -0.00000000000E+00 -0.64930732323E+04  0.65000000000E+04  0.30000000000E+03 0.  1.
     100001    1    1    2    0    0  0.14090736628E+04  0.62459702708E+04 -0.11089258491E+04  0.65000000000E+04  0.15050000000E+03 0.  1.
     100001    1    1    2    0    0 -0.14090736628E+04 -0.62459702708E+04  0.11089258491E+04  0.65000000000E+04  0.15050000000E+03 0. -1.
</event>
<event>
 4    1  0.4521369E-004  0.6500000E+04  0.7818608E-02  0.7223770E-01
         52   -1    0    0    0    0  0.00000000000E+00  0.00000000000E+00  0.64930732323E+04  0.65000000000E+04  0.30000000000E+03 0. -1.
        -52   -1    0    0    0    0 -0.00000000000E+00 -0.00000000000E+00 -0.64930732323E+04  0.65000000000E+04  0.30000000000E+03 0.  1.
     100001    1    1    2    0    0  0.10789799818E+04  0.37954087918E+03 -0.63968039418E+04  0.65000000000E+04  0.15050000000E+03 0.  1.
     100001    1    1    2    0    0 -0.10789799818E+04 -0.37954087918E+03  0.63968039418E+04  0.65000000000E+04  0.15050000000E+03 0. -1.
</event>
<event>
 4    1  0.4521369E-004  0.6500000E+04  0.7818608E-02  0.7223770E-01
         52   -1    0    0    0    0  0.00000000000E+00  0.00000000000E+00  0.64930732323E+04  0.65000000000E+04  0.30000000000E+03 0.  1.
        -52   -1    0    0    0    0 -0.00000000000E+00 -0.00000000000E+00 -0.64930732323E+04  0.65000000000E+04  0.30000000000E+03 0. -1.
     100001    1    1    2    0    0  0.85678577036E+03  0.70375126914E+03 -0.64029682215E+04  0.65000000000E+04  0.15050000000E+03 0. -1.
     100001    1    1    2    0    0 -0.85678577036E+03 -0.70375126914E+03  0.64029682215E+04  0.65000000000E+04  0.15050000000E+03 0.  1.
</event>
<event>
 4    1  0.4521369E-004  0.6500000E+04  0.7818608E-02  0.7223770E-01
         52   -1    0    0    0    0  0.00000000000E+00  0.00000000000E+00  0.64930732323E+04  0.65000000000E+04  0.30000000000E+03 0.  1.
        -52   -1    0    0    0    0 -0.00000000000E+00 -0.00000000000E+00 -0.64930732323E+04  0.65000000000E+04  0.30000000000E+03 0. -1.
     100001    1    1    2    0    0 -0.20206830449E+03 -0.81911681265E+03 -0.64432573903E+04  0.65000000000E+04  0.15050000000E+03 0. -1.
     100001    1    1    2    0    0  0.20206830449E+03  0.81911681265E+03  0.64432573903E+04  0.65000000000E+04  0.15050000000E+03 0.  1.
</event>
<event>
 4    1  0.4521369E-004  0.6500000E+04  0.7818608E-02  0.7223770E-01
         52   -1    0    0    0    0  0.00000000000E+00  0.00000000000E+00  0.64930732323E+04  0.65000000000E+04  0.30000000000E+03 0.  1.
        -52   -1    0    0    0    0 -0.00000000000E+00 -0.00000000000E+00 -0.64930732323E+04  0.65000000000E+04  0.30000000000E+03 0. -1.
     100001    1    1    2    0    0 -0.49079282735E+04 -0.77456653844E+03 -0.41880349198E+04  0.65000000000E+04  0.15050000000E+03 0. -1.
     100001    1    1    2    0    0  0.49079282735E+04  0.77456653844E+03  0.41880349198E+04  0.65000000000E+04  0.15050000000E+03 0.  1.
</event>
<event>
 4    1  0.4521369E-004  0.6500000E+04  0.7818608E-02  0.7223770E-01
         52   -1    0    0    0    0  0.00000000000E+00  0.00000000000E+00  0.64930732323E+04  0.65000000000E+04  0.30000000000E+03 0. -1.
        -52   -1    0    0    0    0 -0.00000000000E+00 -0.00000000000E+00 -0.64930732323E+04  0.65000000000E+04  0.30000000000E+03 0.  1.
     100001    1    1    2    0    0 -0.35776088108E+03  0.15347563673E+04 -0.63042747239E+04  0.65000000000E+04  0.15050000000E+03 0.  1.
     100001    1    1    2    0    0  0.35776088108E+03 -0.15347563673E+04  0.63042747239E+04  0.65000000000E+04  0.15050000000E+03 0. -1.
</event>
<event>
 4    1  0.4521369E-004  0.6500000E+04  0.7818608E-02  0.7223770E-01
         52   -1    0    0    0    0  0.00000000000E+00  0.00000000000E+00  0.64930732323E+04  0.65000000000E+04  0.30000000000E+03 0.  1.
        -52   -1    0    0    0    0 -0.00000000000E+00 -0.00000000000E+00 -0.64930732323E+04  0.65000000000E+04  0.30000000000E+03 0. -1.
     100001    1    1    2    0    0 -0.27395219568E+03 -0.58889375985E+04 -0.27336265117E+04  0.65000000000E+04  0.15050000000E+03 0. -1.
     100001    1    1    2    0    0  0.27395219568E+03  0.58889375985E+04  0.27336265117E+04  0.65000000000E+04  0.15050000000E+03 0.  1.
</event>
<event>
 4    1  0.4521369E-004  0.6500000E+04  0.7818608E-02  0.7223770E-01
         52   -1    0    0    0    0  0.00000000000E+00  0.00000000000E+00  0.64930732323E+04  0.65000000000E+04  0.30000000000E+03 0. -1.
        -52   -1    0    0    0    0 -0.00000000000E+00 -0.00000000000E+00 -0.64930732323E+04  0.65000000000E+04  0.30000000000E+03 0.  1.
     100001    1    1    2    0    0 -0.86614127737E+03 -0.15317557615E+03  0.64384537181E+04  0.65000000000E+04  0.15050000000E+03 0. -1.
     100001    1    1    2    0    0  0.86614127737E+03  0.15317557615E+03 -0.64384537181E+04  0.65000000000E+04  0.15050000000E+03 0.  1.
</event>
<event>
 4    1  0.4521369E-004  0.6500000E+04  0.7818608E-02  0.7223770E-01
         52   -1    0    0    0    0  0.00000000000E+00  0.00000000000E+00  0.64930732323E+04  0.65000000000E+04  0.30000000000E+03 0.  1.
        -52   -1    0    0    0    0 -0.00000000000E+00 -0.00000000000E+00 -0.64930732323E+04  0.65000000000E+04  0.30000000000E+03 0. -1.
     100001    1    1    2    0    0 -0.82099383444E+03  0.31404504923E+03 -0.64385320206E+04  0.65000000000E+04  0.15050000000E+03 0. -1.
     100001    1    1    2    0    0  0.82099383444E+03 -0.31404504923E+03  0.64385320206E+04  0.65000000000E+04  0.15050000000E+03 0.  1.
</event>
<event>
 4    1  0.4521369E-004  0.6500000E+04  0.7818608E-02  0.7223770E-01
         52   -1    0    0    0    0  0.00000000000E+00  0.00000000000E+00  0.64930732323E+04  0.65000000000E+04  0.30000000000E+03 0.  1.
        -52   -1    0    0    0    0 -0.00000000000E+00 -0.00000000000E+00 -0.64930732323E+04  0.65000000000E+04  0.30000000000E+03 0. -1.
     100001    1    1    2    0    0  0.17411035683E+04 -0.38616980928E+04 -0.49277982867E+04  0.65000000000E+04  0.15050000000E+03 0. -1.
     100001    1    1    2    0    0 -0.17411035683E+04  0.38616980928E+04  0.49277982867E+04  0.65000000000E+04  0.15050000000E+03 0.  1.
</event>
<event>
 4    1  0.4521369E-004  0.6500000E+04  0.7818608E-02  0.7223770E-01
         52   -1    0    0    0    0  0.00000000000E+00  0.00000000000E+00  0.64930732323E+04  0.65000000000E+04  0.30000000000E+03 0. -1.
        -52   -1    0    0    0    0 -0.00000000000E+00 -0.00000000000E+00 -0.64930732323E+04  0.65000000000E+04  0.30000000000E+03 0.  1.
     100001    1    1    2    0    0  0.34758454956E+03 -0.63964733308E+03 -0.64573513162E+04  0.65000000000E+04  0.15050000000E+03 0.  1.
     100001    1    1    2    0    0 -0.34758454956E+03  0.63964733308E+03  0.64573513162E+04  0.65000000000E+04  0.15050000000E+03 0. -1.
</event>
<event>
 4    1  0.4521369E-004  0.6500000E+04  0.7818608E-02  0.7223770E-01
         52   -1    0    0    0    0  0.00000000000E+00  0.00000000000E+00  0.64930732323E+04  0.65000000000E+04  0.30000000000E+03 0.  1.
        -52   -1    0    0    0    0 -0.00000000000E+00 -0.00000000000E+00 -0.64930732323E+04  0.65000000000E+04  0.30000000000E+03 0. -1.
     100001    1    1    2    0    0  0.89225891888E+03 -0.23739398640E+04 -0.59829452023E+04  0.65000000000E+04  0.15050000000E+03 0. -1.
     100001    1    1    2    0    0 -0.89225891888E+03  0.23739398640E+04  0.59829452023E+04  0.65000000000E+04  0.15050000000E+03 0.  1.
</event>
<event>
 4    1  0.4521369E-004  0.6500000E+04  0.7818608E-02  0.7223770E-01
         52   -1    0    0    0    0  0.00000000000E+00  0.00000000000E+00  0.64930732323E+04  0.65000000000E+04  0.30000000000E+03 0.  1.
        -52   -1    0    0    0    0 -0.00000000000E+00 -0.00000000000E+00 -0.64930732323E+04  0.65000000000E+04  0.30000000000E+03 0. -1.
     100001    1    1    2    0    0 -0.48905802382E+04 -0.21999086744E+04 -0.36701466603E+04  0.65000000000E+04  0.15050000000E+03 0. -1.
     100001    1    1    2    0    0  0.48905802382E+04  0.21999086744E+04  0.36701466603E+04  0.65000000000E+04  0.15050000000E+03 0.  1.
</event>
<event>
 4    1  0.4521369E-004  0.6500000E+04  0.7818608E-02  0.7223770E-01
         52   -1    0    0    0    0  0.00000000000E+00  0.00000000000E+00  0.64930732323E+04  0.65000000000E+04  0.30000000000E+03 0. -1.
        -52   -1    0    0    0    0 -0.00000000000E+00 -0.00000000000E+00 -0.64930732323E+04  0.65000000000E+04  0.30000000000E+03 0.  1.
     100001    1    1    2    0    0 -0.16693877689E+04 -0.27884755476E+03  0.62739730848E+04  0.65000000000E+04  0.15050000000E+03 0. -1.
     100001    1    1    2    0    0  0.16693877689E+04  0.27884755476E+03 -0.62739730848E+04  0.65000000000E+04  0.15050000000E+03 0.  1.
</event>
<event>
 4    1  0.4521369E-004  0.6500000E+04  0.7818608E-02  0.7223770E-01
         52   -1    0    0    0    0  0.00000000000E+00  0.00000000000E+00  0.64930732323E+04  0.65000000000E+04  0.30000000000E+03 0.  1.
        -52   -1    0    0    0    0 -0.00000000000E+00 -0.00000000000E+00 -0.64930732323E+04  0.65000000000E+04  0.30000000000E+03 0. -1.
     100001    1    1    2    0    0 -0.59053007819E+03 -0.50272509948E+04  0.40749688848E+04  0.65000000000E+04  0.15050000000E+03 0.  1.
     100001    1    1    2    0    0  0.59053007819E+03  0.50272509948E+04 -0.40749688848E+04  0.65000000000E+04  0.15050000000E+03 0. -1.
</event>
<event>
 4    1  0.4521369E-004  0.6500000E+04  0.7818608E-02  0.7223770E-01
         52   -1    0    0    0    0  0.00000000000E+00  0.00000000000E+00  0.64930732323E+04  0.65000000000E+04  0.30000000000E+03 0.  1.
        -52   -1    0    0    0    0 -0.00000000000E+00 -0.00000000000E+00 -0.64930732323E+04  0.65000000000E+04  0.30000000000E+03 0. -1.
     100001    1    1    2    0    0 -0.98115099643E+03  0.93599050767E+03 -0.63552037136E+04  0.65000000000E+04  0.15050000000E+03 0. -1.
     100001    1    1    2    0    0  0.98115099643E+03 -0.93599050767E+03  0.63552037136E+04  0.65000000000E+04  0.15050000000E+03 0.  1.
</event>
<event>
 4    1  0.4521369E-004  0.6500000E+04  0.7818608E-02  0.7223770E-01
         52   -1    0    0    0    0  0.00000000000E+00  0.00000000000E+00  0.64930732323E+04  0.65000000000E+04  0.30000000000E+03 0.  1.
        -52   -1    0    0    0    0 -0.00000000000E+00 -0.00000000000E+00 -0.64930732323E+04  0.65000000000E+04  0.30000000000E+03 0. -1.
     100001    1    1    2    0    0  0.11047443645E+03  0.14861415523E+04 -0.63250714174E+04  0.65000000000E+04  0.15050000000E+03 0. -1.
     100001    1    1    2    0    0 -0.11047443645E+03 -0.14861415523E+04  0.63250714174E+04  0.65000000000E+04  0.15050000000E+03 0.  1.
</event>
<event>
 4    1  0.4521369E-004  0.6500000E+04  0.7818608E-02  0.7223770E-01
         52   -1    0    0    0    0  0.00000000000E+00  0.00000000000E+00  0.64930732323E+04  0.65000000000E+04  0.30000000000E+03 0. -1.
        -52   -1    0    0    0    0 -0.00000000000E+00 -0.00000000000E+00 -0.64930732323E+04  0.65000000000E+04  0.30000000000E+03 0.  1.
     100001    1    1    2    0    0  0.43302985178E+04  0.48311017198E+04 -0.36921629134E+03  0.65000000000E+04  0.15050000000E+03 0.  1.
     100001    1    1    2    0    0 -0.43302985178E+04 -0.48311017198E+04  0.36921629134E+03  0.65000000000E+04  0.15050000000E+03 0. -1.
</event>
<event>
 4    1  0.4521369E-004  0.6500000E+04  0.7818608E-02  0.7223770E-01
         52   -1    0    0    0    0  0.00000000000E+00  0.00000000000E+00  0.64930732323E+04  0.65000000000E+04  0.30000000000E+03 0.  1.
        -52   -1    0    0    0    0 -0.00000000000E+00 -0.00000000000E+00 -0.64930732323E+04  0.65000000000E+04  0.30000000000E+03 0. -1.
     100001    1    1    2    0    0  0.60639384665E+03  0.61616943989E+03  0.64404946607E+04  0.65000000000E+04  0.15050000000E+03 0.  1.
     100001    1    1    2    0    0 -0.60639384665E+03 -0.61616943989E+03 -0.64404946607E+04  0.65000000000E+04  0.15050000000E+03 0. -1.
</event>
<event>
 4    1  0.4521369E-004  0.6500000E+04  0.7818608E-02  0.7223770E-01
         52   -1    0    0    0    0  0.00000000000E+00  0.00000000000E+00  0.64930732323E+04  0.65000000000E+04  0.30000000000E+03 0. -1.
        -52   -1    0    0    0    0 -0.00000000000E+00 -0.00000000000E+00 -0.64930732323E+04  0.65000000000E+04  0.30000000000E+03 0.  1.
     100001    1    1    2    0    0  0.31470063952E+03 -0.31833211789E+04 -0.56563928019E+04  0.65000000000E+04  0.15050000000E+03 0.  1.
     100001    1    1    2    0    0 -0.31470063952E+03  0.31833211789E+04  0.56563928019E+04  0.65000000000E+04  0.15050000000E+03 0. -1.
</event>
<event>
 4    1  0.4521369E-004  0.6500000E+04  0.7818608E-02  0.7223770E-01
         52   -1    0    0    0    0  0.00000000000E+00  0.00000000000E+00  0.64930732323E+04  0.65000000000E+04  0.30000000000E+03 0.  1.
        -52   -1    0    0    0    0 -0.00000000000E+00 -0.00000000000E+00 -0.64930732323E+04  0.65000000000E+04  0.30000000000E+03 0. -1.
     100001    1    1    2    0    0 -0.12166452521E+04 -0.19717336078E+04  0.60711935120E+04  0.65000000000E+04  0.15050000000E+03 0.  1.
     100001    1    1    2    0    0  0.12166452521E+04  0.19717336078E+04 -0.60711935120E+04  0.65000000000E+04  0.15050000000E+03 0. -1.
</event>
<event>
 4    1  0.4521369E-004  0.6500000E+04  0.7818608E-02  0.7223770E-01
         52   -1    0    0    0    0  0.00000000000E+00  0.00000000000E+00  0.64930732323E+04  0.65000000000E+04  0.30000000000E+03 0.  1.
        -52   -1    0    0    0    0 -0.00000000000E+00 -0.00000000000E+00 -0.64930732323E+04  0.65000000000E+04  0.30000000000E+03 0. -1.
     100001    1    1    2    0    0  0.42104934557E+04 -0.25204251999E+04 -0.42598769256E+04  0.65000000000E+04  0.15050000000E+03 0. -1.
     100001    1    1    2    0    0 -0.42104934557E+04  0.25204251999E+04  0.42598769256E+04  0.65000000000E+04  0.15050000000E+03 0.  1.
</event>
<event>
 4    1  0.4521369E-004  0.6500000E+04  0.7818608E-02  0.7223770E-01
         52   -1    0    0    0    0  0.00000000000E+00  0.00000000000E+00  0.64930732323E+04  0.65000000000E+04  0.30000000000E+03 0. -1.
        -52   -1    0    0    0    0 -0.00000000000E+00 -0.00000000000E+00 -0.64930732323E+04  0.65000000000E+04  0.30000000000E+03 0.  1.
     100001    1    1    2    0    0 -0.39845585625E+04  0.50932252680E+04 -0.64007748072E+03  0.65000000000E+04  0.15050000000E+03 0.  1.
     100001    1    1    2    0    0  0.39845585625E+04 -0.50932252680E+04  0.64007748072E+03  0.65000000000E+04  0.15050000000E+03 0. -1.
</event>
<event>
 4    1  0.4521369E-004  0.6500000E+04  0.7818608E-02  0.7223770E-01
         52   -1    0    0    0    0  0.00000000000E+00  0.00000000000E+00  0.64930732323E+04  0.65000000000E+04  0.30000000000E+03 0.  1.
        -52   -1    0    0    0    0 -0.00000000000E+00 -0.00000000000E+00 -0.64930732323E+04  0.65000000000E+04  0.30000000000E+03 0. -1.
     100001    1    1    2    0    0  0.19261517367E+03  0.75826519889E+00 -0.64954021099E+04  0.65000000000E+04  0.15050000000E+03 0. -1.
     100001    1    1    2    0    0 -0.19261517367E+03 -0.75826519889E+00  0.64954021099E+04  0.65000000000E+04  0.15050000000E+03 0.  1.
</event>
<event>
 4    1  0.4521369E-004  0.6500000E+04  0.7818608E-02  0.7223770E-01
         52   -1    0    0    0    0  0.00000000000E+00  0.00000000000E+00  0.64930732323E+04  0.65000000000E+04  0.30000000000E+03 0. -1.
        -52   -1    0    0    0    0 -0.00000000000E+00 -0.00000000000E+00 -0.64930732323E+04  0.65000000000E+04  0.30000000000E+03 0.  1.
     100001    1    1    2    0    0 -0.43830918054E+03  0.48586932172E+04 -0.42928236667E+04  0.65000000000E+04  0.15050000000E+03 0.  1.
     100001    1    1    2    0    0  0.43830918054E+03 -0.48586932172E+04  0.42928236667E+04  0.65000000000E+04  0.15050000000E+03 0. -1.
</event>
<event>
 4    1  0.4521369E-004  0.6500000E+04  0.7818608E-02  0.7223770E-01
         52   -1    0    0    0    0  0.00000000000E+00  0.00000000000E+00  0.64930732323E+04  0.65000000000E+04  0.30000000000E+03 0. -1.
        -52   -1    0    0    0    0 -0.00000000000E+00 -0.00000000000E+00 -0.64930732323E+04  0.65000000000E+04  0.30000000000E+03 0.  1.
     100001    1    1    2    0    0 -0.13598483217E+04  0.68647605895E+03 -0.63171918534E+04  0.65000000000E+04  0.15050000000E+03 0.  1.
     100001    1    1    2    0    0  0.13598483217E+04 -0.68647605895E+03  0.63171918534E+04  0.65000000000E+04  0.15050000000E+03 0. -1.
</event>
<event>
 4    1  0.4521369E-004  0.6500000E+04  0.7818608E-02  0.7223770E-01
         52   -1    0    0    0    0  0.00000000000E+00  0.00000000000E+00  0.64930732323E+04  0.65000000000E+04  0.30000000000E+03 0. -1.
        -52   -1    0    0    0    0 -0.00000000000E+00 -0.00000000000E+00 -0.64930732323E+04  0.65000000000E+04  0.30000000000E+03 0.  1.
     100001    1    1    2    0    0 -0.38215403115E+03  0.52288342092E+04  0.38393490150E+04  0.65000000000E+04  0.15050000000E+03 0. -1.
     100001    1    1    2    0    0  0.38215403115E+03 -0.52288342092E+04 -0.38393490150E+04  0.65000000000E+04  0.15050000000E+03 0.  1.
</event>
<event>
 4    1  0.4521369E-004  0.6500000E+04  0.7818608E-02  0.7223770E-01
         52   -1    0    0    0    0  0.00000000000E+00  0.00000000000E+00  0.64930732323E+04  0.65000000000E+04  0.30000000000E+03 0. -1.
        -52   -1    0    0    0    0 -0.00000000000E+00 -0.00000000000E+00 -0.64930732323E+04  0.65000000000E+04  0.30000000000E+03 0.  1.
     100001    1    1    2    0    0 -0.22467941178E+04 -0.11844405477E+04 -0.59813348453E+04  0.65000000000E+04  0.15050000000E+03 0.  1.
     100001    1    1    2    0    0  0.22467941178E+04  0.11844405477E+04  0.59813348453E+04  0.65000000000E+04  0.15050000000E+03 0. -1.
</event>
<event>
 4    1  0.4521369E-004  0.6500000E+04  0.7818608E-02  0.7223770E-01
         52   -1    0    0    0    0  0.00000000000E+00  0.00000000000E+00  0.64930732323E+04  0.65000000000E+04  0.30000000000E+03 0.  1.
        -52   -1    0    0    0    0 -0.00000000000E+00 -0.00000000000E+00 -0.64930732323E+04  0.65000000000E+04  0.30000000000E+03 0. -1.
     100001    1    1    2    0    0  0.14980468610E+04  0.14534998345E+03  0.63215566702E+04  0.65000000000E+04  0.15050000000E+03 0.  1.
     100001    1    1    2    0    0 -0.14980468610E+04 -0.14534998345E+03 -0.63215566702E+04  0.65000000000E+04  0.15050000000E+03 0. -1.
</event>
<event>
 4    1  0.4521369E-004  0.6500000E+04  0.7818608E-02  0.7223770E-01
         52   -1    0    0    0    0  0.00000000000E+00  0.00000000000E+00  0.64930732323E+04  0.65000000000E+04  0.30000000000E+03 0. -1.
        -52   -1    0    0    0    0 -0.00000000000E+00 -0.00000000000E+00 -0.64930732323E+04  0.65000000000E+04  0.30000000000E+03 0.  1.
     100001    1    1    2    0    0  0.40057124225E+03 -0.73952405202E+03 -0.64436012141E+04  0.65000000000E+04  0.15050000000E+03 0.  1.
     100001    1    1    2    0    0 -0.40057124225E+03  0.73952405202E+03  0.64436012141E+04  0.65000000000E+04  0.15050000000E+03 0. -1.
</event>
<event>
 4    1  0.4521369E-004  0.6500000E+04  0.7818608E-02  0.7223770E-01
         52   -1    0    0    0    0  0.00000000000E+00  0.00000000000E+00  0.64930732323E+04  0.65000000000E+04  0.30000000000E+03 0.  1.
        -52   -1    0    0    0    0 -0.00000000000E+00 -0.00000000000E+00 -0.64930732323E+04  0.65000000000E+04  0.30000000000E+03 0.  1.
     100001    1    1    2    0    0  0.80941673941E+03  0.24045205789E+03  0.64431651461E+04  0.65000000000E+04  0.15050000000E+03 0.  1.
     100001    1    1    2    0    0 -0.80941673941E+03 -0.24045205789E+03 -0.64431651461E+04  0.65000000000E+04  0.15050000000E+03 0.  1.
</event>
<event>
 4    1  0.4521369E-004  0.6500000E+04  0.7818608E-02  0.7223770E-01
         52   -1    0    0    0    0  0.00000000000E+00  0.00000000000E+00  0.64930732323E+04  0.65000000000E+04  0.30000000000E+03 0.  1.
        -52   -1    0    0    0    0 -0.00000000000E+00 -0.00000000000E+00 -0.64930732323E+04  0.65000000000E+04  0.30000000000E+03 0. -1.
     100001    1    1    2    0    0  0.31681648945E+03 -0.13822123644E+04 -0.63416453734E+04  0.65000000000E+04  0.15050000000E+03 0. -1.
     100001    1    1    2    0    0 -0.31681648945E+03  0.13822123644E+04  0.63416453734E+04  0.65000000000E+04  0.15050000000E+03 0.  1.
</event>
<event>
 4    1  0.4521369E-004  0.6500000E+04  0.7818608E-02  0.7223770E-01
         52   -1    0    0    0    0  0.00000000000E+00  0.00000000000E+00  0.64930732323E+04  0.65000000000E+04  0.30000000000E+03 0. -1.
        -52   -1    0    0    0    0 -0.00000000000E+00 -0.00000000000E+00 -0.64930732323E+04  0.65000000000E+04  0.30000000000E+03 0.  1.
     100001    1    1    2    0    0 -0.57400588929E+04 -0.17359794214E+04  0.25030879139E+04  0.65000000000E+04  0.15050000000E+03 0. -1.
     100001    1    1    2    0    0  0.57400588929E+04  0.17359794214E+04 -0.25030879139E+04  0.65000000000E+04  0.15050000000E+03 0.  1.
</event>
<event>
 4    1  0.4521369E-004  0.6500000E+04  0.7818608E-02  0.7223770E-01
         52   -1    0    0    0    0  0.00000000000E+00  0.00000000000E+00  0.64930732323E+04  0.65000000000E+04  0.30000000000E+03 0. -1.
        -52   -1    0    0    0    0 -0.00000000000E+00 -0.00000000000E+00 -0.64930732323E+04  0.65000000000E+04  0.30000000000E+03 0.  1.
     100001    1    1    2    0    0  0.39292923209E+03 -0.30655770744E+03 -0.64791186700E+04  0.65000000000E+04  0.15050000000E+03 0.  1.
     100001    1    1    2    0    0 -0.39292923209E+03  0.30655770744E+03  0.64791186700E+04  0.65000000000E+04  0.15050000000E+03 0. -1.
</event>
<event>
 4    1  0.4521369E-004  0.6500000E+04  0.7818608E-02  0.7223770E-01
         52   -1    0    0    0    0  0.00000000000E+00  0.00000000000E+00  0.64930732323E+04  0.65000000000E+04  0.30000000000E+03 0.  1.
        -52   -1    0    0    0    0 -0.00000000000E+00 -0.00000000000E+00 -0.64930732323E+04  0.65000000000E+04  0.30000000000E+03 0. -1.
     100001    1    1    2    0    0 -0.90615653793E+03  0.17945186841E+04  0.61794767393E+04  0.65000000000E+04  0.15050000000E+03 0.  1.
     100001    1    1    2    0    0  0.90615653793E+03 -0.17945186841E+04 -0.61794767393E+04  0.65000000000E+04  0.15050000000E+03 0. -1.
</event>
<event>
 4    1  0.4521369E-004  0.6500000E+04  0.7818608E-02  0.7223770E-01
         52   -1    0    0    0    0  0.00000000000E+00  0.00000000000E+00  0.64930732323E+04  0.65000000000E+04  0.30000000000E+03 0.  1.
        -52   -1    0    0    0    0 -0.00000000000E+00 -0.00000000000E+00 -0.64930732323E+04  0.65000000000E+04  0.30000000000E+03 0.  1.
     100001    1    1    2    0    0 -0.41684332428E+02 -0.95931103460E+02  0.64974155931E+04  0.65000000000E+04  0.15050000000E+03 0.  1.
     100001    1    1    2    0    0  0.41684332428E+02  0.95931103460E+02 -0.64974155931E+04  0.65000000000E+04  0.15050000000E+03 0.  1.
</event>
<event>
 4    1  0.4521369E-004  0.6500000E+04  0.7818608E-02  0.7223770E-01
         52   -1    0    0    0    0  0.00000000000E+00  0.00000000000E+00  0.64930732323E+04  0.65000000000E+04  0.30000000000E+03 0.  1.
        -52   -1    0    0    0    0 -0.00000000000E+00 -0.00000000000E+00 -0.64930732323E+04  0.65000000000E+04  0.30000000000E+03 0. -1.
     100001    1    1    2    0    0 -0.53291839070E+03  0.40771508819E+03 -0.64635219614E+04  0.65000000000E+04  0.15050000000E+03 0. -1.
     100001    1    1    2    0    0  0.53291839070E+03 -0.40771508819E+03  0.64635219614E+04  0.65000000000E+04  0.15050000000E+03 0.  1.
</event>
<event>
 4    1  0.4521369E-004  0.6500000E+04  0.7818608E-02  0.7223770E-01
         52   -1    0    0    0    0  0.00000000000E+00  0.00000000000E+00  0.64930732323E+04  0.65000000000E+04  0.30000000000E+03 0.  1.
        -52   -1    0    0    0    0 -0.00000000000E+00 -0.00000000000E+00 -0.64930732323E+04  0.65000000000E+04  0.30000000000E+03 0. -1.
     100001    1    1    2    0    0 -0.31459555962E+03  0.27153799575E+03 -0.64849553970E+04  0.65000000000E+04  0.15050000000E+03 0. -1.
     100001    1    1    2    0    0  0.31459555962E+03 -0.27153799575E+03  0.64849553970E+04  0.65000000000E+04  0.15050000000E+03 0.  1.
</event>
<event>
 4    1  0.4521369E-004  0.6500000E+04  0.7818608E-02  0.7223770E-01
         52   -1    0    0    0    0  0.00000000000E+00  0.00000000000E+00  0.64930732323E+04  0.65000000000E+04  0.30000000000E+03 0.  1.
        -52   -1    0    0    0    0 -0.00000000000E+00 -0.00000000000E+00 -0.64930732323E+04  0.65000000000E+04  0.30000000000E+03 0. -1.
     100001    1    1    2    0    0  0.19722055862E+04  0.24714306767E+04  0.56771282605E+04  0.65000000000E+04  0.15050000000E+03 0.  1.
     100001    1    1    2    0    0 -0.19722055862E+04 -0.24714306767E+04 -0.56771282605E+04  0.65000000000E+04  0.15050000000E+03 0. -1.
</event>
<event>
 4    1  0.4521369E-004  0.6500000E+04  0.7818608E-02  0.7223770E-01
         52   -1    0    0    0    0  0.00000000000E+00  0.00000000000E+00  0.64930732323E+04  0.65000000000E+04  0.30000000000E+03 0. -1.
        -52   -1    0    0    0    0 -0.00000000000E+00 -0.00000000000E+00 -0.64930732323E+04  0.65000000000E+04  0.30000000000E+03 0.  1.
     100001    1    1    2    0    0 -0.76142972179E+03  0.33283811619E+03  0.64449044459E+04  0.65000000000E+04  0.15050000000E+03 0. -1.
     100001    1    1    2    0    0  0.76142972179E+03 -0.33283811619E+03 -0.64449044459E+04  0.65000000000E+04  0.15050000000E+03 0.  1.
</event>
<event>
 4    1  0.4521369E-004  0.6500000E+04  0.7818608E-02  0.7223770E-01
         52   -1    0    0    0    0  0.00000000000E+00  0.00000000000E+00  0.64930732323E+04  0.65000000000E+04  0.30000000000E+03 0.  1.
        -52   -1    0    0    0    0 -0.00000000000E+00 -0.00000000000E+00 -0.64930732323E+04  0.65000000000E+04  0.30000000000E+03 0. -1.
     100001    1    1    2    0    0 -0.51687760275E+03 -0.33213884508E+03 -0.64691476317E+04  0.65000000000E+04  0.15050000000E+03 0. -1.
     100001    1    1    2    0    0  0.51687760275E+03  0.33213884508E+03  0.64691476317E+04  0.65000000000E+04  0.15050000000E+03 0.  1.
</event>
<event>
 4    1  0.4521369E-004  0.6500000E+04  0.7818608E-02  0.7223770E-01
         52   -1    0    0    0    0  0.00000000000E+00  0.00000000000E+00  0.64930732323E+04  0.65000000000E+04  0.30000000000E+03 0.  1.
        -52   -1    0    0    0    0 -0.00000000000E+00 -0.00000000000E+00 -0.64930732323E+04  0.65000000000E+04  0.30000000000E+03 0. -1.
     100001    1    1    2    0    0  0.22422295802E+03 -0.95409312949E+03  0.64239224867E+04  0.65000000000E+04  0.15050000000E+03 0.  1.
     100001    1    1    2    0    0 -0.22422295802E+03  0.95409312949E+03 -0.64239224867E+04  0.65000000000E+04  0.15050000000E+03 0. -1.
</event>
<event>
 4    1  0.4521369E-004  0.6500000E+04  0.7818608E-02  0.7223770E-01
         52   -1    0    0    0    0  0.00000000000E+00  0.00000000000E+00  0.64930732323E+04  0.65000000000E+04  0.30000000000E+03 0. -1.
        -52   -1    0    0    0    0 -0.00000000000E+00 -0.00000000000E+00 -0.64930732323E+04  0.65000000000E+04  0.30000000000E+03 0.  1.
     100001    1    1    2    0    0  0.29891222096E+03 -0.47548156950E+03  0.64739414974E+04  0.65000000000E+04  0.15050000000E+03 0. -1.
     100001    1    1    2    0    0 -0.29891222096E+03  0.47548156950E+03 -0.64739414974E+04  0.65000000000E+04  0.15050000000E+03 0.  1.
</event>
<event>
 4    1  0.4521369E-004  0.6500000E+04  0.7818608E-02  0.7223770E-01
         52   -1    0    0    0    0  0.00000000000E+00  0.00000000000E+00  0.64930732323E+04  0.65000000000E+04  0.30000000000E+03 0.  1.
        -52   -1    0    0    0    0 -0.00000000000E+00 -0.00000000000E+00 -0.64930732323E+04  0.65000000000E+04  0.30000000000E+03 0. -1.
     100001    1    1    2    0    0  0.91949464529E+03 -0.45423099916E+02 -0.64327145195E+04  0.65000000000E+04  0.15050000000E+03 0. -1.
     100001    1    1    2    0    0 -0.91949464529E+03  0.45423099916E+02  0.64327145195E+04  0.65000000000E+04  0.15050000000E+03 0.  1.
</event>
<event>
 4    1  0.4521369E-004  0.6500000E+04  0.7818608E-02  0.7223770E-01
         52   -1    0    0    0    0  0.00000000000E+00  0.00000000000E+00  0.64930732323E+04  0.65000000000E+04  0.30000000000E+03 0. -1.
        -52   -1    0    0    0    0 -0.00000000000E+00 -0.00000000000E+00 -0.64930732323E+04  0.65000000000E+04  0.30000000000E+03 0. -1.
     100001    1    1    2    0    0 -0.16215062911E+03  0.62328630570E+03 -0.64662640763E+04  0.65000000000E+04  0.15050000000E+03 0. -1.
     100001    1    1    2    0    0  0.16215062911E+03 -0.62328630570E+03  0.64662640763E+04  0.65000000000E+04  0.15050000000E+03 0. -1.
</event>
<event>
 4    1  0.4521369E-004  0.6500000E+04  0.7818608E-02  0.7223770E-01
         52   -1    0    0    0    0  0.00000000000E+00  0.00000000000E+00  0.64930732323E+04  0.65000000000E+04  0.30000000000E+03 0. -1.
        -52   -1    0    0    0    0 -0.00000000000E+00 -0.00000000000E+00 -0.64930732323E+04  0.65000000000E+04  0.30000000000E+03 0.  1.
     100001    1    1    2    0    0  0.11903813997E+04 -0.17326162229E+04  0.61488521610E+04  0.65000000000E+04  0.15050000000E+03 0. -1.
     100001    1    1    2    0    0 -0.11903813997E+04  0.17326162229E+04 -0.61488521610E+04  0.65000000000E+04  0.15050000000E+03 0.  1.
</event>
<event>
 4    1  0.4521369E-004  0.6500000E+04  0.7818608E-02  0.7223770E-01
         52   -1    0    0    0    0  0.00000000000E+00  0.00000000000E+00  0.64930732323E+04  0.65000000000E+04  0.30000000000E+03 0. -1.
        -52   -1    0    0    0    0 -0.00000000000E+00 -0.00000000000E+00 -0.64930732323E+04  0.65000000000E+04  0.30000000000E+03 0.  1.
     100001    1    1    2    0    0  0.61604524719E+03 -0.71982756122E+03 -0.64288168651E+04  0.65000000000E+04  0.15050000000E+03 0.  1.
     100001    1    1    2    0    0 -0.61604524719E+03  0.71982756122E+03  0.64288168651E+04  0.65000000000E+04  0.15050000000E+03 0. -1.
</event>
<event>
 4    1  0.4521369E-004  0.6500000E+04  0.7818608E-02  0.7223770E-01
         52   -1    0    0    0    0  0.00000000000E+00  0.00000000000E+00  0.64930732323E+04  0.65000000000E+04  0.30000000000E+03 0.  1.
        -52   -1    0    0    0    0 -0.00000000000E+00 -0.00000000000E+00 -0.64930732323E+04  0.65000000000E+04  0.30000000000E+03 0. -1.
     100001    1    1    2    0    0 -0.29457091394E+03  0.35291863823E+03  0.64819770257E+04  0.65000000000E+04  0.15050000000E+03 0.  1.
     100001    1    1    2    0    0  0.29457091394E+03 -0.35291863823E+03 -0.64819770257E+04  0.65000000000E+04  0.15050000000E+03 0. -1.
</event>
<event>
 4    1  0.4521369E-004  0.6500000E+04  0.7818608E-02  0.7223770E-01
         52   -1    0    0    0    0  0.00000000000E+00  0.00000000000E+00  0.64930732323E+04  0.65000000000E+04  0.30000000000E+03 0.  1.
        -52   -1    0    0    0    0 -0.00000000000E+00 -0.00000000000E+00 -0.64930732323E+04  0.65000000000E+04  0.30000000000E+03 0. -1.
     100001    1    1    2    0    0  0.25491885699E+04  0.14388877722E+04  0.58016023101E+04  0.65000000000E+04  0.15050000000E+03 0.  1.
     100001    1    1    2    0    0 -0.25491885699E+04 -0.14388877722E+04 -0.58016023101E+04  0.65000000000E+04  0.15050000000E+03 0. -1.
</event>
<event>
 4    1  0.4521369E-004  0.6500000E+04  0.7818608E-02  0.7223770E-01
         52   -1    0    0    0    0  0.00000000000E+00  0.00000000000E+00  0.64930732323E+04  0.65000000000E+04  0.30000000000E+03 0.  1.
        -52   -1    0    0    0    0 -0.00000000000E+00 -0.00000000000E+00 -0.64930732323E+04  0.65000000000E+04  0.30000000000E+03 0. -1.
     100001    1    1    2    0    0 -0.55372555947E+03 -0.43107549652E+03  0.64602563162E+04  0.65000000000E+04  0.15050000000E+03 0.  1.
     100001    1    1    2    0    0  0.55372555947E+03  0.43107549652E+03 -0.64602563162E+04  0.65000000000E+04  0.15050000000E+03 0. -1.
</event>
<event>
 4    1  0.4521369E-004  0.6500000E+04  0.7818608E-02  0.7223770E-01
         52   -1    0    0    0    0  0.00000000000E+00  0.00000000000E+00  0.64930732323E+04  0.65000000000E+04  0.30000000000E+03 0.  1.
        -52   -1    0    0    0    0 -0.00000000000E+00 -0.00000000000E+00 -0.64930732323E+04  0.65000000000E+04  0.30000000000E+03 0.  1.
     100001    1    1    2    0    0  0.12156281662E+03  0.47444976238E+03  0.64797738892E+04  0.65000000000E+04  0.15050000000E+03 0.  1.
     100001    1    1    2    0    0 -0.12156281662E+03 -0.47444976238E+03 -0.64797738892E+04  0.65000000000E+04  0.15050000000E+03 0.  1.
</event>
<event>
 4    1  0.4521369E-004  0.6500000E+04  0.7818608E-02  0.7223770E-01
         52   -1    0    0    0    0  0.00000000000E+00  0.00000000000E+00  0.64930732323E+04  0.65000000000E+04  0.30000000000E+03 0. -1.
        -52   -1    0    0    0    0 -0.00000000000E+00 -0.00000000000E+00 -0.64930732323E+04  0.65000000000E+04  0.30000000000E+03 0.  1.
     100001    1    1    2    0    0  0.41837839951E+04  0.18581412125E+04  0.46120074227E+04  0.65000000000E+04  0.15050000000E+03 0. -1.
     100001    1    1    2    0    0 -0.41837839951E+04 -0.18581412125E+04 -0.46120074227E+04  0.65000000000E+04  0.15050000000E+03 0.  1.
</event>
<event>
 4    1  0.4521369E-004  0.6500000E+04  0.7818608E-02  0.7223770E-01
         52   -1    0    0    0    0  0.00000000000E+00  0.00000000000E+00  0.64930732323E+04  0.65000000000E+04  0.30000000000E+03 0. -1.
        -52   -1    0    0    0    0 -0.00000000000E+00 -0.00000000000E+00 -0.64930732323E+04  0.65000000000E+04  0.30000000000E+03 0. -1.
     100001    1    1    2    0    0  0.14202596265E+04 -0.14503893569E+04  0.61730529770E+04  0.65000000000E+04  0.15050000000E+03 0. -1.
     100001    1    1    2    0    0 -0.14202596265E+04  0.14503893569E+04 -0.61730529770E+04  0.65000000000E+04  0.15050000000E+03 0. -1.
</event>
<event>
 4    1  0.4521369E-004  0.6500000E+04  0.7818608E-02  0.7223770E-01
         52   -1    0    0    0    0  0.00000000000E+00  0.00000000000E+00  0.64930732323E+04  0.65000000000E+04  0.30000000000E+03 0.  1.
        -52   -1    0    0    0    0 -0.00000000000E+00 -0.00000000000E+00 -0.64930732323E+04  0.65000000000E+04  0.30000000000E+03 0. -1.
     100001    1    1    2    0    0  0.16315875882E+04  0.46294170769E+04  0.42583763596E+04  0.65000000000E+04  0.15050000000E+03 0.  1.
     100001    1    1    2    0    0 -0.16315875882E+04 -0.46294170769E+04 -0.42583763596E+04  0.65000000000E+04  0.15050000000E+03 0. -1.
</event>
<event>
 4    1  0.4521369E-004  0.6500000E+04  0.7818608E-02  0.7223770E-01
         52   -1    0    0    0    0  0.00000000000E+00  0.00000000000E+00  0.64930732323E+04  0.65000000000E+04  0.30000000000E+03 0. -1.
        -52   -1    0    0    0    0 -0.00000000000E+00 -0.00000000000E+00 -0.64930732323E+04  0.65000000000E+04  0.30000000000E+03 0.  1.
     100001    1    1    2    0    0  0.63690729523E+04 -0.12301677282E+04  0.38593631363E+03  0.65000000000E+04  0.15050000000E+03 0.  1.
     100001    1    1    2    0    0 -0.63690729523E+04  0.12301677282E+04 -0.38593631363E+03  0.65000000000E+04  0.15050000000E+03 0. -1.
</event>
<event>
 4    1  0.4521369E-004  0.6500000E+04  0.7818608E-02  0.7223770E-01
         52   -1    0    0    0    0  0.00000000000E+00  0.00000000000E+00  0.64930732323E+04  0.65000000000E+04  0.30000000000E+03 0. -1.
        -52   -1    0    0    0    0 -0.00000000000E+00 -0.00000000000E+00 -0.64930732323E+04  0.65000000000E+04  0.30000000000E+03 0.  1.
     100001    1    1    2    0    0 -0.25929110447E+04 -0.11674466978E+04  0.58430497407E+04  0.65000000000E+04  0.15050000000E+03 0. -1.
     100001    1    1    2    0    0  0.25929110447E+04  0.11674466978E+04 -0.58430497407E+04  0.65000000000E+04  0.15050000000E+03 0.  1.
</event>
<event>
 4    1  0.4521369E-004  0.6500000E+04  0.7818608E-02  0.7223770E-01
         52   -1    0    0    0    0  0.00000000000E+00  0.00000000000E+00  0.64930732323E+04  0.65000000000E+04  0.30000000000E+03 0. -1.
        -52   -1    0    0    0    0 -0.00000000000E+00 -0.00000000000E+00 -0.64930732323E+04  0.65000000000E+04  0.30000000000E+03 0.  1.
     100001    1    1    2    0    0 -0.13488535053E+03  0.11212283273E+04 -0.63993751828E+04  0.65000000000E+04  0.15050000000E+03 0.  1.
     100001    1    1    2    0    0  0.13488535053E+03 -0.11212283273E+04  0.63993751828E+04  0.65000000000E+04  0.15050000000E+03 0. -1.
</event>
<event>
 4    1  0.4521369E-004  0.6500000E+04  0.7818608E-02  0.7223770E-01
         52   -1    0    0    0    0  0.00000000000E+00  0.00000000000E+00  0.64930732323E+04  0.65000000000E+04  0.30000000000E+03 0.  1.
        -52   -1    0    0    0    0 -0.00000000000E+00 -0.00000000000E+00 -0.64930732323E+04  0.65000000000E+04  0.30000000000E+03 0. -1.
     100001    1    1    2    0    0  0.45756871806E+04  0.57090756262E+03  0.45787008125E+04  0.65000000000E+04  0.15050000000E+03 0.  1.
     100001    1    1    2    0    0 -0.45756871806E+04 -0.57090756262E+03 -0.45787008125E+04  0.65000000000E+04  0.15050000000E+03 0. -1.
</event>
<event>
 4    1  0.4521369E-004  0.6500000E+04  0.7818608E-02  0.7223770E-01
         52   -1    0    0    0    0  0.00000000000E+00  0.00000000000E+00  0.64930732323E+04  0.65000000000E+04  0.30000000000E+03 0. -1.
        -52   -1    0    0    0    0 -0.00000000000E+00 -0.00000000000E+00 -0.64930732323E+04  0.65000000000E+04  0.30000000000E+03 0.  1.
     100001    1    1    2    0    0 -0.21953603688E+04  0.75639820417E+03  0.60692342481E+04  0.65000000000E+04  0.15050000000E+03 0. -1.
     100001    1    1    2    0    0  0.21953603688E+04 -0.75639820417E+03 -0.60692342481E+04  0.65000000000E+04  0.15050000000E+03 0.  1.
</event>
<event>
 4    1  0.4521369E-004  0.6500000E+04  0.7818608E-02  0.7223770E-01
         52   -1    0    0    0    0  0.00000000000E+00  0.00000000000E+00  0.64930732323E+04  0.65000000000E+04  0.30000000000E+03 0. -1.
        -52   -1    0    0    0    0 -0.00000000000E+00 -0.00000000000E+00 -0.64930732323E+04  0.65000000000E+04  0.30000000000E+03 0.  1.
     100001    1    1    2    0    0  0.99232996409E+03  0.13892663575E+04 -0.62699736826E+04  0.65000000000E+04  0.15050000000E+03 0.  1.
     100001    1    1    2    0    0 -0.99232996409E+03 -0.13892663575E+04  0.62699736826E+04  0.65000000000E+04  0.15050000000E+03 0. -1.
</event>
<event>
 4    1  0.4521369E-004  0.6500000E+04  0.7818608E-02  0.7223770E-01
         52   -1    0    0    0    0  0.00000000000E+00  0.00000000000E+00  0.64930732323E+04  0.65000000000E+04  0.30000000000E+03 0. -1.
        -52   -1    0    0    0    0 -0.00000000000E+00 -0.00000000000E+00 -0.64930732323E+04  0.65000000000E+04  0.30000000000E+03 0.  1.
     100001    1    1    2    0    0  0.15287120180E+03 -0.43348354518E+03  0.64819805740E+04  0.65000000000E+04  0.15050000000E+03 0. -1.
     100001    1    1    2    0    0 -0.15287120180E+03  0.43348354518E+03 -0.64819805740E+04  0.65000000000E+04  0.15050000000E+03 0.  1.
</event>
<event>
 4    1  0.4521369E-004  0.6500000E+04  0.7818608E-02  0.7223770E-01
         52   -1    0    0    0    0  0.00000000000E+00  0.00000000000E+00  0.64930732323E+04  0.65000000000E+04  0.30000000000E+03 0. -1.
        -52   -1    0    0    0    0 -0.00000000000E+00 -0.00000000000E+00 -0.64930732323E+04  0.65000000000E+04  0.30000000000E+03 0.  1.
     100001    1    1    2    0    0  0.53826316192E+04 -0.15630662121E+04 -0.32880770397E+04  0.65000000000E+04  0.15050000000E+03 0.  1.
     100001    1    1    2    0    0 -0.53826316192E+04  0.15630662121E+04  0.32880770397E+04  0.65000000000E+04  0.15050000000E+03 0. -1.
</event>
<event>
 4    1  0.4521369E-004  0.6500000E+04  0.7818608E-02  0.7223770E-01
         52   -1    0    0    0    0  0.00000000000E+00  0.00000000000E+00  0.64930732323E+04  0.65000000000E+04  0.30000000000E+03 0.  1.
        -52   -1    0    0    0    0 -0.00000000000E+00 -0.00000000000E+00 -0.64930732323E+04  0.65000000000E+04  0.30000000000E+03 0. -1.
     100001    1    1    2    0    0 -0.26437218918E+04  0.11519456871E+04  0.58233242605E+04  0.65000000000E+04  0.15050000000E+03 0.  1.
     100001    1    1    2    0    0  0.26437218918E+04 -0.11519456871E+04 -0.58233242605E+04  0.65000000000E+04  0.15050000000E+03 0. -1.
</event>
<event>
 4    1  0.4521369E-004  0.6500000E+04  0.7818608E-02  0.7223770E-01
         52   -1    0    0    0    0  0.00000000000E+00  0.00000000000E+00  0.64930732323E+04  0.65000000000E+04  0.30000000000E+03 0. -1.
        -52   -1    0    0    0    0 -0.00000000000E+00 -0.00000000000E+00 -0.64930732323E+04  0.65000000000E+04  0.30000000000E+03 0.  1.
     100001    1    1    2    0    0  0.23912762268E+03  0.15687650989E+04  0.63015191656E+04  0.65000000000E+04  0.15050000000E+03 0. -1.
     100001    1    1    2    0    0 -0.23912762268E+03 -0.15687650989E+04 -0.63015191656E+04  0.65000000000E+04  0.15050000000E+03 0.  1.
</event>
<event>
 4    1  0.4521369E-004  0.6500000E+04  0.7818608E-02  0.7223770E-01
         52   -1    0    0    0    0  0.00000000000E+00  0.00000000000E+00  0.64930732323E+04  0.65000000000E+04  0.30000000000E+03 0.  1.
        -52   -1    0    0    0    0 -0.00000000000E+00 -0.00000000000E+00 -0.64930732323E+04  0.65000000000E+04  0.30000000000E+03 0. -1.
     100001    1    1    2    0    0 -0.24780663349E+04 -0.59323256519E+04  0.94554182835E+03  0.65000000000E+04  0.15050000000E+03 0. -1.
     100001    1    1    2    0    0  0.24780663349E+04  0.59323256519E+04 -0.94554182835E+03  0.65000000000E+04  0.15050000000E+03 0.  1.
</event>
<event>
 4    1  0.4521369E-004  0.6500000E+04  0.7818608E-02  0.7223770E-01
         52   -1    0    0    0    0  0.00000000000E+00  0.00000000000E+00  0.64930732323E+04  0.65000000000E+04  0.30000000000E+03 0. -1.
        -52   -1    0    0    0    0 -0.00000000000E+00 -0.00000000000E+00 -0.64930732323E+04  0.65000000000E+04  0.30000000000E+03 0.  1.
     100001    1    1    2    0    0 -0.12257061280E+04 -0.76366856692E+03 -0.63357560368E+04  0.65000000000E+04  0.15050000000E+03 0.  1.
     100001    1    1    2    0    0  0.12257061280E+04  0.76366856692E+03  0.63357560368E+04  0.65000000000E+04  0.15050000000E+03 0. -1.
</event>
<event>
 4    1  0.4521369E-004  0.6500000E+04  0.7818608E-02  0.7223770E-01
         52   -1    0    0    0    0  0.00000000000E+00  0.00000000000E+00  0.64930732323E+04  0.65000000000E+04  0.30000000000E+03 0.  1.
        -52   -1    0    0    0    0 -0.00000000000E+00 -0.00000000000E+00 -0.64930732323E+04  0.65000000000E+04  0.30000000000E+03 0. -1.
     100001    1    1    2    0    0 -0.98108624982E+03 -0.57742111625E+03  0.63977655767E+04  0.65000000000E+04  0.15050000000E+03 0.  1.
     100001    1    1    2    0    0  0.98108624982E+03  0.57742111625E+03 -0.63977655767E+04  0.65000000000E+04  0.15050000000E+03 0. -1.
</event>
<event>
 4    1  0.4521369E-004  0.6500000E+04  0.7818608E-02  0.7223770E-01
         52   -1    0    0    0    0  0.00000000000E+00  0.00000000000E+00  0.64930732323E+04  0.65000000000E+04  0.30000000000E+03 0. -1.
        -52   -1    0    0    0    0 -0.00000000000E+00 -0.00000000000E+00 -0.64930732323E+04  0.65000000000E+04  0.30000000000E+03 0.  1.
     100001    1    1    2    0    0 -0.10353801689E+04 -0.24487359752E+04 -0.59295050198E+04  0.65000000000E+04  0.15050000000E+03 0.  1.
     100001    1    1    2    0    0  0.10353801689E+04  0.24487359752E+04  0.59295050198E+04  0.65000000000E+04  0.15050000000E+03 0. -1.
</event>
<event>
 4    1  0.4521369E-004  0.6500000E+04  0.7818608E-02  0.7223770E-01
         52   -1    0    0    0    0  0.00000000000E+00  0.00000000000E+00  0.64930732323E+04  0.65000000000E+04  0.30000000000E+03 0.  1.
        -52   -1    0    0    0    0 -0.00000000000E+00 -0.00000000000E+00 -0.64930732323E+04  0.65000000000E+04  0.30000000000E+03 0. -1.
     100001    1    1    2    0    0  0.31839755287E+04 -0.88886353528E+03 -0.55946019696E+04  0.65000000000E+04  0.15050000000E+03 0. -1.
     100001    1    1    2    0    0 -0.31839755287E+04  0.88886353528E+03  0.55946019696E+04  0.65000000000E+04  0.15050000000E+03 0.  1.
</event>
<event>
 4    1  0.4565622E-004  0.6500000E+04  0.7818608E-02  0.7223770E-01
         52   -1    0    0    0    0  0.00000000000E+00  0.00000000000E+00  0.64930732323E+04  0.65000000000E+04  0.30000000000E+03 0.  1.
        -52   -1    0    0    0    0 -0.00000000000E+00 -0.00000000000E+00 -0.64930732323E+04  0.65000000000E+04  0.30000000000E+03 0. -1.
     100001    1    1    2    0    0 -0.12498780541E+03 -0.24192583485E+03  0.64925495523E+04  0.65000000000E+04  0.15050000000E+03 0.  1.
     100001    1    1    2    0    0  0.12498780541E+03  0.24192583485E+03 -0.64925495523E+04  0.65000000000E+04  0.15050000000E+03 0. -1.
</event>
<event>
 4    1  0.4521369E-004  0.6500000E+04  0.7818608E-02  0.7223770E-01
         52   -1    0    0    0    0  0.00000000000E+00  0.00000000000E+00  0.64930732323E+04  0.65000000000E+04  0.30000000000E+03 0. -1.
        -52   -1    0    0    0    0 -0.00000000000E+00 -0.00000000000E+00 -0.64930732323E+04  0.65000000000E+04  0.30000000000E+03 0. -1.
     100001    1    1    2    0    0 -0.13921541823E+04 -0.11278938678E+03 -0.63463796795E+04  0.65000000000E+04  0.15050000000E+03 0. -1.
     100001    1    1    2    0    0  0.13921541823E+04  0.11278938678E+03  0.63463796795E+04  0.65000000000E+04  0.15050000000E+03 0. -1.
</event>
<event>
 4    1  0.4521369E-004  0.6500000E+04  0.7818608E-02  0.7223770E-01
         52   -1    0    0    0    0  0.00000000000E+00  0.00000000000E+00  0.64930732323E+04  0.65000000000E+04  0.30000000000E+03 0. -1.
        -52   -1    0    0    0    0 -0.00000000000E+00 -0.00000000000E+00 -0.64930732323E+04  0.65000000000E+04  0.30000000000E+03 0.  1.
     100001    1    1    2    0    0 -0.31704647874E+03 -0.41150842932E+03 -0.64774603120E+04  0.65000000000E+04  0.15050000000E+03 0.  1.
     100001    1    1    2    0    0  0.31704647874E+03  0.41150842932E+03  0.64774603120E+04  0.65000000000E+04  0.15050000000E+03 0. -1.
</event>
<event>
 4    1  0.4521369E-004  0.6500000E+04  0.7818608E-02  0.7223770E-01
         52   -1    0    0    0    0  0.00000000000E+00  0.00000000000E+00  0.64930732323E+04  0.65000000000E+04  0.30000000000E+03 0.  1.
        -52   -1    0    0    0    0 -0.00000000000E+00 -0.00000000000E+00 -0.64930732323E+04  0.65000000000E+04  0.30000000000E+03 0. -1.
     100001    1    1    2    0    0 -0.28823803011E+04 -0.23667889292E+04 -0.53214230911E+04  0.65000000000E+04  0.15050000000E+03 0. -1.
     100001    1    1    2    0    0  0.28823803011E+04  0.23667889292E+04  0.53214230911E+04  0.65000000000E+04  0.15050000000E+03 0.  1.
</event>
<event>
 4    1  0.4521369E-004  0.6500000E+04  0.7818608E-02  0.7223770E-01
         52   -1    0    0    0    0  0.00000000000E+00  0.00000000000E+00  0.64930732323E+04  0.65000000000E+04  0.30000000000E+03 0.  1.
        -52   -1    0    0    0    0 -0.00000000000E+00 -0.00000000000E+00 -0.64930732323E+04  0.65000000000E+04  0.30000000000E+03 0. -1.
     100001    1    1    2    0    0  0.62442840590E+03 -0.26775838802E+03 -0.64626422121E+04  0.65000000000E+04  0.15050000000E+03 0. -1.
     100001    1    1    2    0    0 -0.62442840590E+03  0.26775838802E+03  0.64626422121E+04  0.65000000000E+04  0.15050000000E+03 0.  1.
</event>
<event>
 4    1  0.4521369E-004  0.6500000E+04  0.7818608E-02  0.7223770E-01
         52   -1    0    0    0    0  0.00000000000E+00  0.00000000000E+00  0.64930732323E+04  0.65000000000E+04  0.30000000000E+03 0. -1.
        -52   -1    0    0    0    0 -0.00000000000E+00 -0.00000000000E+00 -0.64930732323E+04  0.65000000000E+04  0.30000000000E+03 0.  1.
     100001    1    1    2    0    0 -0.82724694030E+03 -0.14880344538E+04  0.62712650808E+04  0.65000000000E+04  0.15050000000E+03 0. -1.
     100001    1    1    2    0    0  0.82724694030E+03  0.14880344538E+04 -0.62712650808E+04  0.65000000000E+04  0.15050000000E+03 0.  1.
</event>
<event>
 4    1  0.4521369E-004  0.6500000E+04  0.7818608E-02  0.7223770E-01
         52   -1    0    0    0    0  0.00000000000E+00  0.00000000000E+00  0.64930732323E+04  0.65000000000E+04  0.30000000000E+03 0. -1.
        -52   -1    0    0    0    0 -0.00000000000E+00 -0.00000000000E+00 -0.64930732323E+04  0.65000000000E+04  0.30000000000E+03 0.  1.
     100001    1    1    2    0    0 -0.31553131459E+03  0.48530135989E+03 -0.64724239918E+04  0.65000000000E+04  0.15050000000E+03 0.  1.
     100001    1    1    2    0    0  0.31553131459E+03 -0.48530135989E+03  0.64724239918E+04  0.65000000000E+04  0.15050000000E+03 0. -1.
</event>
<event>
 4    1  0.4521369E-004  0.6500000E+04  0.7818608E-02  0.7223770E-01
         52   -1    0    0    0    0  0.00000000000E+00  0.00000000000E+00  0.64930732323E+04  0.65000000000E+04  0.30000000000E+03 0. -1.
        -52   -1    0    0    0    0 -0.00000000000E+00 -0.00000000000E+00 -0.64930732323E+04  0.65000000000E+04  0.30000000000E+03 0.  1.
     100001    1    1    2    0    0  0.23152039126E+03  0.29458604006E+04 -0.57875430503E+04  0.65000000000E+04  0.15050000000E+03 0.  1.
     100001    1    1    2    0    0 -0.23152039126E+03 -0.29458604006E+04  0.57875430503E+04  0.65000000000E+04  0.15050000000E+03 0. -1.
</event>
<event>
 4    1  0.4521369E-004  0.6500000E+04  0.7818608E-02  0.7223770E-01
         52   -1    0    0    0    0  0.00000000000E+00  0.00000000000E+00  0.64930732323E+04  0.65000000000E+04  0.30000000000E+03 0.  1.
        -52   -1    0    0    0    0 -0.00000000000E+00 -0.00000000000E+00 -0.64930732323E+04  0.65000000000E+04  0.30000000000E+03 0. -1.
     100001    1    1    2    0    0 -0.10362004907E+04 -0.26873916214E+04 -0.58250806489E+04  0.65000000000E+04  0.15050000000E+03 0. -1.
     100001    1    1    2    0    0  0.10362004907E+04  0.26873916214E+04  0.58250806489E+04  0.65000000000E+04  0.15050000000E+03 0.  1.
</event>
<event>
 4    1  0.4521369E-004  0.6500000E+04  0.7818608E-02  0.7223770E-01
         52   -1    0    0    0    0  0.00000000000E+00  0.00000000000E+00  0.64930732323E+04  0.65000000000E+04  0.30000000000E+03 0. -1.
        -52   -1    0    0    0    0 -0.00000000000E+00 -0.00000000000E+00 -0.64930732323E+04  0.65000000000E+04  0.30000000000E+03 0.  1.
     100001    1    1    2    0    0  0.40889377968E+03  0.52549293021E+03  0.64640554459E+04  0.65000000000E+04  0.15050000000E+03 0. -1.
     100001    1    1    2    0    0 -0.40889377968E+03 -0.52549293021E+03 -0.64640554459E+04  0.65000000000E+04  0.15050000000E+03 0.  1.
</event>
<event>
 4    1  0.4521369E-004  0.6500000E+04  0.7818608E-02  0.7223770E-01
         52   -1    0    0    0    0  0.00000000000E+00  0.00000000000E+00  0.64930732323E+04  0.65000000000E+04  0.30000000000E+03 0.  1.
        -52   -1    0    0    0    0 -0.00000000000E+00 -0.00000000000E+00 -0.64930732323E+04  0.65000000000E+04  0.30000000000E+03 0. -1.
     100001    1    1    2    0    0  0.17609657683E+04 -0.64987104116E+03  0.62212552546E+04  0.65000000000E+04  0.15050000000E+03 0.  1.
     100001    1    1    2    0    0 -0.17609657683E+04  0.64987104116E+03 -0.62212552546E+04  0.65000000000E+04  0.15050000000E+03 0. -1.
</event>
<event>
 4    1  0.4521369E-004  0.6500000E+04  0.7818608E-02  0.7223770E-01
         52   -1    0    0    0    0  0.00000000000E+00  0.00000000000E+00  0.64930732323E+04  0.65000000000E+04  0.30000000000E+03 0. -1.
        -52   -1    0    0    0    0 -0.00000000000E+00 -0.00000000000E+00 -0.64930732323E+04  0.65000000000E+04  0.30000000000E+03 0.  1.
     100001    1    1    2    0    0  0.11068651770E+04 -0.63097259821E+03 -0.63721325167E+04  0.65000000000E+04  0.15050000000E+03 0.  1.
     100001    1    1    2    0    0 -0.11068651770E+04  0.63097259821E+03  0.63721325167E+04  0.65000000000E+04  0.15050000000E+03 0. -1.
</event>
<event>
 4    1  0.4521369E-004  0.6500000E+04  0.7818608E-02  0.7223770E-01
         52   -1    0    0    0    0  0.00000000000E+00  0.00000000000E+00  0.64930732323E+04  0.65000000000E+04  0.30000000000E+03 0. -1.
        -52   -1    0    0    0    0 -0.00000000000E+00 -0.00000000000E+00 -0.64930732323E+04  0.65000000000E+04  0.30000000000E+03 0. -1.
     100001    1    1    2    0    0  0.13909211759E+03 -0.36623147395E+03 -0.64864379778E+04  0.65000000000E+04  0.15050000000E+03 0. -1.
     100001    1    1    2    0    0 -0.13909211759E+03  0.36623147395E+03  0.64864379778E+04  0.65000000000E+04  0.15050000000E+03 0. -1.
</event>
<event>
 4    1  0.4521369E-004  0.6500000E+04  0.7818608E-02  0.7223770E-01
         52   -1    0    0    0    0  0.00000000000E+00  0.00000000000E+00  0.64930732323E+04  0.65000000000E+04  0.30000000000E+03 0. -1.
        -52   -1    0    0    0    0 -0.00000000000E+00 -0.00000000000E+00 -0.64930732323E+04  0.65000000000E+04  0.30000000000E+03 0.  1.
     100001    1    1    2    0    0 -0.61221633013E+04 -0.14424003375E+04  0.16327729568E+04  0.65000000000E+04  0.15050000000E+03 0. -1.
     100001    1    1    2    0    0  0.61221633013E+04  0.14424003375E+04 -0.16327729568E+04  0.65000000000E+04  0.15050000000E+03 0.  1.
</event>
<event>
 4    1  0.4521369E-004  0.6500000E+04  0.7818608E-02  0.7223770E-01
         52   -1    0    0    0    0  0.00000000000E+00  0.00000000000E+00  0.64930732323E+04  0.65000000000E+04  0.30000000000E+03 0. -1.
        -52   -1    0    0    0    0 -0.00000000000E+00 -0.00000000000E+00 -0.64930732323E+04  0.65000000000E+04  0.30000000000E+03 0. -1.
     100001    1    1    2    0    0 -0.30634258829E+03 -0.10793108017E+03 -0.64901351951E+04  0.65000000000E+04  0.15050000000E+03 0. -1.
     100001    1    1    2    0    0  0.30634258829E+03  0.10793108017E+03  0.64901351951E+04  0.65000000000E+04  0.15050000000E+03 0. -1.
</event>
<event>
 4    1  0.4521369E-004  0.6500000E+04  0.7818608E-02  0.7223770E-01
         52   -1    0    0    0    0  0.00000000000E+00  0.00000000000E+00  0.64930732323E+04  0.65000000000E+04  0.30000000000E+03 0. -1.
        -52   -1    0    0    0    0 -0.00000000000E+00 -0.00000000000E+00 -0.64930732323E+04  0.65000000000E+04  0.30000000000E+03 0. -1.
     100001    1    1    2    0    0 -0.37558987308E+03 -0.97641890345E+02 -0.64866592371E+04  0.65000000000E+04  0.15050000000E+03 0. -1.
     100001    1    1    2    0    0  0.37558987308E+03  0.97641890345E+02  0.64866592371E+04  0.65000000000E+04  0.15050000000E+03 0. -1.
</event>
<event>
 4    1  0.4521369E-004  0.6500000E+04  0.7818608E-02  0.7223770E-01
         52   -1    0    0    0    0  0.00000000000E+00  0.00000000000E+00  0.64930732323E+04  0.65000000000E+04  0.30000000000E+03 0.  1.
        -52   -1    0    0    0    0 -0.00000000000E+00 -0.00000000000E+00 -0.64930732323E+04  0.65000000000E+04  0.30000000000E+03 0. -1.
     100001    1    1    2    0    0 -0.34456887554E+04 -0.70352207913E+03 -0.54643970788E+04  0.65000000000E+04  0.15050000000E+03 0. -1.
     100001    1    1    2    0    0  0.34456887554E+04  0.70352207913E+03  0.54643970788E+04  0.65000000000E+04  0.15050000000E+03 0.  1.
</event>
<event>
 4    1  0.4521369E-004  0.6500000E+04  0.7818608E-02  0.7223770E-01
         52   -1    0    0    0    0  0.00000000000E+00  0.00000000000E+00  0.64930732323E+04  0.65000000000E+04  0.30000000000E+03 0. -1.
        -52   -1    0    0    0    0 -0.00000000000E+00 -0.00000000000E+00 -0.64930732323E+04  0.65000000000E+04  0.30000000000E+03 0.  1.
     100001    1    1    2    0    0  0.16594290566E+03 -0.45359055709E+04 -0.46503089525E+04  0.65000000000E+04  0.15050000000E+03 0.  1.
     100001    1    1    2    0    0 -0.16594290566E+03  0.45359055709E+04  0.46503089525E+04  0.65000000000E+04  0.15050000000E+03 0. -1.
</event>
<event>
 4    1  0.4521369E-004  0.6500000E+04  0.7818608E-02  0.7223770E-01
         52   -1    0    0    0    0  0.00000000000E+00  0.00000000000E+00  0.64930732323E+04  0.65000000000E+04  0.30000000000E+03 0.  1.
        -52   -1    0    0    0    0 -0.00000000000E+00 -0.00000000000E+00 -0.64930732323E+04  0.65000000000E+04  0.30000000000E+03 0. -1.
     100001    1    1    2    0    0  0.54553992468E+03  0.36496316511E+03 -0.64650241940E+04  0.65000000000E+04  0.15050000000E+03 0. -1.
     100001    1    1    2    0    0 -0.54553992468E+03 -0.36496316511E+03  0.64650241940E+04  0.65000000000E+04  0.15050000000E+03 0.  1.
</event>
<event>
 4    1  0.4521369E-004  0.6500000E+04  0.7818608E-02  0.7223770E-01
         52   -1    0    0    0    0  0.00000000000E+00  0.00000000000E+00  0.64930732323E+04  0.65000000000E+04  0.30000000000E+03 0.  1.
        -52   -1    0    0    0    0 -0.00000000000E+00 -0.00000000000E+00 -0.64930732323E+04  0.65000000000E+04  0.30000000000E+03 0. -1.
     100001    1    1    2    0    0  0.12244653067E+04  0.10912497620E+04 -0.62878619911E+04  0.65000000000E+04  0.15050000000E+03 0. -1.
     100001    1    1    2    0    0 -0.12244653067E+04 -0.10912497620E+04  0.62878619911E+04  0.65000000000E+04  0.15050000000E+03 0.  1.
</event>
<event>
 4    1  0.4521369E-004  0.6500000E+04  0.7818608E-02  0.7223770E-01
         52   -1    0    0    0    0  0.00000000000E+00  0.00000000000E+00  0.64930732323E+04  0.65000000000E+04  0.30000000000E+03 0.  1.
        -52   -1    0    0    0    0 -0.00000000000E+00 -0.00000000000E+00 -0.64930732323E+04  0.65000000000E+04  0.30000000000E+03 0. -1.
     100001    1    1    2    0    0  0.19599888949E+03  0.19524974096E+03 -0.64923656493E+04  0.65000000000E+04  0.15050000000E+03 0. -1.
     100001    1    1    2    0    0 -0.19599888949E+03 -0.19524974096E+03  0.64923656493E+04  0.65000000000E+04  0.15050000000E+03 0.  1.
</event>
<event>
 4    1  0.4521369E-004  0.6500000E+04  0.7818608E-02  0.7223770E-01
         52   -1    0    0    0    0  0.00000000000E+00  0.00000000000E+00  0.64930732323E+04  0.65000000000E+04  0.30000000000E+03 0. -1.
        -52   -1    0    0    0    0 -0.00000000000E+00 -0.00000000000E+00 -0.64930732323E+04  0.65000000000E+04  0.30000000000E+03 0.  1.
     100001    1    1    2    0    0  0.12630436867E+04 -0.58212208908E+03  0.63476928304E+04  0.65000000000E+04  0.15050000000E+03 0. -1.
     100001    1    1    2    0    0 -0.12630436867E+04  0.58212208908E+03 -0.63476928304E+04  0.65000000000E+04  0.15050000000E+03 0.  1.
</event>
<event>
 4    1  0.4521369E-004  0.6500000E+04  0.7818608E-02  0.7223770E-01
         52   -1    0    0    0    0  0.00000000000E+00  0.00000000000E+00  0.64930732323E+04  0.65000000000E+04  0.30000000000E+03 0. -1.
        -52   -1    0    0    0    0 -0.00000000000E+00 -0.00000000000E+00 -0.64930732323E+04  0.65000000000E+04  0.30000000000E+03 0.  1.
     100001    1    1    2    0    0  0.11862290922E+04  0.97703691373E+03  0.63139218526E+04  0.65000000000E+04  0.15050000000E+03 0. -1.
     100001    1    1    2    0    0 -0.11862290922E+04 -0.97703691373E+03 -0.63139218526E+04  0.65000000000E+04  0.15050000000E+03 0.  1.
</event>
<event>
 4    1  0.4521369E-004  0.6500000E+04  0.7818608E-02  0.7223770E-01
         52   -1    0    0    0    0  0.00000000000E+00  0.00000000000E+00  0.64930732323E+04  0.65000000000E+04  0.30000000000E+03 0. -1.
        -52   -1    0    0    0    0 -0.00000000000E+00 -0.00000000000E+00 -0.64930732323E+04  0.65000000000E+04  0.30000000000E+03 0.  1.
     100001    1    1    2    0    0 -0.19995655568E+03  0.79880319903E+03  0.64458731430E+04  0.65000000000E+04  0.15050000000E+03 0. -1.
     100001    1    1    2    0    0  0.19995655568E+03 -0.79880319903E+03 -0.64458731430E+04  0.65000000000E+04  0.15050000000E+03 0.  1.
</event>
<event>
 4    1  0.4521369E-004  0.6500000E+04  0.7818608E-02  0.7223770E-01
         52   -1    0    0    0    0  0.00000000000E+00  0.00000000000E+00  0.64930732323E+04  0.65000000000E+04  0.30000000000E+03 0. -1.
        -52   -1    0    0    0    0 -0.00000000000E+00 -0.00000000000E+00 -0.64930732323E+04  0.65000000000E+04  0.30000000000E+03 0.  1.
     100001    1    1    2    0    0  0.13545733997E+03  0.64946288604E+04 -0.16969686218E+03  0.65000000000E+04  0.15050000000E+03 0. -1.
     100001    1    1    2    0    0 -0.13545733997E+03 -0.64946288604E+04  0.16969686218E+03  0.65000000000E+04  0.15050000000E+03 0.  1.
</event>
<event>
 4    1  0.4521369E-004  0.6500000E+04  0.7818608E-02  0.7223770E-01
         52   -1    0    0    0    0  0.00000000000E+00  0.00000000000E+00  0.64930732323E+04  0.65000000000E+04  0.30000000000E+03 0.  1.
        -52   -1    0    0    0    0 -0.00000000000E+00 -0.00000000000E+00 -0.64930732323E+04  0.65000000000E+04  0.30000000000E+03 0.  1.
     100001    1    1    2    0    0 -0.50313918531E+03  0.60279454910E+03  0.64506464360E+04  0.65000000000E+04  0.15050000000E+03 0.  1.
     100001    1    1    2    0    0  0.50313918531E+03 -0.60279454910E+03 -0.64506464360E+04  0.65000000000E+04  0.15050000000E+03 0.  1.
</event>
<event>
 4    1  0.4521369E-004  0.6500000E+04  0.7818608E-02  0.7223770E-01
         52   -1    0    0    0    0  0.00000000000E+00  0.00000000000E+00  0.64930732323E+04  0.65000000000E+04  0.30000000000E+03 0. -1.
        -52   -1    0    0    0    0 -0.00000000000E+00 -0.00000000000E+00 -0.64930732323E+04  0.65000000000E+04  0.30000000000E+03 0.  1.
     100001    1    1    2    0    0 -0.47289895068E+04  0.15055031492E+04  0.41949336422E+04  0.65000000000E+04  0.15050000000E+03 0. -1.
     100001    1    1    2    0    0  0.47289895068E+04 -0.15055031492E+04 -0.41949336422E+04  0.65000000000E+04  0.15050000000E+03 0.  1.
</event>
<event>
 4    1  0.4521369E-004  0.6500000E+04  0.7818608E-02  0.7223770E-01
         52   -1    0    0    0    0  0.00000000000E+00  0.00000000000E+00  0.64930732323E+04  0.65000000000E+04  0.30000000000E+03 0. -1.
        -52   -1    0    0    0    0 -0.00000000000E+00 -0.00000000000E+00 -0.64930732323E+04  0.65000000000E+04  0.30000000000E+03 0.  1.
     100001    1    1    2    0    0 -0.20878772627E+03  0.38927134331E+03  0.64832264542E+04  0.65000000000E+04  0.15050000000E+03 0. -1.
     100001    1    1    2    0    0  0.20878772627E+03 -0.38927134331E+03 -0.64832264542E+04  0.65000000000E+04  0.15050000000E+03 0.  1.
</event>
<event>
 4    1  0.4521369E-004  0.6500000E+04  0.7818608E-02  0.7223770E-01
         52   -1    0    0    0    0  0.00000000000E+00  0.00000000000E+00  0.64930732323E+04  0.65000000000E+04  0.30000000000E+03 0.  1.
        -52   -1    0    0    0    0 -0.00000000000E+00 -0.00000000000E+00 -0.64930732323E+04  0.65000000000E+04  0.30000000000E+03 0. -1.
     100001    1    1    2    0    0 -0.81759471803E+03  0.47908184198E+04  0.43135771114E+04  0.65000000000E+04  0.15050000000E+03 0.  1.
     100001    1    1    2    0    0  0.81759471803E+03 -0.47908184198E+04 -0.43135771114E+04  0.65000000000E+04  0.15050000000E+03 0. -1.
</event>
<event>
 4    1  0.4521369E-004  0.6500000E+04  0.7818608E-02  0.7223770E-01
         52   -1    0    0    0    0  0.00000000000E+00  0.00000000000E+00  0.64930732323E+04  0.65000000000E+04  0.30000000000E+03 0. -1.
        -52   -1    0    0    0    0 -0.00000000000E+00 -0.00000000000E+00 -0.64930732323E+04  0.65000000000E+04  0.30000000000E+03 0.  1.
     100001    1    1    2    0    0  0.47327772526E+03  0.93838744682E+02  0.64803203806E+04  0.65000000000E+04  0.15050000000E+03 0. -1.
     100001    1    1    2    0    0 -0.47327772526E+03 -0.93838744682E+02 -0.64803203806E+04  0.65000000000E+04  0.15050000000E+03 0.  1.
</event>
<event>
 4    1  0.4521369E-004  0.6500000E+04  0.7818608E-02  0.7223770E-01
         52   -1    0    0    0    0  0.00000000000E+00  0.00000000000E+00  0.64930732323E+04  0.65000000000E+04  0.30000000000E+03 0. -1.
        -52   -1    0    0    0    0 -0.00000000000E+00 -0.00000000000E+00 -0.64930732323E+04  0.65000000000E+04  0.30000000000E+03 0.  1.
     100001    1    1    2    0    0  0.17647903771E+04  0.95198106634E+02  0.62533032867E+04  0.65000000000E+04  0.15050000000E+03 0. -1.
     100001    1    1    2    0    0 -0.17647903771E+04 -0.95198106634E+02 -0.62533032867E+04  0.65000000000E+04  0.15050000000E+03 0.  1.
</event>
<event>
 4    1  0.4521369E-004  0.6500000E+04  0.7818608E-02  0.7223770E-01
         52   -1    0    0    0    0  0.00000000000E+00  0.00000000000E+00  0.64930732323E+04  0.65000000000E+04  0.30000000000E+03 0.  1.
        -52   -1    0    0    0    0 -0.00000000000E+00 -0.00000000000E+00 -0.64930732323E+04  0.65000000000E+04  0.30000000000E+03 0. -1.
     100001    1    1    2    0    0 -0.24866114536E+03  0.50652234164E+03  0.64737124204E+04  0.65000000000E+04  0.15050000000E+03 0.  1.
     100001    1    1    2    0    0  0.24866114536E+03 -0.50652234164E+03 -0.64737124204E+04  0.65000000000E+04  0.15050000000E+03 0. -1.
</event>
<event>
 4    1  0.4521369E-004  0.6500000E+04  0.7818608E-02  0.7223770E-01
         52   -1    0    0    0    0  0.00000000000E+00  0.00000000000E+00  0.64930732323E+04  0.65000000000E+04  0.30000000000E+03 0.  1.
        -52   -1    0    0    0    0 -0.00000000000E+00 -0.00000000000E+00 -0.64930732323E+04  0.65000000000E+04  0.30000000000E+03 0. -1.
     100001    1    1    2    0    0 -0.34794478247E+04 -0.21671003912E+03  0.54839610998E+04  0.65000000000E+04  0.15050000000E+03 0.  1.
     100001    1    1    2    0    0  0.34794478247E+04  0.21671003912E+03 -0.54839610998E+04  0.65000000000E+04  0.15050000000E+03 0. -1.
</event>
<event>
 4    1  0.4521369E-004  0.6500000E+04  0.7818608E-02  0.7223770E-01
         52   -1    0    0    0    0  0.00000000000E+00  0.00000000000E+00  0.64930732323E+04  0.65000000000E+04  0.30000000000E+03 0.  1.
        -52   -1    0    0    0    0 -0.00000000000E+00 -0.00000000000E+00 -0.64930732323E+04  0.65000000000E+04  0.30000000000E+03 0. -1.
     100001    1    1    2    0    0  0.40512919304E+03  0.18172518915E+03 -0.64830699551E+04  0.65000000000E+04  0.15050000000E+03 0. -1.
     100001    1    1    2    0    0 -0.40512919304E+03 -0.18172518915E+03  0.64830699551E+04  0.65000000000E+04  0.15050000000E+03 0.  1.
</event>
<event>
 4    1  0.4521369E-004  0.6500000E+04  0.7818608E-02  0.7223770E-01
         52   -1    0    0    0    0  0.00000000000E+00  0.00000000000E+00  0.64930732323E+04  0.65000000000E+04  0.30000000000E+03 0. -1.
        -52   -1    0    0    0    0 -0.00000000000E+00 -0.00000000000E+00 -0.64930732323E+04  0.65000000000E+04  0.30000000000E+03 0.  1.
     100001    1    1    2    0    0 -0.26933560310E+04  0.38193959307E+04 -0.45150191323E+04  0.65000000000E+04  0.15050000000E+03 0.  1.
     100001    1    1    2    0    0  0.26933560310E+04 -0.38193959307E+04  0.45150191323E+04  0.65000000000E+04  0.15050000000E+03 0. -1.
</event>
<event>
 4    1  0.4521369E-004  0.6500000E+04  0.7818608E-02  0.7223770E-01
         52   -1    0    0    0    0  0.00000000000E+00  0.00000000000E+00  0.64930732323E+04  0.65000000000E+04  0.30000000000E+03 0. -1.
        -52   -1    0    0    0    0 -0.00000000000E+00 -0.00000000000E+00 -0.64930732323E+04  0.65000000000E+04  0.30000000000E+03 0.  1.
     100001    1    1    2    0    0 -0.33679575002E+03 -0.74988508983E+03 -0.64460523365E+04  0.65000000000E+04  0.15050000000E+03 0.  1.
     100001    1    1    2    0    0  0.33679575002E+03  0.74988508983E+03  0.64460523365E+04  0.65000000000E+04  0.15050000000E+03 0. -1.
</event>
<event>
 4    1  0.4521369E-004  0.6500000E+04  0.7818608E-02  0.7223770E-01
         52   -1    0    0    0    0  0.00000000000E+00  0.00000000000E+00  0.64930732323E+04  0.65000000000E+04  0.30000000000E+03 0. -1.
        -52   -1    0    0    0    0 -0.00000000000E+00 -0.00000000000E+00 -0.64930732323E+04  0.65000000000E+04  0.30000000000E+03 0.  1.
     100001    1    1    2    0    0  0.40198678425E+04 -0.49115830104E+04 -0.13944047512E+04  0.65000000000E+04  0.15050000000E+03 0.  1.
     100001    1    1    2    0    0 -0.40198678425E+04  0.49115830104E+04  0.13944047512E+04  0.65000000000E+04  0.15050000000E+03 0. -1.
</event>
<event>
 4    1  0.4521369E-004  0.6500000E+04  0.7818608E-02  0.7223770E-01
         52   -1    0    0    0    0  0.00000000000E+00  0.00000000000E+00  0.64930732323E+04  0.65000000000E+04  0.30000000000E+03 0.  1.
        -52   -1    0    0    0    0 -0.00000000000E+00 -0.00000000000E+00 -0.64930732323E+04  0.65000000000E+04  0.30000000000E+03 0. -1.
     100001    1    1    2    0    0 -0.44590292768E+04  0.43457492474E+04 -0.18598040589E+04  0.65000000000E+04  0.15050000000E+03 0.  1.
     100001    1    1    2    0    0  0.44590292768E+04 -0.43457492474E+04  0.18598040589E+04  0.65000000000E+04  0.15050000000E+03 0. -1.
</event>
<event>
 4    1  0.4521369E-004  0.6500000E+04  0.7818608E-02  0.7223770E-01
         52   -1    0    0    0    0  0.00000000000E+00  0.00000000000E+00  0.64930732323E+04  0.65000000000E+04  0.30000000000E+03 0.  1.
        -52   -1    0    0    0    0 -0.00000000000E+00 -0.00000000000E+00 -0.64930732323E+04  0.65000000000E+04  0.30000000000E+03 0. -1.
     100001    1    1    2    0    0  0.44473659523E+04 -0.18678857730E+04  0.43542265186E+04  0.65000000000E+04  0.15050000000E+03 0.  1.
     100001    1    1    2    0    0 -0.44473659523E+04  0.18678857730E+04 -0.43542265186E+04  0.65000000000E+04  0.15050000000E+03 0. -1.
</event>
<event>
 4    1  0.4521369E-004  0.6500000E+04  0.7818608E-02  0.7223770E-01
         52   -1    0    0    0    0  0.00000000000E+00  0.00000000000E+00  0.64930732323E+04  0.65000000000E+04  0.30000000000E+03 0. -1.
        -52   -1    0    0    0    0 -0.00000000000E+00 -0.00000000000E+00 -0.64930732323E+04  0.65000000000E+04  0.30000000000E+03 0. -1.
     100001    1    1    2    0    0 -0.10050055700E+03 -0.23944639543E+03 -0.64930666724E+04  0.65000000000E+04  0.15050000000E+03 0. -1.
     100001    1    1    2    0    0  0.10050055700E+03  0.23944639543E+03  0.64930666724E+04  0.65000000000E+04  0.15050000000E+03 0. -1.
</event>
<event>
 4    1  0.4521369E-004  0.6500000E+04  0.7818608E-02  0.7223770E-01
         52   -1    0    0    0    0  0.00000000000E+00  0.00000000000E+00  0.64930732323E+04  0.65000000000E+04  0.30000000000E+03 0.  1.
        -52   -1    0    0    0    0 -0.00000000000E+00 -0.00000000000E+00 -0.64930732323E+04  0.65000000000E+04  0.30000000000E+03 0. -1.
     100001    1    1    2    0    0 -0.25856936783E+03 -0.19353520880E+03  0.64902261713E+04  0.65000000000E+04  0.15050000000E+03 0.  1.
     100001    1    1    2    0    0  0.25856936783E+03  0.19353520880E+03 -0.64902261713E+04  0.65000000000E+04  0.15050000000E+03 0. -1.
</event>
<event>
 4    1  0.4521369E-004  0.6500000E+04  0.7818608E-02  0.7223770E-01
         52   -1    0    0    0    0  0.00000000000E+00  0.00000000000E+00  0.64930732323E+04  0.65000000000E+04  0.30000000000E+03 0.  1.
        -52   -1    0    0    0    0 -0.00000000000E+00 -0.00000000000E+00 -0.64930732323E+04  0.65000000000E+04  0.30000000000E+03 0. -1.
     100001    1    1    2    0    0  0.47635220415E+03  0.19999337980E+03  0.64776879344E+04  0.65000000000E+04  0.15050000000E+03 0.  1.
     100001    1    1    2    0    0 -0.47635220415E+03 -0.19999337980E+03 -0.64776879344E+04  0.65000000000E+04  0.15050000000E+03 0. -1.
</event>
<event>
 4    1  0.4521369E-004  0.6500000E+04  0.7818608E-02  0.7223770E-01
         52   -1    0    0    0    0  0.00000000000E+00  0.00000000000E+00  0.64930732323E+04  0.65000000000E+04  0.30000000000E+03 0.  1.
        -52   -1    0    0    0    0 -0.00000000000E+00 -0.00000000000E+00 -0.64930732323E+04  0.65000000000E+04  0.30000000000E+03 0. -1.
     100001    1    1    2    0    0  0.66294482657E+03 -0.30363760636E+04  0.57068620368E+04  0.65000000000E+04  0.15050000000E+03 0.  1.
     100001    1    1    2    0    0 -0.66294482657E+03  0.30363760636E+04 -0.57068620368E+04  0.65000000000E+04  0.15050000000E+03 0. -1.
</event>
<event>
 4    1  0.4521369E-004  0.6500000E+04  0.7818608E-02  0.7223770E-01
         52   -1    0    0    0    0  0.00000000000E+00  0.00000000000E+00  0.64930732323E+04  0.65000000000E+04  0.30000000000E+03 0.  1.
        -52   -1    0    0    0    0 -0.00000000000E+00 -0.00000000000E+00 -0.64930732323E+04  0.65000000000E+04  0.30000000000E+03 0. -1.
     100001    1    1    2    0    0  0.21758746247E+03 -0.74408669280E+03  0.64518478314E+04  0.65000000000E+04  0.15050000000E+03 0.  1.
     100001    1    1    2    0    0 -0.21758746247E+03  0.74408669280E+03 -0.64518478314E+04  0.65000000000E+04  0.15050000000E+03 0. -1.
</event>
<event>
 4    1  0.4521369E-004  0.6500000E+04  0.7818608E-02  0.7223770E-01
         52   -1    0    0    0    0  0.00000000000E+00  0.00000000000E+00  0.64930732323E+04  0.65000000000E+04  0.30000000000E+03 0.  1.
        -52   -1    0    0    0    0 -0.00000000000E+00 -0.00000000000E+00 -0.64930732323E+04  0.65000000000E+04  0.30000000000E+03 0. -1.
     100001    1    1    2    0    0 -0.13167376864E+03  0.29158887134E+03 -0.64903765452E+04  0.65000000000E+04  0.15050000000E+03 0. -1.
     100001    1    1    2    0    0  0.13167376864E+03 -0.29158887134E+03  0.64903765452E+04  0.65000000000E+04  0.15050000000E+03 0.  1.
</event>
<event>
 4    1  0.4521369E-004  0.6500000E+04  0.7818608E-02  0.7223770E-01
         52   -1    0    0    0    0  0.00000000000E+00  0.00000000000E+00  0.64930732323E+04  0.65000000000E+04  0.30000000000E+03 0. -1.
        -52   -1    0    0    0    0 -0.00000000000E+00 -0.00000000000E+00 -0.64930732323E+04  0.65000000000E+04  0.30000000000E+03 0.  1.
     100001    1    1    2    0    0 -0.95102284250E+03  0.51545992850E+03 -0.64075897469E+04  0.65000000000E+04  0.15050000000E+03 0.  1.
     100001    1    1    2    0    0  0.95102284250E+03 -0.51545992850E+03  0.64075897469E+04  0.65000000000E+04  0.15050000000E+03 0. -1.
</event>
<event>
 4    1  0.4521369E-004  0.6500000E+04  0.7818608E-02  0.7223770E-01
         52   -1    0    0    0    0  0.00000000000E+00  0.00000000000E+00  0.64930732323E+04  0.65000000000E+04  0.30000000000E+03 0.  1.
        -52   -1    0    0    0    0 -0.00000000000E+00 -0.00000000000E+00 -0.64930732323E+04  0.65000000000E+04  0.30000000000E+03 0. -1.
     100001    1    1    2    0    0  0.94020603250E+03 -0.16882387767E+04 -0.62042898223E+04  0.65000000000E+04  0.15050000000E+03 0. -1.
     100001    1    1    2    0    0 -0.94020603250E+03  0.16882387767E+04  0.62042898223E+04  0.65000000000E+04  0.15050000000E+03 0.  1.
</event>
<event>
 4    1  0.4521369E-004  0.6500000E+04  0.7818608E-02  0.7223770E-01
         52   -1    0    0    0    0  0.00000000000E+00  0.00000000000E+00  0.64930732323E+04  0.65000000000E+04  0.30000000000E+03 0. -1.
        -52   -1    0    0    0    0 -0.00000000000E+00 -0.00000000000E+00 -0.64930732323E+04  0.65000000000E+04  0.30000000000E+03 0.  1.
     100001    1    1    2    0    0 -0.21711729674E+04  0.37348450497E+03 -0.61134169676E+04  0.65000000000E+04  0.15050000000E+03 0.  1.
     100001    1    1    2    0    0  0.21711729674E+04 -0.37348450497E+03  0.61134169676E+04  0.65000000000E+04  0.15050000000E+03 0. -1.
</event>
<event>
 4    1  0.4521369E-004  0.6500000E+04  0.7818608E-02  0.7223770E-01
         52   -1    0    0    0    0  0.00000000000E+00  0.00000000000E+00  0.64930732323E+04  0.65000000000E+04  0.30000000000E+03 0.  1.
        -52   -1    0    0    0    0 -0.00000000000E+00 -0.00000000000E+00 -0.64930732323E+04  0.65000000000E+04  0.30000000000E+03 0. -1.
     100001    1    1    2    0    0  0.17641639531E+04  0.28016931171E+04 -0.55915642689E+04  0.65000000000E+04  0.15050000000E+03 0. -1.
     100001    1    1    2    0    0 -0.17641639531E+04 -0.28016931171E+04  0.55915642689E+04  0.65000000000E+04  0.15050000000E+03 0.  1.
</event>
<event>
 4    1  0.4521369E-004  0.6500000E+04  0.7818608E-02  0.7223770E-01
         52   -1    0    0    0    0  0.00000000000E+00  0.00000000000E+00  0.64930732323E+04  0.65000000000E+04  0.30000000000E+03 0.  1.
        -52   -1    0    0    0    0 -0.00000000000E+00 -0.00000000000E+00 -0.64930732323E+04  0.65000000000E+04  0.30000000000E+03 0. -1.
     100001    1    1    2    0    0 -0.59895535091E+03 -0.19270892842E+04  0.61769676321E+04  0.65000000000E+04  0.15050000000E+03 0.  1.
     100001    1    1    2    0    0  0.59895535091E+03  0.19270892842E+04 -0.61769676321E+04  0.65000000000E+04  0.15050000000E+03 0. -1.
</event>
<event>
 4    1  0.4521369E-004  0.6500000E+04  0.7818608E-02  0.7223770E-01
         52   -1    0    0    0    0  0.00000000000E+00  0.00000000000E+00  0.64930732323E+04  0.65000000000E+04  0.30000000000E+03 0.  1.
        -52   -1    0    0    0    0 -0.00000000000E+00 -0.00000000000E+00 -0.64930732323E+04  0.65000000000E+04  0.30000000000E+03 0. -1.
     100001    1    1    2    0    0 -0.32700730114E+02  0.12728844264E+04  0.63722873169E+04  0.65000000000E+04  0.15050000000E+03 0.  1.
     100001    1    1    2    0    0  0.32700730114E+02 -0.12728844264E+04 -0.63722873169E+04  0.65000000000E+04  0.15050000000E+03 0. -1.
</event>
<event>
 4    1  0.4521369E-004  0.6500000E+04  0.7818608E-02  0.7223770E-01
         52   -1    0    0    0    0  0.00000000000E+00  0.00000000000E+00  0.64930732323E+04  0.65000000000E+04  0.30000000000E+03 0. -1.
        -52   -1    0    0    0    0 -0.00000000000E+00 -0.00000000000E+00 -0.64930732323E+04  0.65000000000E+04  0.30000000000E+03 0.  1.
     100001    1    1    2    0    0  0.39188384222E+03  0.95973809665E+03  0.64150354317E+04  0.65000000000E+04  0.15050000000E+03 0. -1.
     100001    1    1    2    0    0 -0.39188384222E+03 -0.95973809665E+03 -0.64150354317E+04  0.65000000000E+04  0.15050000000E+03 0.  1.
</event>
<event>
 4    1  0.4521369E-004  0.6500000E+04  0.7818608E-02  0.7223770E-01
         52   -1    0    0    0    0  0.00000000000E+00  0.00000000000E+00  0.64930732323E+04  0.65000000000E+04  0.30000000000E+03 0. -1.
        -52   -1    0    0    0    0 -0.00000000000E+00 -0.00000000000E+00 -0.64930732323E+04  0.65000000000E+04  0.30000000000E+03 0.  1.
     100001    1    1    2    0    0 -0.50210956353E+03  0.86509034304E+02 -0.64782522275E+04  0.65000000000E+04  0.15050000000E+03 0.  1.
     100001    1    1    2    0    0  0.50210956353E+03 -0.86509034304E+02  0.64782522275E+04  0.65000000000E+04  0.15050000000E+03 0. -1.
</event>
<event>
 4    1  0.4521369E-004  0.6500000E+04  0.7818608E-02  0.7223770E-01
         52   -1    0    0    0    0  0.00000000000E+00  0.00000000000E+00  0.64930732323E+04  0.65000000000E+04  0.30000000000E+03 0.  1.
        -52   -1    0    0    0    0 -0.00000000000E+00 -0.00000000000E+00 -0.64930732323E+04  0.65000000000E+04  0.30000000000E+03 0. -1.
     100001    1    1    2    0    0  0.96287429198E+03  0.11620242063E+04  0.63205951137E+04  0.65000000000E+04  0.15050000000E+03 0.  1.
     100001    1    1    2    0    0 -0.96287429198E+03 -0.11620242063E+04 -0.63205951137E+04  0.65000000000E+04  0.15050000000E+03 0. -1.
</event>
<event>
 4    1  0.4521369E-004  0.6500000E+04  0.7818608E-02  0.7223770E-01
         52   -1    0    0    0    0  0.00000000000E+00  0.00000000000E+00  0.64930732323E+04  0.65000000000E+04  0.30000000000E+03 0.  1.
        -52   -1    0    0    0    0 -0.00000000000E+00 -0.00000000000E+00 -0.64930732323E+04  0.65000000000E+04  0.30000000000E+03 0. -1.
     100001    1    1    2    0    0  0.86523563100E+03 -0.64219457164E+03 -0.64082995549E+04  0.65000000000E+04  0.15050000000E+03 0. -1.
     100001    1    1    2    0    0 -0.86523563100E+03  0.64219457164E+03  0.64082995549E+04  0.65000000000E+04  0.15050000000E+03 0.  1.
</event>
<event>
 4    1  0.4521369E-004  0.6500000E+04  0.7818608E-02  0.7223770E-01
         52   -1    0    0    0    0  0.00000000000E+00  0.00000000000E+00  0.64930732323E+04  0.65000000000E+04  0.30000000000E+03 0. -1.
        -52   -1    0    0    0    0 -0.00000000000E+00 -0.00000000000E+00 -0.64930732323E+04  0.65000000000E+04  0.30000000000E+03 0.  1.
     100001    1    1    2    0    0  0.14146352373E+04 -0.12182025837E+04 -0.62243183852E+04  0.65000000000E+04  0.15050000000E+03 0.  1.
     100001    1    1    2    0    0 -0.14146352373E+04  0.12182025837E+04  0.62243183852E+04  0.65000000000E+04  0.15050000000E+03 0. -1.
</event>
<event>
 4    1  0.4521369E-004  0.6500000E+04  0.7818608E-02  0.7223770E-01
         52   -1    0    0    0    0  0.00000000000E+00  0.00000000000E+00  0.64930732323E+04  0.65000000000E+04  0.30000000000E+03 0. -1.
        -52   -1    0    0    0    0 -0.00000000000E+00 -0.00000000000E+00 -0.64930732323E+04  0.65000000000E+04  0.30000000000E+03 0.  1.
     100001    1    1    2    0    0 -0.53430396978E+03  0.14556737997E+03 -0.64746180703E+04  0.65000000000E+04  0.15050000000E+03 0.  1.
     100001    1    1    2    0    0  0.53430396978E+03 -0.14556737997E+03  0.64746180703E+04  0.65000000000E+04  0.15050000000E+03 0. -1.
</event>
<event>
 4    1  0.4521369E-004  0.6500000E+04  0.7818608E-02  0.7223770E-01
         52   -1    0    0    0    0  0.00000000000E+00  0.00000000000E+00  0.64930732323E+04  0.65000000000E+04  0.30000000000E+03 0. -1.
        -52   -1    0    0    0    0 -0.00000000000E+00 -0.00000000000E+00 -0.64930732323E+04  0.65000000000E+04  0.30000000000E+03 0. -1.
     100001    1    1    2    0    0  0.54251174723E+03  0.46411760390E+03 -0.64589182998E+04  0.65000000000E+04  0.15050000000E+03 0. -1.
     100001    1    1    2    0    0 -0.54251174723E+03 -0.46411760390E+03  0.64589182998E+04  0.65000000000E+04  0.15050000000E+03 0. -1.
</event>
<event>
 4    1  0.4521369E-004  0.6500000E+04  0.7818608E-02  0.7223770E-01
         52   -1    0    0    0    0  0.00000000000E+00  0.00000000000E+00  0.64930732323E+04  0.65000000000E+04  0.30000000000E+03 0.  1.
        -52   -1    0    0    0    0 -0.00000000000E+00 -0.00000000000E+00 -0.64930732323E+04  0.65000000000E+04  0.30000000000E+03 0. -1.
     100001    1    1    2    0    0  0.14410658439E+04  0.62236846357E+03 -0.63058176694E+04  0.65000000000E+04  0.15050000000E+03 0. -1.
     100001    1    1    2    0    0 -0.14410658439E+04 -0.62236846357E+03  0.63058176694E+04  0.65000000000E+04  0.15050000000E+03 0.  1.
</event>
<event>
 4    1  0.4521369E-004  0.6500000E+04  0.7818608E-02  0.7223770E-01
         52   -1    0    0    0    0  0.00000000000E+00  0.00000000000E+00  0.64930732323E+04  0.65000000000E+04  0.30000000000E+03 0. -1.
        -52   -1    0    0    0    0 -0.00000000000E+00 -0.00000000000E+00 -0.64930732323E+04  0.65000000000E+04  0.30000000000E+03 0.  1.
     100001    1    1    2    0    0 -0.10699073938E+04  0.34111550741E+04  0.54264785063E+04  0.65000000000E+04  0.15050000000E+03 0. -1.
     100001    1    1    2    0    0  0.10699073938E+04 -0.34111550741E+04 -0.54264785063E+04  0.65000000000E+04  0.15050000000E+03 0.  1.
</event>
<event>
 4    1  0.4521369E-004  0.6500000E+04  0.7818608E-02  0.7223770E-01
         52   -1    0    0    0    0  0.00000000000E+00  0.00000000000E+00  0.64930732323E+04  0.65000000000E+04  0.30000000000E+03 0.  1.
        -52   -1    0    0    0    0 -0.00000000000E+00 -0.00000000000E+00 -0.64930732323E+04  0.65000000000E+04  0.30000000000E+03 0.  1.
     100001    1    1    2    0    0 -0.11626363716E+04 -0.83766856773E+03  0.63382913934E+04  0.65000000000E+04  0.15050000000E+03 0.  1.
     100001    1    1    2    0    0  0.11626363716E+04  0.83766856773E+03 -0.63382913934E+04  0.65000000000E+04  0.15050000000E+03 0.  1.
</event>
<event>
 4    1  0.4521369E-004  0.6500000E+04  0.7818608E-02  0.7223770E-01
         52   -1    0    0    0    0  0.00000000000E+00  0.00000000000E+00  0.64930732323E+04  0.65000000000E+04  0.30000000000E+03 0. -1.
        -52   -1    0    0    0    0 -0.00000000000E+00 -0.00000000000E+00 -0.64930732323E+04  0.65000000000E+04  0.30000000000E+03 0.  1.
     100001    1    1    2    0    0  0.48854376250E+03 -0.11945968944E+04 -0.63687999656E+04  0.65000000000E+04  0.15050000000E+03 0.  1.
     100001    1    1    2    0    0 -0.48854376250E+03  0.11945968944E+04  0.63687999656E+04  0.65000000000E+04  0.15050000000E+03 0. -1.
</event>
<event>
 4    1  0.4521369E-004  0.6500000E+04  0.7818608E-02  0.7223770E-01
         52   -1    0    0    0    0  0.00000000000E+00  0.00000000000E+00  0.64930732323E+04  0.65000000000E+04  0.30000000000E+03 0. -1.
        -52   -1    0    0    0    0 -0.00000000000E+00 -0.00000000000E+00 -0.64930732323E+04  0.65000000000E+04  0.30000000000E+03 0.  1.
     100001    1    1    2    0    0 -0.14761816887E+04 -0.13456936642E+04 -0.61836353332E+04  0.65000000000E+04  0.15050000000E+03 0.  1.
     100001    1    1    2    0    0  0.14761816887E+04  0.13456936642E+04  0.61836353332E+04  0.65000000000E+04  0.15050000000E+03 0. -1.
</event>
<event>
 4    1  0.4521369E-004  0.6500000E+04  0.7818608E-02  0.7223770E-01
         52   -1    0    0    0    0  0.00000000000E+00  0.00000000000E+00  0.64930732323E+04  0.65000000000E+04  0.30000000000E+03 0.  1.
        -52   -1    0    0    0    0 -0.00000000000E+00 -0.00000000000E+00 -0.64930732323E+04  0.65000000000E+04  0.30000000000E+03 0. -1.
     100001    1    1    2    0    0  0.41386953531E+04  0.17722262402E+04  0.46859112964E+04  0.65000000000E+04  0.15050000000E+03 0.  1.
     100001    1    1    2    0    0 -0.41386953531E+04 -0.17722262402E+04 -0.46859112964E+04  0.65000000000E+04  0.15050000000E+03 0. -1.
</event>
<event>
 4    1  0.4521369E-004  0.6500000E+04  0.7818608E-02  0.7223770E-01
         52   -1    0    0    0    0  0.00000000000E+00  0.00000000000E+00  0.64930732323E+04  0.65000000000E+04  0.30000000000E+03 0. -1.
        -52   -1    0    0    0    0 -0.00000000000E+00 -0.00000000000E+00 -0.64930732323E+04  0.65000000000E+04  0.30000000000E+03 0. -1.
     100001    1    1    2    0    0  0.15232649966E+03 -0.47507115296E+03 -0.64790781587E+04  0.65000000000E+04  0.15050000000E+03 0. -1.
     100001    1    1    2    0    0 -0.15232649966E+03  0.47507115296E+03  0.64790781587E+04  0.65000000000E+04  0.15050000000E+03 0. -1.
</event>
<event>
 4    1  0.4521369E-004  0.6500000E+04  0.7818608E-02  0.7223770E-01
         52   -1    0    0    0    0  0.00000000000E+00  0.00000000000E+00  0.64930732323E+04  0.65000000000E+04  0.30000000000E+03 0.  1.
        -52   -1    0    0    0    0 -0.00000000000E+00 -0.00000000000E+00 -0.64930732323E+04  0.65000000000E+04  0.30000000000E+03 0. -1.
     100001    1    1    2    0    0  0.18557635117E+04 -0.11189042640E+04  0.61262994366E+04  0.65000000000E+04  0.15050000000E+03 0.  1.
     100001    1    1    2    0    0 -0.18557635117E+04  0.11189042640E+04 -0.61262994366E+04  0.65000000000E+04  0.15050000000E+03 0. -1.
</event>
<event>
 4    1  0.4521369E-004  0.6500000E+04  0.7818608E-02  0.7223770E-01
         52   -1    0    0    0    0  0.00000000000E+00  0.00000000000E+00  0.64930732323E+04  0.65000000000E+04  0.30000000000E+03 0. -1.
        -52   -1    0    0    0    0 -0.00000000000E+00 -0.00000000000E+00 -0.64930732323E+04  0.65000000000E+04  0.30000000000E+03 0.  1.
     100001    1    1    2    0    0  0.61647387110E+03  0.17949627405E+03  0.64664589076E+04  0.65000000000E+04  0.15050000000E+03 0. -1.
     100001    1    1    2    0    0 -0.61647387110E+03 -0.17949627405E+03 -0.64664589076E+04  0.65000000000E+04  0.15050000000E+03 0.  1.
</event>
<event>
 4    1  0.4521369E-004  0.6500000E+04  0.7818608E-02  0.7223770E-01
         52   -1    0    0    0    0  0.00000000000E+00  0.00000000000E+00  0.64930732323E+04  0.65000000000E+04  0.30000000000E+03 0.  1.
        -52   -1    0    0    0    0 -0.00000000000E+00 -0.00000000000E+00 -0.64930732323E+04  0.65000000000E+04  0.30000000000E+03 0. -1.
     100001    1    1    2    0    0  0.61030799149E+03  0.18497437063E+04  0.61994614384E+04  0.65000000000E+04  0.15050000000E+03 0.  1.
     100001    1    1    2    0    0 -0.61030799149E+03 -0.18497437063E+04 -0.61994614384E+04  0.65000000000E+04  0.15050000000E+03 0. -1.
</event>
<event>
 4    1  0.4521369E-004  0.6500000E+04  0.7818608E-02  0.7223770E-01
         52   -1    0    0    0    0  0.00000000000E+00  0.00000000000E+00  0.64930732323E+04  0.65000000000E+04  0.30000000000E+03 0.  1.
        -52   -1    0    0    0    0 -0.00000000000E+00 -0.00000000000E+00 -0.64930732323E+04  0.65000000000E+04  0.30000000000E+03 0. -1.
     100001    1    1    2    0    0 -0.31101396255E+04  0.14226689754E+04  0.55254315891E+04  0.65000000000E+04  0.15050000000E+03 0.  1.
     100001    1    1    2    0    0  0.31101396255E+04 -0.14226689754E+04 -0.55254315891E+04  0.65000000000E+04  0.15050000000E+03 0. -1.
</event>
<event>
 4    1  0.4521369E-004  0.6500000E+04  0.7818608E-02  0.7223770E-01
         52   -1    0    0    0    0  0.00000000000E+00  0.00000000000E+00  0.64930732323E+04  0.65000000000E+04  0.30000000000E+03 0.  1.
        -52   -1    0    0    0    0 -0.00000000000E+00 -0.00000000000E+00 -0.64930732323E+04  0.65000000000E+04  0.30000000000E+03 0. -1.
     100001    1    1    2    0    0 -0.16907767678E+03 -0.58268802486E+03  0.64698714945E+04  0.65000000000E+04  0.15050000000E+03 0.  1.
     100001    1    1    2    0    0  0.16907767678E+03  0.58268802486E+03 -0.64698714945E+04  0.65000000000E+04  0.15050000000E+03 0. -1.
</event>
<event>
 4    1  0.4521369E-004  0.6500000E+04  0.7818608E-02  0.7223770E-01
         52   -1    0    0    0    0  0.00000000000E+00  0.00000000000E+00  0.64930732323E+04  0.65000000000E+04  0.30000000000E+03 0. -1.
        -52   -1    0    0    0    0 -0.00000000000E+00 -0.00000000000E+00 -0.64930732323E+04  0.65000000000E+04  0.30000000000E+03 0.  1.
     100001    1    1    2    0    0  0.62059343704E+04  0.17405784674E+04  0.82711241007E+03  0.65000000000E+04  0.15050000000E+03 0. -1.
     100001    1    1    2    0    0 -0.62059343704E+04 -0.17405784674E+04 -0.82711241007E+03  0.65000000000E+04  0.15050000000E+03 0.  1.
</event>
<event>
 4    1  0.4521369E-004  0.6500000E+04  0.7818608E-02  0.7223770E-01
         52   -1    0    0    0    0  0.00000000000E+00  0.00000000000E+00  0.64930732323E+04  0.65000000000E+04  0.30000000000E+03 0.  1.
        -52   -1    0    0    0    0 -0.00000000000E+00 -0.00000000000E+00 -0.64930732323E+04  0.65000000000E+04  0.30000000000E+03 0. -1.
     100001    1    1    2    0    0 -0.64402669888E+03 -0.26086271275E+03 -0.64610006970E+04  0.65000000000E+04  0.15050000000E+03 0. -1.
     100001    1    1    2    0    0  0.64402669888E+03  0.26086271275E+03  0.64610006970E+04  0.65000000000E+04  0.15050000000E+03 0.  1.
</event>
<event>
 4    1  0.4521369E-004  0.6500000E+04  0.7818608E-02  0.7223770E-01
         52   -1    0    0    0    0  0.00000000000E+00  0.00000000000E+00  0.64930732323E+04  0.65000000000E+04  0.30000000000E+03 0. -1.
        -52   -1    0    0    0    0 -0.00000000000E+00 -0.00000000000E+00 -0.64930732323E+04  0.65000000000E+04  0.30000000000E+03 0.  1.
     100001    1    1    2    0    0  0.22836609398E+04 -0.13354460865E+03  0.60823028780E+04  0.65000000000E+04  0.15050000000E+03 0. -1.
     100001    1    1    2    0    0 -0.22836609398E+04  0.13354460865E+03 -0.60823028780E+04  0.65000000000E+04  0.15050000000E+03 0.  1.
</event>
<event>
 4    1  0.4521369E-004  0.6500000E+04  0.7818608E-02  0.7223770E-01
         52   -1    0    0    0    0  0.00000000000E+00  0.00000000000E+00  0.64930732323E+04  0.65000000000E+04  0.30000000000E+03 0. -1.
        -52   -1    0    0    0    0 -0.00000000000E+00 -0.00000000000E+00 -0.64930732323E+04  0.65000000000E+04  0.30000000000E+03 0.  1.
     100001    1    1    2    0    0  0.43800947131E+03 -0.10795667219E+04  0.63929674757E+04  0.65000000000E+04  0.15050000000E+03 0. -1.
     100001    1    1    2    0    0 -0.43800947131E+03  0.10795667219E+04 -0.63929674757E+04  0.65000000000E+04  0.15050000000E+03 0.  1.
</event>
<event>
 4    1  0.4521369E-004  0.6500000E+04  0.7818608E-02  0.7223770E-01
         52   -1    0    0    0    0  0.00000000000E+00  0.00000000000E+00  0.64930732323E+04  0.65000000000E+04  0.30000000000E+03 0. -1.
        -52   -1    0    0    0    0 -0.00000000000E+00 -0.00000000000E+00 -0.64930732323E+04  0.65000000000E+04  0.30000000000E+03 0. -1.
     100001    1    1    2    0    0  0.97502888947E+02 -0.51327356388E+02  0.64973231749E+04  0.65000000000E+04  0.15050000000E+03 0. -1.
     100001    1    1    2    0    0 -0.97502888947E+02  0.51327356388E+02 -0.64973231749E+04  0.65000000000E+04  0.15050000000E+03 0. -1.
</event>
<event>
 4    1  0.5586830E-004  0.6500000E+04  0.7818608E-02  0.7223770E-01
         52   -1    0    0    0    0  0.00000000000E+00  0.00000000000E+00  0.64930732323E+04  0.65000000000E+04  0.30000000000E+03 0. -1.
        -52   -1    0    0    0    0 -0.00000000000E+00 -0.00000000000E+00 -0.64930732323E+04  0.65000000000E+04  0.30000000000E+03 0. -1.
     100001    1    1    2    0    0 -0.97739302429E+01  0.17800739951E+03  0.64958115418E+04  0.65000000000E+04  0.15050000000E+03 0. -1.
     100001    1    1    2    0    0  0.97739302429E+01 -0.17800739951E+03 -0.64958115418E+04  0.65000000000E+04  0.15050000000E+03 0. -1.
</event>
<event>
 4    1  0.4521369E-004  0.6500000E+04  0.7818608E-02  0.7223770E-01
         52   -1    0    0    0    0  0.00000000000E+00  0.00000000000E+00  0.64930732323E+04  0.65000000000E+04  0.30000000000E+03 0. -1.
        -52   -1    0    0    0    0 -0.00000000000E+00 -0.00000000000E+00 -0.64930732323E+04  0.65000000000E+04  0.30000000000E+03 0.  1.
     100001    1    1    2    0    0 -0.18794341917E+04  0.41465992688E+04 -0.46368945829E+04  0.65000000000E+04  0.15050000000E+03 0. -1.
     100001    1    1    2    0    0  0.18794341917E+04 -0.41465992688E+04  0.46368945829E+04  0.65000000000E+04  0.15050000000E+03 0.  1.
</event>
<event>
 4    1  0.4521369E-004  0.6500000E+04  0.7818608E-02  0.7223770E-01
         52   -1    0    0    0    0  0.00000000000E+00  0.00000000000E+00  0.64930732323E+04  0.65000000000E+04  0.30000000000E+03 0. -1.
        -52   -1    0    0    0    0 -0.00000000000E+00 -0.00000000000E+00 -0.64930732323E+04  0.65000000000E+04  0.30000000000E+03 0.  1.
     100001    1    1    2    0    0  0.19960151781E+04 -0.14407636754E+04 -0.60139399058E+04  0.65000000000E+04  0.15050000000E+03 0.  1.
     100001    1    1    2    0    0 -0.19960151781E+04  0.14407636754E+04  0.60139399058E+04  0.65000000000E+04  0.15050000000E+03 0. -1.
</event>
<event>
 4    1  0.4521369E-004  0.6500000E+04  0.7818608E-02  0.7223770E-01
         52   -1    0    0    0    0  0.00000000000E+00  0.00000000000E+00  0.64930732323E+04  0.65000000000E+04  0.30000000000E+03 0. -1.
        -52   -1    0    0    0    0 -0.00000000000E+00 -0.00000000000E+00 -0.64930732323E+04  0.65000000000E+04  0.30000000000E+03 0. -1.
     100001    1    1    2    0    0  0.12506713845E+03 -0.98211243618E+02  0.64963114544E+04  0.65000000000E+04  0.15050000000E+03 0. -1.
     100001    1    1    2    0    0 -0.12506713845E+03  0.98211243618E+02 -0.64963114544E+04  0.65000000000E+04  0.15050000000E+03 0. -1.
</event>
<event>
 4    1  0.4521369E-004  0.6500000E+04  0.7818608E-02  0.7223770E-01
         52   -1    0    0    0    0  0.00000000000E+00  0.00000000000E+00  0.64930732323E+04  0.65000000000E+04  0.30000000000E+03 0. -1.
        -52   -1    0    0    0    0 -0.00000000000E+00 -0.00000000000E+00 -0.64930732323E+04  0.65000000000E+04  0.30000000000E+03 0.  1.
     100001    1    1    2    0    0 -0.75449750140E+03  0.19505786402E+04  0.61525056878E+04  0.65000000000E+04  0.15050000000E+03 0. -1.
     100001    1    1    2    0    0  0.75449750140E+03 -0.19505786402E+04 -0.61525056878E+04  0.65000000000E+04  0.15050000000E+03 0.  1.
</event>
<event>
 4    1  0.4521369E-004  0.6500000E+04  0.7818608E-02  0.7223770E-01
         52   -1    0    0    0    0  0.00000000000E+00  0.00000000000E+00  0.64930732323E+04  0.65000000000E+04  0.30000000000E+03 0.  1.
        -52   -1    0    0    0    0 -0.00000000000E+00 -0.00000000000E+00 -0.64930732323E+04  0.65000000000E+04  0.30000000000E+03 0. -1.
     100001    1    1    2    0    0 -0.18504052318E+04  0.61396210246E+04 -0.10528076284E+04  0.65000000000E+04  0.15050000000E+03 0. -1.
     100001    1    1    2    0    0  0.18504052318E+04 -0.61396210246E+04  0.10528076284E+04  0.65000000000E+04  0.15050000000E+03 0.  1.
</event>
<event>
 4    1  0.4521369E-004  0.6500000E+04  0.7818608E-02  0.7223770E-01
         52   -1    0    0    0    0  0.00000000000E+00  0.00000000000E+00  0.64930732323E+04  0.65000000000E+04  0.30000000000E+03 0.  1.
        -52   -1    0    0    0    0 -0.00000000000E+00 -0.00000000000E+00 -0.64930732323E+04  0.65000000000E+04  0.30000000000E+03 0. -1.
     100001    1    1    2    0    0 -0.94708543714E+03  0.32474666796E+02 -0.64287887133E+04  0.65000000000E+04  0.15050000000E+03 0. -1.
     100001    1    1    2    0    0  0.94708543714E+03 -0.32474666796E+02  0.64287887133E+04  0.65000000000E+04  0.15050000000E+03 0.  1.
</event>
<event>
 4    1  0.4521369E-004  0.6500000E+04  0.7818608E-02  0.7223770E-01
         52   -1    0    0    0    0  0.00000000000E+00  0.00000000000E+00  0.64930732323E+04  0.65000000000E+04  0.30000000000E+03 0. -1.
        -52   -1    0    0    0    0 -0.00000000000E+00 -0.00000000000E+00 -0.64930732323E+04  0.65000000000E+04  0.30000000000E+03 0.  1.
     100001    1    1    2    0    0 -0.13482357637E+04 -0.10121784262E+04 -0.62757553258E+04  0.65000000000E+04  0.15050000000E+03 0.  1.
     100001    1    1    2    0    0  0.13482357637E+04  0.10121784262E+04  0.62757553258E+04  0.65000000000E+04  0.15050000000E+03 0. -1.
</event>
<event>
 4    1  0.4521369E-004  0.6500000E+04  0.7818608E-02  0.7223770E-01
         52   -1    0    0    0    0  0.00000000000E+00  0.00000000000E+00  0.64930732323E+04  0.65000000000E+04  0.30000000000E+03 0.  1.
        -52   -1    0    0    0    0 -0.00000000000E+00 -0.00000000000E+00 -0.64930732323E+04  0.65000000000E+04  0.30000000000E+03 0. -1.
     100001    1    1    2    0    0 -0.18877073661E+04 -0.17176224537E+04  0.59760926831E+04  0.65000000000E+04  0.15050000000E+03 0.  1.
     100001    1    1    2    0    0  0.18877073661E+04  0.17176224537E+04 -0.59760926831E+04  0.65000000000E+04  0.15050000000E+03 0. -1.
</event>
<event>
 4    1  0.4521369E-004  0.6500000E+04  0.7818608E-02  0.7223770E-01
         52   -1    0    0    0    0  0.00000000000E+00  0.00000000000E+00  0.64930732323E+04  0.65000000000E+04  0.30000000000E+03 0.  1.
        -52   -1    0    0    0    0 -0.00000000000E+00 -0.00000000000E+00 -0.64930732323E+04  0.65000000000E+04  0.30000000000E+03 0. -1.
     100001    1    1    2    0    0 -0.21444849640E+03  0.13140868976E+04 -0.63603881342E+04  0.65000000000E+04  0.15050000000E+03 0. -1.
     100001    1    1    2    0    0  0.21444849640E+03 -0.13140868976E+04  0.63603881342E+04  0.65000000000E+04  0.15050000000E+03 0.  1.
</event>
<event>
 4    1  0.4521369E-004  0.6500000E+04  0.7818608E-02  0.7223770E-01
         52   -1    0    0    0    0  0.00000000000E+00  0.00000000000E+00  0.64930732323E+04  0.65000000000E+04  0.30000000000E+03 0.  1.
        -52   -1    0    0    0    0 -0.00000000000E+00 -0.00000000000E+00 -0.64930732323E+04  0.65000000000E+04  0.30000000000E+03 0. -1.
     100001    1    1    2    0    0  0.50174467460E+03  0.11999972974E+03 -0.64777466836E+04  0.65000000000E+04  0.15050000000E+03 0. -1.
     100001    1    1    2    0    0 -0.50174467460E+03 -0.11999972974E+03  0.64777466836E+04  0.65000000000E+04  0.15050000000E+03 0.  1.
</event>
<event>
 4    1  0.4521369E-004  0.6500000E+04  0.7818608E-02  0.7223770E-01
         52   -1    0    0    0    0  0.00000000000E+00  0.00000000000E+00  0.64930732323E+04  0.65000000000E+04  0.30000000000E+03 0. -1.
        -52   -1    0    0    0    0 -0.00000000000E+00 -0.00000000000E+00 -0.64930732323E+04  0.65000000000E+04  0.30000000000E+03 0.  1.
     100001    1    1    2    0    0  0.12424581250E+04 -0.14265780827E+04 -0.62167935893E+04  0.65000000000E+04  0.15050000000E+03 0.  1.
     100001    1    1    2    0    0 -0.12424581250E+04  0.14265780827E+04  0.62167935893E+04  0.65000000000E+04  0.15050000000E+03 0. -1.
</event>
<event>
 4    1  0.4521369E-004  0.6500000E+04  0.7818608E-02  0.7223770E-01
         52   -1    0    0    0    0  0.00000000000E+00  0.00000000000E+00  0.64930732323E+04  0.65000000000E+04  0.30000000000E+03 0.  1.
        -52   -1    0    0    0    0 -0.00000000000E+00 -0.00000000000E+00 -0.64930732323E+04  0.65000000000E+04  0.30000000000E+03 0. -1.
     100001    1    1    2    0    0 -0.34274806939E+03  0.76413199989E+03 -0.64440651609E+04  0.65000000000E+04  0.15050000000E+03 0. -1.
     100001    1    1    2    0    0  0.34274806939E+03 -0.76413199989E+03  0.64440651609E+04  0.65000000000E+04  0.15050000000E+03 0.  1.
</event>
<event>
 4    1  0.4521369E-004  0.6500000E+04  0.7818608E-02  0.7223770E-01
         52   -1    0    0    0    0  0.00000000000E+00  0.00000000000E+00  0.64930732323E+04  0.65000000000E+04  0.30000000000E+03 0.  1.
        -52   -1    0    0    0    0 -0.00000000000E+00 -0.00000000000E+00 -0.64930732323E+04  0.65000000000E+04  0.30000000000E+03 0. -1.
     100001    1    1    2    0    0 -0.67928646786E+03 -0.22494062437E+02 -0.64626166265E+04  0.65000000000E+04  0.15050000000E+03 0. -1.
     100001    1    1    2    0    0  0.67928646786E+03  0.22494062437E+02  0.64626166265E+04  0.65000000000E+04  0.15050000000E+03 0.  1.
</event>
<event>
 4    1  0.4521369E-004  0.6500000E+04  0.7818608E-02  0.7223770E-01
         52   -1    0    0    0    0  0.00000000000E+00  0.00000000000E+00  0.64930732323E+04  0.65000000000E+04  0.30000000000E+03 0.  1.
        -52   -1    0    0    0    0 -0.00000000000E+00 -0.00000000000E+00 -0.64930732323E+04  0.65000000000E+04  0.30000000000E+03 0. -1.
     100001    1    1    2    0    0  0.54034620282E+03 -0.16547453833E+04 -0.62607662029E+04  0.65000000000E+04  0.15050000000E+03 0. -1.
     100001    1    1    2    0    0 -0.54034620282E+03  0.16547453833E+04  0.62607662029E+04  0.65000000000E+04  0.15050000000E+03 0.  1.
</event>
<event>
 4    1  0.4521369E-004  0.6500000E+04  0.7818608E-02  0.7223770E-01
         52   -1    0    0    0    0  0.00000000000E+00  0.00000000000E+00  0.64930732323E+04  0.65000000000E+04  0.30000000000E+03 0.  1.
        -52   -1    0    0    0    0 -0.00000000000E+00 -0.00000000000E+00 -0.64930732323E+04  0.65000000000E+04  0.30000000000E+03 0. -1.
     100001    1    1    2    0    0  0.54129317494E+02 -0.45087259622E+03 -0.64823709913E+04  0.65000000000E+04  0.15050000000E+03 0. -1.
     100001    1    1    2    0    0 -0.54129317494E+02  0.45087259622E+03  0.64823709913E+04  0.65000000000E+04  0.15050000000E+03 0.  1.
</event>
<event>
 4    1  0.4521369E-004  0.6500000E+04  0.7818608E-02  0.7223770E-01
         52   -1    0    0    0    0  0.00000000000E+00  0.00000000000E+00  0.64930732323E+04  0.65000000000E+04  0.30000000000E+03 0.  1.
        -52   -1    0    0    0    0 -0.00000000000E+00 -0.00000000000E+00 -0.64930732323E+04  0.65000000000E+04  0.30000000000E+03 0. -1.
     100001    1    1    2    0    0  0.14804999690E+04  0.23885585728E+04 -0.58592028072E+04  0.65000000000E+04  0.15050000000E+03 0. -1.
     100001    1    1    2    0    0 -0.14804999690E+04 -0.23885585728E+04  0.58592028072E+04  0.65000000000E+04  0.15050000000E+03 0.  1.
</event>
<event>
 4    1  0.4521369E-004  0.6500000E+04  0.7818608E-02  0.7223770E-01
         52   -1    0    0    0    0  0.00000000000E+00  0.00000000000E+00  0.64930732323E+04  0.65000000000E+04  0.30000000000E+03 0. -1.
        -52   -1    0    0    0    0 -0.00000000000E+00 -0.00000000000E+00 -0.64930732323E+04  0.65000000000E+04  0.30000000000E+03 0.  1.
     100001    1    1    2    0    0  0.17045168627E+04 -0.69194682952E+03 -0.62324298311E+04  0.65000000000E+04  0.15050000000E+03 0.  1.
     100001    1    1    2    0    0 -0.17045168627E+04  0.69194682952E+03  0.62324298311E+04  0.65000000000E+04  0.15050000000E+03 0. -1.
</event>
<event>
 4    1  0.4521369E-004  0.6500000E+04  0.7818608E-02  0.7223770E-01
         52   -1    0    0    0    0  0.00000000000E+00  0.00000000000E+00  0.64930732323E+04  0.65000000000E+04  0.30000000000E+03 0. -1.
        -52   -1    0    0    0    0 -0.00000000000E+00 -0.00000000000E+00 -0.64930732323E+04  0.65000000000E+04  0.30000000000E+03 0.  1.
     100001    1    1    2    0    0 -0.13998716018E+04 -0.17119311759E+03  0.63433746669E+04  0.65000000000E+04  0.15050000000E+03 0. -1.
     100001    1    1    2    0    0  0.13998716018E+04  0.17119311759E+03 -0.63433746669E+04  0.65000000000E+04  0.15050000000E+03 0.  1.
</event>
<event>
 4    1  0.4521369E-004  0.6500000E+04  0.7818608E-02  0.7223770E-01
         52   -1    0    0    0    0  0.00000000000E+00  0.00000000000E+00  0.64930732323E+04  0.65000000000E+04  0.30000000000E+03 0. -1.
        -52   -1    0    0    0    0 -0.00000000000E+00 -0.00000000000E+00 -0.64930732323E+04  0.65000000000E+04  0.30000000000E+03 0.  1.
     100001    1    1    2    0    0  0.55608801979E+03  0.27828799112E+03  0.64684365699E+04  0.65000000000E+04  0.15050000000E+03 0. -1.
     100001    1    1    2    0    0 -0.55608801979E+03 -0.27828799112E+03 -0.64684365699E+04  0.65000000000E+04  0.15050000000E+03 0.  1.
</event>
<event>
 4    1  0.4521369E-004  0.6500000E+04  0.7818608E-02  0.7223770E-01
         52   -1    0    0    0    0  0.00000000000E+00  0.00000000000E+00  0.64930732323E+04  0.65000000000E+04  0.30000000000E+03 0.  1.
        -52   -1    0    0    0    0 -0.00000000000E+00 -0.00000000000E+00 -0.64930732323E+04  0.65000000000E+04  0.30000000000E+03 0. -1.
     100001    1    1    2    0    0 -0.50774008736E+04  0.59566232861E+03 -0.40115503872E+04  0.65000000000E+04  0.15050000000E+03 0. -1.
     100001    1    1    2    0    0  0.50774008736E+04 -0.59566232861E+03  0.40115503872E+04  0.65000000000E+04  0.15050000000E+03 0.  1.
</event>
<event>
 4    1  0.4521369E-004  0.6500000E+04  0.7818608E-02  0.7223770E-01
         52   -1    0    0    0    0  0.00000000000E+00  0.00000000000E+00  0.64930732323E+04  0.65000000000E+04  0.30000000000E+03 0. -1.
        -52   -1    0    0    0    0 -0.00000000000E+00 -0.00000000000E+00 -0.64930732323E+04  0.65000000000E+04  0.30000000000E+03 0.  1.
     100001    1    1    2    0    0  0.71432362867E+03  0.12785201484E+04 -0.63310724000E+04  0.65000000000E+04  0.15050000000E+03 0.  1.
     100001    1    1    2    0    0 -0.71432362867E+03 -0.12785201484E+04  0.63310724000E+04  0.65000000000E+04  0.15050000000E+03 0. -1.
</event>
<event>
 4    1  0.4521369E-004  0.6500000E+04  0.7818608E-02  0.7223770E-01
         52   -1    0    0    0    0  0.00000000000E+00  0.00000000000E+00  0.64930732323E+04  0.65000000000E+04  0.30000000000E+03 0.  1.
        -52   -1    0    0    0    0 -0.00000000000E+00 -0.00000000000E+00 -0.64930732323E+04  0.65000000000E+04  0.30000000000E+03 0. -1.
     100001    1    1    2    0    0  0.16205459745E+04  0.11117258441E+04 -0.61939685293E+04  0.65000000000E+04  0.15050000000E+03 0. -1.
     100001    1    1    2    0    0 -0.16205459745E+04 -0.11117258441E+04  0.61939685293E+04  0.65000000000E+04  0.15050000000E+03 0.  1.
</event>
<event>
 4    1  0.4521369E-004  0.6500000E+04  0.7818608E-02  0.7223770E-01
         52   -1    0    0    0    0  0.00000000000E+00  0.00000000000E+00  0.64930732323E+04  0.65000000000E+04  0.30000000000E+03 0. -1.
        -52   -1    0    0    0    0 -0.00000000000E+00 -0.00000000000E+00 -0.64930732323E+04  0.65000000000E+04  0.30000000000E+03 0.  1.
     100001    1    1    2    0    0 -0.13852510656E+04  0.90033789100E+03 -0.62847291841E+04  0.65000000000E+04  0.15050000000E+03 0.  1.
     100001    1    1    2    0    0  0.13852510656E+04 -0.90033789100E+03  0.62847291841E+04  0.65000000000E+04  0.15050000000E+03 0. -1.
</event>
<event>
 4    1  0.4521369E-004  0.6500000E+04  0.7818608E-02  0.7223770E-01
         52   -1    0    0    0    0  0.00000000000E+00  0.00000000000E+00  0.64930732323E+04  0.65000000000E+04  0.30000000000E+03 0.  1.
        -52   -1    0    0    0    0 -0.00000000000E+00 -0.00000000000E+00 -0.64930732323E+04  0.65000000000E+04  0.30000000000E+03 0. -1.
     100001    1    1    2    0    0  0.64918997166E+04  0.89438149150E+02  0.27310920362E+03  0.65000000000E+04  0.15050000000E+03 0.  1.
     100001    1    1    2    0    0 -0.64918997166E+04 -0.89438149150E+02 -0.27310920362E+03  0.65000000000E+04  0.15050000000E+03 0. -1.
</event>
<event>
 4    1  0.4521369E-004  0.6500000E+04  0.7818608E-02  0.7223770E-01
         52   -1    0    0    0    0  0.00000000000E+00  0.00000000000E+00  0.64930732323E+04  0.65000000000E+04  0.30000000000E+03 0.  1.
        -52   -1    0    0    0    0 -0.00000000000E+00 -0.00000000000E+00 -0.64930732323E+04  0.65000000000E+04  0.30000000000E+03 0. -1.
     100001    1    1    2    0    0  0.69235787808E+03 -0.44349087850E+03 -0.64460302636E+04  0.65000000000E+04  0.15050000000E+03 0. -1.
     100001    1    1    2    0    0 -0.69235787808E+03  0.44349087850E+03  0.64460302636E+04  0.65000000000E+04  0.15050000000E+03 0.  1.
</event>
<event>
 4    1  0.4521369E-004  0.6500000E+04  0.7818608E-02  0.7223770E-01
         52   -1    0    0    0    0  0.00000000000E+00  0.00000000000E+00  0.64930732323E+04  0.65000000000E+04  0.30000000000E+03 0. -1.
        -52   -1    0    0    0    0 -0.00000000000E+00 -0.00000000000E+00 -0.64930732323E+04  0.65000000000E+04  0.30000000000E+03 0.  1.
     100001    1    1    2    0    0 -0.60839624177E+02  0.44757580329E+04  0.47107577226E+04  0.65000000000E+04  0.15050000000E+03 0. -1.
     100001    1    1    2    0    0  0.60839624177E+02 -0.44757580329E+04 -0.47107577226E+04  0.65000000000E+04  0.15050000000E+03 0.  1.
</event>
<event>
 4    1  0.4521369E-004  0.6500000E+04  0.7818608E-02  0.7223770E-01
         52   -1    0    0    0    0  0.00000000000E+00  0.00000000000E+00  0.64930732323E+04  0.65000000000E+04  0.30000000000E+03 0.  1.
        -52   -1    0    0    0    0 -0.00000000000E+00 -0.00000000000E+00 -0.64930732323E+04  0.65000000000E+04  0.30000000000E+03 0.  1.
     100001    1    1    2    0    0  0.21072137536E+03 -0.26798818479E+03 -0.64893087910E+04  0.65000000000E+04  0.15050000000E+03 0.  1.
     100001    1    1    2    0    0 -0.21072137536E+03  0.26798818479E+03  0.64893087910E+04  0.65000000000E+04  0.15050000000E+03 0.  1.
</event>
<event>
 4    1  0.4521369E-004  0.6500000E+04  0.7818608E-02  0.7223770E-01
         52   -1    0    0    0    0  0.00000000000E+00  0.00000000000E+00  0.64930732323E+04  0.65000000000E+04  0.30000000000E+03 0. -1.
        -52   -1    0    0    0    0 -0.00000000000E+00 -0.00000000000E+00 -0.64930732323E+04  0.65000000000E+04  0.30000000000E+03 0.  1.
     100001    1    1    2    0    0 -0.18765152383E+04 -0.20762693003E+04 -0.58647375136E+04  0.65000000000E+04  0.15050000000E+03 0.  1.
     100001    1    1    2    0    0  0.18765152383E+04  0.20762693003E+04  0.58647375136E+04  0.65000000000E+04  0.15050000000E+03 0. -1.
</event>
<event>
 4    1  0.4521369E-004  0.6500000E+04  0.7818608E-02  0.7223770E-01
         52   -1    0    0    0    0  0.00000000000E+00  0.00000000000E+00  0.64930732323E+04  0.65000000000E+04  0.30000000000E+03 0.  1.
        -52   -1    0    0    0    0 -0.00000000000E+00 -0.00000000000E+00 -0.64930732323E+04  0.65000000000E+04  0.30000000000E+03 0. -1.
     100001    1    1    2    0    0  0.79937532747E+03  0.36800229062E+03  0.64383944544E+04  0.65000000000E+04  0.15050000000E+03 0.  1.
     100001    1    1    2    0    0 -0.79937532747E+03 -0.36800229062E+03 -0.64383944544E+04  0.65000000000E+04  0.15050000000E+03 0. -1.
</event>
<event>
 4    1  0.4521369E-004  0.6500000E+04  0.7818608E-02  0.7223770E-01
         52   -1    0    0    0    0  0.00000000000E+00  0.00000000000E+00  0.64930732323E+04  0.65000000000E+04  0.30000000000E+03 0. -1.
        -52   -1    0    0    0    0 -0.00000000000E+00 -0.00000000000E+00 -0.64930732323E+04  0.65000000000E+04  0.30000000000E+03 0.  1.
     100001    1    1    2    0    0  0.29351153873E+03 -0.48613916883E+03 -0.64733970553E+04  0.65000000000E+04  0.15050000000E+03 0.  1.
     100001    1    1    2    0    0 -0.29351153873E+03  0.48613916883E+03  0.64733970553E+04  0.65000000000E+04  0.15050000000E+03 0. -1.
</event>
<event>
 4    1  0.4521369E-004  0.6500000E+04  0.7818608E-02  0.7223770E-01
         52   -1    0    0    0    0  0.00000000000E+00  0.00000000000E+00  0.64930732323E+04  0.65000000000E+04  0.30000000000E+03 0.  1.
        -52   -1    0    0    0    0 -0.00000000000E+00 -0.00000000000E+00 -0.64930732323E+04  0.65000000000E+04  0.30000000000E+03 0. -1.
     100001    1    1    2    0    0 -0.15255510527E+03  0.53076184541E+04  0.37460997098E+04  0.65000000000E+04  0.15050000000E+03 0.  1.
     100001    1    1    2    0    0  0.15255510527E+03 -0.53076184541E+04 -0.37460997098E+04  0.65000000000E+04  0.15050000000E+03 0. -1.
</event>
<event>
 4    1  0.4521369E-004  0.6500000E+04  0.7818608E-02  0.7223770E-01
         52   -1    0    0    0    0  0.00000000000E+00  0.00000000000E+00  0.64930732323E+04  0.65000000000E+04  0.30000000000E+03 0.  1.
        -52   -1    0    0    0    0 -0.00000000000E+00 -0.00000000000E+00 -0.64930732323E+04  0.65000000000E+04  0.30000000000E+03 0. -1.
     100001    1    1    2    0    0  0.53632543097E+04 -0.45045958069E+03  0.36414199326E+04  0.65000000000E+04  0.15050000000E+03 0.  1.
     100001    1    1    2    0    0 -0.53632543097E+04  0.45045958069E+03 -0.36414199326E+04  0.65000000000E+04  0.15050000000E+03 0. -1.
</event>
<event>
 4    1  0.4521369E-004  0.6500000E+04  0.7818608E-02  0.7223770E-01
         52   -1    0    0    0    0  0.00000000000E+00  0.00000000000E+00  0.64930732323E+04  0.65000000000E+04  0.30000000000E+03 0.  1.
        -52   -1    0    0    0    0 -0.00000000000E+00 -0.00000000000E+00 -0.64930732323E+04  0.65000000000E+04  0.30000000000E+03 0. -1.
     100001    1    1    2    0    0  0.69167247950E+03  0.12077745198E+04 -0.63474577305E+04  0.65000000000E+04  0.15050000000E+03 0. -1.
     100001    1    1    2    0    0 -0.69167247950E+03 -0.12077745198E+04  0.63474577305E+04  0.65000000000E+04  0.15050000000E+03 0.  1.
</event>
<event>
 4    1  0.4521369E-004  0.6500000E+04  0.7818608E-02  0.7223770E-01
         52   -1    0    0    0    0  0.00000000000E+00  0.00000000000E+00  0.64930732323E+04  0.65000000000E+04  0.30000000000E+03 0. -1.
        -52   -1    0    0    0    0 -0.00000000000E+00 -0.00000000000E+00 -0.64930732323E+04  0.65000000000E+04  0.30000000000E+03 0.  1.
     100001    1    1    2    0    0 -0.18201710031E+03 -0.11522996006E+04 -0.63926852852E+04  0.65000000000E+04  0.15050000000E+03 0.  1.
     100001    1    1    2    0    0  0.18201710031E+03  0.11522996006E+04  0.63926852852E+04  0.65000000000E+04  0.15050000000E+03 0. -1.
</event>
<event>
 4    1  0.4521369E-004  0.6500000E+04  0.7818608E-02  0.7223770E-01
         52   -1    0    0    0    0  0.00000000000E+00  0.00000000000E+00  0.64930732323E+04  0.65000000000E+04  0.30000000000E+03 0. -1.
        -52   -1    0    0    0    0 -0.00000000000E+00 -0.00000000000E+00 -0.64930732323E+04  0.65000000000E+04  0.30000000000E+03 0.  1.
     100001    1    1    2    0    0  0.74445014877E+03 -0.83402816482E+03  0.64013702241E+04  0.65000000000E+04  0.15050000000E+03 0. -1.
     100001    1    1    2    0    0 -0.74445014877E+03  0.83402816482E+03 -0.64013702241E+04  0.65000000000E+04  0.15050000000E+03 0.  1.
</event>
<event>
 4    1  0.4521369E-004  0.6500000E+04  0.7818608E-02  0.7223770E-01
         52   -1    0    0    0    0  0.00000000000E+00  0.00000000000E+00  0.64930732323E+04  0.65000000000E+04  0.30000000000E+03 0.  1.
        -52   -1    0    0    0    0 -0.00000000000E+00 -0.00000000000E+00 -0.64930732323E+04  0.65000000000E+04  0.30000000000E+03 0. -1.
     100001    1    1    2    0    0 -0.25652701415E+04 -0.41719605152E+04  0.42710050703E+04  0.65000000000E+04  0.15050000000E+03 0.  1.
     100001    1    1    2    0    0  0.25652701415E+04  0.41719605152E+04 -0.42710050703E+04  0.65000000000E+04  0.15050000000E+03 0. -1.
</event>
<event>
 4    1  0.4521369E-004  0.6500000E+04  0.7818608E-02  0.7223770E-01
         52   -1    0    0    0    0  0.00000000000E+00  0.00000000000E+00  0.64930732323E+04  0.65000000000E+04  0.30000000000E+03 0. -1.
        -52   -1    0    0    0    0 -0.00000000000E+00 -0.00000000000E+00 -0.64930732323E+04  0.65000000000E+04  0.30000000000E+03 0.  1.
     100001    1    1    2    0    0 -0.43437318907E+03 -0.10274476707E+03 -0.64829093157E+04  0.65000000000E+04  0.15050000000E+03 0.  1.
     100001    1    1    2    0    0  0.43437318907E+03  0.10274476707E+03  0.64829093157E+04  0.65000000000E+04  0.15050000000E+03 0. -1.
</event>
<event>
 4    1  0.4521369E-004  0.6500000E+04  0.7818608E-02  0.7223770E-01
         52   -1    0    0    0    0  0.00000000000E+00  0.00000000000E+00  0.64930732323E+04  0.65000000000E+04  0.30000000000E+03 0. -1.
        -52   -1    0    0    0    0 -0.00000000000E+00 -0.00000000000E+00 -0.64930732323E+04  0.65000000000E+04  0.30000000000E+03 0.  1.
     100001    1    1    2    0    0 -0.18743353616E+04  0.48497893249E+03 -0.62031453423E+04  0.65000000000E+04  0.15050000000E+03 0.  1.
     100001    1    1    2    0    0  0.18743353616E+04 -0.48497893249E+03  0.62031453423E+04  0.65000000000E+04  0.15050000000E+03 0. -1.
</event>
<event>
 4    1  0.4521369E-004  0.6500000E+04  0.7818608E-02  0.7223770E-01
         52   -1    0    0    0    0  0.00000000000E+00  0.00000000000E+00  0.64930732323E+04  0.65000000000E+04  0.30000000000E+03 0. -1.
        -52   -1    0    0    0    0 -0.00000000000E+00 -0.00000000000E+00 -0.64930732323E+04  0.65000000000E+04  0.30000000000E+03 0.  1.
     100001    1    1    2    0    0  0.44410173818E+04  0.27415573062E+04 -0.38715084788E+04  0.65000000000E+04  0.15050000000E+03 0.  1.
     100001    1    1    2    0    0 -0.44410173818E+04 -0.27415573062E+04  0.38715084788E+04  0.65000000000E+04  0.15050000000E+03 0. -1.
</event>
<event>
 4    1  0.4521369E-004  0.6500000E+04  0.7818608E-02  0.7223770E-01
         52   -1    0    0    0    0  0.00000000000E+00  0.00000000000E+00  0.64930732323E+04  0.65000000000E+04  0.30000000000E+03 0. -1.
        -52   -1    0    0    0    0 -0.00000000000E+00 -0.00000000000E+00 -0.64930732323E+04  0.65000000000E+04  0.30000000000E+03 0.  1.
     100001    1    1    2    0    0 -0.13917488371E+04  0.20611315479E+03 -0.63441234455E+04  0.65000000000E+04  0.15050000000E+03 0.  1.
     100001    1    1    2    0    0  0.13917488371E+04 -0.20611315479E+03  0.63441234455E+04  0.65000000000E+04  0.15050000000E+03 0. -1.
</event>
<event>
 4    1  0.4521369E-004  0.6500000E+04  0.7818608E-02  0.7223770E-01
         52   -1    0    0    0    0  0.00000000000E+00  0.00000000000E+00  0.64930732323E+04  0.65000000000E+04  0.30000000000E+03 0.  1.
        -52   -1    0    0    0    0 -0.00000000000E+00 -0.00000000000E+00 -0.64930732323E+04  0.65000000000E+04  0.30000000000E+03 0. -1.
     100001    1    1    2    0    0  0.33364553480E+04 -0.48989400353E+04 -0.26637946602E+04  0.65000000000E+04  0.15050000000E+03 0. -1.
     100001    1    1    2    0    0 -0.33364553480E+04  0.48989400353E+04  0.26637946602E+04  0.65000000000E+04  0.15050000000E+03 0.  1.
</event>
<event>
 4    1  0.4521369E-004  0.6500000E+04  0.7818608E-02  0.7223770E-01
         52   -1    0    0    0    0  0.00000000000E+00  0.00000000000E+00  0.64930732323E+04  0.65000000000E+04  0.30000000000E+03 0.  1.
        -52   -1    0    0    0    0 -0.00000000000E+00 -0.00000000000E+00 -0.64930732323E+04  0.65000000000E+04  0.30000000000E+03 0. -1.
     100001    1    1    2    0    0 -0.10680970341E+03  0.13381519275E+04  0.63580886166E+04  0.65000000000E+04  0.15050000000E+03 0.  1.
     100001    1    1    2    0    0  0.10680970341E+03 -0.13381519275E+04 -0.63580886166E+04  0.65000000000E+04  0.15050000000E+03 0. -1.
</event>
<event>
 4    1  0.4521369E-004  0.6500000E+04  0.7818608E-02  0.7223770E-01
         52   -1    0    0    0    0  0.00000000000E+00  0.00000000000E+00  0.64930732323E+04  0.65000000000E+04  0.30000000000E+03 0. -1.
        -52   -1    0    0    0    0 -0.00000000000E+00 -0.00000000000E+00 -0.64930732323E+04  0.65000000000E+04  0.30000000000E+03 0.  1.
     100001    1    1    2    0    0 -0.95682326971E+03  0.17679464228E+03  0.64249967031E+04  0.65000000000E+04  0.15050000000E+03 0. -1.
     100001    1    1    2    0    0  0.95682326971E+03 -0.17679464228E+03 -0.64249967031E+04  0.65000000000E+04  0.15050000000E+03 0.  1.
</event>
<event>
 4    1  0.4521369E-004  0.6500000E+04  0.7818608E-02  0.7223770E-01
         52   -1    0    0    0    0  0.00000000000E+00  0.00000000000E+00  0.64930732323E+04  0.65000000000E+04  0.30000000000E+03 0.  1.
        -52   -1    0    0    0    0 -0.00000000000E+00 -0.00000000000E+00 -0.64930732323E+04  0.65000000000E+04  0.30000000000E+03 0. -1.
     100001    1    1    2    0    0 -0.54988667503E+04 -0.81638390140E+03  0.33650158303E+04  0.65000000000E+04  0.15050000000E+03 0.  1.
     100001    1    1    2    0    0  0.54988667503E+04  0.81638390140E+03 -0.33650158303E+04  0.65000000000E+04  0.15050000000E+03 0. -1.
</event>
<event>
 4    1  0.4521369E-004  0.6500000E+04  0.7818608E-02  0.7223770E-01
         52   -1    0    0    0    0  0.00000000000E+00  0.00000000000E+00  0.64930732323E+04  0.65000000000E+04  0.30000000000E+03 0.  1.
        -52   -1    0    0    0    0 -0.00000000000E+00 -0.00000000000E+00 -0.64930732323E+04  0.65000000000E+04  0.30000000000E+03 0. -1.
     100001    1    1    2    0    0  0.33452023054E+03  0.11274930003E+04 -0.63909471520E+04  0.65000000000E+04  0.15050000000E+03 0. -1.
     100001    1    1    2    0    0 -0.33452023054E+03 -0.11274930003E+04  0.63909471520E+04  0.65000000000E+04  0.15050000000E+03 0.  1.
</event>
<event>
 4    1  0.4521369E-004  0.6500000E+04  0.7818608E-02  0.7223770E-01
         52   -1    0    0    0    0  0.00000000000E+00  0.00000000000E+00  0.64930732323E+04  0.65000000000E+04  0.30000000000E+03 0. -1.
        -52   -1    0    0    0    0 -0.00000000000E+00 -0.00000000000E+00 -0.64930732323E+04  0.65000000000E+04  0.30000000000E+03 0.  1.
     100001    1    1    2    0    0  0.77951542730E+03 -0.26157344239E+04  0.58972568939E+04  0.65000000000E+04  0.15050000000E+03 0. -1.
     100001    1    1    2    0    0 -0.77951542730E+03  0.26157344239E+04 -0.58972568939E+04  0.65000000000E+04  0.15050000000E+03 0.  1.
</event>
<event>
 4    1  0.4521369E-004  0.6500000E+04  0.7818608E-02  0.7223770E-01
         52   -1    0    0    0    0  0.00000000000E+00  0.00000000000E+00  0.64930732323E+04  0.65000000000E+04  0.30000000000E+03 0. -1.
        -52   -1    0    0    0    0 -0.00000000000E+00 -0.00000000000E+00 -0.64930732323E+04  0.65000000000E+04  0.30000000000E+03 0.  1.
     100001    1    1    2    0    0  0.13566725026E+03 -0.16947610829E+04 -0.62718999529E+04  0.65000000000E+04  0.15050000000E+03 0.  1.
     100001    1    1    2    0    0 -0.13566725026E+03  0.16947610829E+04  0.62718999529E+04  0.65000000000E+04  0.15050000000E+03 0. -1.
</event>
<event>
 4    1  0.4521369E-004  0.6500000E+04  0.7818608E-02  0.7223770E-01
         52   -1    0    0    0    0  0.00000000000E+00  0.00000000000E+00  0.64930732323E+04  0.65000000000E+04  0.30000000000E+03 0.  1.
        -52   -1    0    0    0    0 -0.00000000000E+00 -0.00000000000E+00 -0.64930732323E+04  0.65000000000E+04  0.30000000000E+03 0. -1.
     100001    1    1    2    0    0  0.76714428017E+02 -0.20727912582E+04 -0.61583277800E+04  0.65000000000E+04  0.15050000000E+03 0. -1.
     100001    1    1    2    0    0 -0.76714428017E+02  0.20727912582E+04  0.61583277800E+04  0.65000000000E+04  0.15050000000E+03 0.  1.
</event>
<event>
 4    1  0.4521369E-004  0.6500000E+04  0.7818608E-02  0.7223770E-01
         52   -1    0    0    0    0  0.00000000000E+00  0.00000000000E+00  0.64930732323E+04  0.65000000000E+04  0.30000000000E+03 0.  1.
        -52   -1    0    0    0    0 -0.00000000000E+00 -0.00000000000E+00 -0.64930732323E+04  0.65000000000E+04  0.30000000000E+03 0. -1.
     100001    1    1    2    0    0  0.46126828655E+03  0.30168655970E+03  0.64748410434E+04  0.65000000000E+04  0.15050000000E+03 0.  1.
     100001    1    1    2    0    0 -0.46126828655E+03 -0.30168655970E+03 -0.64748410434E+04  0.65000000000E+04  0.15050000000E+03 0. -1.
</event>
<event>
 4    1  0.4521369E-004  0.6500000E+04  0.7818608E-02  0.7223770E-01
         52   -1    0    0    0    0  0.00000000000E+00  0.00000000000E+00  0.64930732323E+04  0.65000000000E+04  0.30000000000E+03 0. -1.
        -52   -1    0    0    0    0 -0.00000000000E+00 -0.00000000000E+00 -0.64930732323E+04  0.65000000000E+04  0.30000000000E+03 0.  1.
     100001    1    1    2    0    0  0.25982202814E+02  0.11519517109E+04  0.63952859147E+04  0.65000000000E+04  0.15050000000E+03 0. -1.
     100001    1    1    2    0    0 -0.25982202814E+02 -0.11519517109E+04 -0.63952859147E+04  0.65000000000E+04  0.15050000000E+03 0.  1.
</event>
<event>
 4    1  0.4521369E-004  0.6500000E+04  0.7818608E-02  0.7223770E-01
         52   -1    0    0    0    0  0.00000000000E+00  0.00000000000E+00  0.64930732323E+04  0.65000000000E+04  0.30000000000E+03 0.  1.
        -52   -1    0    0    0    0 -0.00000000000E+00 -0.00000000000E+00 -0.64930732323E+04  0.65000000000E+04  0.30000000000E+03 0. -1.
     100001    1    1    2    0    0  0.12056428264E+04  0.53122771624E+04  0.35430899615E+04  0.65000000000E+04  0.15050000000E+03 0.  1.
     100001    1    1    2    0    0 -0.12056428264E+04 -0.53122771624E+04 -0.35430899615E+04  0.65000000000E+04  0.15050000000E+03 0. -1.
</event>
<event>
 4    1  0.4521369E-004  0.6500000E+04  0.7818608E-02  0.7223770E-01
         52   -1    0    0    0    0  0.00000000000E+00  0.00000000000E+00  0.64930732323E+04  0.65000000000E+04  0.30000000000E+03 0.  1.
        -52   -1    0    0    0    0 -0.00000000000E+00 -0.00000000000E+00 -0.64930732323E+04  0.65000000000E+04  0.30000000000E+03 0. -1.
     100001    1    1    2    0    0  0.22226612011E+04  0.16968659885E+04 -0.58658139037E+04  0.65000000000E+04  0.15050000000E+03 0. -1.
     100001    1    1    2    0    0 -0.22226612011E+04 -0.16968659885E+04  0.58658139037E+04  0.65000000000E+04  0.15050000000E+03 0.  1.
</event>
<event>
 4    1  0.4521369E-004  0.6500000E+04  0.7818608E-02  0.7223770E-01
         52   -1    0    0    0    0  0.00000000000E+00  0.00000000000E+00  0.64930732323E+04  0.65000000000E+04  0.30000000000E+03 0. -1.
        -52   -1    0    0    0    0 -0.00000000000E+00 -0.00000000000E+00 -0.64930732323E+04  0.65000000000E+04  0.30000000000E+03 0.  1.
     100001    1    1    2    0    0 -0.18104647975E+04  0.71356979286E+03  0.62000310578E+04  0.65000000000E+04  0.15050000000E+03 0. -1.
     100001    1    1    2    0    0  0.18104647975E+04 -0.71356979286E+03 -0.62000310578E+04  0.65000000000E+04  0.15050000000E+03 0.  1.
</event>
<event>
 4    1  0.4521369E-004  0.6500000E+04  0.7818608E-02  0.7223770E-01
         52   -1    0    0    0    0  0.00000000000E+00  0.00000000000E+00  0.64930732323E+04  0.65000000000E+04  0.30000000000E+03 0. -1.
        -52   -1    0    0    0    0 -0.00000000000E+00 -0.00000000000E+00 -0.64930732323E+04  0.65000000000E+04  0.30000000000E+03 0.  1.
     100001    1    1    2    0    0 -0.60014039366E+03  0.88858581760E+03  0.64091806421E+04  0.65000000000E+04  0.15050000000E+03 0. -1.
     100001    1    1    2    0    0  0.60014039366E+03 -0.88858581760E+03 -0.64091806421E+04  0.65000000000E+04  0.15050000000E+03 0.  1.
</event>
<event>
 4    1  0.4521369E-004  0.6500000E+04  0.7818608E-02  0.7223770E-01
         52   -1    0    0    0    0  0.00000000000E+00  0.00000000000E+00  0.64930732323E+04  0.65000000000E+04  0.30000000000E+03 0.  1.
        -52   -1    0    0    0    0 -0.00000000000E+00 -0.00000000000E+00 -0.64930732323E+04  0.65000000000E+04  0.30000000000E+03 0. -1.
     100001    1    1    2    0    0  0.30036824391E+04 -0.26704853291E+04  0.51062461420E+04  0.65000000000E+04  0.15050000000E+03 0.  1.
     100001    1    1    2    0    0 -0.30036824391E+04  0.26704853291E+04 -0.51062461420E+04  0.65000000000E+04  0.15050000000E+03 0. -1.
</event>
<event>
 4    1  0.4521369E-004  0.6500000E+04  0.7818608E-02  0.7223770E-01
         52   -1    0    0    0    0  0.00000000000E+00  0.00000000000E+00  0.64930732323E+04  0.65000000000E+04  0.30000000000E+03 0.  1.
        -52   -1    0    0    0    0 -0.00000000000E+00 -0.00000000000E+00 -0.64930732323E+04  0.65000000000E+04  0.30000000000E+03 0. -1.
     100001    1    1    2    0    0 -0.49242367151E+04  0.21783379237E+04 -0.36378683887E+04  0.65000000000E+04  0.15050000000E+03 0. -1.
     100001    1    1    2    0    0  0.49242367151E+04 -0.21783379237E+04  0.36378683887E+04  0.65000000000E+04  0.15050000000E+03 0.  1.
</event>
<event>
 4    1  0.4521369E-004  0.6500000E+04  0.7818608E-02  0.7223770E-01
         52   -1    0    0    0    0  0.00000000000E+00  0.00000000000E+00  0.64930732323E+04  0.65000000000E+04  0.30000000000E+03 0. -1.
        -52   -1    0    0    0    0 -0.00000000000E+00 -0.00000000000E+00 -0.64930732323E+04  0.65000000000E+04  0.30000000000E+03 0.  1.
     100001    1    1    2    0    0 -0.14379248582E+03 -0.73602228857E+03  0.64548388564E+04  0.65000000000E+04  0.15050000000E+03 0. -1.
     100001    1    1    2    0    0  0.14379248582E+03  0.73602228857E+03 -0.64548388564E+04  0.65000000000E+04  0.15050000000E+03 0.  1.
</event>
<event>
 4    1  0.4521369E-004  0.6500000E+04  0.7818608E-02  0.7223770E-01
         52   -1    0    0    0    0  0.00000000000E+00  0.00000000000E+00  0.64930732323E+04  0.65000000000E+04  0.30000000000E+03 0.  1.
        -52   -1    0    0    0    0 -0.00000000000E+00 -0.00000000000E+00 -0.64930732323E+04  0.65000000000E+04  0.30000000000E+03 0. -1.
     100001    1    1    2    0    0 -0.11073968619E+04 -0.91241514492E+03 -0.63378640364E+04  0.65000000000E+04  0.15050000000E+03 0. -1.
     100001    1    1    2    0    0  0.11073968619E+04  0.91241514492E+03  0.63378640364E+04  0.65000000000E+04  0.15050000000E+03 0.  1.
</event>
<event>
 4    1  0.4521369E-004  0.6500000E+04  0.7818608E-02  0.7223770E-01
         52   -1    0    0    0    0  0.00000000000E+00  0.00000000000E+00  0.64930732323E+04  0.65000000000E+04  0.30000000000E+03 0.  1.
        -52   -1    0    0    0    0 -0.00000000000E+00 -0.00000000000E+00 -0.64930732323E+04  0.65000000000E+04  0.30000000000E+03 0. -1.
     100001    1    1    2    0    0  0.11553480178E+04 -0.29694696279E+03 -0.63878277379E+04  0.65000000000E+04  0.15050000000E+03 0. -1.
     100001    1    1    2    0    0 -0.11553480178E+04  0.29694696279E+03  0.63878277379E+04  0.65000000000E+04  0.15050000000E+03 0.  1.
</event>
<event>
 4    1  0.4521369E-004  0.6500000E+04  0.7818608E-02  0.7223770E-01
         52   -1    0    0    0    0  0.00000000000E+00  0.00000000000E+00  0.64930732323E+04  0.65000000000E+04  0.30000000000E+03 0. -1.
        -52   -1    0    0    0    0 -0.00000000000E+00 -0.00000000000E+00 -0.64930732323E+04  0.65000000000E+04  0.30000000000E+03 0.  1.
     100001    1    1    2    0    0 -0.17015099836E+03  0.61305651178E+03 -0.64670364234E+04  0.65000000000E+04  0.15050000000E+03 0.  1.
     100001    1    1    2    0    0  0.17015099836E+03 -0.61305651178E+03  0.64670364234E+04  0.65000000000E+04  0.15050000000E+03 0. -1.
</event>
<event>
 4    1  0.4521369E-004  0.6500000E+04  0.7818608E-02  0.7223770E-01
         52   -1    0    0    0    0  0.00000000000E+00  0.00000000000E+00  0.64930732323E+04  0.65000000000E+04  0.30000000000E+03 0.  1.
        -52   -1    0    0    0    0 -0.00000000000E+00 -0.00000000000E+00 -0.64930732323E+04  0.65000000000E+04  0.30000000000E+03 0. -1.
     100001    1    1    2    0    0  0.70108265937E+02 -0.12751995218E+04 -0.63715226407E+04  0.65000000000E+04  0.15050000000E+03 0. -1.
     100001    1    1    2    0    0 -0.70108265937E+02  0.12751995218E+04  0.63715226407E+04  0.65000000000E+04  0.15050000000E+03 0.  1.
</event>
<event>
 4    1  0.4521369E-004  0.6500000E+04  0.7818608E-02  0.7223770E-01
         52   -1    0    0    0    0  0.00000000000E+00  0.00000000000E+00  0.64930732323E+04  0.65000000000E+04  0.30000000000E+03 0.  1.
        -52   -1    0    0    0    0 -0.00000000000E+00 -0.00000000000E+00 -0.64930732323E+04  0.65000000000E+04  0.30000000000E+03 0. -1.
     100001    1    1    2    0    0 -0.40370724498E+04 -0.59549682308E+03 -0.50571513047E+04  0.65000000000E+04  0.15050000000E+03 0. -1.
     100001    1    1    2    0    0  0.40370724498E+04  0.59549682308E+03  0.50571513047E+04  0.65000000000E+04  0.15050000000E+03 0.  1.
</event>
<event>
 4    1  0.4521369E-004  0.6500000E+04  0.7818608E-02  0.7223770E-01
         52   -1    0    0    0    0  0.00000000000E+00  0.00000000000E+00  0.64930732323E+04  0.65000000000E+04  0.30000000000E+03 0. -1.
        -52   -1    0    0    0    0 -0.00000000000E+00 -0.00000000000E+00 -0.64930732323E+04  0.65000000000E+04  0.30000000000E+03 0.  1.
     100001    1    1    2    0    0  0.66681089995E+02  0.34263156734E+03 -0.64888756338E+04  0.65000000000E+04  0.15050000000E+03 0.  1.
     100001    1    1    2    0    0 -0.66681089995E+02 -0.34263156734E+03  0.64888756338E+04  0.65000000000E+04  0.15050000000E+03 0. -1.
</event>
<event>
 4    1  0.4521369E-004  0.6500000E+04  0.7818608E-02  0.7223770E-01
         52   -1    0    0    0    0  0.00000000000E+00  0.00000000000E+00  0.64930732323E+04  0.65000000000E+04  0.30000000000E+03 0. -1.
        -52   -1    0    0    0    0 -0.00000000000E+00 -0.00000000000E+00 -0.64930732323E+04  0.65000000000E+04  0.30000000000E+03 0.  1.
     100001    1    1    2    0    0 -0.10692778471E+03  0.35584464516E+03 -0.64876259747E+04  0.65000000000E+04  0.15050000000E+03 0.  1.
     100001    1    1    2    0    0  0.10692778471E+03 -0.35584464516E+03  0.64876259747E+04  0.65000000000E+04  0.15050000000E+03 0. -1.
</event>
<event>
 4    1  0.4521369E-004  0.6500000E+04  0.7818608E-02  0.7223770E-01
         52   -1    0    0    0    0  0.00000000000E+00  0.00000000000E+00  0.64930732323E+04  0.65000000000E+04  0.30000000000E+03 0.  1.
        -52   -1    0    0    0    0 -0.00000000000E+00 -0.00000000000E+00 -0.64930732323E+04  0.65000000000E+04  0.30000000000E+03 0. -1.
     100001    1    1    2    0    0 -0.33863202454E+04  0.14836176675E+04 -0.53440680724E+04  0.65000000000E+04  0.15050000000E+03 0. -1.
     100001    1    1    2    0    0  0.33863202454E+04 -0.14836176675E+04  0.53440680724E+04  0.65000000000E+04  0.15050000000E+03 0.  1.
</event>
<event>
 4    1  0.4521369E-004  0.6500000E+04  0.7818608E-02  0.7223770E-01
         52   -1    0    0    0    0  0.00000000000E+00  0.00000000000E+00  0.64930732323E+04  0.65000000000E+04  0.30000000000E+03 0. -1.
        -52   -1    0    0    0    0 -0.00000000000E+00 -0.00000000000E+00 -0.64930732323E+04  0.65000000000E+04  0.30000000000E+03 0.  1.
     100001    1    1    2    0    0 -0.70462711271E+03 -0.38786290919E+03 -0.64482875824E+04  0.65000000000E+04  0.15050000000E+03 0.  1.
     100001    1    1    2    0    0  0.70462711271E+03  0.38786290919E+03  0.64482875824E+04  0.65000000000E+04  0.15050000000E+03 0. -1.
</event>
<event>
 4    1  0.4521369E-004  0.6500000E+04  0.7818608E-02  0.7223770E-01
         52   -1    0    0    0    0  0.00000000000E+00  0.00000000000E+00  0.64930732323E+04  0.65000000000E+04  0.30000000000E+03 0.  1.
        -52   -1    0    0    0    0 -0.00000000000E+00 -0.00000000000E+00 -0.64930732323E+04  0.65000000000E+04  0.30000000000E+03 0. -1.
     100001    1    1    2    0    0 -0.29440388930E+04 -0.57420890680E+04 -0.76707097589E+03  0.65000000000E+04  0.15050000000E+03 0.  1.
     100001    1    1    2    0    0  0.29440388930E+04  0.57420890680E+04  0.76707097589E+03  0.65000000000E+04  0.15050000000E+03 0. -1.
</event>
<event>
 4    1  0.4521369E-004  0.6500000E+04  0.7818608E-02  0.7223770E-01
         52   -1    0    0    0    0  0.00000000000E+00  0.00000000000E+00  0.64930732323E+04  0.65000000000E+04  0.30000000000E+03 0.  1.
        -52   -1    0    0    0    0 -0.00000000000E+00 -0.00000000000E+00 -0.64930732323E+04  0.65000000000E+04  0.30000000000E+03 0. -1.
     100001    1    1    2    0    0 -0.23784177815E+04 -0.84346131487E+03  0.59882427821E+04  0.65000000000E+04  0.15050000000E+03 0.  1.
     100001    1    1    2    0    0  0.23784177815E+04  0.84346131487E+03 -0.59882427821E+04  0.65000000000E+04  0.15050000000E+03 0. -1.
</event>
<event>
 4    1  0.4521369E-004  0.6500000E+04  0.7818608E-02  0.7223770E-01
         52   -1    0    0    0    0  0.00000000000E+00  0.00000000000E+00  0.64930732323E+04  0.65000000000E+04  0.30000000000E+03 0. -1.
        -52   -1    0    0    0    0 -0.00000000000E+00 -0.00000000000E+00 -0.64930732323E+04  0.65000000000E+04  0.30000000000E+03 0.  1.
     100001    1    1    2    0    0  0.26154545349E+03 -0.66131288001E+02  0.64926551101E+04  0.65000000000E+04  0.15050000000E+03 0. -1.
     100001    1    1    2    0    0 -0.26154545349E+03  0.66131288001E+02 -0.64926551101E+04  0.65000000000E+04  0.15050000000E+03 0.  1.
</event>
<event>
 4    1  0.4521369E-004  0.6500000E+04  0.7818608E-02  0.7223770E-01
         52   -1    0    0    0    0  0.00000000000E+00  0.00000000000E+00  0.64930732323E+04  0.65000000000E+04  0.30000000000E+03 0. -1.
        -52   -1    0    0    0    0 -0.00000000000E+00 -0.00000000000E+00 -0.64930732323E+04  0.65000000000E+04  0.30000000000E+03 0.  1.
     100001    1    1    2    0    0 -0.18162134674E+02  0.43787124208E+03 -0.64834627062E+04  0.65000000000E+04  0.15050000000E+03 0.  1.
     100001    1    1    2    0    0  0.18162134674E+02 -0.43787124208E+03  0.64834627062E+04  0.65000000000E+04  0.15050000000E+03 0. -1.
</event>
<event>
 4    1  0.4521369E-004  0.6500000E+04  0.7818608E-02  0.7223770E-01
         52   -1    0    0    0    0  0.00000000000E+00  0.00000000000E+00  0.64930732323E+04  0.65000000000E+04  0.30000000000E+03 0. -1.
        -52   -1    0    0    0    0 -0.00000000000E+00 -0.00000000000E+00 -0.64930732323E+04  0.65000000000E+04  0.30000000000E+03 0.  1.
     100001    1    1    2    0    0 -0.41244633773E+04  0.32427754188E+04  0.38341308249E+04  0.65000000000E+04  0.15050000000E+03 0. -1.
     100001    1    1    2    0    0  0.41244633773E+04 -0.32427754188E+04 -0.38341308249E+04  0.65000000000E+04  0.15050000000E+03 0.  1.
</event>
<event>
 4    1  0.4521369E-004  0.6500000E+04  0.7818608E-02  0.7223770E-01
         52   -1    0    0    0    0  0.00000000000E+00  0.00000000000E+00  0.64930732323E+04  0.65000000000E+04  0.30000000000E+03 0. -1.
        -52   -1    0    0    0    0 -0.00000000000E+00 -0.00000000000E+00 -0.64930732323E+04  0.65000000000E+04  0.30000000000E+03 0. -1.
     100001    1    1    2    0    0 -0.11290847606E+03 -0.29481939031E+03  0.64905841766E+04  0.65000000000E+04  0.15050000000E+03 0. -1.
     100001    1    1    2    0    0  0.11290847606E+03  0.29481939031E+03 -0.64905841766E+04  0.65000000000E+04  0.15050000000E+03 0. -1.
</event>
<event>
 4    1  0.4912811E-004  0.6500000E+04  0.7818608E-02  0.7223770E-01
         52   -1    0    0    0    0  0.00000000000E+00  0.00000000000E+00  0.64930732323E+04  0.65000000000E+04  0.30000000000E+03 0. -1.
        -52   -1    0    0    0    0 -0.00000000000E+00 -0.00000000000E+00 -0.64930732323E+04  0.65000000000E+04  0.30000000000E+03 0. -1.
     100001    1    1    2    0    0  0.56532350659E+02 -0.26823928723E+03  0.64924726821E+04  0.65000000000E+04  0.15050000000E+03 0. -1.
     100001    1    1    2    0    0 -0.56532350659E+02  0.26823928723E+03 -0.64924726821E+04  0.65000000000E+04  0.15050000000E+03 0. -1.
</event>
<event>
 4    1  0.4521369E-004  0.6500000E+04  0.7818608E-02  0.7223770E-01
         52   -1    0    0    0    0  0.00000000000E+00  0.00000000000E+00  0.64930732323E+04  0.65000000000E+04  0.30000000000E+03 0. -1.
        -52   -1    0    0    0    0 -0.00000000000E+00 -0.00000000000E+00 -0.64930732323E+04  0.65000000000E+04  0.30000000000E+03 0.  1.
     100001    1    1    2    0    0  0.52413448275E+03 -0.22420119701E+04 -0.60766779674E+04  0.65000000000E+04  0.15050000000E+03 0.  1.
     100001    1    1    2    0    0 -0.52413448275E+03  0.22420119701E+04  0.60766779674E+04  0.65000000000E+04  0.15050000000E+03 0. -1.
</event>
<event>
 4    1  0.4521369E-004  0.6500000E+04  0.7818608E-02  0.7223770E-01
         52   -1    0    0    0    0  0.00000000000E+00  0.00000000000E+00  0.64930732323E+04  0.65000000000E+04  0.30000000000E+03 0. -1.
        -52   -1    0    0    0    0 -0.00000000000E+00 -0.00000000000E+00 -0.64930732323E+04  0.65000000000E+04  0.30000000000E+03 0.  1.
     100001    1    1    2    0    0 -0.49079589374E+03  0.32300716448E+03  0.64716408671E+04  0.65000000000E+04  0.15050000000E+03 0. -1.
     100001    1    1    2    0    0  0.49079589374E+03 -0.32300716448E+03 -0.64716408671E+04  0.65000000000E+04  0.15050000000E+03 0.  1.
</event>
<event>
 4    1  0.4521369E-004  0.6500000E+04  0.7818608E-02  0.7223770E-01
         52   -1    0    0    0    0  0.00000000000E+00  0.00000000000E+00  0.64930732323E+04  0.65000000000E+04  0.30000000000E+03 0. -1.
        -52   -1    0    0    0    0 -0.00000000000E+00 -0.00000000000E+00 -0.64930732323E+04  0.65000000000E+04  0.30000000000E+03 0.  1.
     100001    1    1    2    0    0 -0.12768479984E+04 -0.21390499130E+04  0.60017892673E+04  0.65000000000E+04  0.15050000000E+03 0. -1.
     100001    1    1    2    0    0  0.12768479984E+04  0.21390499130E+04 -0.60017892673E+04  0.65000000000E+04  0.15050000000E+03 0.  1.
</event>
<event>
 4    1  0.4521369E-004  0.6500000E+04  0.7818608E-02  0.7223770E-01
         52   -1    0    0    0    0  0.00000000000E+00  0.00000000000E+00  0.64930732323E+04  0.65000000000E+04  0.30000000000E+03 0.  1.
        -52   -1    0    0    0    0 -0.00000000000E+00 -0.00000000000E+00 -0.64930732323E+04  0.65000000000E+04  0.30000000000E+03 0. -1.
     100001    1    1    2    0    0 -0.61254939672E+04 -0.14088145536E+04 -0.16495196155E+04  0.65000000000E+04  0.15050000000E+03 0. -1.
     100001    1    1    2    0    0  0.61254939672E+04  0.14088145536E+04  0.16495196155E+04  0.65000000000E+04  0.15050000000E+03 0.  1.
</event>
<event>
 4    1  0.4521369E-004  0.6500000E+04  0.7818608E-02  0.7223770E-01
         52   -1    0    0    0    0  0.00000000000E+00  0.00000000000E+00  0.64930732323E+04  0.65000000000E+04  0.30000000000E+03 0. -1.
        -52   -1    0    0    0    0 -0.00000000000E+00 -0.00000000000E+00 -0.64930732323E+04  0.65000000000E+04  0.30000000000E+03 0.  1.
     100001    1    1    2    0    0  0.22066909686E+03 -0.36117003615E+03 -0.64844591991E+04  0.65000000000E+04  0.15050000000E+03 0.  1.
     100001    1    1    2    0    0 -0.22066909686E+03  0.36117003615E+03  0.64844591991E+04  0.65000000000E+04  0.15050000000E+03 0. -1.
</event>
<event>
 4    1  0.4521369E-004  0.6500000E+04  0.7818608E-02  0.7223770E-01
         52   -1    0    0    0    0  0.00000000000E+00  0.00000000000E+00  0.64930732323E+04  0.65000000000E+04  0.30000000000E+03 0. -1.
        -52   -1    0    0    0    0 -0.00000000000E+00 -0.00000000000E+00 -0.64930732323E+04  0.65000000000E+04  0.30000000000E+03 0.  1.
     100001    1    1    2    0    0 -0.37782424677E+04  0.21103079747E+03 -0.52827738554E+04  0.65000000000E+04  0.15050000000E+03 0.  1.
     100001    1    1    2    0    0  0.37782424677E+04 -0.21103079747E+03  0.52827738554E+04  0.65000000000E+04  0.15050000000E+03 0. -1.
</event>
<event>
 4    1  0.4521369E-004  0.6500000E+04  0.7818608E-02  0.7223770E-01
         52   -1    0    0    0    0  0.00000000000E+00  0.00000000000E+00  0.64930732323E+04  0.65000000000E+04  0.30000000000E+03 0.  1.
        -52   -1    0    0    0    0 -0.00000000000E+00 -0.00000000000E+00 -0.64930732323E+04  0.65000000000E+04  0.30000000000E+03 0. -1.
     100001    1    1    2    0    0  0.99087028897E+03 -0.10853709675E+04 -0.63298890735E+04  0.65000000000E+04  0.15050000000E+03 0. -1.
     100001    1    1    2    0    0 -0.99087028897E+03  0.10853709675E+04  0.63298890735E+04  0.65000000000E+04  0.15050000000E+03 0.  1.
</event>
<event>
 4    1  0.4521369E-004  0.6500000E+04  0.7818608E-02  0.7223770E-01
         52   -1    0    0    0    0  0.00000000000E+00  0.00000000000E+00  0.64930732323E+04  0.65000000000E+04  0.30000000000E+03 0. -1.
        -52   -1    0    0    0    0 -0.00000000000E+00 -0.00000000000E+00 -0.64930732323E+04  0.65000000000E+04  0.30000000000E+03 0. -1.
     100001    1    1    2    0    0  0.16796395365E+03  0.25204717147E+03  0.64911948117E+04  0.65000000000E+04  0.15050000000E+03 0. -1.
     100001    1    1    2    0    0 -0.16796395365E+03 -0.25204717147E+03 -0.64911948117E+04  0.65000000000E+04  0.15050000000E+03 0. -1.
</event>
<event>
 4    1  0.4521369E-004  0.6500000E+04  0.7818608E-02  0.7223770E-01
         52   -1    0    0    0    0  0.00000000000E+00  0.00000000000E+00  0.64930732323E+04  0.65000000000E+04  0.30000000000E+03 0.  1.
        -52   -1    0    0    0    0 -0.00000000000E+00 -0.00000000000E+00 -0.64930732323E+04  0.65000000000E+04  0.30000000000E+03 0.  1.
     100001    1    1    2    0    0  0.51310665923E+03  0.21456473267E+03 -0.64744137404E+04  0.65000000000E+04  0.15050000000E+03 0.  1.
     100001    1    1    2    0    0 -0.51310665923E+03 -0.21456473267E+03  0.64744137404E+04  0.65000000000E+04  0.15050000000E+03 0.  1.
</event>
<event>
 4    1  0.4521369E-004  0.6500000E+04  0.7818608E-02  0.7223770E-01
         52   -1    0    0    0    0  0.00000000000E+00  0.00000000000E+00  0.64930732323E+04  0.65000000000E+04  0.30000000000E+03 0.  1.
        -52   -1    0    0    0    0 -0.00000000000E+00 -0.00000000000E+00 -0.64930732323E+04  0.65000000000E+04  0.30000000000E+03 0. -1.
     100001    1    1    2    0    0  0.50199929207E+03  0.32917360893E+03 -0.64704707090E+04  0.65000000000E+04  0.15050000000E+03 0. -1.
     100001    1    1    2    0    0 -0.50199929207E+03 -0.32917360893E+03  0.64704707090E+04  0.65000000000E+04  0.15050000000E+03 0.  1.
</event>
<event>
 4    1  0.4521369E-004  0.6500000E+04  0.7818608E-02  0.7223770E-01
         52   -1    0    0    0    0  0.00000000000E+00  0.00000000000E+00  0.64930732323E+04  0.65000000000E+04  0.30000000000E+03 0. -1.
        -52   -1    0    0    0    0 -0.00000000000E+00 -0.00000000000E+00 -0.64930732323E+04  0.65000000000E+04  0.30000000000E+03 0.  1.
     100001    1    1    2    0    0 -0.72269019565E+01  0.14539805464E+04 -0.63335012507E+04  0.65000000000E+04  0.15050000000E+03 0.  1.
     100001    1    1    2    0    0  0.72269019565E+01 -0.14539805464E+04  0.63335012507E+04  0.65000000000E+04  0.15050000000E+03 0. -1.
</event>
<event>
 4    1  0.4521369E-004  0.6500000E+04  0.7818608E-02  0.7223770E-01
         52   -1    0    0    0    0  0.00000000000E+00  0.00000000000E+00  0.64930732323E+04  0.65000000000E+04  0.30000000000E+03 0. -1.
        -52   -1    0    0    0    0 -0.00000000000E+00 -0.00000000000E+00 -0.64930732323E+04  0.65000000000E+04  0.30000000000E+03 0.  1.
     100001    1    1    2    0    0 -0.39082818245E+04 -0.73902688633E+03 -0.51387276822E+04  0.65000000000E+04  0.15050000000E+03 0.  1.
     100001    1    1    2    0    0  0.39082818245E+04  0.73902688633E+03  0.51387276822E+04  0.65000000000E+04  0.15050000000E+03 0. -1.
</event>
<event>
 4    1  0.4521369E-004  0.6500000E+04  0.7818608E-02  0.7223770E-01
         52   -1    0    0    0    0  0.00000000000E+00  0.00000000000E+00  0.64930732323E+04  0.65000000000E+04  0.30000000000E+03 0.  1.
        -52   -1    0    0    0    0 -0.00000000000E+00 -0.00000000000E+00 -0.64930732323E+04  0.65000000000E+04  0.30000000000E+03 0. -1.
     100001    1    1    2    0    0  0.12878755182E+04 -0.15481152537E+03  0.63674767209E+04  0.65000000000E+04  0.15050000000E+03 0.  1.
     100001    1    1    2    0    0 -0.12878755182E+04  0.15481152537E+03 -0.63674767209E+04  0.65000000000E+04  0.15050000000E+03 0. -1.
</event>
<event>
 4    1  0.4521369E-004  0.6500000E+04  0.7818608E-02  0.7223770E-01
         52   -1    0    0    0    0  0.00000000000E+00  0.00000000000E+00  0.64930732323E+04  0.65000000000E+04  0.30000000000E+03 0. -1.
        -52   -1    0    0    0    0 -0.00000000000E+00 -0.00000000000E+00 -0.64930732323E+04  0.65000000000E+04  0.30000000000E+03 0.  1.
     100001    1    1    2    0    0 -0.31163827719E+03  0.36359774590E+04 -0.53767926548E+04  0.65000000000E+04  0.15050000000E+03 0.  1.
     100001    1    1    2    0    0  0.31163827719E+03 -0.36359774590E+04  0.53767926548E+04  0.65000000000E+04  0.15050000000E+03 0. -1.
</event>
<event>
 4    1  0.4521369E-004  0.6500000E+04  0.7818608E-02  0.7223770E-01
         52   -1    0    0    0    0  0.00000000000E+00  0.00000000000E+00  0.64930732323E+04  0.65000000000E+04  0.30000000000E+03 0. -1.
        -52   -1    0    0    0    0 -0.00000000000E+00 -0.00000000000E+00 -0.64930732323E+04  0.65000000000E+04  0.30000000000E+03 0. -1.
     100001    1    1    2    0    0  0.27301995773E+03 -0.62274228696E+03  0.64625847690E+04  0.65000000000E+04  0.15050000000E+03 0. -1.
     100001    1    1    2    0    0 -0.27301995773E+03  0.62274228696E+03 -0.64625847690E+04  0.65000000000E+04  0.15050000000E+03 0. -1.
</event>
<event>
 4    1  0.4521369E-004  0.6500000E+04  0.7818608E-02  0.7223770E-01
         52   -1    0    0    0    0  0.00000000000E+00  0.00000000000E+00  0.64930732323E+04  0.65000000000E+04  0.30000000000E+03 0. -1.
        -52   -1    0    0    0    0 -0.00000000000E+00 -0.00000000000E+00 -0.64930732323E+04  0.65000000000E+04  0.30000000000E+03 0.  1.
     100001    1    1    2    0    0 -0.36104551583E+04 -0.46572580615E+04  0.27389616004E+04  0.65000000000E+04  0.15050000000E+03 0. -1.
     100001    1    1    2    0    0  0.36104551583E+04  0.46572580615E+04 -0.27389616004E+04  0.65000000000E+04  0.15050000000E+03 0.  1.
</event>
<event>
 4    1  0.4521369E-004  0.6500000E+04  0.7818608E-02  0.7223770E-01
         52   -1    0    0    0    0  0.00000000000E+00  0.00000000000E+00  0.64930732323E+04  0.65000000000E+04  0.30000000000E+03 0.  1.
        -52   -1    0    0    0    0 -0.00000000000E+00 -0.00000000000E+00 -0.64930732323E+04  0.65000000000E+04  0.30000000000E+03 0. -1.
     100001    1    1    2    0    0  0.87870631051E+03  0.24170057921E+04 -0.59676886623E+04  0.65000000000E+04  0.15050000000E+03 0. -1.
     100001    1    1    2    0    0 -0.87870631051E+03 -0.24170057921E+04  0.59676886623E+04  0.65000000000E+04  0.15050000000E+03 0.  1.
</event>
<event>
 4    1  0.4521369E-004  0.6500000E+04  0.7818608E-02  0.7223770E-01
         52   -1    0    0    0    0  0.00000000000E+00  0.00000000000E+00  0.64930732323E+04  0.65000000000E+04  0.30000000000E+03 0.  1.
        -52   -1    0    0    0    0 -0.00000000000E+00 -0.00000000000E+00 -0.64930732323E+04  0.65000000000E+04  0.30000000000E+03 0. -1.
     100001    1    1    2    0    0 -0.13976761065E+04 -0.62339290610E+03  0.63154756381E+04  0.65000000000E+04  0.15050000000E+03 0.  1.
     100001    1    1    2    0    0  0.13976761065E+04  0.62339290610E+03 -0.63154756381E+04  0.65000000000E+04  0.15050000000E+03 0. -1.
</event>
<event>
 4    1  0.4521369E-004  0.6500000E+04  0.7818608E-02  0.7223770E-01
         52   -1    0    0    0    0  0.00000000000E+00  0.00000000000E+00  0.64930732323E+04  0.65000000000E+04  0.30000000000E+03 0. -1.
        -52   -1    0    0    0    0 -0.00000000000E+00 -0.00000000000E+00 -0.64930732323E+04  0.65000000000E+04  0.30000000000E+03 0.  1.
     100001    1    1    2    0    0 -0.14907423055E+04 -0.42279550640E+03 -0.63108066908E+04  0.65000000000E+04  0.15050000000E+03 0.  1.
     100001    1    1    2    0    0  0.14907423055E+04  0.42279550640E+03  0.63108066908E+04  0.65000000000E+04  0.15050000000E+03 0. -1.
</event>
<event>
 4    1  0.4521369E-004  0.6500000E+04  0.7818608E-02  0.7223770E-01
         52   -1    0    0    0    0  0.00000000000E+00  0.00000000000E+00  0.64930732323E+04  0.65000000000E+04  0.30000000000E+03 0. -1.
        -52   -1    0    0    0    0 -0.00000000000E+00 -0.00000000000E+00 -0.64930732323E+04  0.65000000000E+04  0.30000000000E+03 0.  1.
     100001    1    1    2    0    0  0.72257561304E+02  0.89789382572E+03 -0.64355198137E+04  0.65000000000E+04  0.15050000000E+03 0.  1.
     100001    1    1    2    0    0 -0.72257561304E+02 -0.89789382572E+03  0.64355198137E+04  0.65000000000E+04  0.15050000000E+03 0. -1.
</event>
<event>
 4    1  0.4521369E-004  0.6500000E+04  0.7818608E-02  0.7223770E-01
         52   -1    0    0    0    0  0.00000000000E+00  0.00000000000E+00  0.64930732323E+04  0.65000000000E+04  0.30000000000E+03 0.  1.
        -52   -1    0    0    0    0 -0.00000000000E+00 -0.00000000000E+00 -0.64930732323E+04  0.65000000000E+04  0.30000000000E+03 0. -1.
     100001    1    1    2    0    0  0.28311087596E+04 -0.89220821654E+03 -0.57806692899E+04  0.65000000000E+04  0.15050000000E+03 0. -1.
     100001    1    1    2    0    0 -0.28311087596E+04  0.89220821654E+03  0.57806692899E+04  0.65000000000E+04  0.15050000000E+03 0.  1.
</event>
<event>
 4    1  0.4521369E-004  0.6500000E+04  0.7818608E-02  0.7223770E-01
         52   -1    0    0    0    0  0.00000000000E+00  0.00000000000E+00  0.64930732323E+04  0.65000000000E+04  0.30000000000E+03 0. -1.
        -52   -1    0    0    0    0 -0.00000000000E+00 -0.00000000000E+00 -0.64930732323E+04  0.65000000000E+04  0.30000000000E+03 0. -1.
     100001    1    1    2    0    0 -0.17572012586E+03 -0.29610132440E+03 -0.64891290782E+04  0.65000000000E+04  0.15050000000E+03 0. -1.
     100001    1    1    2    0    0  0.17572012586E+03  0.29610132440E+03  0.64891290782E+04  0.65000000000E+04  0.15050000000E+03 0. -1.
</event>
<event>
 4    1  0.4521369E-004  0.6500000E+04  0.7818608E-02  0.7223770E-01
         52   -1    0    0    0    0  0.00000000000E+00  0.00000000000E+00  0.64930732323E+04  0.65000000000E+04  0.30000000000E+03 0.  1.
        -52   -1    0    0    0    0 -0.00000000000E+00 -0.00000000000E+00 -0.64930732323E+04  0.65000000000E+04  0.30000000000E+03 0.  1.
     100001    1    1    2    0    0  0.26815484680E+03  0.28830811680E+03 -0.64863179970E+04  0.65000000000E+04  0.15050000000E+03 0.  1.
     100001    1    1    2    0    0 -0.26815484680E+03 -0.28830811680E+03  0.64863179970E+04  0.65000000000E+04  0.15050000000E+03 0.  1.
</event>
<event>
 4    1  0.4521369E-004  0.6500000E+04  0.7818608E-02  0.7223770E-01
         52   -1    0    0    0    0  0.00000000000E+00  0.00000000000E+00  0.64930732323E+04  0.65000000000E+04  0.30000000000E+03 0. -1.
        -52   -1    0    0    0    0 -0.00000000000E+00 -0.00000000000E+00 -0.64930732323E+04  0.65000000000E+04  0.30000000000E+03 0. -1.
     100001    1    1    2    0    0  0.19358449739E+03  0.22810942775E+03  0.64913666420E+04  0.65000000000E+04  0.15050000000E+03 0. -1.
     100001    1    1    2    0    0 -0.19358449739E+03 -0.22810942775E+03 -0.64913666420E+04  0.65000000000E+04  0.15050000000E+03 0. -1.
</event>
<event>
 4    1  0.4521369E-004  0.6500000E+04  0.7818608E-02  0.7223770E-01
         52   -1    0    0    0    0  0.00000000000E+00  0.00000000000E+00  0.64930732323E+04  0.65000000000E+04  0.30000000000E+03 0. -1.
        -52   -1    0    0    0    0 -0.00000000000E+00 -0.00000000000E+00 -0.64930732323E+04  0.65000000000E+04  0.30000000000E+03 0.  1.
     100001    1    1    2    0    0  0.32923998903E+03 -0.58550740598E+04 -0.27994746889E+04  0.65000000000E+04  0.15050000000E+03 0.  1.
     100001    1    1    2    0    0 -0.32923998903E+03  0.58550740598E+04  0.27994746889E+04  0.65000000000E+04  0.15050000000E+03 0. -1.
</event>
<event>
 4    1  0.4521369E-004  0.6500000E+04  0.7818608E-02  0.7223770E-01
         52   -1    0    0    0    0  0.00000000000E+00  0.00000000000E+00  0.64930732323E+04  0.65000000000E+04  0.30000000000E+03 0. -1.
        -52   -1    0    0    0    0 -0.00000000000E+00 -0.00000000000E+00 -0.64930732323E+04  0.65000000000E+04  0.30000000000E+03 0.  1.
     100001    1    1    2    0    0 -0.26522756296E+03 -0.12837321109E+03  0.64915733385E+04  0.65000000000E+04  0.15050000000E+03 0. -1.
     100001    1    1    2    0    0  0.26522756296E+03  0.12837321109E+03 -0.64915733385E+04  0.65000000000E+04  0.15050000000E+03 0.  1.
</event>
<event>
 4    1  0.4521369E-004  0.6500000E+04  0.7818608E-02  0.7223770E-01
         52   -1    0    0    0    0  0.00000000000E+00  0.00000000000E+00  0.64930732323E+04  0.65000000000E+04  0.30000000000E+03 0.  1.
        -52   -1    0    0    0    0 -0.00000000000E+00 -0.00000000000E+00 -0.64930732323E+04  0.65000000000E+04  0.30000000000E+03 0.  1.
     100001    1    1    2    0    0  0.25211152796E+03 -0.23586681219E+03  0.64890797787E+04  0.65000000000E+04  0.15050000000E+03 0.  1.
     100001    1    1    2    0    0 -0.25211152796E+03  0.23586681219E+03 -0.64890797787E+04  0.65000000000E+04  0.15050000000E+03 0.  1.
</event>
<event>
 4    1  0.4521369E-004  0.6500000E+04  0.7818608E-02  0.7223770E-01
         52   -1    0    0    0    0  0.00000000000E+00  0.00000000000E+00  0.64930732323E+04  0.65000000000E+04  0.30000000000E+03 0. -1.
        -52   -1    0    0    0    0 -0.00000000000E+00 -0.00000000000E+00 -0.64930732323E+04  0.65000000000E+04  0.30000000000E+03 0.  1.
     100001    1    1    2    0    0  0.15936008760E+04  0.70779623174E+03  0.62599369400E+04  0.65000000000E+04  0.15050000000E+03 0. -1.
     100001    1    1    2    0    0 -0.15936008760E+04 -0.70779623174E+03 -0.62599369400E+04  0.65000000000E+04  0.15050000000E+03 0.  1.
</event>
<event>
 4    1  0.4521369E-004  0.6500000E+04  0.7818608E-02  0.7223770E-01
         52   -1    0    0    0    0  0.00000000000E+00  0.00000000000E+00  0.64930732323E+04  0.65000000000E+04  0.30000000000E+03 0.  1.
        -52   -1    0    0    0    0 -0.00000000000E+00 -0.00000000000E+00 -0.64930732323E+04  0.65000000000E+04  0.30000000000E+03 0. -1.
     100001    1    1    2    0    0 -0.15841345143E+04  0.61067872178E+03  0.62725544310E+04  0.65000000000E+04  0.15050000000E+03 0.  1.
     100001    1    1    2    0    0  0.15841345143E+04 -0.61067872178E+03 -0.62725544310E+04  0.65000000000E+04  0.15050000000E+03 0. -1.
</event>
<event>
 4    1  0.4521369E-004  0.6500000E+04  0.7818608E-02  0.7223770E-01
         52   -1    0    0    0    0  0.00000000000E+00  0.00000000000E+00  0.64930732323E+04  0.65000000000E+04  0.30000000000E+03 0. -1.
        -52   -1    0    0    0    0 -0.00000000000E+00 -0.00000000000E+00 -0.64930732323E+04  0.65000000000E+04  0.30000000000E+03 0.  1.
     100001    1    1    2    0    0  0.96295020778E+02 -0.66433428933E+03 -0.64634926295E+04  0.65000000000E+04  0.15050000000E+03 0.  1.
     100001    1    1    2    0    0 -0.96295020778E+02  0.66433428933E+03  0.64634926295E+04  0.65000000000E+04  0.15050000000E+03 0. -1.
</event>
<event>
 4    1  0.4521369E-004  0.6500000E+04  0.7818608E-02  0.7223770E-01
         52   -1    0    0    0    0  0.00000000000E+00  0.00000000000E+00  0.64930732323E+04  0.65000000000E+04  0.30000000000E+03 0.  1.
        -52   -1    0    0    0    0 -0.00000000000E+00 -0.00000000000E+00 -0.64930732323E+04  0.65000000000E+04  0.30000000000E+03 0. -1.
     100001    1    1    2    0    0  0.60507132313E+04  0.23621962466E+04 -0.19038916777E+03  0.65000000000E+04  0.15050000000E+03 0.  1.
     100001    1    1    2    0    0 -0.60507132313E+04 -0.23621962466E+04  0.19038916777E+03  0.65000000000E+04  0.15050000000E+03 0. -1.
</event>
<event>
 4    1  0.4521369E-004  0.6500000E+04  0.7818608E-02  0.7223770E-01
         52   -1    0    0    0    0  0.00000000000E+00  0.00000000000E+00  0.64930732323E+04  0.65000000000E+04  0.30000000000E+03 0. -1.
        -52   -1    0    0    0    0 -0.00000000000E+00 -0.00000000000E+00 -0.64930732323E+04  0.65000000000E+04  0.30000000000E+03 0. -1.
     100001    1    1    2    0    0  0.80910044991E+03  0.42975259261E+03 -0.64333520750E+04  0.65000000000E+04  0.15050000000E+03 0. -1.
     100001    1    1    2    0    0 -0.80910044991E+03 -0.42975259261E+03  0.64333520750E+04  0.65000000000E+04  0.15050000000E+03 0. -1.
</event>
<event>
 4    1  0.5095441E-004  0.6500000E+04  0.7818608E-02  0.7223770E-01
         52   -1    0    0    0    0  0.00000000000E+00  0.00000000000E+00  0.64930732323E+04  0.65000000000E+04  0.30000000000E+03 0.  1.
        -52   -1    0    0    0    0 -0.00000000000E+00 -0.00000000000E+00 -0.64930732323E+04  0.65000000000E+04  0.30000000000E+03 0.  1.
     100001    1    1    2    0    0 -0.64937054044E+01 -0.23233503411E+03 -0.64940994767E+04  0.65000000000E+04  0.15050000000E+03 0.  1.
     100001    1    1    2    0    0  0.64937054044E+01  0.23233503411E+03  0.64940994767E+04  0.65000000000E+04  0.15050000000E+03 0.  1.
</event>
<event>
 4    1  0.4521369E-004  0.6500000E+04  0.7818608E-02  0.7223770E-01
         52   -1    0    0    0    0  0.00000000000E+00  0.00000000000E+00  0.64930732323E+04  0.65000000000E+04  0.30000000000E+03 0.  1.
        -52   -1    0    0    0    0 -0.00000000000E+00 -0.00000000000E+00 -0.64930732323E+04  0.65000000000E+04  0.30000000000E+03 0. -1.
     100001    1    1    2    0    0 -0.16849180792E+04 -0.31474683923E+04 -0.54297185503E+04  0.65000000000E+04  0.15050000000E+03 0. -1.
     100001    1    1    2    0    0  0.16849180792E+04  0.31474683923E+04  0.54297185503E+04  0.65000000000E+04  0.15050000000E+03 0.  1.
</event>
<event>
 4    1  0.4521369E-004  0.6500000E+04  0.7818608E-02  0.7223770E-01
         52   -1    0    0    0    0  0.00000000000E+00  0.00000000000E+00  0.64930732323E+04  0.65000000000E+04  0.30000000000E+03 0.  1.
        -52   -1    0    0    0    0 -0.00000000000E+00 -0.00000000000E+00 -0.64930732323E+04  0.65000000000E+04  0.30000000000E+03 0. -1.
     100001    1    1    2    0    0  0.59760923531E+03 -0.15384487866E+03 -0.64688905312E+04  0.65000000000E+04  0.15050000000E+03 0. -1.
     100001    1    1    2    0    0 -0.59760923531E+03  0.15384487866E+03  0.64688905312E+04  0.65000000000E+04  0.15050000000E+03 0.  1.
</event>
<event>
 4    1  0.4521369E-004  0.6500000E+04  0.7818608E-02  0.7223770E-01
         52   -1    0    0    0    0  0.00000000000E+00  0.00000000000E+00  0.64930732323E+04  0.65000000000E+04  0.30000000000E+03 0. -1.
        -52   -1    0    0    0    0 -0.00000000000E+00 -0.00000000000E+00 -0.64930732323E+04  0.65000000000E+04  0.30000000000E+03 0.  1.
     100001    1    1    2    0    0  0.50676684789E+04 -0.25353840974E+04 -0.31808667713E+04  0.65000000000E+04  0.15050000000E+03 0.  1.
     100001    1    1    2    0    0 -0.50676684789E+04  0.25353840974E+04  0.31808667713E+04  0.65000000000E+04  0.15050000000E+03 0. -1.
</event>
<event>
 4    1  0.4521369E-004  0.6500000E+04  0.7818608E-02  0.7223770E-01
         52   -1    0    0    0    0  0.00000000000E+00  0.00000000000E+00  0.64930732323E+04  0.65000000000E+04  0.30000000000E+03 0. -1.
        -52   -1    0    0    0    0 -0.00000000000E+00 -0.00000000000E+00 -0.64930732323E+04  0.65000000000E+04  0.30000000000E+03 0.  1.
     100001    1    1    2    0    0  0.17861821241E+03 -0.19708782647E+04  0.61895948292E+04  0.65000000000E+04  0.15050000000E+03 0. -1.
     100001    1    1    2    0    0 -0.17861821241E+03  0.19708782647E+04 -0.61895948292E+04  0.65000000000E+04  0.15050000000E+03 0.  1.
</event>
<event>
 4    1  0.4521369E-004  0.6500000E+04  0.7818608E-02  0.7223770E-01
         52   -1    0    0    0    0  0.00000000000E+00  0.00000000000E+00  0.64930732323E+04  0.65000000000E+04  0.30000000000E+03 0. -1.
        -52   -1    0    0    0    0 -0.00000000000E+00 -0.00000000000E+00 -0.64930732323E+04  0.65000000000E+04  0.30000000000E+03 0.  1.
     100001    1    1    2    0    0  0.29439929900E+03  0.18162380739E+03  0.64890439662E+04  0.65000000000E+04  0.15050000000E+03 0. -1.
     100001    1    1    2    0    0 -0.29439929900E+03 -0.18162380739E+03 -0.64890439662E+04  0.65000000000E+04  0.15050000000E+03 0.  1.
</event>
<event>
 4    1  0.4521369E-004  0.6500000E+04  0.7818608E-02  0.7223770E-01
         52   -1    0    0    0    0  0.00000000000E+00  0.00000000000E+00  0.64930732323E+04  0.65000000000E+04  0.30000000000E+03 0. -1.
        -52   -1    0    0    0    0 -0.00000000000E+00 -0.00000000000E+00 -0.64930732323E+04  0.65000000000E+04  0.30000000000E+03 0.  1.
     100001    1    1    2    0    0 -0.87919745107E+03 -0.99749773522E+03  0.63607672383E+04  0.65000000000E+04  0.15050000000E+03 0. -1.
     100001    1    1    2    0    0  0.87919745107E+03  0.99749773522E+03 -0.63607672383E+04  0.65000000000E+04  0.15050000000E+03 0.  1.
</event>
<event>
 4    1  0.4521369E-004  0.6500000E+04  0.7818608E-02  0.7223770E-01
         52   -1    0    0    0    0  0.00000000000E+00  0.00000000000E+00  0.64930732323E+04  0.65000000000E+04  0.30000000000E+03 0.  1.
        -52   -1    0    0    0    0 -0.00000000000E+00 -0.00000000000E+00 -0.64930732323E+04  0.65000000000E+04  0.30000000000E+03 0. -1.
     100001    1    1    2    0    0 -0.65189203831E+03  0.29753023570E+03  0.64586269655E+04  0.65000000000E+04  0.15050000000E+03 0.  1.
     100001    1    1    2    0    0  0.65189203831E+03 -0.29753023570E+03 -0.64586269655E+04  0.65000000000E+04  0.15050000000E+03 0. -1.
</event>
<event>
 4    1  0.4521369E-004  0.6500000E+04  0.7818608E-02  0.7223770E-01
         52   -1    0    0    0    0  0.00000000000E+00  0.00000000000E+00  0.64930732323E+04  0.65000000000E+04  0.30000000000E+03 0.  1.
        -52   -1    0    0    0    0 -0.00000000000E+00 -0.00000000000E+00 -0.64930732323E+04  0.65000000000E+04  0.30000000000E+03 0. -1.
     100001    1    1    2    0    0 -0.28339320852E+03 -0.42747227729E+03  0.64779862219E+04  0.65000000000E+04  0.15050000000E+03 0.  1.
     100001    1    1    2    0    0  0.28339320852E+03  0.42747227729E+03 -0.64779862219E+04  0.65000000000E+04  0.15050000000E+03 0. -1.
</event>
<event>
 4    1  0.4521369E-004  0.6500000E+04  0.7818608E-02  0.7223770E-01
         52   -1    0    0    0    0  0.00000000000E+00  0.00000000000E+00  0.64930732323E+04  0.65000000000E+04  0.30000000000E+03 0.  1.
        -52   -1    0    0    0    0 -0.00000000000E+00 -0.00000000000E+00 -0.64930732323E+04  0.65000000000E+04  0.30000000000E+03 0. -1.
     100001    1    1    2    0    0  0.17453310539E+04  0.50418884578E+04  0.37095188423E+04  0.65000000000E+04  0.15050000000E+03 0.  1.
     100001    1    1    2    0    0 -0.17453310539E+04 -0.50418884578E+04 -0.37095188423E+04  0.65000000000E+04  0.15050000000E+03 0. -1.
</event>
<event>
 4    1  0.4521369E-004  0.6500000E+04  0.7818608E-02  0.7223770E-01
         52   -1    0    0    0    0  0.00000000000E+00  0.00000000000E+00  0.64930732323E+04  0.65000000000E+04  0.30000000000E+03 0. -1.
        -52   -1    0    0    0    0 -0.00000000000E+00 -0.00000000000E+00 -0.64930732323E+04  0.65000000000E+04  0.30000000000E+03 0.  1.
     100001    1    1    2    0    0  0.32267019164E+03 -0.79570575286E+03  0.64412798458E+04  0.65000000000E+04  0.15050000000E+03 0. -1.
     100001    1    1    2    0    0 -0.32267019164E+03  0.79570575286E+03 -0.64412798458E+04  0.65000000000E+04  0.15050000000E+03 0.  1.
</event>
<event>
 4    1  0.4521369E-004  0.6500000E+04  0.7818608E-02  0.7223770E-01
         52   -1    0    0    0    0  0.00000000000E+00  0.00000000000E+00  0.64930732323E+04  0.65000000000E+04  0.30000000000E+03 0.  1.
        -52   -1    0    0    0    0 -0.00000000000E+00 -0.00000000000E+00 -0.64930732323E+04  0.65000000000E+04  0.30000000000E+03 0. -1.
     100001    1    1    2    0    0  0.31048881239E+03 -0.17639661945E+04 -0.62465486240E+04  0.65000000000E+04  0.15050000000E+03 0. -1.
     100001    1    1    2    0    0 -0.31048881239E+03  0.17639661945E+04  0.62465486240E+04  0.65000000000E+04  0.15050000000E+03 0.  1.
</event>
<event>
 4    1  0.4521369E-004  0.6500000E+04  0.7818608E-02  0.7223770E-01
         52   -1    0    0    0    0  0.00000000000E+00  0.00000000000E+00  0.64930732323E+04  0.65000000000E+04  0.30000000000E+03 0. -1.
        -52   -1    0    0    0    0 -0.00000000000E+00 -0.00000000000E+00 -0.64930732323E+04  0.65000000000E+04  0.30000000000E+03 0.  1.
     100001    1    1    2    0    0 -0.24705872239E+04 -0.59380881907E+04 -0.92879338819E+03  0.65000000000E+04  0.15050000000E+03 0. -1.
     100001    1    1    2    0    0  0.24705872239E+04  0.59380881907E+04  0.92879338819E+03  0.65000000000E+04  0.15050000000E+03 0.  1.
</event>
<event>
 4    1  0.4521369E-004  0.6500000E+04  0.7818608E-02  0.7223770E-01
         52   -1    0    0    0    0  0.00000000000E+00  0.00000000000E+00  0.64930732323E+04  0.65000000000E+04  0.30000000000E+03 0. -1.
        -52   -1    0    0    0    0 -0.00000000000E+00 -0.00000000000E+00 -0.64930732323E+04  0.65000000000E+04  0.30000000000E+03 0.  1.
     100001    1    1    2    0    0 -0.18783993436E+04  0.23512186671E+03  0.62164043758E+04  0.65000000000E+04  0.15050000000E+03 0. -1.
     100001    1    1    2    0    0  0.18783993436E+04 -0.23512186671E+03 -0.62164043758E+04  0.65000000000E+04  0.15050000000E+03 0.  1.
</event>
<event>
 4    1  0.4521369E-004  0.6500000E+04  0.7818608E-02  0.7223770E-01
         52   -1    0    0    0    0  0.00000000000E+00  0.00000000000E+00  0.64930732323E+04  0.65000000000E+04  0.30000000000E+03 0. -1.
        -52   -1    0    0    0    0 -0.00000000000E+00 -0.00000000000E+00 -0.64930732323E+04  0.65000000000E+04  0.30000000000E+03 0. -1.
     100001    1    1    2    0    0 -0.96296389469E+02  0.96724590704E+03  0.64251468552E+04  0.65000000000E+04  0.15050000000E+03 0. -1.
     100001    1    1    2    0    0  0.96296389469E+02 -0.96724590704E+03 -0.64251468552E+04  0.65000000000E+04  0.15050000000E+03 0. -1.
</event>
<event>
 4    1  0.4521369E-004  0.6500000E+04  0.7818608E-02  0.7223770E-01
         52   -1    0    0    0    0  0.00000000000E+00  0.00000000000E+00  0.64930732323E+04  0.65000000000E+04  0.30000000000E+03 0. -1.
        -52   -1    0    0    0    0 -0.00000000000E+00 -0.00000000000E+00 -0.64930732323E+04  0.65000000000E+04  0.30000000000E+03 0.  1.
     100001    1    1    2    0    0 -0.18654648469E+03 -0.53523352457E+04 -0.36803610661E+04  0.65000000000E+04  0.15050000000E+03 0.  1.
     100001    1    1    2    0    0  0.18654648469E+03  0.53523352457E+04  0.36803610661E+04  0.65000000000E+04  0.15050000000E+03 0. -1.
</event>
<event>
 4    1  0.4521369E-004  0.6500000E+04  0.7818608E-02  0.7223770E-01
         52   -1    0    0    0    0  0.00000000000E+00  0.00000000000E+00  0.64930732323E+04  0.65000000000E+04  0.30000000000E+03 0. -1.
        -52   -1    0    0    0    0 -0.00000000000E+00 -0.00000000000E+00 -0.64930732323E+04  0.65000000000E+04  0.30000000000E+03 0.  1.
     100001    1    1    2    0    0 -0.40844305253E+04 -0.10197200289E+04  0.49502472763E+04  0.65000000000E+04  0.15050000000E+03 0. -1.
     100001    1    1    2    0    0  0.40844305253E+04  0.10197200289E+04 -0.49502472763E+04  0.65000000000E+04  0.15050000000E+03 0.  1.
</event>
<event>
 4    1  0.4521369E-004  0.6500000E+04  0.7818608E-02  0.7223770E-01
         52   -1    0    0    0    0  0.00000000000E+00  0.00000000000E+00  0.64930732323E+04  0.65000000000E+04  0.30000000000E+03 0.  1.
        -52   -1    0    0    0    0 -0.00000000000E+00 -0.00000000000E+00 -0.64930732323E+04  0.65000000000E+04  0.30000000000E+03 0. -1.
     100001    1    1    2    0    0  0.81044136979E+03  0.45587234172E+03  0.64313851497E+04  0.65000000000E+04  0.15050000000E+03 0.  1.
     100001    1    1    2    0    0 -0.81044136979E+03 -0.45587234172E+03 -0.64313851497E+04  0.65000000000E+04  0.15050000000E+03 0. -1.
</event>
<event>
 4    1  0.4521369E-004  0.6500000E+04  0.7818608E-02  0.7223770E-01
         52   -1    0    0    0    0  0.00000000000E+00  0.00000000000E+00  0.64930732323E+04  0.65000000000E+04  0.30000000000E+03 0.  1.
        -52   -1    0    0    0    0 -0.00000000000E+00 -0.00000000000E+00 -0.64930732323E+04  0.65000000000E+04  0.30000000000E+03 0. -1.
     100001    1    1    2    0    0  0.16742706816E+04  0.68286535006E+03 -0.62416233744E+04  0.65000000000E+04  0.15050000000E+03 0. -1.
     100001    1    1    2    0    0 -0.16742706816E+04 -0.68286535006E+03  0.62416233744E+04  0.65000000000E+04  0.15050000000E+03 0.  1.
</event>
<event>
 4    1  0.4521369E-004  0.6500000E+04  0.7818608E-02  0.7223770E-01
         52   -1    0    0    0    0  0.00000000000E+00  0.00000000000E+00  0.64930732323E+04  0.65000000000E+04  0.30000000000E+03 0.  1.
        -52   -1    0    0    0    0 -0.00000000000E+00 -0.00000000000E+00 -0.64930732323E+04  0.65000000000E+04  0.30000000000E+03 0. -1.
     100001    1    1    2    0    0  0.14356593275E+04 -0.49643020516E+04 -0.39397889773E+04  0.65000000000E+04  0.15050000000E+03 0. -1.
     100001    1    1    2    0    0 -0.14356593275E+04  0.49643020516E+04  0.39397889773E+04  0.65000000000E+04  0.15050000000E+03 0.  1.
</event>
<event>
 4    1  0.4521369E-004  0.6500000E+04  0.7818608E-02  0.7223770E-01
         52   -1    0    0    0    0  0.00000000000E+00  0.00000000000E+00  0.64930732323E+04  0.65000000000E+04  0.30000000000E+03 0.  1.
        -52   -1    0    0    0    0 -0.00000000000E+00 -0.00000000000E+00 -0.64930732323E+04  0.65000000000E+04  0.30000000000E+03 0. -1.
     100001    1    1    2    0    0 -0.86258499127E+03 -0.10163540849E+03  0.64399508637E+04  0.65000000000E+04  0.15050000000E+03 0.  1.
     100001    1    1    2    0    0  0.86258499127E+03  0.10163540849E+03 -0.64399508637E+04  0.65000000000E+04  0.15050000000E+03 0. -1.
</event>
<event>
 4    1  0.4521369E-004  0.6500000E+04  0.7818608E-02  0.7223770E-01
         52   -1    0    0    0    0  0.00000000000E+00  0.00000000000E+00  0.64930732323E+04  0.65000000000E+04  0.30000000000E+03 0.  1.
        -52   -1    0    0    0    0 -0.00000000000E+00 -0.00000000000E+00 -0.64930732323E+04  0.65000000000E+04  0.30000000000E+03 0. -1.
     100001    1    1    2    0    0  0.83954953557E+03  0.38060266638E+03  0.64325459919E+04  0.65000000000E+04  0.15050000000E+03 0.  1.
     100001    1    1    2    0    0 -0.83954953557E+03 -0.38060266638E+03 -0.64325459919E+04  0.65000000000E+04  0.15050000000E+03 0. -1.
</event>
<event>
 4    1  0.4521369E-004  0.6500000E+04  0.7818608E-02  0.7223770E-01
         52   -1    0    0    0    0  0.00000000000E+00  0.00000000000E+00  0.64930732323E+04  0.65000000000E+04  0.30000000000E+03 0. -1.
        -52   -1    0    0    0    0 -0.00000000000E+00 -0.00000000000E+00 -0.64930732323E+04  0.65000000000E+04  0.30000000000E+03 0.  1.
     100001    1    1    2    0    0  0.12867295874E+03 -0.25843768568E+04 -0.59608547442E+04  0.65000000000E+04  0.15050000000E+03 0.  1.
     100001    1    1    2    0    0 -0.12867295874E+03  0.25843768568E+04  0.59608547442E+04  0.65000000000E+04  0.15050000000E+03 0. -1.
</event>
<event>
 4    1  0.4521369E-004  0.6500000E+04  0.7818608E-02  0.7223770E-01
         52   -1    0    0    0    0  0.00000000000E+00  0.00000000000E+00  0.64930732323E+04  0.65000000000E+04  0.30000000000E+03 0.  1.
        -52   -1    0    0    0    0 -0.00000000000E+00 -0.00000000000E+00 -0.64930732323E+04  0.65000000000E+04  0.30000000000E+03 0. -1.
     100001    1    1    2    0    0 -0.24398244473E+03  0.29451412598E+02 -0.64936087756E+04  0.65000000000E+04  0.15050000000E+03 0. -1.
     100001    1    1    2    0    0  0.24398244473E+03 -0.29451412598E+02  0.64936087756E+04  0.65000000000E+04  0.15050000000E+03 0.  1.
</event>
<event>
 4    1  0.4521369E-004  0.6500000E+04  0.7818608E-02  0.7223770E-01
         52   -1    0    0    0    0  0.00000000000E+00  0.00000000000E+00  0.64930732323E+04  0.65000000000E+04  0.30000000000E+03 0.  1.
        -52   -1    0    0    0    0 -0.00000000000E+00 -0.00000000000E+00 -0.64930732323E+04  0.65000000000E+04  0.30000000000E+03 0. -1.
     100001    1    1    2    0    0  0.49716720571E+03  0.14571373419E+03  0.64775722325E+04  0.65000000000E+04  0.15050000000E+03 0.  1.
     100001    1    1    2    0    0 -0.49716720571E+03 -0.14571373419E+03 -0.64775722325E+04  0.65000000000E+04  0.15050000000E+03 0. -1.
</event>
<event>
 4    1  0.4521369E-004  0.6500000E+04  0.7818608E-02  0.7223770E-01
         52   -1    0    0    0    0  0.00000000000E+00  0.00000000000E+00  0.64930732323E+04  0.65000000000E+04  0.30000000000E+03 0. -1.
        -52   -1    0    0    0    0 -0.00000000000E+00 -0.00000000000E+00 -0.64930732323E+04  0.65000000000E+04  0.30000000000E+03 0.  1.
     100001    1    1    2    0    0 -0.43651891025E+03  0.37180372831E+03 -0.64729099313E+04  0.65000000000E+04  0.15050000000E+03 0.  1.
     100001    1    1    2    0    0  0.43651891025E+03 -0.37180372831E+03  0.64729099313E+04  0.65000000000E+04  0.15050000000E+03 0. -1.
</event>
<event>
 4    1  0.4521369E-004  0.6500000E+04  0.7818608E-02  0.7223770E-01
         52   -1    0    0    0    0  0.00000000000E+00  0.00000000000E+00  0.64930732323E+04  0.65000000000E+04  0.30000000000E+03 0. -1.
        -52   -1    0    0    0    0 -0.00000000000E+00 -0.00000000000E+00 -0.64930732323E+04  0.65000000000E+04  0.30000000000E+03 0.  1.
     100001    1    1    2    0    0 -0.13864471569E+04  0.85518406642E+03  0.62907689708E+04  0.65000000000E+04  0.15050000000E+03 0. -1.
     100001    1    1    2    0    0  0.13864471569E+04 -0.85518406642E+03 -0.62907689708E+04  0.65000000000E+04  0.15050000000E+03 0.  1.
</event>
<event>
 4    1  0.4521369E-004  0.6500000E+04  0.7818608E-02  0.7223770E-01
         52   -1    0    0    0    0  0.00000000000E+00  0.00000000000E+00  0.64930732323E+04  0.65000000000E+04  0.30000000000E+03 0. -1.
        -52   -1    0    0    0    0 -0.00000000000E+00 -0.00000000000E+00 -0.64930732323E+04  0.65000000000E+04  0.30000000000E+03 0.  1.
     100001    1    1    2    0    0  0.16015815488E+04  0.93770368219E+03 -0.62275997059E+04  0.65000000000E+04  0.15050000000E+03 0.  1.
     100001    1    1    2    0    0 -0.16015815488E+04 -0.93770368219E+03  0.62275997059E+04  0.65000000000E+04  0.15050000000E+03 0. -1.
</event>
<event>
 4    1  0.4521369E-004  0.6500000E+04  0.7818608E-02  0.7223770E-01
         52   -1    0    0    0    0  0.00000000000E+00  0.00000000000E+00  0.64930732323E+04  0.65000000000E+04  0.30000000000E+03 0.  1.
        -52   -1    0    0    0    0 -0.00000000000E+00 -0.00000000000E+00 -0.64930732323E+04  0.65000000000E+04  0.30000000000E+03 0. -1.
     100001    1    1    2    0    0 -0.43121364894E+04  0.11979191725E+04  0.47114560704E+04  0.65000000000E+04  0.15050000000E+03 0.  1.
     100001    1    1    2    0    0  0.43121364894E+04 -0.11979191725E+04 -0.47114560704E+04  0.65000000000E+04  0.15050000000E+03 0. -1.
</event>
<event>
 4    1  0.4521369E-004  0.6500000E+04  0.7818608E-02  0.7223770E-01
         52   -1    0    0    0    0  0.00000000000E+00  0.00000000000E+00  0.64930732323E+04  0.65000000000E+04  0.30000000000E+03 0.  1.
        -52   -1    0    0    0    0 -0.00000000000E+00 -0.00000000000E+00 -0.64930732323E+04  0.65000000000E+04  0.30000000000E+03 0. -1.
     100001    1    1    2    0    0 -0.73239057730E+03  0.12830035011E+03  0.64555784259E+04  0.65000000000E+04  0.15050000000E+03 0.  1.
     100001    1    1    2    0    0  0.73239057730E+03 -0.12830035011E+03 -0.64555784259E+04  0.65000000000E+04  0.15050000000E+03 0. -1.
</event>
<event>
 4    1  0.4521369E-004  0.6500000E+04  0.7818608E-02  0.7223770E-01
         52   -1    0    0    0    0  0.00000000000E+00  0.00000000000E+00  0.64930732323E+04  0.65000000000E+04  0.30000000000E+03 0.  1.
        -52   -1    0    0    0    0 -0.00000000000E+00 -0.00000000000E+00 -0.64930732323E+04  0.65000000000E+04  0.30000000000E+03 0. -1.
     100001    1    1    2    0    0  0.26115475683E+04 -0.14585252892E+04  0.57688710360E+04  0.65000000000E+04  0.15050000000E+03 0.  1.
     100001    1    1    2    0    0 -0.26115475683E+04  0.14585252892E+04 -0.57688710360E+04  0.65000000000E+04  0.15050000000E+03 0. -1.
</event>
<event>
 4    1  0.4521369E-004  0.6500000E+04  0.7818608E-02  0.7223770E-01
         52   -1    0    0    0    0  0.00000000000E+00  0.00000000000E+00  0.64930732323E+04  0.65000000000E+04  0.30000000000E+03 0. -1.
        -52   -1    0    0    0    0 -0.00000000000E+00 -0.00000000000E+00 -0.64930732323E+04  0.65000000000E+04  0.30000000000E+03 0.  1.
     100001    1    1    2    0    0  0.21768546849E+04 -0.23307460602E+04 -0.56618262278E+04  0.65000000000E+04  0.15050000000E+03 0.  1.
     100001    1    1    2    0    0 -0.21768546849E+04  0.23307460602E+04  0.56618262278E+04  0.65000000000E+04  0.15050000000E+03 0. -1.
</event>
<event>
 4    1  0.4521369E-004  0.6500000E+04  0.7818608E-02  0.7223770E-01
         52   -1    0    0    0    0  0.00000000000E+00  0.00000000000E+00  0.64930732323E+04  0.65000000000E+04  0.30000000000E+03 0. -1.
        -52   -1    0    0    0    0 -0.00000000000E+00 -0.00000000000E+00 -0.64930732323E+04  0.65000000000E+04  0.30000000000E+03 0.  1.
     100001    1    1    2    0    0 -0.15604910222E+02 -0.17491073783E+04  0.62584127074E+04  0.65000000000E+04  0.15050000000E+03 0. -1.
     100001    1    1    2    0    0  0.15604910222E+02  0.17491073783E+04 -0.62584127074E+04  0.65000000000E+04  0.15050000000E+03 0.  1.
</event>
<event>
 4    1  0.4521369E-004  0.6500000E+04  0.7818608E-02  0.7223770E-01
         52   -1    0    0    0    0  0.00000000000E+00  0.00000000000E+00  0.64930732323E+04  0.65000000000E+04  0.30000000000E+03 0.  1.
        -52   -1    0    0    0    0 -0.00000000000E+00 -0.00000000000E+00 -0.64930732323E+04  0.65000000000E+04  0.30000000000E+03 0. -1.
     100001    1    1    2    0    0 -0.26213633879E+04 -0.91928614849E+02  0.59453639811E+04  0.65000000000E+04  0.15050000000E+03 0.  1.
     100001    1    1    2    0    0  0.26213633879E+04  0.91928614849E+02 -0.59453639811E+04  0.65000000000E+04  0.15050000000E+03 0. -1.
</event>
<event>
 4    1  0.4521369E-004  0.6500000E+04  0.7818608E-02  0.7223770E-01
         52   -1    0    0    0    0  0.00000000000E+00  0.00000000000E+00  0.64930732323E+04  0.65000000000E+04  0.30000000000E+03 0. -1.
        -52   -1    0    0    0    0 -0.00000000000E+00 -0.00000000000E+00 -0.64930732323E+04  0.65000000000E+04  0.30000000000E+03 0.  1.
     100001    1    1    2    0    0 -0.56626570647E+03 -0.34165346433E+04  0.54985438009E+04  0.65000000000E+04  0.15050000000E+03 0. -1.
     100001    1    1    2    0    0  0.56626570647E+03  0.34165346433E+04 -0.54985438009E+04  0.65000000000E+04  0.15050000000E+03 0.  1.
</event>
<event>
 4    1  0.4521369E-004  0.6500000E+04  0.7818608E-02  0.7223770E-01
         52   -1    0    0    0    0  0.00000000000E+00  0.00000000000E+00  0.64930732323E+04  0.65000000000E+04  0.30000000000E+03 0. -1.
        -52   -1    0    0    0    0 -0.00000000000E+00 -0.00000000000E+00 -0.64930732323E+04  0.65000000000E+04  0.30000000000E+03 0.  1.
     100001    1    1    2    0    0 -0.76710409702E+03  0.36374596897E+04  0.53298956894E+04  0.65000000000E+04  0.15050000000E+03 0. -1.
     100001    1    1    2    0    0  0.76710409702E+03 -0.36374596897E+04 -0.53298956894E+04  0.65000000000E+04  0.15050000000E+03 0.  1.
</event>
<event>
 4    1  0.4521369E-004  0.6500000E+04  0.7818608E-02  0.7223770E-01
         52   -1    0    0    0    0  0.00000000000E+00  0.00000000000E+00  0.64930732323E+04  0.65000000000E+04  0.30000000000E+03 0.  1.
        -52   -1    0    0    0    0 -0.00000000000E+00 -0.00000000000E+00 -0.64930732323E+04  0.65000000000E+04  0.30000000000E+03 0.  1.
     100001    1    1    2    0    0  0.48226215020E+03 -0.55996355203E+02  0.64800954759E+04  0.65000000000E+04  0.15050000000E+03 0.  1.
     100001    1    1    2    0    0 -0.48226215020E+03  0.55996355203E+02 -0.64800954759E+04  0.65000000000E+04  0.15050000000E+03 0.  1.
</event>
<event>
 4    1  0.4521369E-004  0.6500000E+04  0.7818608E-02  0.7223770E-01
         52   -1    0    0    0    0  0.00000000000E+00  0.00000000000E+00  0.64930732323E+04  0.65000000000E+04  0.30000000000E+03 0.  1.
        -52   -1    0    0    0    0 -0.00000000000E+00 -0.00000000000E+00 -0.64930732323E+04  0.65000000000E+04  0.30000000000E+03 0. -1.
     100001    1    1    2    0    0 -0.10556362418E+03  0.12294858267E+03  0.64962365811E+04  0.65000000000E+04  0.15050000000E+03 0.  1.
     100001    1    1    2    0    0  0.10556362418E+03 -0.12294858267E+03 -0.64962365811E+04  0.65000000000E+04  0.15050000000E+03 0. -1.
</event>
<event>
 4    1  0.4521369E-004  0.6500000E+04  0.7818608E-02  0.7223770E-01
         52   -1    0    0    0    0  0.00000000000E+00  0.00000000000E+00  0.64930732323E+04  0.65000000000E+04  0.30000000000E+03 0.  1.
        -52   -1    0    0    0    0 -0.00000000000E+00 -0.00000000000E+00 -0.64930732323E+04  0.65000000000E+04  0.30000000000E+03 0. -1.
     100001    1    1    2    0    0 -0.41152887631E+04  0.43094840141E+03 -0.50105919433E+04  0.65000000000E+04  0.15050000000E+03 0. -1.
     100001    1    1    2    0    0  0.41152887631E+04 -0.43094840141E+03  0.50105919433E+04  0.65000000000E+04  0.15050000000E+03 0.  1.
</event>
<event>
 4    1  0.4521369E-004  0.6500000E+04  0.7818608E-02  0.7223770E-01
         52   -1    0    0    0    0  0.00000000000E+00  0.00000000000E+00  0.64930732323E+04  0.65000000000E+04  0.30000000000E+03 0. -1.
        -52   -1    0    0    0    0 -0.00000000000E+00 -0.00000000000E+00 -0.64930732323E+04  0.65000000000E+04  0.30000000000E+03 0.  1.
     100001    1    1    2    0    0  0.72068660453E+03  0.16762795599E+04  0.62368299163E+04  0.65000000000E+04  0.15050000000E+03 0. -1.
     100001    1    1    2    0    0 -0.72068660453E+03 -0.16762795599E+04 -0.62368299163E+04  0.65000000000E+04  0.15050000000E+03 0.  1.
</event>
<event>
 4    1  0.4521369E-004  0.6500000E+04  0.7818608E-02  0.7223770E-01
         52   -1    0    0    0    0  0.00000000000E+00  0.00000000000E+00  0.64930732323E+04  0.65000000000E+04  0.30000000000E+03 0. -1.
        -52   -1    0    0    0    0 -0.00000000000E+00 -0.00000000000E+00 -0.64930732323E+04  0.65000000000E+04  0.30000000000E+03 0.  1.
     100001    1    1    2    0    0 -0.58632035822E+03 -0.48934989165E+03  0.64532251527E+04  0.65000000000E+04  0.15050000000E+03 0. -1.
     100001    1    1    2    0    0  0.58632035822E+03  0.48934989165E+03 -0.64532251527E+04  0.65000000000E+04  0.15050000000E+03 0.  1.
</event>
<event>
 4    1  0.4521369E-004  0.6500000E+04  0.7818608E-02  0.7223770E-01
         52   -1    0    0    0    0  0.00000000000E+00  0.00000000000E+00  0.64930732323E+04  0.65000000000E+04  0.30000000000E+03 0. -1.
        -52   -1    0    0    0    0 -0.00000000000E+00 -0.00000000000E+00 -0.64930732323E+04  0.65000000000E+04  0.30000000000E+03 0.  1.
     100001    1    1    2    0    0 -0.89067490244E+03 -0.36979618634E+04  0.52686930092E+04  0.65000000000E+04  0.15050000000E+03 0. -1.
     100001    1    1    2    0    0  0.89067490244E+03  0.36979618634E+04 -0.52686930092E+04  0.65000000000E+04  0.15050000000E+03 0.  1.
</event>
<event>
 4    1  0.4521369E-004  0.6500000E+04  0.7818608E-02  0.7223770E-01
         52   -1    0    0    0    0  0.00000000000E+00  0.00000000000E+00  0.64930732323E+04  0.65000000000E+04  0.30000000000E+03 0.  1.
        -52   -1    0    0    0    0 -0.00000000000E+00 -0.00000000000E+00 -0.64930732323E+04  0.65000000000E+04  0.30000000000E+03 0. -1.
     100001    1    1    2    0    0 -0.69768147400E+02 -0.44007858877E+03  0.64829632878E+04  0.65000000000E+04  0.15050000000E+03 0.  1.
     100001    1    1    2    0    0  0.69768147400E+02  0.44007858877E+03 -0.64829632878E+04  0.65000000000E+04  0.15050000000E+03 0. -1.
</event>
<event>
 4    1  0.4521369E-004  0.6500000E+04  0.7818608E-02  0.7223770E-01
         52   -1    0    0    0    0  0.00000000000E+00  0.00000000000E+00  0.64930732323E+04  0.65000000000E+04  0.30000000000E+03 0.  1.
        -52   -1    0    0    0    0 -0.00000000000E+00 -0.00000000000E+00 -0.64930732323E+04  0.65000000000E+04  0.30000000000E+03 0. -1.
     100001    1    1    2    0    0  0.37829016473E+04 -0.43232371457E+04 -0.30375360836E+04  0.65000000000E+04  0.15050000000E+03 0. -1.
     100001    1    1    2    0    0 -0.37829016473E+04  0.43232371457E+04  0.30375360836E+04  0.65000000000E+04  0.15050000000E+03 0.  1.
</event>
<event>
 4    1  0.4521369E-004  0.6500000E+04  0.7818608E-02  0.7223770E-01
         52   -1    0    0    0    0  0.00000000000E+00  0.00000000000E+00  0.64930732323E+04  0.65000000000E+04  0.30000000000E+03 0. -1.
        -52   -1    0    0    0    0 -0.00000000000E+00 -0.00000000000E+00 -0.64930732323E+04  0.65000000000E+04  0.30000000000E+03 0.  1.
     100001    1    1    2    0    0 -0.16018535069E+04 -0.27990215042E+04  0.56415329221E+04  0.65000000000E+04  0.15050000000E+03 0. -1.
     100001    1    1    2    0    0  0.16018535069E+04  0.27990215042E+04 -0.56415329221E+04  0.65000000000E+04  0.15050000000E+03 0.  1.
</event>
<event>
 4    1  0.4521369E-004  0.6500000E+04  0.7818608E-02  0.7223770E-01
         52   -1    0    0    0    0  0.00000000000E+00  0.00000000000E+00  0.64930732323E+04  0.65000000000E+04  0.30000000000E+03 0.  1.
        -52   -1    0    0    0    0 -0.00000000000E+00 -0.00000000000E+00 -0.64930732323E+04  0.65000000000E+04  0.30000000000E+03 0. -1.
     100001    1    1    2    0    0  0.94013781700E+03  0.61358248909E+03 -0.64005474113E+04  0.65000000000E+04  0.15050000000E+03 0. -1.
     100001    1    1    2    0    0 -0.94013781700E+03 -0.61358248909E+03  0.64005474113E+04  0.65000000000E+04  0.15050000000E+03 0.  1.
</event>
<event>
 4    1  0.4521369E-004  0.6500000E+04  0.7818608E-02  0.7223770E-01
         52   -1    0    0    0    0  0.00000000000E+00  0.00000000000E+00  0.64930732323E+04  0.65000000000E+04  0.30000000000E+03 0. -1.
        -52   -1    0    0    0    0 -0.00000000000E+00 -0.00000000000E+00 -0.64930732323E+04  0.65000000000E+04  0.30000000000E+03 0.  1.
     100001    1    1    2    0    0 -0.51154230911E+04  0.49357909663E+03  0.39769556226E+04  0.65000000000E+04  0.15050000000E+03 0. -1.
     100001    1    1    2    0    0  0.51154230911E+04 -0.49357909663E+03 -0.39769556226E+04  0.65000000000E+04  0.15050000000E+03 0.  1.
</event>
<event>
 4    1  0.4521369E-004  0.6500000E+04  0.7818608E-02  0.7223770E-01
         52   -1    0    0    0    0  0.00000000000E+00  0.00000000000E+00  0.64930732323E+04  0.65000000000E+04  0.30000000000E+03 0.  1.
        -52   -1    0    0    0    0 -0.00000000000E+00 -0.00000000000E+00 -0.64930732323E+04  0.65000000000E+04  0.30000000000E+03 0. -1.
     100001    1    1    2    0    0  0.15159249654E+04 -0.90145910210E+03 -0.62543339163E+04  0.65000000000E+04  0.15050000000E+03 0. -1.
     100001    1    1    2    0    0 -0.15159249654E+04  0.90145910210E+03  0.62543339163E+04  0.65000000000E+04  0.15050000000E+03 0.  1.
</event>
<event>
 4    1  0.4521369E-004  0.6500000E+04  0.7818608E-02  0.7223770E-01
         52   -1    0    0    0    0  0.00000000000E+00  0.00000000000E+00  0.64930732323E+04  0.65000000000E+04  0.30000000000E+03 0. -1.
        -52   -1    0    0    0    0 -0.00000000000E+00 -0.00000000000E+00 -0.64930732323E+04  0.65000000000E+04  0.30000000000E+03 0.  1.
     100001    1    1    2    0    0 -0.63290442435E+03 -0.94075429654E+03  0.63985750830E+04  0.65000000000E+04  0.15050000000E+03 0. -1.
     100001    1    1    2    0    0  0.63290442435E+03  0.94075429654E+03 -0.63985750830E+04  0.65000000000E+04  0.15050000000E+03 0.  1.
</event>
<event>
 4    1  0.4521369E-004  0.6500000E+04  0.7818608E-02  0.7223770E-01
         52   -1    0    0    0    0  0.00000000000E+00  0.00000000000E+00  0.64930732323E+04  0.65000000000E+04  0.30000000000E+03 0.  1.
        -52   -1    0    0    0    0 -0.00000000000E+00 -0.00000000000E+00 -0.64930732323E+04  0.65000000000E+04  0.30000000000E+03 0. -1.
     100001    1    1    2    0    0 -0.12372347051E+04 -0.24336004640E+04  0.58969643730E+04  0.65000000000E+04  0.15050000000E+03 0.  1.
     100001    1    1    2    0    0  0.12372347051E+04  0.24336004640E+04 -0.58969643730E+04  0.65000000000E+04  0.15050000000E+03 0. -1.
</event>
<event>
 4    1  0.4521369E-004  0.6500000E+04  0.7818608E-02  0.7223770E-01
         52   -1    0    0    0    0  0.00000000000E+00  0.00000000000E+00  0.64930732323E+04  0.65000000000E+04  0.30000000000E+03 0.  1.
        -52   -1    0    0    0    0 -0.00000000000E+00 -0.00000000000E+00 -0.64930732323E+04  0.65000000000E+04  0.30000000000E+03 0. -1.
     100001    1    1    2    0    0 -0.24799878632E+03 -0.37985171864E+03  0.64824037998E+04  0.65000000000E+04  0.15050000000E+03 0.  1.
     100001    1    1    2    0    0  0.24799878632E+03  0.37985171864E+03 -0.64824037998E+04  0.65000000000E+04  0.15050000000E+03 0. -1.
</event>
<event>
 4    1  0.4521369E-004  0.6500000E+04  0.7818608E-02  0.7223770E-01
         52   -1    0    0    0    0  0.00000000000E+00  0.00000000000E+00  0.64930732323E+04  0.65000000000E+04  0.30000000000E+03 0. -1.
        -52   -1    0    0    0    0 -0.00000000000E+00 -0.00000000000E+00 -0.64930732323E+04  0.65000000000E+04  0.30000000000E+03 0.  1.
     100001    1    1    2    0    0 -0.25672921536E+04 -0.42445204075E+04  0.41976668827E+04  0.65000000000E+04  0.15050000000E+03 0. -1.
     100001    1    1    2    0    0  0.25672921536E+04  0.42445204075E+04 -0.41976668827E+04  0.65000000000E+04  0.15050000000E+03 0.  1.
</event>
<event>
 4    1  0.4521369E-004  0.6500000E+04  0.7818608E-02  0.7223770E-01
         52   -1    0    0    0    0  0.00000000000E+00  0.00000000000E+00  0.64930732323E+04  0.65000000000E+04  0.30000000000E+03 0.  1.
        -52   -1    0    0    0    0 -0.00000000000E+00 -0.00000000000E+00 -0.64930732323E+04  0.65000000000E+04  0.30000000000E+03 0.  1.
     100001    1    1    2    0    0 -0.17037266323E+04 -0.55185732017E+04  0.29782570624E+04  0.65000000000E+04  0.15050000000E+03 0.  1.
     100001    1    1    2    0    0  0.17037266323E+04  0.55185732017E+04 -0.29782570624E+04  0.65000000000E+04  0.15050000000E+03 0.  1.
</event>
<event>
 4    1  0.4521369E-004  0.6500000E+04  0.7818608E-02  0.7223770E-01
         52   -1    0    0    0    0  0.00000000000E+00  0.00000000000E+00  0.64930732323E+04  0.65000000000E+04  0.30000000000E+03 0.  1.
        -52   -1    0    0    0    0 -0.00000000000E+00 -0.00000000000E+00 -0.64930732323E+04  0.65000000000E+04  0.30000000000E+03 0. -1.
     100001    1    1    2    0    0  0.21713583879E+04 -0.78244812273E+02  0.61242493622E+04  0.65000000000E+04  0.15050000000E+03 0.  1.
     100001    1    1    2    0    0 -0.21713583879E+04  0.78244812273E+02 -0.61242493622E+04  0.65000000000E+04  0.15050000000E+03 0. -1.
</event>
<event>
 4    1  0.4521369E-004  0.6500000E+04  0.7818608E-02  0.7223770E-01
         52   -1    0    0    0    0  0.00000000000E+00  0.00000000000E+00  0.64930732323E+04  0.65000000000E+04  0.30000000000E+03 0.  1.
        -52   -1    0    0    0    0 -0.00000000000E+00 -0.00000000000E+00 -0.64930732323E+04  0.65000000000E+04  0.30000000000E+03 0. -1.
     100001    1    1    2    0    0  0.48806569776E+02 -0.65275395798E+03 -0.64652053285E+04  0.65000000000E+04  0.15050000000E+03 0. -1.
     100001    1    1    2    0    0 -0.48806569776E+02  0.65275395798E+03  0.64652053285E+04  0.65000000000E+04  0.15050000000E+03 0.  1.
</event>
<event>
 4    1  0.4521369E-004  0.6500000E+04  0.7818608E-02  0.7223770E-01
         52   -1    0    0    0    0  0.00000000000E+00  0.00000000000E+00  0.64930732323E+04  0.65000000000E+04  0.30000000000E+03 0. -1.
        -52   -1    0    0    0    0 -0.00000000000E+00 -0.00000000000E+00 -0.64930732323E+04  0.65000000000E+04  0.30000000000E+03 0.  1.
     100001    1    1    2    0    0  0.68783557117E+03 -0.97917233828E+03  0.63871318688E+04  0.65000000000E+04  0.15050000000E+03 0. -1.
     100001    1    1    2    0    0 -0.68783557117E+03  0.97917233828E+03 -0.63871318688E+04  0.65000000000E+04  0.15050000000E+03 0.  1.
</event>
<event>
 4    1  0.4521369E-004  0.6500000E+04  0.7818608E-02  0.7223770E-01
         52   -1    0    0    0    0  0.00000000000E+00  0.00000000000E+00  0.64930732323E+04  0.65000000000E+04  0.30000000000E+03 0.  1.
        -52   -1    0    0    0    0 -0.00000000000E+00 -0.00000000000E+00 -0.64930732323E+04  0.65000000000E+04  0.30000000000E+03 0. -1.
     100001    1    1    2    0    0  0.28554897569E+04 -0.31470456882E+04 -0.49162619372E+04  0.65000000000E+04  0.15050000000E+03 0. -1.
     100001    1    1    2    0    0 -0.28554897569E+04  0.31470456882E+04  0.49162619372E+04  0.65000000000E+04  0.15050000000E+03 0.  1.
</event>
<event>
 4    1  0.4521369E-004  0.6500000E+04  0.7818608E-02  0.7223770E-01
         52   -1    0    0    0    0  0.00000000000E+00  0.00000000000E+00  0.64930732323E+04  0.65000000000E+04  0.30000000000E+03 0. -1.
        -52   -1    0    0    0    0 -0.00000000000E+00 -0.00000000000E+00 -0.64930732323E+04  0.65000000000E+04  0.30000000000E+03 0.  1.
     100001    1    1    2    0    0  0.25895498542E+04  0.25814493420E+04 -0.53719363918E+04  0.65000000000E+04  0.15050000000E+03 0.  1.
     100001    1    1    2    0    0 -0.25895498542E+04 -0.25814493420E+04  0.53719363918E+04  0.65000000000E+04  0.15050000000E+03 0. -1.
</event>
<event>
 4    1  0.4521369E-004  0.6500000E+04  0.7818608E-02  0.7223770E-01
         52   -1    0    0    0    0  0.00000000000E+00  0.00000000000E+00  0.64930732323E+04  0.65000000000E+04  0.30000000000E+03 0. -1.
        -52   -1    0    0    0    0 -0.00000000000E+00 -0.00000000000E+00 -0.64930732323E+04  0.65000000000E+04  0.30000000000E+03 0. -1.
     100001    1    1    2    0    0 -0.88661127355E+01  0.57586952765E+02 -0.64979962208E+04  0.65000000000E+04  0.15050000000E+03 0. -1.
     100001    1    1    2    0    0  0.88661127355E+01 -0.57586952765E+02  0.64979962208E+04  0.65000000000E+04  0.15050000000E+03 0. -1.
</event>
<event>
 4    1  0.4521369E-004  0.6500000E+04  0.7818608E-02  0.7223770E-01
         52   -1    0    0    0    0  0.00000000000E+00  0.00000000000E+00  0.64930732323E+04  0.65000000000E+04  0.30000000000E+03 0.  1.
        -52   -1    0    0    0    0 -0.00000000000E+00 -0.00000000000E+00 -0.64930732323E+04  0.65000000000E+04  0.30000000000E+03 0. -1.
     100001    1    1    2    0    0  0.26221792355E+04  0.28645647789E+04  0.52101626111E+04  0.65000000000E+04  0.15050000000E+03 0.  1.
     100001    1    1    2    0    0 -0.26221792355E+04 -0.28645647789E+04 -0.52101626111E+04  0.65000000000E+04  0.15050000000E+03 0. -1.
</event>
<event>
 4    1  0.4521369E-004  0.6500000E+04  0.7818608E-02  0.7223770E-01
         52   -1    0    0    0    0  0.00000000000E+00  0.00000000000E+00  0.64930732323E+04  0.65000000000E+04  0.30000000000E+03 0. -1.
        -52   -1    0    0    0    0 -0.00000000000E+00 -0.00000000000E+00 -0.64930732323E+04  0.65000000000E+04  0.30000000000E+03 0.  1.
     100001    1    1    2    0    0  0.76742721783E+03  0.10946161220E+04 -0.63592625957E+04  0.65000000000E+04  0.15050000000E+03 0.  1.
     100001    1    1    2    0    0 -0.76742721783E+03 -0.10946161220E+04  0.63592625957E+04  0.65000000000E+04  0.15050000000E+03 0. -1.
</event>
<event>
 4    1  0.4521369E-004  0.6500000E+04  0.7818608E-02  0.7223770E-01
         52   -1    0    0    0    0  0.00000000000E+00  0.00000000000E+00  0.64930732323E+04  0.65000000000E+04  0.30000000000E+03 0. -1.
        -52   -1    0    0    0    0 -0.00000000000E+00 -0.00000000000E+00 -0.64930732323E+04  0.65000000000E+04  0.30000000000E+03 0.  1.
     100001    1    1    2    0    0 -0.23834757040E+04  0.94466642426E+03  0.59710969399E+04  0.65000000000E+04  0.15050000000E+03 0. -1.
     100001    1    1    2    0    0  0.23834757040E+04 -0.94466642426E+03 -0.59710969399E+04  0.65000000000E+04  0.15050000000E+03 0.  1.
</event>
<event>
 4    1  0.4521369E-004  0.6500000E+04  0.7818608E-02  0.7223770E-01
         52   -1    0    0    0    0  0.00000000000E+00  0.00000000000E+00  0.64930732323E+04  0.65000000000E+04  0.30000000000E+03 0.  1.
        -52   -1    0    0    0    0 -0.00000000000E+00 -0.00000000000E+00 -0.64930732323E+04  0.65000000000E+04  0.30000000000E+03 0. -1.
     100001    1    1    2    0    0  0.27381578190E+03  0.27678411689E+04 -0.58729404842E+04  0.65000000000E+04  0.15050000000E+03 0. -1.
     100001    1    1    2    0    0 -0.27381578190E+03 -0.27678411689E+04  0.58729404842E+04  0.65000000000E+04  0.15050000000E+03 0.  1.
</event>
<event>
 4    1  0.4521369E-004  0.6500000E+04  0.7818608E-02  0.7223770E-01
         52   -1    0    0    0    0  0.00000000000E+00  0.00000000000E+00  0.64930732323E+04  0.65000000000E+04  0.30000000000E+03 0. -1.
        -52   -1    0    0    0    0 -0.00000000000E+00 -0.00000000000E+00 -0.64930732323E+04  0.65000000000E+04  0.30000000000E+03 0.  1.
     100001    1    1    2    0    0  0.55024978912E+04  0.29246841060E+04 -0.18428482269E+04  0.65000000000E+04  0.15050000000E+03 0. -1.
     100001    1    1    2    0    0 -0.55024978912E+04 -0.29246841060E+04  0.18428482269E+04  0.65000000000E+04  0.15050000000E+03 0.  1.
</event>
<event>
 4    1  0.4521369E-004  0.6500000E+04  0.7818608E-02  0.7223770E-01
         52   -1    0    0    0    0  0.00000000000E+00  0.00000000000E+00  0.64930732323E+04  0.65000000000E+04  0.30000000000E+03 0. -1.
        -52   -1    0    0    0    0 -0.00000000000E+00 -0.00000000000E+00 -0.64930732323E+04  0.65000000000E+04  0.30000000000E+03 0. -1.
     100001    1    1    2    0    0 -0.35677303857E+03  0.40307892089E+03 -0.64759238825E+04  0.65000000000E+04  0.15050000000E+03 0. -1.
     100001    1    1    2    0    0  0.35677303857E+03 -0.40307892089E+03  0.64759238825E+04  0.65000000000E+04  0.15050000000E+03 0. -1.
</event>
<event>
 4    1  0.4521369E-004  0.6500000E+04  0.7818608E-02  0.7223770E-01
         52   -1    0    0    0    0  0.00000000000E+00  0.00000000000E+00  0.64930732323E+04  0.65000000000E+04  0.30000000000E+03 0.  1.
        -52   -1    0    0    0    0 -0.00000000000E+00 -0.00000000000E+00 -0.64930732323E+04  0.65000000000E+04  0.30000000000E+03 0. -1.
     100001    1    1    2    0    0 -0.13833307212E+04 -0.10731490722E+02 -0.63493015916E+04  0.65000000000E+04  0.15050000000E+03 0. -1.
     100001    1    1    2    0    0  0.13833307212E+04  0.10731490722E+02  0.63493015916E+04  0.65000000000E+04  0.15050000000E+03 0.  1.
</event>
<event>
 4    1  0.4521369E-004  0.6500000E+04  0.7818608E-02  0.7223770E-01
         52   -1    0    0    0    0  0.00000000000E+00  0.00000000000E+00  0.64930732323E+04  0.65000000000E+04  0.30000000000E+03 0.  1.
        -52   -1    0    0    0    0 -0.00000000000E+00 -0.00000000000E+00 -0.64930732323E+04  0.65000000000E+04  0.30000000000E+03 0. -1.
     100001    1    1    2    0    0  0.56420328650E+03  0.18889571846E+04 -0.61920000934E+04  0.65000000000E+04  0.15050000000E+03 0. -1.
     100001    1    1    2    0    0 -0.56420328650E+03 -0.18889571846E+04  0.61920000934E+04  0.65000000000E+04  0.15050000000E+03 0.  1.
</event>
<event>
 4    1  0.4521369E-004  0.6500000E+04  0.7818608E-02  0.7223770E-01
         52   -1    0    0    0    0  0.00000000000E+00  0.00000000000E+00  0.64930732323E+04  0.65000000000E+04  0.30000000000E+03 0. -1.
        -52   -1    0    0    0    0 -0.00000000000E+00 -0.00000000000E+00 -0.64930732323E+04  0.65000000000E+04  0.30000000000E+03 0. -1.
     100001    1    1    2    0    0 -0.22137744212E+03 -0.54523124882E+03 -0.64715581326E+04  0.65000000000E+04  0.15050000000E+03 0. -1.
     100001    1    1    2    0    0  0.22137744212E+03  0.54523124882E+03  0.64715581326E+04  0.65000000000E+04  0.15050000000E+03 0. -1.
</event>
<event>
 4    1  0.4521369E-004  0.6500000E+04  0.7818608E-02  0.7223770E-01
         52   -1    0    0    0    0  0.00000000000E+00  0.00000000000E+00  0.64930732323E+04  0.65000000000E+04  0.30000000000E+03 0. -1.
        -52   -1    0    0    0    0 -0.00000000000E+00 -0.00000000000E+00 -0.64930732323E+04  0.65000000000E+04  0.30000000000E+03 0.  1.
     100001    1    1    2    0    0 -0.16161018300E+04 -0.26592505406E+04 -0.57047305973E+04  0.65000000000E+04  0.15050000000E+03 0.  1.
     100001    1    1    2    0    0  0.16161018300E+04  0.26592505406E+04  0.57047305973E+04  0.65000000000E+04  0.15050000000E+03 0. -1.
</event>
<event>
 4    1  0.4521369E-004  0.6500000E+04  0.7818608E-02  0.7223770E-01
         52   -1    0    0    0    0  0.00000000000E+00  0.00000000000E+00  0.64930732323E+04  0.65000000000E+04  0.30000000000E+03 0. -1.
        -52   -1    0    0    0    0 -0.00000000000E+00 -0.00000000000E+00 -0.64930732323E+04  0.65000000000E+04  0.30000000000E+03 0.  1.
     100001    1    1    2    0    0  0.80499266010E+02 -0.34818607447E+03  0.64884232349E+04  0.65000000000E+04  0.15050000000E+03 0. -1.
     100001    1    1    2    0    0 -0.80499266010E+02  0.34818607447E+03 -0.64884232349E+04  0.65000000000E+04  0.15050000000E+03 0.  1.
</event>
<event>
 4    1  0.4521369E-004  0.6500000E+04  0.7818608E-02  0.7223770E-01
         52   -1    0    0    0    0  0.00000000000E+00  0.00000000000E+00  0.64930732323E+04  0.65000000000E+04  0.30000000000E+03 0.  1.
        -52   -1    0    0    0    0 -0.00000000000E+00 -0.00000000000E+00 -0.64930732323E+04  0.65000000000E+04  0.30000000000E+03 0. -1.
     100001    1    1    2    0    0 -0.16244943678E+04  0.88126971415E+02  0.62913115831E+04  0.65000000000E+04  0.15050000000E+03 0.  1.
     100001    1    1    2    0    0  0.16244943678E+04 -0.88126971415E+02 -0.62913115831E+04  0.65000000000E+04  0.15050000000E+03 0. -1.
</event>
<event>
 4    1  0.4521369E-004  0.6500000E+04  0.7818608E-02  0.7223770E-01
         52   -1    0    0    0    0  0.00000000000E+00  0.00000000000E+00  0.64930732323E+04  0.65000000000E+04  0.30000000000E+03 0.  1.
        -52   -1    0    0    0    0 -0.00000000000E+00 -0.00000000000E+00 -0.64930732323E+04  0.65000000000E+04  0.30000000000E+03 0.  1.
     100001    1    1    2    0    0  0.12701450194E+03 -0.19736036723E+03  0.64940177049E+04  0.65000000000E+04  0.15050000000E+03 0.  1.
     100001    1    1    2    0    0 -0.12701450194E+03  0.19736036723E+03 -0.64940177049E+04  0.65000000000E+04  0.15050000000E+03 0.  1.
</event>
<event>
 4    1  0.4521369E-004  0.6500000E+04  0.7818608E-02  0.7223770E-01
         52   -1    0    0    0    0  0.00000000000E+00  0.00000000000E+00  0.64930732323E+04  0.65000000000E+04  0.30000000000E+03 0. -1.
        -52   -1    0    0    0    0 -0.00000000000E+00 -0.00000000000E+00 -0.64930732323E+04  0.65000000000E+04  0.30000000000E+03 0. -1.
     100001    1    1    2    0    0 -0.58159855482E+03 -0.39076848940E+02 -0.64720604038E+04  0.65000000000E+04  0.15050000000E+03 0. -1.
     100001    1    1    2    0    0  0.58159855482E+03  0.39076848940E+02  0.64720604038E+04  0.65000000000E+04  0.15050000000E+03 0. -1.
</event>
<event>
 4    1  0.4521369E-004  0.6500000E+04  0.7818608E-02  0.7223770E-01
         52   -1    0    0    0    0  0.00000000000E+00  0.00000000000E+00  0.64930732323E+04  0.65000000000E+04  0.30000000000E+03 0. -1.
        -52   -1    0    0    0    0 -0.00000000000E+00 -0.00000000000E+00 -0.64930732323E+04  0.65000000000E+04  0.30000000000E+03 0.  1.
     100001    1    1    2    0    0 -0.55382174230E+03 -0.25574370860E+04 -0.59481212815E+04  0.65000000000E+04  0.15050000000E+03 0.  1.
     100001    1    1    2    0    0  0.55382174230E+03  0.25574370860E+04  0.59481212815E+04  0.65000000000E+04  0.15050000000E+03 0. -1.
</event>
<event>
 4    1  0.4521369E-004  0.6500000E+04  0.7818608E-02  0.7223770E-01
         52   -1    0    0    0    0  0.00000000000E+00  0.00000000000E+00  0.64930732323E+04  0.65000000000E+04  0.30000000000E+03 0. -1.
        -52   -1    0    0    0    0 -0.00000000000E+00 -0.00000000000E+00 -0.64930732323E+04  0.65000000000E+04  0.30000000000E+03 0.  1.
     100001    1    1    2    0    0  0.12572638105E+04  0.27444324523E+03 -0.63695618661E+04  0.65000000000E+04  0.15050000000E+03 0.  1.
     100001    1    1    2    0    0 -0.12572638105E+04 -0.27444324523E+03  0.63695618661E+04  0.65000000000E+04  0.15050000000E+03 0. -1.
</event>
<event>
 4    1  0.4521369E-004  0.6500000E+04  0.7818608E-02  0.7223770E-01
         52   -1    0    0    0    0  0.00000000000E+00  0.00000000000E+00  0.64930732323E+04  0.65000000000E+04  0.30000000000E+03 0. -1.
        -52   -1    0    0    0    0 -0.00000000000E+00 -0.00000000000E+00 -0.64930732323E+04  0.65000000000E+04  0.30000000000E+03 0.  1.
     100001    1    1    2    0    0  0.21471205333E+04  0.40286821606E+03 -0.61200425134E+04  0.65000000000E+04  0.15050000000E+03 0.  1.
     100001    1    1    2    0    0 -0.21471205333E+04 -0.40286821606E+03  0.61200425134E+04  0.65000000000E+04  0.15050000000E+03 0. -1.
</event>
<event>
 4    1  0.4521369E-004  0.6500000E+04  0.7818608E-02  0.7223770E-01
         52   -1    0    0    0    0  0.00000000000E+00  0.00000000000E+00  0.64930732323E+04  0.65000000000E+04  0.30000000000E+03 0.  1.
        -52   -1    0    0    0    0 -0.00000000000E+00 -0.00000000000E+00 -0.64930732323E+04  0.65000000000E+04  0.30000000000E+03 0. -1.
     100001    1    1    2    0    0 -0.19912005906E+03 -0.17451133053E+03 -0.64928612143E+04  0.65000000000E+04  0.15050000000E+03 0. -1.
     100001    1    1    2    0    0  0.19912005906E+03  0.17451133053E+03  0.64928612143E+04  0.65000000000E+04  0.15050000000E+03 0.  1.
</event>
<event>
 4    1  0.4521369E-004  0.6500000E+04  0.7818608E-02  0.7223770E-01
         52   -1    0    0    0    0  0.00000000000E+00  0.00000000000E+00  0.64930732323E+04  0.65000000000E+04  0.30000000000E+03 0. -1.
        -52   -1    0    0    0    0 -0.00000000000E+00 -0.00000000000E+00 -0.64930732323E+04  0.65000000000E+04  0.30000000000E+03 0.  1.
     100001    1    1    2    0    0  0.60810477665E+03 -0.43301631447E+03  0.64552347132E+04  0.65000000000E+04  0.15050000000E+03 0. -1.
     100001    1    1    2    0    0 -0.60810477665E+03  0.43301631447E+03 -0.64552347132E+04  0.65000000000E+04  0.15050000000E+03 0.  1.
</event>
<event>
 4    1  0.4521369E-004  0.6500000E+04  0.7818608E-02  0.7223770E-01
         52   -1    0    0    0    0  0.00000000000E+00  0.00000000000E+00  0.64930732323E+04  0.65000000000E+04  0.30000000000E+03 0. -1.
        -52   -1    0    0    0    0 -0.00000000000E+00 -0.00000000000E+00 -0.64930732323E+04  0.65000000000E+04  0.30000000000E+03 0.  1.
     100001    1    1    2    0    0 -0.10510814967E+04  0.24881723386E+03 -0.64078598160E+04  0.65000000000E+04  0.15050000000E+03 0.  1.
     100001    1    1    2    0    0  0.10510814967E+04 -0.24881723386E+03  0.64078598160E+04  0.65000000000E+04  0.15050000000E+03 0. -1.
</event>
<event>
 4    1  0.4521369E-004  0.6500000E+04  0.7818608E-02  0.7223770E-01
         52   -1    0    0    0    0  0.00000000000E+00  0.00000000000E+00  0.64930732323E+04  0.65000000000E+04  0.30000000000E+03 0. -1.
        -52   -1    0    0    0    0 -0.00000000000E+00 -0.00000000000E+00 -0.64930732323E+04  0.65000000000E+04  0.30000000000E+03 0.  1.
     100001    1    1    2    0    0 -0.34752935524E+04 -0.32926496944E+03 -0.54809916123E+04  0.65000000000E+04  0.15050000000E+03 0.  1.
     100001    1    1    2    0    0  0.34752935524E+04  0.32926496944E+03  0.54809916123E+04  0.65000000000E+04  0.15050000000E+03 0. -1.
</event>
<event>
 4    1  0.4521369E-004  0.6500000E+04  0.7818608E-02  0.7223770E-01
         52   -1    0    0    0    0  0.00000000000E+00  0.00000000000E+00  0.64930732323E+04  0.65000000000E+04  0.30000000000E+03 0. -1.
        -52   -1    0    0    0    0 -0.00000000000E+00 -0.00000000000E+00 -0.64930732323E+04  0.65000000000E+04  0.30000000000E+03 0.  1.
     100001    1    1    2    0    0 -0.35384705375E+04  0.25073488965E+04 -0.48393984664E+04  0.65000000000E+04  0.15050000000E+03 0.  1.
     100001    1    1    2    0    0  0.35384705375E+04 -0.25073488965E+04  0.48393984664E+04  0.65000000000E+04  0.15050000000E+03 0. -1.
</event>
<event>
 4    1  0.4521369E-004  0.6500000E+04  0.7818608E-02  0.7223770E-01
         52   -1    0    0    0    0  0.00000000000E+00  0.00000000000E+00  0.64930732323E+04  0.65000000000E+04  0.30000000000E+03 0.  1.
        -52   -1    0    0    0    0 -0.00000000000E+00 -0.00000000000E+00 -0.64930732323E+04  0.65000000000E+04  0.30000000000E+03 0. -1.
     100001    1    1    2    0    0 -0.43049954330E+02 -0.64979709190E+04  0.43247975402E+02  0.65000000000E+04  0.15050000000E+03 0. -1.
     100001    1    1    2    0    0  0.43049954330E+02  0.64979709190E+04 -0.43247975402E+02  0.65000000000E+04  0.15050000000E+03 0.  1.
</event>
<event>
 4    1  0.4521369E-004  0.6500000E+04  0.7818608E-02  0.7223770E-01
         52   -1    0    0    0    0  0.00000000000E+00  0.00000000000E+00  0.64930732323E+04  0.65000000000E+04  0.30000000000E+03 0. -1.
        -52   -1    0    0    0    0 -0.00000000000E+00 -0.00000000000E+00 -0.64930732323E+04  0.65000000000E+04  0.30000000000E+03 0.  1.
     100001    1    1    2    0    0 -0.96823788405E+03  0.27020625014E+03  0.64200353373E+04  0.65000000000E+04  0.15050000000E+03 0. -1.
     100001    1    1    2    0    0  0.96823788405E+03 -0.27020625014E+03 -0.64200353373E+04  0.65000000000E+04  0.15050000000E+03 0.  1.
</event>
<event>
 4    1  0.4521369E-004  0.6500000E+04  0.7818608E-02  0.7223770E-01
         52   -1    0    0    0    0  0.00000000000E+00  0.00000000000E+00  0.64930732323E+04  0.65000000000E+04  0.30000000000E+03 0. -1.
        -52   -1    0    0    0    0 -0.00000000000E+00 -0.00000000000E+00 -0.64930732323E+04  0.65000000000E+04  0.30000000000E+03 0.  1.
     100001    1    1    2    0    0  0.49978279594E+03  0.18016399090E+03  0.64765042919E+04  0.65000000000E+04  0.15050000000E+03 0. -1.
     100001    1    1    2    0    0 -0.49978279594E+03 -0.18016399090E+03 -0.64765042919E+04  0.65000000000E+04  0.15050000000E+03 0.  1.
</event>
<event>
 4    1  0.4521369E-004  0.6500000E+04  0.7818608E-02  0.7223770E-01
         52   -1    0    0    0    0  0.00000000000E+00  0.00000000000E+00  0.64930732323E+04  0.65000000000E+04  0.30000000000E+03 0. -1.
        -52   -1    0    0    0    0 -0.00000000000E+00 -0.00000000000E+00 -0.64930732323E+04  0.65000000000E+04  0.30000000000E+03 0.  1.
     100001    1    1    2    0    0 -0.39380838326E+03 -0.15318761952E+04 -0.63028263525E+04  0.65000000000E+04  0.15050000000E+03 0.  1.
     100001    1    1    2    0    0  0.39380838326E+03  0.15318761952E+04  0.63028263525E+04  0.65000000000E+04  0.15050000000E+03 0. -1.
</event>
<event>
 4    1  0.4521369E-004  0.6500000E+04  0.7818608E-02  0.7223770E-01
         52   -1    0    0    0    0  0.00000000000E+00  0.00000000000E+00  0.64930732323E+04  0.65000000000E+04  0.30000000000E+03 0. -1.
        -52   -1    0    0    0    0 -0.00000000000E+00 -0.00000000000E+00 -0.64930732323E+04  0.65000000000E+04  0.30000000000E+03 0.  1.
     100001    1    1    2    0    0  0.27650459008E+03 -0.50304691192E+03 -0.64728539892E+04  0.65000000000E+04  0.15050000000E+03 0.  1.
     100001    1    1    2    0    0 -0.27650459008E+03  0.50304691192E+03  0.64728539892E+04  0.65000000000E+04  0.15050000000E+03 0. -1.
</event>
<event>
 4    1  0.4521369E-004  0.6500000E+04  0.7818608E-02  0.7223770E-01
         52   -1    0    0    0    0  0.00000000000E+00  0.00000000000E+00  0.64930732323E+04  0.65000000000E+04  0.30000000000E+03 0. -1.
        -52   -1    0    0    0    0 -0.00000000000E+00 -0.00000000000E+00 -0.64930732323E+04  0.65000000000E+04  0.30000000000E+03 0.  1.
     100001    1    1    2    0    0  0.10876233713E+04  0.12293048101E+04 -0.62875460106E+04  0.65000000000E+04  0.15050000000E+03 0.  1.
     100001    1    1    2    0    0 -0.10876233713E+04 -0.12293048101E+04  0.62875460106E+04  0.65000000000E+04  0.15050000000E+03 0. -1.
</event>
<event>
 4    1  0.4521369E-004  0.6500000E+04  0.7818608E-02  0.7223770E-01
         52   -1    0    0    0    0  0.00000000000E+00  0.00000000000E+00  0.64930732323E+04  0.65000000000E+04  0.30000000000E+03 0.  1.
        -52   -1    0    0    0    0 -0.00000000000E+00 -0.00000000000E+00 -0.64930732323E+04  0.65000000000E+04  0.30000000000E+03 0. -1.
     100001    1    1    2    0    0 -0.10142866728E+04 -0.60804219024E+04 -0.20559770874E+04  0.65000000000E+04  0.15050000000E+03 0. -1.
     100001    1    1    2    0    0  0.10142866728E+04  0.60804219024E+04  0.20559770874E+04  0.65000000000E+04  0.15050000000E+03 0.  1.
</event>
<event>
 4    1  0.4521369E-004  0.6500000E+04  0.7818608E-02  0.7223770E-01
         52   -1    0    0    0    0  0.00000000000E+00  0.00000000000E+00  0.64930732323E+04  0.65000000000E+04  0.30000000000E+03 0.  1.
        -52   -1    0    0    0    0 -0.00000000000E+00 -0.00000000000E+00 -0.64930732323E+04  0.65000000000E+04  0.30000000000E+03 0. -1.
     100001    1    1    2    0    0  0.69711106718E+03 -0.11071195123E+03  0.64598087258E+04  0.65000000000E+04  0.15050000000E+03 0.  1.
     100001    1    1    2    0    0 -0.69711106718E+03  0.11071195123E+03 -0.64598087258E+04  0.65000000000E+04  0.15050000000E+03 0. -1.
</event>
<event>
 4    1  0.4521369E-004  0.6500000E+04  0.7818608E-02  0.7223770E-01
         52   -1    0    0    0    0  0.00000000000E+00  0.00000000000E+00  0.64930732323E+04  0.65000000000E+04  0.30000000000E+03 0.  1.
        -52   -1    0    0    0    0 -0.00000000000E+00 -0.00000000000E+00 -0.64930732323E+04  0.65000000000E+04  0.30000000000E+03 0. -1.
     100001    1    1    2    0    0  0.34658035198E+02 -0.99614402533E+03 -0.64213585518E+04  0.65000000000E+04  0.15050000000E+03 0. -1.
     100001    1    1    2    0    0 -0.34658035198E+02  0.99614402533E+03  0.64213585518E+04  0.65000000000E+04  0.15050000000E+03 0.  1.
</event>
<event>
 4    1  0.4521369E-004  0.6500000E+04  0.7818608E-02  0.7223770E-01
         52   -1    0    0    0    0  0.00000000000E+00  0.00000000000E+00  0.64930732323E+04  0.65000000000E+04  0.30000000000E+03 0.  1.
        -52   -1    0    0    0    0 -0.00000000000E+00 -0.00000000000E+00 -0.64930732323E+04  0.65000000000E+04  0.30000000000E+03 0. -1.
     100001    1    1    2    0    0  0.22020124503E+04 -0.53047532836E+04 -0.30394215764E+04  0.65000000000E+04  0.15050000000E+03 0. -1.
     100001    1    1    2    0    0 -0.22020124503E+04  0.53047532836E+04  0.30394215764E+04  0.65000000000E+04  0.15050000000E+03 0.  1.
</event>
<event>
 4    1  0.4521369E-004  0.6500000E+04  0.7818608E-02  0.7223770E-01
         52   -1    0    0    0    0  0.00000000000E+00  0.00000000000E+00  0.64930732323E+04  0.65000000000E+04  0.30000000000E+03 0.  1.
        -52   -1    0    0    0    0 -0.00000000000E+00 -0.00000000000E+00 -0.64930732323E+04  0.65000000000E+04  0.30000000000E+03 0. -1.
     100001    1    1    2    0    0  0.10310483523E+04  0.53326514200E+04  0.35675086374E+04  0.65000000000E+04  0.15050000000E+03 0.  1.
     100001    1    1    2    0    0 -0.10310483523E+04 -0.53326514200E+04 -0.35675086374E+04  0.65000000000E+04  0.15050000000E+03 0. -1.
</event>
<event>
 4    1  0.4521369E-004  0.6500000E+04  0.7818608E-02  0.7223770E-01
         52   -1    0    0    0    0  0.00000000000E+00  0.00000000000E+00  0.64930732323E+04  0.65000000000E+04  0.30000000000E+03 0. -1.
        -52   -1    0    0    0    0 -0.00000000000E+00 -0.00000000000E+00 -0.64930732323E+04  0.65000000000E+04  0.30000000000E+03 0.  1.
     100001    1    1    2    0    0  0.48474213123E+03 -0.30133074682E+04  0.57369288751E+04  0.65000000000E+04  0.15050000000E+03 0. -1.
     100001    1    1    2    0    0 -0.48474213123E+03  0.30133074682E+04 -0.57369288751E+04  0.65000000000E+04  0.15050000000E+03 0.  1.
</event>
<event>
 4    1  0.4521369E-004  0.6500000E+04  0.7818608E-02  0.7223770E-01
         52   -1    0    0    0    0  0.00000000000E+00  0.00000000000E+00  0.64930732323E+04  0.65000000000E+04  0.30000000000E+03 0.  1.
        -52   -1    0    0    0    0 -0.00000000000E+00 -0.00000000000E+00 -0.64930732323E+04  0.65000000000E+04  0.30000000000E+03 0. -1.
     100001    1    1    2    0    0  0.26251657007E+03 -0.36418729299E+03 -0.64827310924E+04  0.65000000000E+04  0.15050000000E+03 0. -1.
     100001    1    1    2    0    0 -0.26251657007E+03  0.36418729299E+03  0.64827310924E+04  0.65000000000E+04  0.15050000000E+03 0.  1.
</event>
<event>
 4    1  0.4521369E-004  0.6500000E+04  0.7818608E-02  0.7223770E-01
         52   -1    0    0    0    0  0.00000000000E+00  0.00000000000E+00  0.64930732323E+04  0.65000000000E+04  0.30000000000E+03 0.  1.
        -52   -1    0    0    0    0 -0.00000000000E+00 -0.00000000000E+00 -0.64930732323E+04  0.65000000000E+04  0.30000000000E+03 0. -1.
     100001    1    1    2    0    0  0.22617826262E+04 -0.17534216615E+04  0.58341410318E+04  0.65000000000E+04  0.15050000000E+03 0.  1.
     100001    1    1    2    0    0 -0.22617826262E+04  0.17534216615E+04 -0.58341410318E+04  0.65000000000E+04  0.15050000000E+03 0. -1.
</event>
<event>
 4    1  0.4521369E-004  0.6500000E+04  0.7818608E-02  0.7223770E-01
         52   -1    0    0    0    0  0.00000000000E+00  0.00000000000E+00  0.64930732323E+04  0.65000000000E+04  0.30000000000E+03 0.  1.
        -52   -1    0    0    0    0 -0.00000000000E+00 -0.00000000000E+00 -0.64930732323E+04  0.65000000000E+04  0.30000000000E+03 0. -1.
     100001    1    1    2    0    0 -0.20493616804E+04  0.31054471208E+03 -0.61588171295E+04  0.65000000000E+04  0.15050000000E+03 0. -1.
     100001    1    1    2    0    0  0.20493616804E+04 -0.31054471208E+03  0.61588171295E+04  0.65000000000E+04  0.15050000000E+03 0.  1.
</event>
<event>
 4    1  0.4521369E-004  0.6500000E+04  0.7818608E-02  0.7223770E-01
         52   -1    0    0    0    0  0.00000000000E+00  0.00000000000E+00  0.64930732323E+04  0.65000000000E+04  0.30000000000E+03 0. -1.
        -52   -1    0    0    0    0 -0.00000000000E+00 -0.00000000000E+00 -0.64930732323E+04  0.65000000000E+04  0.30000000000E+03 0. -1.
     100001    1    1    2    0    0  0.50394425449E+03  0.43330384714E+03 -0.64641811326E+04  0.65000000000E+04  0.15050000000E+03 0. -1.
     100001    1    1    2    0    0 -0.50394425449E+03 -0.43330384714E+03  0.64641811326E+04  0.65000000000E+04  0.15050000000E+03 0. -1.
</event>
<event>
 4    1  0.4521369E-004  0.6500000E+04  0.7818608E-02  0.7223770E-01
         52   -1    0    0    0    0  0.00000000000E+00  0.00000000000E+00  0.64930732323E+04  0.65000000000E+04  0.30000000000E+03 0.  1.
        -52   -1    0    0    0    0 -0.00000000000E+00 -0.00000000000E+00 -0.64930732323E+04  0.65000000000E+04  0.30000000000E+03 0. -1.
     100001    1    1    2    0    0 -0.28620854445E+04  0.32163052154E+04 -0.48673604161E+04  0.65000000000E+04  0.15050000000E+03 0. -1.
     100001    1    1    2    0    0  0.28620854445E+04 -0.32163052154E+04  0.48673604161E+04  0.65000000000E+04  0.15050000000E+03 0.  1.
</event>
<event>
 4    1  0.4521369E-004  0.6500000E+04  0.7818608E-02  0.7223770E-01
         52   -1    0    0    0    0  0.00000000000E+00  0.00000000000E+00  0.64930732323E+04  0.65000000000E+04  0.30000000000E+03 0. -1.
        -52   -1    0    0    0    0 -0.00000000000E+00 -0.00000000000E+00 -0.64930732323E+04  0.65000000000E+04  0.30000000000E+03 0.  1.
     100001    1    1    2    0    0  0.13831561458E+04 -0.54439004926E+04 -0.32677478870E+04  0.65000000000E+04  0.15050000000E+03 0. -1.
     100001    1    1    2    0    0 -0.13831561458E+04  0.54439004926E+04  0.32677478870E+04  0.65000000000E+04  0.15050000000E+03 0.  1.
</event>
<event>
 4    1  0.4521369E-004  0.6500000E+04  0.7818608E-02  0.7223770E-01
         52   -1    0    0    0    0  0.00000000000E+00  0.00000000000E+00  0.64930732323E+04  0.65000000000E+04  0.30000000000E+03 0.  1.
        -52   -1    0    0    0    0 -0.00000000000E+00 -0.00000000000E+00 -0.64930732323E+04  0.65000000000E+04  0.30000000000E+03 0. -1.
     100001    1    1    2    0    0  0.60632164970E+03  0.11631349006E+04  0.63644984885E+04  0.65000000000E+04  0.15050000000E+03 0.  1.
     100001    1    1    2    0    0 -0.60632164970E+03 -0.11631349006E+04 -0.63644984885E+04  0.65000000000E+04  0.15050000000E+03 0. -1.
</event>
<event>
 4    1  0.4521369E-004  0.6500000E+04  0.7818608E-02  0.7223770E-01
         52   -1    0    0    0    0  0.00000000000E+00  0.00000000000E+00  0.64930732323E+04  0.65000000000E+04  0.30000000000E+03 0.  1.
        -52   -1    0    0    0    0 -0.00000000000E+00 -0.00000000000E+00 -0.64930732323E+04  0.65000000000E+04  0.30000000000E+03 0. -1.
     100001    1    1    2    0    0  0.26675716803E+04 -0.13751811743E+04  0.57637043486E+04  0.65000000000E+04  0.15050000000E+03 0.  1.
     100001    1    1    2    0    0 -0.26675716803E+04  0.13751811743E+04 -0.57637043486E+04  0.65000000000E+04  0.15050000000E+03 0. -1.
</event>
<event>
 4    1  0.4521369E-004  0.6500000E+04  0.7818608E-02  0.7223770E-01
         52   -1    0    0    0    0  0.00000000000E+00  0.00000000000E+00  0.64930732323E+04  0.65000000000E+04  0.30000000000E+03 0. -1.
        -52   -1    0    0    0    0 -0.00000000000E+00 -0.00000000000E+00 -0.64930732323E+04  0.65000000000E+04  0.30000000000E+03 0.  1.
     100001    1    1    2    0    0 -0.21369494981E+04  0.62577121720E+03 -0.61048511019E+04  0.65000000000E+04  0.15050000000E+03 0.  1.
     100001    1    1    2    0    0  0.21369494981E+04 -0.62577121720E+03  0.61048511019E+04  0.65000000000E+04  0.15050000000E+03 0. -1.
</event>
<event>
 4    1  0.4521369E-004  0.6500000E+04  0.7818608E-02  0.7223770E-01
         52   -1    0    0    0    0  0.00000000000E+00  0.00000000000E+00  0.64930732323E+04  0.65000000000E+04  0.30000000000E+03 0.  1.
        -52   -1    0    0    0    0 -0.00000000000E+00 -0.00000000000E+00 -0.64930732323E+04  0.65000000000E+04  0.30000000000E+03 0. -1.
     100001    1    1    2    0    0  0.21215547942E+04  0.20040054935E+04  0.58060586448E+04  0.65000000000E+04  0.15050000000E+03 0.  1.
     100001    1    1    2    0    0 -0.21215547942E+04 -0.20040054935E+04 -0.58060586448E+04  0.65000000000E+04  0.15050000000E+03 0. -1.
</event>
<event>
 4    1  0.4521369E-004  0.6500000E+04  0.7818608E-02  0.7223770E-01
         52   -1    0    0    0    0  0.00000000000E+00  0.00000000000E+00  0.64930732323E+04  0.65000000000E+04  0.30000000000E+03 0. -1.
        -52   -1    0    0    0    0 -0.00000000000E+00 -0.00000000000E+00 -0.64930732323E+04  0.65000000000E+04  0.30000000000E+03 0.  1.
     100001    1    1    2    0    0  0.46127048359E+04 -0.44146717568E+04 -0.12087088679E+04  0.65000000000E+04  0.15050000000E+03 0.  1.
     100001    1    1    2    0    0 -0.46127048359E+04  0.44146717568E+04  0.12087088679E+04  0.65000000000E+04  0.15050000000E+03 0. -1.
</event>
<event>
 4    1  0.4521369E-004  0.6500000E+04  0.7818608E-02  0.7223770E-01
         52   -1    0    0    0    0  0.00000000000E+00  0.00000000000E+00  0.64930732323E+04  0.65000000000E+04  0.30000000000E+03 0.  1.
        -52   -1    0    0    0    0 -0.00000000000E+00 -0.00000000000E+00 -0.64930732323E+04  0.65000000000E+04  0.30000000000E+03 0. -1.
     100001    1    1    2    0    0 -0.31955734111E+03 -0.42947467563E+03 -0.64761705011E+04  0.65000000000E+04  0.15050000000E+03 0. -1.
     100001    1    1    2    0    0  0.31955734111E+03  0.42947467563E+03  0.64761705011E+04  0.65000000000E+04  0.15050000000E+03 0.  1.
</event>
<event>
 4    1  0.4521369E-004  0.6500000E+04  0.7818608E-02  0.7223770E-01
         52   -1    0    0    0    0  0.00000000000E+00  0.00000000000E+00  0.64930732323E+04  0.65000000000E+04  0.30000000000E+03 0.  1.
        -52   -1    0    0    0    0 -0.00000000000E+00 -0.00000000000E+00 -0.64930732323E+04  0.65000000000E+04  0.30000000000E+03 0. -1.
     100001    1    1    2    0    0 -0.24663942830E+04  0.23510159918E+04 -0.55332605936E+04  0.65000000000E+04  0.15050000000E+03 0. -1.
     100001    1    1    2    0    0  0.24663942830E+04 -0.23510159918E+04  0.55332605936E+04  0.65000000000E+04  0.15050000000E+03 0.  1.
</event>
<event>
 4    1  0.4521369E-004  0.6500000E+04  0.7818608E-02  0.7223770E-01
         52   -1    0    0    0    0  0.00000000000E+00  0.00000000000E+00  0.64930732323E+04  0.65000000000E+04  0.30000000000E+03 0.  1.
        -52   -1    0    0    0    0 -0.00000000000E+00 -0.00000000000E+00 -0.64930732323E+04  0.65000000000E+04  0.30000000000E+03 0. -1.
     100001    1    1    2    0    0  0.61374256306E+03 -0.39707547376E+03  0.64570117612E+04  0.65000000000E+04  0.15050000000E+03 0.  1.
     100001    1    1    2    0    0 -0.61374256306E+03  0.39707547376E+03 -0.64570117612E+04  0.65000000000E+04  0.15050000000E+03 0. -1.
</event>
<event>
 4    1  0.4521369E-004  0.6500000E+04  0.7818608E-02  0.7223770E-01
         52   -1    0    0    0    0  0.00000000000E+00  0.00000000000E+00  0.64930732323E+04  0.65000000000E+04  0.30000000000E+03 0. -1.
        -52   -1    0    0    0    0 -0.00000000000E+00 -0.00000000000E+00 -0.64930732323E+04  0.65000000000E+04  0.30000000000E+03 0.  1.
     100001    1    1    2    0    0  0.35652521970E+04  0.34192634331E+04  0.42219621146E+04  0.65000000000E+04  0.15050000000E+03 0. -1.
     100001    1    1    2    0    0 -0.35652521970E+04 -0.34192634331E+04 -0.42219621146E+04  0.65000000000E+04  0.15050000000E+03 0.  1.
</event>
<event>
 4    1  0.4521369E-004  0.6500000E+04  0.7818608E-02  0.7223770E-01
         52   -1    0    0    0    0  0.00000000000E+00  0.00000000000E+00  0.64930732323E+04  0.65000000000E+04  0.30000000000E+03 0. -1.
        -52   -1    0    0    0    0 -0.00000000000E+00 -0.00000000000E+00 -0.64930732323E+04  0.65000000000E+04  0.30000000000E+03 0.  1.
     100001    1    1    2    0    0  0.41255010486E+04  0.48355689210E+04  0.13508752935E+04  0.65000000000E+04  0.15050000000E+03 0. -1.
     100001    1    1    2    0    0 -0.41255010486E+04 -0.48355689210E+04 -0.13508752935E+04  0.65000000000E+04  0.15050000000E+03 0.  1.
</event>
<event>
 4    1  0.4521369E-004  0.6500000E+04  0.7818608E-02  0.7223770E-01
         52   -1    0    0    0    0  0.00000000000E+00  0.00000000000E+00  0.64930732323E+04  0.65000000000E+04  0.30000000000E+03 0.  1.
        -52   -1    0    0    0    0 -0.00000000000E+00 -0.00000000000E+00 -0.64930732323E+04  0.65000000000E+04  0.30000000000E+03 0.  1.
     100001    1    1    2    0    0 -0.19829634368E+03 -0.98553169512E+01  0.64952237208E+04  0.65000000000E+04  0.15050000000E+03 0.  1.
     100001    1    1    2    0    0  0.19829634368E+03  0.98553169512E+01 -0.64952237208E+04  0.65000000000E+04  0.15050000000E+03 0.  1.
</event>
<event>
 4    1  0.4521369E-004  0.6500000E+04  0.7818608E-02  0.7223770E-01
         52   -1    0    0    0    0  0.00000000000E+00  0.00000000000E+00  0.64930732323E+04  0.65000000000E+04  0.30000000000E+03 0. -1.
        -52   -1    0    0    0    0 -0.00000000000E+00 -0.00000000000E+00 -0.64930732323E+04  0.65000000000E+04  0.30000000000E+03 0.  1.
     100001    1    1    2    0    0  0.53163135062E+04 -0.34240043000E+04 -0.14967815496E+04  0.65000000000E+04  0.15050000000E+03 0.  1.
     100001    1    1    2    0    0 -0.53163135062E+04  0.34240043000E+04  0.14967815496E+04  0.65000000000E+04  0.15050000000E+03 0. -1.
</event>
<event>
 4    1  0.6886337E-004  0.6500000E+04  0.7818608E-02  0.7223770E-01
         52   -1    0    0    0    0  0.00000000000E+00  0.00000000000E+00  0.64930732323E+04  0.65000000000E+04  0.30000000000E+03 0. -1.
        -52   -1    0    0    0    0 -0.00000000000E+00 -0.00000000000E+00 -0.64930732323E+04  0.65000000000E+04  0.30000000000E+03 0. -1.
     100001    1    1    2    0    0 -0.21984660972E+02 -0.14128934230E+03  0.64966840578E+04  0.65000000000E+04  0.15050000000E+03 0. -1.
     100001    1    1    2    0    0  0.21984660972E+02  0.14128934230E+03 -0.64966840578E+04  0.65000000000E+04  0.15050000000E+03 0. -1.
</event>
<event>
 4    1  0.4521369E-004  0.6500000E+04  0.7818608E-02  0.7223770E-01
         52   -1    0    0    0    0  0.00000000000E+00  0.00000000000E+00  0.64930732323E+04  0.65000000000E+04  0.30000000000E+03 0. -1.
        -52   -1    0    0    0    0 -0.00000000000E+00 -0.00000000000E+00 -0.64930732323E+04  0.65000000000E+04  0.30000000000E+03 0.  1.
     100001    1    1    2    0    0  0.24445539667E+04 -0.33356379148E+03 -0.60116753780E+04  0.65000000000E+04  0.15050000000E+03 0.  1.
     100001    1    1    2    0    0 -0.24445539667E+04  0.33356379148E+03  0.60116753780E+04  0.65000000000E+04  0.15050000000E+03 0. -1.
</event>
<event>
 4    1  0.4521369E-004  0.6500000E+04  0.7818608E-02  0.7223770E-01
         52   -1    0    0    0    0  0.00000000000E+00  0.00000000000E+00  0.64930732323E+04  0.65000000000E+04  0.30000000000E+03 0.  1.
        -52   -1    0    0    0    0 -0.00000000000E+00 -0.00000000000E+00 -0.64930732323E+04  0.65000000000E+04  0.30000000000E+03 0. -1.
     100001    1    1    2    0    0  0.79163193047E+03 -0.33462382317E+03 -0.64411719069E+04  0.65000000000E+04  0.15050000000E+03 0. -1.
     100001    1    1    2    0    0 -0.79163193047E+03  0.33462382317E+03  0.64411719069E+04  0.65000000000E+04  0.15050000000E+03 0.  1.
</event>
<event>
 4    1  0.4521369E-004  0.6500000E+04  0.7818608E-02  0.7223770E-01
         52   -1    0    0    0    0  0.00000000000E+00  0.00000000000E+00  0.64930732323E+04  0.65000000000E+04  0.30000000000E+03 0.  1.
        -52   -1    0    0    0    0 -0.00000000000E+00 -0.00000000000E+00 -0.64930732323E+04  0.65000000000E+04  0.30000000000E+03 0. -1.
     100001    1    1    2    0    0  0.42174905085E+02 -0.41508535850E+03  0.64848496646E+04  0.65000000000E+04  0.15050000000E+03 0.  1.
     100001    1    1    2    0    0 -0.42174905085E+02  0.41508535850E+03 -0.64848496646E+04  0.65000000000E+04  0.15050000000E+03 0. -1.
</event>
<event>
 4    1  0.4521369E-004  0.6500000E+04  0.7818608E-02  0.7223770E-01
         52   -1    0    0    0    0  0.00000000000E+00  0.00000000000E+00  0.64930732323E+04  0.65000000000E+04  0.30000000000E+03 0. -1.
        -52   -1    0    0    0    0 -0.00000000000E+00 -0.00000000000E+00 -0.64930732323E+04  0.65000000000E+04  0.30000000000E+03 0.  1.
     100001    1    1    2    0    0  0.61595376438E+04 -0.20430024488E+04  0.33702634813E+03  0.65000000000E+04  0.15050000000E+03 0. -1.
     100001    1    1    2    0    0 -0.61595376438E+04  0.20430024488E+04 -0.33702634813E+03  0.65000000000E+04  0.15050000000E+03 0.  1.
</event>
<event>
 4    1  0.4521369E-004  0.6500000E+04  0.7818608E-02  0.7223770E-01
         52   -1    0    0    0    0  0.00000000000E+00  0.00000000000E+00  0.64930732323E+04  0.65000000000E+04  0.30000000000E+03 0.  1.
        -52   -1    0    0    0    0 -0.00000000000E+00 -0.00000000000E+00 -0.64930732323E+04  0.65000000000E+04  0.30000000000E+03 0. -1.
     100001    1    1    2    0    0 -0.40789572828E+04  0.32266536469E+04  0.38959162565E+04  0.65000000000E+04  0.15050000000E+03 0.  1.
     100001    1    1    2    0    0  0.40789572828E+04 -0.32266536469E+04 -0.38959162565E+04  0.65000000000E+04  0.15050000000E+03 0. -1.
</event>
<event>
 4    1  0.4521369E-004  0.6500000E+04  0.7818608E-02  0.7223770E-01
         52   -1    0    0    0    0  0.00000000000E+00  0.00000000000E+00  0.64930732323E+04  0.65000000000E+04  0.30000000000E+03 0.  1.
        -52   -1    0    0    0    0 -0.00000000000E+00 -0.00000000000E+00 -0.64930732323E+04  0.65000000000E+04  0.30000000000E+03 0. -1.
     100001    1    1    2    0    0 -0.17492201455E+04  0.15162152847E+04  0.60719576615E+04  0.65000000000E+04  0.15050000000E+03 0.  1.
     100001    1    1    2    0    0  0.17492201455E+04 -0.15162152847E+04 -0.60719576615E+04  0.65000000000E+04  0.15050000000E+03 0. -1.
</event>
<event>
 4    1  0.4521369E-004  0.6500000E+04  0.7818608E-02  0.7223770E-01
         52   -1    0    0    0    0  0.00000000000E+00  0.00000000000E+00  0.64930732323E+04  0.65000000000E+04  0.30000000000E+03 0.  1.
        -52   -1    0    0    0    0 -0.00000000000E+00 -0.00000000000E+00 -0.64930732323E+04  0.65000000000E+04  0.30000000000E+03 0. -1.
     100001    1    1    2    0    0  0.21634163790E+04 -0.26937166852E+04 -0.55037141769E+04  0.65000000000E+04  0.15050000000E+03 0. -1.
     100001    1    1    2    0    0 -0.21634163790E+04  0.26937166852E+04  0.55037141769E+04  0.65000000000E+04  0.15050000000E+03 0.  1.
</event>
<event>
 4    1  0.4521369E-004  0.6500000E+04  0.7818608E-02  0.7223770E-01
         52   -1    0    0    0    0  0.00000000000E+00  0.00000000000E+00  0.64930732323E+04  0.65000000000E+04  0.30000000000E+03 0. -1.
        -52   -1    0    0    0    0 -0.00000000000E+00 -0.00000000000E+00 -0.64930732323E+04  0.65000000000E+04  0.30000000000E+03 0.  1.
     100001    1    1    2    0    0  0.16907265907E+02  0.15573681782E+04  0.63088563347E+04  0.65000000000E+04  0.15050000000E+03 0. -1.
     100001    1    1    2    0    0 -0.16907265907E+02 -0.15573681782E+04 -0.63088563347E+04  0.65000000000E+04  0.15050000000E+03 0.  1.
</event>
<event>
 4    1  0.4521369E-004  0.6500000E+04  0.7818608E-02  0.7223770E-01
         52   -1    0    0    0    0  0.00000000000E+00  0.00000000000E+00  0.64930732323E+04  0.65000000000E+04  0.30000000000E+03 0.  1.
        -52   -1    0    0    0    0 -0.00000000000E+00 -0.00000000000E+00 -0.64930732323E+04  0.65000000000E+04  0.30000000000E+03 0. -1.
     100001    1    1    2    0    0  0.36666948601E+04  0.19988392771E+04  0.49786885921E+04  0.65000000000E+04  0.15050000000E+03 0.  1.
     100001    1    1    2    0    0 -0.36666948601E+04 -0.19988392771E+04 -0.49786885921E+04  0.65000000000E+04  0.15050000000E+03 0. -1.
</event>
<event>
 4    1  0.4521369E-004  0.6500000E+04  0.7818608E-02  0.7223770E-01
         52   -1    0    0    0    0  0.00000000000E+00  0.00000000000E+00  0.64930732323E+04  0.65000000000E+04  0.30000000000E+03 0. -1.
        -52   -1    0    0    0    0 -0.00000000000E+00 -0.00000000000E+00 -0.64930732323E+04  0.65000000000E+04  0.30000000000E+03 0.  1.
     100001    1    1    2    0    0  0.37636993052E+04  0.35751432944E+03  0.52852720644E+04  0.65000000000E+04  0.15050000000E+03 0. -1.
     100001    1    1    2    0    0 -0.37636993052E+04 -0.35751432944E+03 -0.52852720644E+04  0.65000000000E+04  0.15050000000E+03 0.  1.
</event>
<event>
 4    1  0.4521369E-004  0.6500000E+04  0.7818608E-02  0.7223770E-01
         52   -1    0    0    0    0  0.00000000000E+00  0.00000000000E+00  0.64930732323E+04  0.65000000000E+04  0.30000000000E+03 0.  1.
        -52   -1    0    0    0    0 -0.00000000000E+00 -0.00000000000E+00 -0.64930732323E+04  0.65000000000E+04  0.30000000000E+03 0. -1.
     100001    1    1    2    0    0 -0.98942580640E+03  0.10911810304E+04 -0.63291160743E+04  0.65000000000E+04  0.15050000000E+03 0. -1.
     100001    1    1    2    0    0  0.98942580640E+03 -0.10911810304E+04  0.63291160743E+04  0.65000000000E+04  0.15050000000E+03 0.  1.
</event>
<event>
 4    1  0.4521369E-004  0.6500000E+04  0.7818608E-02  0.7223770E-01
         52   -1    0    0    0    0  0.00000000000E+00  0.00000000000E+00  0.64930732323E+04  0.65000000000E+04  0.30000000000E+03 0.  1.
        -52   -1    0    0    0    0 -0.00000000000E+00 -0.00000000000E+00 -0.64930732323E+04  0.65000000000E+04  0.30000000000E+03 0. -1.
     100001    1    1    2    0    0 -0.36009588029E+03  0.22712831486E+03 -0.64842959090E+04  0.65000000000E+04  0.15050000000E+03 0. -1.
     100001    1    1    2    0    0  0.36009588029E+03 -0.22712831486E+03  0.64842959090E+04  0.65000000000E+04  0.15050000000E+03 0.  1.
</event>
<event>
 4    1  0.4521369E-004  0.6500000E+04  0.7818608E-02  0.7223770E-01
         52   -1    0    0    0    0  0.00000000000E+00  0.00000000000E+00  0.64930732323E+04  0.65000000000E+04  0.30000000000E+03 0.  1.
        -52   -1    0    0    0    0 -0.00000000000E+00 -0.00000000000E+00 -0.64930732323E+04  0.65000000000E+04  0.30000000000E+03 0. -1.
     100001    1    1    2    0    0 -0.97091360530E+03  0.35707440676E+04  0.53417659369E+04  0.65000000000E+04  0.15050000000E+03 0.  1.
     100001    1    1    2    0    0  0.97091360530E+03 -0.35707440676E+04 -0.53417659369E+04  0.65000000000E+04  0.15050000000E+03 0. -1.
</event>
<event>
 4    1  0.4521369E-004  0.6500000E+04  0.7818608E-02  0.7223770E-01
         52   -1    0    0    0    0  0.00000000000E+00  0.00000000000E+00  0.64930732323E+04  0.65000000000E+04  0.30000000000E+03 0. -1.
        -52   -1    0    0    0    0 -0.00000000000E+00 -0.00000000000E+00 -0.64930732323E+04  0.65000000000E+04  0.30000000000E+03 0. -1.
     100001    1    1    2    0    0  0.26490713493E+02 -0.15212112781E+03 -0.64964226429E+04  0.65000000000E+04  0.15050000000E+03 0. -1.
     100001    1    1    2    0    0 -0.26490713493E+02  0.15212112781E+03  0.64964226429E+04  0.65000000000E+04  0.15050000000E+03 0. -1.
</event>
<event>
 4    1  0.4521369E-004  0.6500000E+04  0.7818608E-02  0.7223770E-01
         52   -1    0    0    0    0  0.00000000000E+00  0.00000000000E+00  0.64930732323E+04  0.65000000000E+04  0.30000000000E+03 0. -1.
        -52   -1    0    0    0    0 -0.00000000000E+00 -0.00000000000E+00 -0.64930732323E+04  0.65000000000E+04  0.30000000000E+03 0.  1.
     100001    1    1    2    0    0 -0.14994946814E+04  0.34836249071E+04 -0.52766677891E+04  0.65000000000E+04  0.15050000000E+03 0.  1.
     100001    1    1    2    0    0  0.14994946814E+04 -0.34836249071E+04  0.52766677891E+04  0.65000000000E+04  0.15050000000E+03 0. -1.
</event>
<event>
 4    1  0.4521369E-004  0.6500000E+04  0.7818608E-02  0.7223770E-01
         52   -1    0    0    0    0  0.00000000000E+00  0.00000000000E+00  0.64930732323E+04  0.65000000000E+04  0.30000000000E+03 0.  1.
        -52   -1    0    0    0    0 -0.00000000000E+00 -0.00000000000E+00 -0.64930732323E+04  0.65000000000E+04  0.30000000000E+03 0. -1.
     100001    1    1    2    0    0  0.60149639459E+02  0.12805466978E+04  0.63705519326E+04  0.65000000000E+04  0.15050000000E+03 0.  1.
     100001    1    1    2    0    0 -0.60149639459E+02 -0.12805466978E+04 -0.63705519326E+04  0.65000000000E+04  0.15050000000E+03 0. -1.
</event>
<event>
 4    1  0.4521369E-004  0.6500000E+04  0.7818608E-02  0.7223770E-01
         52   -1    0    0    0    0  0.00000000000E+00  0.00000000000E+00  0.64930732323E+04  0.65000000000E+04  0.30000000000E+03 0.  1.
        -52   -1    0    0    0    0 -0.00000000000E+00 -0.00000000000E+00 -0.64930732323E+04  0.65000000000E+04  0.30000000000E+03 0. -1.
     100001    1    1    2    0    0  0.11920240967E+04  0.26739685402E+03 -0.63823919674E+04  0.65000000000E+04  0.15050000000E+03 0. -1.
     100001    1    1    2    0    0 -0.11920240967E+04 -0.26739685402E+03  0.63823919674E+04  0.65000000000E+04  0.15050000000E+03 0.  1.
</event>
<event>
 4    1  0.4521369E-004  0.6500000E+04  0.7818608E-02  0.7223770E-01
         52   -1    0    0    0    0  0.00000000000E+00  0.00000000000E+00  0.64930732323E+04  0.65000000000E+04  0.30000000000E+03 0.  1.
        -52   -1    0    0    0    0 -0.00000000000E+00 -0.00000000000E+00 -0.64930732323E+04  0.65000000000E+04  0.30000000000E+03 0. -1.
     100001    1    1    2    0    0  0.10390424006E+03 -0.31561116330E+03  0.64897567946E+04  0.65000000000E+04  0.15050000000E+03 0.  1.
     100001    1    1    2    0    0 -0.10390424006E+03  0.31561116330E+03 -0.64897567946E+04  0.65000000000E+04  0.15050000000E+03 0. -1.
</event>
<event>
 4    1  0.4521369E-004  0.6500000E+04  0.7818608E-02  0.7223770E-01
         52   -1    0    0    0    0  0.00000000000E+00  0.00000000000E+00  0.64930732323E+04  0.65000000000E+04  0.30000000000E+03 0.  1.
        -52   -1    0    0    0    0 -0.00000000000E+00 -0.00000000000E+00 -0.64930732323E+04  0.65000000000E+04  0.30000000000E+03 0. -1.
     100001    1    1    2    0    0 -0.21388855381E+04 -0.89269331273E+03  0.60708827245E+04  0.65000000000E+04  0.15050000000E+03 0.  1.
     100001    1    1    2    0    0  0.21388855381E+04  0.89269331273E+03 -0.60708827245E+04  0.65000000000E+04  0.15050000000E+03 0. -1.
</event>
<event>
 4    1  0.4521369E-004  0.6500000E+04  0.7818608E-02  0.7223770E-01
         52   -1    0    0    0    0  0.00000000000E+00  0.00000000000E+00  0.64930732323E+04  0.65000000000E+04  0.30000000000E+03 0.  1.
        -52   -1    0    0    0    0 -0.00000000000E+00 -0.00000000000E+00 -0.64930732323E+04  0.65000000000E+04  0.30000000000E+03 0.  1.
     100001    1    1    2    0    0 -0.36470827072E+01 -0.21488640827E+03  0.64947024782E+04  0.65000000000E+04  0.15050000000E+03 0.  1.
     100001    1    1    2    0    0  0.36470827072E+01  0.21488640827E+03 -0.64947024782E+04  0.65000000000E+04  0.15050000000E+03 0.  1.
</event>
<event>
 4    1  0.4521369E-004  0.6500000E+04  0.7818608E-02  0.7223770E-01
         52   -1    0    0    0    0  0.00000000000E+00  0.00000000000E+00  0.64930732323E+04  0.65000000000E+04  0.30000000000E+03 0. -1.
        -52   -1    0    0    0    0 -0.00000000000E+00 -0.00000000000E+00 -0.64930732323E+04  0.65000000000E+04  0.30000000000E+03 0.  1.
     100001    1    1    2    0    0  0.40843051736E+03 -0.12859333689E+04 -0.63566429531E+04  0.65000000000E+04  0.15050000000E+03 0.  1.
     100001    1    1    2    0    0 -0.40843051736E+03  0.12859333689E+04  0.63566429531E+04  0.65000000000E+04  0.15050000000E+03 0. -1.
</event>
<event>
 4    1  0.4521369E-004  0.6500000E+04  0.7818608E-02  0.7223770E-01
         52   -1    0    0    0    0  0.00000000000E+00  0.00000000000E+00  0.64930732323E+04  0.65000000000E+04  0.30000000000E+03 0. -1.
        -52   -1    0    0    0    0 -0.00000000000E+00 -0.00000000000E+00 -0.64930732323E+04  0.65000000000E+04  0.30000000000E+03 0.  1.
     100001    1    1    2    0    0 -0.62040239433E+04  0.11307028255E+03  0.19299356913E+04  0.65000000000E+04  0.15050000000E+03 0. -1.
     100001    1    1    2    0    0  0.62040239433E+04 -0.11307028255E+03 -0.19299356913E+04  0.65000000000E+04  0.15050000000E+03 0.  1.
</event>
<event>
 4    1  0.4521369E-004  0.6500000E+04  0.7818608E-02  0.7223770E-01
         52   -1    0    0    0    0  0.00000000000E+00  0.00000000000E+00  0.64930732323E+04  0.65000000000E+04  0.30000000000E+03 0. -1.
        -52   -1    0    0    0    0 -0.00000000000E+00 -0.00000000000E+00 -0.64930732323E+04  0.65000000000E+04  0.30000000000E+03 0.  1.
     100001    1    1    2    0    0  0.23324303781E+04 -0.44442945116E+04 -0.41273919823E+04  0.65000000000E+04  0.15050000000E+03 0.  1.
     100001    1    1    2    0    0 -0.23324303781E+04  0.44442945116E+04  0.41273919823E+04  0.65000000000E+04  0.15050000000E+03 0. -1.
</event>
<event>
 4    1  0.4521369E-004  0.6500000E+04  0.7818608E-02  0.7223770E-01
         52   -1    0    0    0    0  0.00000000000E+00  0.00000000000E+00  0.64930732323E+04  0.65000000000E+04  0.30000000000E+03 0. -1.
        -52   -1    0    0    0    0 -0.00000000000E+00 -0.00000000000E+00 -0.64930732323E+04  0.65000000000E+04  0.30000000000E+03 0.  1.
     100001    1    1    2    0    0 -0.60815352912E+02 -0.68451890243E+03 -0.64618174777E+04  0.65000000000E+04  0.15050000000E+03 0.  1.
     100001    1    1    2    0    0  0.60815352912E+02  0.68451890243E+03  0.64618174777E+04  0.65000000000E+04  0.15050000000E+03 0. -1.
</event>
<event>
 4    1  0.4521369E-004  0.6500000E+04  0.7818608E-02  0.7223770E-01
         52   -1    0    0    0    0  0.00000000000E+00  0.00000000000E+00  0.64930732323E+04  0.65000000000E+04  0.30000000000E+03 0. -1.
        -52   -1    0    0    0    0 -0.00000000000E+00 -0.00000000000E+00 -0.64930732323E+04  0.65000000000E+04  0.30000000000E+03 0.  1.
     100001    1    1    2    0    0  0.82394766189E+03 -0.33713202872E+04  0.54938747275E+04  0.65000000000E+04  0.15050000000E+03 0. -1.
     100001    1    1    2    0    0 -0.82394766189E+03  0.33713202872E+04 -0.54938747275E+04  0.65000000000E+04  0.15050000000E+03 0.  1.
</event>
<event>
 4    1  0.4521369E-004  0.6500000E+04  0.7818608E-02  0.7223770E-01
         52   -1    0    0    0    0  0.00000000000E+00  0.00000000000E+00  0.64930732323E+04  0.65000000000E+04  0.30000000000E+03 0. -1.
        -52   -1    0    0    0    0 -0.00000000000E+00 -0.00000000000E+00 -0.64930732323E+04  0.65000000000E+04  0.30000000000E+03 0.  1.
     100001    1    1    2    0    0  0.39773179943E+03 -0.10547792947E+02 -0.64860656726E+04  0.65000000000E+04  0.15050000000E+03 0.  1.
     100001    1    1    2    0    0 -0.39773179943E+03  0.10547792947E+02  0.64860656726E+04  0.65000000000E+04  0.15050000000E+03 0. -1.
</event>
<event>
 4    1  0.4521369E-004  0.6500000E+04  0.7818608E-02  0.7223770E-01
         52   -1    0    0    0    0  0.00000000000E+00  0.00000000000E+00  0.64930732323E+04  0.65000000000E+04  0.30000000000E+03 0.  1.
        -52   -1    0    0    0    0 -0.00000000000E+00 -0.00000000000E+00 -0.64930732323E+04  0.65000000000E+04  0.30000000000E+03 0. -1.
     100001    1    1    2    0    0  0.13781942170E+04  0.80362899444E+03 -0.62993738490E+04  0.65000000000E+04  0.15050000000E+03 0. -1.
     100001    1    1    2    0    0 -0.13781942170E+04 -0.80362899444E+03  0.62993738490E+04  0.65000000000E+04  0.15050000000E+03 0.  1.
</event>
<event>
 4    1  0.4521369E-004  0.6500000E+04  0.7818608E-02  0.7223770E-01
         52   -1    0    0    0    0  0.00000000000E+00  0.00000000000E+00  0.64930732323E+04  0.65000000000E+04  0.30000000000E+03 0. -1.
        -52   -1    0    0    0    0 -0.00000000000E+00 -0.00000000000E+00 -0.64930732323E+04  0.65000000000E+04  0.30000000000E+03 0. -1.
     100001    1    1    2    0    0  0.58319695969E+03 -0.63946164835E+03 -0.64403664381E+04  0.65000000000E+04  0.15050000000E+03 0. -1.
     100001    1    1    2    0    0 -0.58319695969E+03  0.63946164835E+03  0.64403664381E+04  0.65000000000E+04  0.15050000000E+03 0. -1.
</event>
<event>
 4    1  0.4893711E-004  0.6500000E+04  0.7818608E-02  0.7223770E-01
         52   -1    0    0    0    0  0.00000000000E+00  0.00000000000E+00  0.64930732323E+04  0.65000000000E+04  0.30000000000E+03 0. -1.
        -52   -1    0    0    0    0 -0.00000000000E+00 -0.00000000000E+00 -0.64930732323E+04  0.65000000000E+04  0.30000000000E+03 0. -1.
     100001    1    1    2    0    0  0.67618040071E+02  0.20400584411E+03  0.64947023924E+04  0.65000000000E+04  0.15050000000E+03 0. -1.
     100001    1    1    2    0    0 -0.67618040071E+02 -0.20400584411E+03 -0.64947023924E+04  0.65000000000E+04  0.15050000000E+03 0. -1.
</event>
<event>
 4    1  0.4521369E-004  0.6500000E+04  0.7818608E-02  0.7223770E-01
         52   -1    0    0    0    0  0.00000000000E+00  0.00000000000E+00  0.64930732323E+04  0.65000000000E+04  0.30000000000E+03 0.  1.
        -52   -1    0    0    0    0 -0.00000000000E+00 -0.00000000000E+00 -0.64930732323E+04  0.65000000000E+04  0.30000000000E+03 0.  1.
     100001    1    1    2    0    0 -0.51367069839E+03  0.68884859724E+03 -0.64411939711E+04  0.65000000000E+04  0.15050000000E+03 0.  1.
     100001    1    1    2    0    0  0.51367069839E+03 -0.68884859724E+03  0.64411939711E+04  0.65000000000E+04  0.15050000000E+03 0.  1.
</event>
<event>
 4    1  0.4521370E-004  0.6500000E+04  0.7818608E-02  0.7223770E-01
         52   -1    0    0    0    0  0.00000000000E+00  0.00000000000E+00  0.64930732323E+04  0.65000000000E+04  0.30000000000E+03 0.  1.
        -52   -1    0    0    0    0 -0.00000000000E+00 -0.00000000000E+00 -0.64930732323E+04  0.65000000000E+04  0.30000000000E+03 0.  1.
     100001    1    1    2    0    0  0.18960800896E+03 -0.22070070583E+03 -0.64917401174E+04  0.65000000000E+04  0.15050000000E+03 0.  1.
     100001    1    1    2    0    0 -0.18960800896E+03  0.22070070583E+03  0.64917401174E+04  0.65000000000E+04  0.15050000000E+03 0.  1.
</event>
<event>
 4    1  0.4521369E-004  0.6500000E+04  0.7818608E-02  0.7223770E-01
         52   -1    0    0    0    0  0.00000000000E+00  0.00000000000E+00  0.64930732323E+04  0.65000000000E+04  0.30000000000E+03 0. -1.
        -52   -1    0    0    0    0 -0.00000000000E+00 -0.00000000000E+00 -0.64930732323E+04  0.65000000000E+04  0.30000000000E+03 0.  1.
     100001    1    1    2    0    0  0.80308342773E+03 -0.14640583578E+04  0.62800429842E+04  0.65000000000E+04  0.15050000000E+03 0. -1.
     100001    1    1    2    0    0 -0.80308342773E+03  0.14640583578E+04 -0.62800429842E+04  0.65000000000E+04  0.15050000000E+03 0.  1.
</event>
<event>
 4    1  0.4521369E-004  0.6500000E+04  0.7818608E-02  0.7223770E-01
         52   -1    0    0    0    0  0.00000000000E+00  0.00000000000E+00  0.64930732323E+04  0.65000000000E+04  0.30000000000E+03 0.  1.
        -52   -1    0    0    0    0 -0.00000000000E+00 -0.00000000000E+00 -0.64930732323E+04  0.65000000000E+04  0.30000000000E+03 0. -1.
     100001    1    1    2    0    0 -0.13913736787E+04  0.41372567986E+03  0.63340555806E+04  0.65000000000E+04  0.15050000000E+03 0.  1.
     100001    1    1    2    0    0  0.13913736787E+04 -0.41372567986E+03 -0.63340555806E+04  0.65000000000E+04  0.15050000000E+03 0. -1.
</event>
<event>
 4    1  0.4521369E-004  0.6500000E+04  0.7818608E-02  0.7223770E-01
         52   -1    0    0    0    0  0.00000000000E+00  0.00000000000E+00  0.64930732323E+04  0.65000000000E+04  0.30000000000E+03 0. -1.
        -52   -1    0    0    0    0 -0.00000000000E+00 -0.00000000000E+00 -0.64930732323E+04  0.65000000000E+04  0.30000000000E+03 0.  1.
     100001    1    1    2    0    0  0.64293360282E+03  0.14702141476E+03  0.64647019139E+04  0.65000000000E+04  0.15050000000E+03 0. -1.
     100001    1    1    2    0    0 -0.64293360282E+03 -0.14702141476E+03 -0.64647019139E+04  0.65000000000E+04  0.15050000000E+03 0.  1.
</event>
<event>
 4    1  0.7442861E-004  0.6500000E+04  0.7818608E-02  0.7223770E-01
         52   -1    0    0    0    0  0.00000000000E+00  0.00000000000E+00  0.64930732323E+04  0.65000000000E+04  0.30000000000E+03 0. -1.
        -52   -1    0    0    0    0 -0.00000000000E+00 -0.00000000000E+00 -0.64930732323E+04  0.65000000000E+04  0.30000000000E+03 0. -1.
     100001    1    1    2    0    0 -0.65340865683E+02 -0.73646684102E+02  0.64975115611E+04  0.65000000000E+04  0.15050000000E+03 0. -1.
     100001    1    1    2    0    0  0.65340865683E+02  0.73646684102E+02 -0.64975115611E+04  0.65000000000E+04  0.15050000000E+03 0. -1.
</event>
<event>
 4    1  0.4521369E-004  0.6500000E+04  0.7818608E-02  0.7223770E-01
         52   -1    0    0    0    0  0.00000000000E+00  0.00000000000E+00  0.64930732323E+04  0.65000000000E+04  0.30000000000E+03 0. -1.
        -52   -1    0    0    0    0 -0.00000000000E+00 -0.00000000000E+00 -0.64930732323E+04  0.65000000000E+04  0.30000000000E+03 0.  1.
     100001    1    1    2    0    0  0.80649203093E+03 -0.68130110565E+03 -0.64119224229E+04  0.65000000000E+04  0.15050000000E+03 0.  1.
     100001    1    1    2    0    0 -0.80649203093E+03  0.68130110565E+03  0.64119224229E+04  0.65000000000E+04  0.15050000000E+03 0. -1.
</event>
<event>
 4    1  0.4521369E-004  0.6500000E+04  0.7818608E-02  0.7223770E-01
         52   -1    0    0    0    0  0.00000000000E+00  0.00000000000E+00  0.64930732323E+04  0.65000000000E+04  0.30000000000E+03 0. -1.
        -52   -1    0    0    0    0 -0.00000000000E+00 -0.00000000000E+00 -0.64930732323E+04  0.65000000000E+04  0.30000000000E+03 0.  1.
     100001    1    1    2    0    0  0.54403792095E+03  0.99061784512E+02 -0.64746860351E+04  0.65000000000E+04  0.15050000000E+03 0.  1.
     100001    1    1    2    0    0 -0.54403792095E+03 -0.99061784512E+02  0.64746860351E+04  0.65000000000E+04  0.15050000000E+03 0. -1.
</event>
<event>
 4    1  0.4521369E-004  0.6500000E+04  0.7818608E-02  0.7223770E-01
         52   -1    0    0    0    0  0.00000000000E+00  0.00000000000E+00  0.64930732323E+04  0.65000000000E+04  0.30000000000E+03 0. -1.
        -52   -1    0    0    0    0 -0.00000000000E+00 -0.00000000000E+00 -0.64930732323E+04  0.65000000000E+04  0.30000000000E+03 0.  1.
     100001    1    1    2    0    0 -0.73463123621E+03  0.77250856604E+03  0.64102181876E+04  0.65000000000E+04  0.15050000000E+03 0. -1.
     100001    1    1    2    0    0  0.73463123621E+03 -0.77250856604E+03 -0.64102181876E+04  0.65000000000E+04  0.15050000000E+03 0.  1.
</event>
<event>
 4    1  0.4521369E-004  0.6500000E+04  0.7818608E-02  0.7223770E-01
         52   -1    0    0    0    0  0.00000000000E+00  0.00000000000E+00  0.64930732323E+04  0.65000000000E+04  0.30000000000E+03 0. -1.
        -52   -1    0    0    0    0 -0.00000000000E+00 -0.00000000000E+00 -0.64930732323E+04  0.65000000000E+04  0.30000000000E+03 0.  1.
     100001    1    1    2    0    0  0.67497965778E+03  0.31777247583E+03 -0.64552903006E+04  0.65000000000E+04  0.15050000000E+03 0.  1.
     100001    1    1    2    0    0 -0.67497965778E+03 -0.31777247583E+03  0.64552903006E+04  0.65000000000E+04  0.15050000000E+03 0. -1.
</event>
<event>
 4    1  0.4521369E-004  0.6500000E+04  0.7818608E-02  0.7223770E-01
         52   -1    0    0    0    0  0.00000000000E+00  0.00000000000E+00  0.64930732323E+04  0.65000000000E+04  0.30000000000E+03 0.  1.
        -52   -1    0    0    0    0 -0.00000000000E+00 -0.00000000000E+00 -0.64930732323E+04  0.65000000000E+04  0.30000000000E+03 0. -1.
     100001    1    1    2    0    0 -0.26553804041E+04 -0.15847071781E+03 -0.59288440434E+04  0.65000000000E+04  0.15050000000E+03 0. -1.
     100001    1    1    2    0    0  0.26553804041E+04  0.15847071781E+03  0.59288440434E+04  0.65000000000E+04  0.15050000000E+03 0.  1.
</event>
<event>
 4    1  0.4521369E-004  0.6500000E+04  0.7818608E-02  0.7223770E-01
         52   -1    0    0    0    0  0.00000000000E+00  0.00000000000E+00  0.64930732323E+04  0.65000000000E+04  0.30000000000E+03 0. -1.
        -52   -1    0    0    0    0 -0.00000000000E+00 -0.00000000000E+00 -0.64930732323E+04  0.65000000000E+04  0.30000000000E+03 0.  1.
     100001    1    1    2    0    0  0.27994000060E+02 -0.16096785013E+04  0.62956732133E+04  0.65000000000E+04  0.15050000000E+03 0. -1.
     100001    1    1    2    0    0 -0.27994000060E+02  0.16096785013E+04 -0.62956732133E+04  0.65000000000E+04  0.15050000000E+03 0.  1.
</event>
<event>
 4    1  0.4521369E-004  0.6500000E+04  0.7818608E-02  0.7223770E-01
         52   -1    0    0    0    0  0.00000000000E+00  0.00000000000E+00  0.64930732323E+04  0.65000000000E+04  0.30000000000E+03 0. -1.
        -52   -1    0    0    0    0 -0.00000000000E+00 -0.00000000000E+00 -0.64930732323E+04  0.65000000000E+04  0.30000000000E+03 0.  1.
     100001    1    1    2    0    0  0.32382886388E+04 -0.33377894960E+04 -0.45387220363E+04  0.65000000000E+04  0.15050000000E+03 0.  1.
     100001    1    1    2    0    0 -0.32382886388E+04  0.33377894960E+04  0.45387220363E+04  0.65000000000E+04  0.15050000000E+03 0. -1.
</event>
<event>
 4    1  0.4521369E-004  0.6500000E+04  0.7818608E-02  0.7223770E-01
         52   -1    0    0    0    0  0.00000000000E+00  0.00000000000E+00  0.64930732323E+04  0.65000000000E+04  0.30000000000E+03 0. -1.
        -52   -1    0    0    0    0 -0.00000000000E+00 -0.00000000000E+00 -0.64930732323E+04  0.65000000000E+04  0.30000000000E+03 0.  1.
     100001    1    1    2    0    0 -0.39689206413E+04 -0.34682204800E+04 -0.38008506147E+04  0.65000000000E+04  0.15050000000E+03 0.  1.
     100001    1    1    2    0    0  0.39689206413E+04  0.34682204800E+04  0.38008506147E+04  0.65000000000E+04  0.15050000000E+03 0. -1.
</event>
<event>
 4    1  0.4521369E-004  0.6500000E+04  0.7818608E-02  0.7223770E-01
         52   -1    0    0    0    0  0.00000000000E+00  0.00000000000E+00  0.64930732323E+04  0.65000000000E+04  0.30000000000E+03 0.  1.
        -52   -1    0    0    0    0 -0.00000000000E+00 -0.00000000000E+00 -0.64930732323E+04  0.65000000000E+04  0.30000000000E+03 0. -1.
     100001    1    1    2    0    0  0.26728796831E+04  0.28577892516E+04  0.51880732978E+04  0.65000000000E+04  0.15050000000E+03 0.  1.
     100001    1    1    2    0    0 -0.26728796831E+04 -0.28577892516E+04 -0.51880732978E+04  0.65000000000E+04  0.15050000000E+03 0. -1.
</event>
<event>
 4    1  0.4521369E-004  0.6500000E+04  0.7818608E-02  0.7223770E-01
         52   -1    0    0    0    0  0.00000000000E+00  0.00000000000E+00  0.64930732323E+04  0.65000000000E+04  0.30000000000E+03 0. -1.
        -52   -1    0    0    0    0 -0.00000000000E+00 -0.00000000000E+00 -0.64930732323E+04  0.65000000000E+04  0.30000000000E+03 0.  1.
     100001    1    1    2    0    0 -0.46999453631E+04 -0.30114057030E+04  0.33270556091E+04  0.65000000000E+04  0.15050000000E+03 0. -1.
     100001    1    1    2    0    0  0.46999453631E+04  0.30114057030E+04 -0.33270556091E+04  0.65000000000E+04  0.15050000000E+03 0.  1.
</event>
<event>
 4    1  0.4521369E-004  0.6500000E+04  0.7818608E-02  0.7223770E-01
         52   -1    0    0    0    0  0.00000000000E+00  0.00000000000E+00  0.64930732323E+04  0.65000000000E+04  0.30000000000E+03 0.  1.
        -52   -1    0    0    0    0 -0.00000000000E+00 -0.00000000000E+00 -0.64930732323E+04  0.65000000000E+04  0.30000000000E+03 0. -1.
     100001    1    1    2    0    0 -0.25108634841E+03  0.54905325562E+03 -0.64701503783E+04  0.65000000000E+04  0.15050000000E+03 0. -1.
     100001    1    1    2    0    0  0.25108634841E+03 -0.54905325562E+03  0.64701503783E+04  0.65000000000E+04  0.15050000000E+03 0.  1.
</event>
<event>
 4    1  0.4521369E-004  0.6500000E+04  0.7818608E-02  0.7223770E-01
         52   -1    0    0    0    0  0.00000000000E+00  0.00000000000E+00  0.64930732323E+04  0.65000000000E+04  0.30000000000E+03 0.  1.
        -52   -1    0    0    0    0 -0.00000000000E+00 -0.00000000000E+00 -0.64930732323E+04  0.65000000000E+04  0.30000000000E+03 0.  1.
     100001    1    1    2    0    0  0.32242990209E+03  0.51109848386E+03  0.64700979164E+04  0.65000000000E+04  0.15050000000E+03 0.  1.
     100001    1    1    2    0    0 -0.32242990209E+03 -0.51109848386E+03 -0.64700979164E+04  0.65000000000E+04  0.15050000000E+03 0.  1.
</event>
<event>
 4    1  0.4521369E-004  0.6500000E+04  0.7818608E-02  0.7223770E-01
         52   -1    0    0    0    0  0.00000000000E+00  0.00000000000E+00  0.64930732323E+04  0.65000000000E+04  0.30000000000E+03 0. -1.
        -52   -1    0    0    0    0 -0.00000000000E+00 -0.00000000000E+00 -0.64930732323E+04  0.65000000000E+04  0.30000000000E+03 0.  1.
     100001    1    1    2    0    0 -0.60370263963E+03 -0.57391786969E+02  0.64698994626E+04  0.65000000000E+04  0.15050000000E+03 0. -1.
     100001    1    1    2    0    0  0.60370263963E+03  0.57391786969E+02 -0.64698994626E+04  0.65000000000E+04  0.15050000000E+03 0.  1.
</event>
<event>
 4    1  0.4521369E-004  0.6500000E+04  0.7818608E-02  0.7223770E-01
         52   -1    0    0    0    0  0.00000000000E+00  0.00000000000E+00  0.64930732323E+04  0.65000000000E+04  0.30000000000E+03 0.  1.
        -52   -1    0    0    0    0 -0.00000000000E+00 -0.00000000000E+00 -0.64930732323E+04  0.65000000000E+04  0.30000000000E+03 0. -1.
     100001    1    1    2    0    0 -0.28511931976E+04 -0.24937524898E+04 -0.52800800770E+04  0.65000000000E+04  0.15050000000E+03 0. -1.
     100001    1    1    2    0    0  0.28511931976E+04  0.24937524898E+04  0.52800800770E+04  0.65000000000E+04  0.15050000000E+03 0.  1.
</event>
<event>
 4    1  0.4521369E-004  0.6500000E+04  0.7818608E-02  0.7223770E-01
         52   -1    0    0    0    0  0.00000000000E+00  0.00000000000E+00  0.64930732323E+04  0.65000000000E+04  0.30000000000E+03 0. -1.
        -52   -1    0    0    0    0 -0.00000000000E+00 -0.00000000000E+00 -0.64930732323E+04  0.65000000000E+04  0.30000000000E+03 0.  1.
     100001    1    1    2    0    0  0.44998153841E+03 -0.58315647928E+04 -0.28315575982E+04  0.65000000000E+04  0.15050000000E+03 0.  1.
     100001    1    1    2    0    0 -0.44998153841E+03  0.58315647928E+04  0.28315575982E+04  0.65000000000E+04  0.15050000000E+03 0. -1.
</event>
<event>
 4    1  0.4521369E-004  0.6500000E+04  0.7818608E-02  0.7223770E-01
         52   -1    0    0    0    0  0.00000000000E+00  0.00000000000E+00  0.64930732323E+04  0.65000000000E+04  0.30000000000E+03 0. -1.
        -52   -1    0    0    0    0 -0.00000000000E+00 -0.00000000000E+00 -0.64930732323E+04  0.65000000000E+04  0.30000000000E+03 0.  1.
     100001    1    1    2    0    0  0.14786195928E+01 -0.20495800709E+04  0.61665686647E+04  0.65000000000E+04  0.15050000000E+03 0. -1.
     100001    1    1    2    0    0 -0.14786195928E+01  0.20495800709E+04 -0.61665686647E+04  0.65000000000E+04  0.15050000000E+03 0.  1.
</event>
<event>
 4    1  0.4521369E-004  0.6500000E+04  0.7818608E-02  0.7223770E-01
         52   -1    0    0    0    0  0.00000000000E+00  0.00000000000E+00  0.64930732323E+04  0.65000000000E+04  0.30000000000E+03 0. -1.
        -52   -1    0    0    0    0 -0.00000000000E+00 -0.00000000000E+00 -0.64930732323E+04  0.65000000000E+04  0.30000000000E+03 0.  1.
     100001    1    1    2    0    0 -0.26835890442E+03  0.13955820782E+04 -0.63409529182E+04  0.65000000000E+04  0.15050000000E+03 0.  1.
     100001    1    1    2    0    0  0.26835890442E+03 -0.13955820782E+04  0.63409529182E+04  0.65000000000E+04  0.15050000000E+03 0. -1.
</event>
<event>
 4    1  0.4521369E-004  0.6500000E+04  0.7818608E-02  0.7223770E-01
         52   -1    0    0    0    0  0.00000000000E+00  0.00000000000E+00  0.64930732323E+04  0.65000000000E+04  0.30000000000E+03 0.  1.
        -52   -1    0    0    0    0 -0.00000000000E+00 -0.00000000000E+00 -0.64930732323E+04  0.65000000000E+04  0.30000000000E+03 0. -1.
     100001    1    1    2    0    0 -0.94310198765E+03  0.29943573595E+04 -0.56896161904E+04  0.65000000000E+04  0.15050000000E+03 0. -1.
     100001    1    1    2    0    0  0.94310198765E+03 -0.29943573595E+04  0.56896161904E+04  0.65000000000E+04  0.15050000000E+03 0.  1.
</event>
<event>
 4    1  0.4521369E-004  0.6500000E+04  0.7818608E-02  0.7223770E-01
         52   -1    0    0    0    0  0.00000000000E+00  0.00000000000E+00  0.64930732323E+04  0.65000000000E+04  0.30000000000E+03 0.  1.
        -52   -1    0    0    0    0 -0.00000000000E+00 -0.00000000000E+00 -0.64930732323E+04  0.65000000000E+04  0.30000000000E+03 0. -1.
     100001    1    1    2    0    0 -0.99942182620E+03 -0.20478238268E+04  0.60856325339E+04  0.65000000000E+04  0.15050000000E+03 0.  1.
     100001    1    1    2    0    0  0.99942182620E+03  0.20478238268E+04 -0.60856325339E+04  0.65000000000E+04  0.15050000000E+03 0. -1.
</event>
<event>
 4    1  0.4521369E-004  0.6500000E+04  0.7818608E-02  0.7223770E-01
         52   -1    0    0    0    0  0.00000000000E+00  0.00000000000E+00  0.64930732323E+04  0.65000000000E+04  0.30000000000E+03 0. -1.
        -52   -1    0    0    0    0 -0.00000000000E+00 -0.00000000000E+00 -0.64930732323E+04  0.65000000000E+04  0.30000000000E+03 0.  1.
     100001    1    1    2    0    0  0.38492862227E+03 -0.16348197401E+03 -0.64847862995E+04  0.65000000000E+04  0.15050000000E+03 0.  1.
     100001    1    1    2    0    0 -0.38492862227E+03  0.16348197401E+03  0.64847862995E+04  0.65000000000E+04  0.15050000000E+03 0. -1.
</event>
<event>
 4    1  0.4521369E-004  0.6500000E+04  0.7818608E-02  0.7223770E-01
         52   -1    0    0    0    0  0.00000000000E+00  0.00000000000E+00  0.64930732323E+04  0.65000000000E+04  0.30000000000E+03 0.  1.
        -52   -1    0    0    0    0 -0.00000000000E+00 -0.00000000000E+00 -0.64930732323E+04  0.65000000000E+04  0.30000000000E+03 0. -1.
     100001    1    1    2    0    0  0.15952231052E+02 -0.11050702783E+04 -0.64035861013E+04  0.65000000000E+04  0.15050000000E+03 0. -1.
     100001    1    1    2    0    0 -0.15952231052E+02  0.11050702783E+04  0.64035861013E+04  0.65000000000E+04  0.15050000000E+03 0.  1.
</event>
<event>
 4    1  0.4521369E-004  0.6500000E+04  0.7818608E-02  0.7223770E-01
         52   -1    0    0    0    0  0.00000000000E+00  0.00000000000E+00  0.64930732323E+04  0.65000000000E+04  0.30000000000E+03 0. -1.
        -52   -1    0    0    0    0 -0.00000000000E+00 -0.00000000000E+00 -0.64930732323E+04  0.65000000000E+04  0.30000000000E+03 0. -1.
     100001    1    1    2    0    0  0.34426789320E+03  0.74560018715E+03  0.64461546467E+04  0.65000000000E+04  0.15050000000E+03 0. -1.
     100001    1    1    2    0    0 -0.34426789320E+03 -0.74560018715E+03 -0.64461546467E+04  0.65000000000E+04  0.15050000000E+03 0. -1.
</event>
<event>
 4    1  0.4521369E-004  0.6500000E+04  0.7818608E-02  0.7223770E-01
         52   -1    0    0    0    0  0.00000000000E+00  0.00000000000E+00  0.64930732323E+04  0.65000000000E+04  0.30000000000E+03 0. -1.
        -52   -1    0    0    0    0 -0.00000000000E+00 -0.00000000000E+00 -0.64930732323E+04  0.65000000000E+04  0.30000000000E+03 0.  1.
     100001    1    1    2    0    0 -0.13861485566E+04  0.51980752170E+04  0.36449905304E+04  0.65000000000E+04  0.15050000000E+03 0. -1.
     100001    1    1    2    0    0  0.13861485566E+04 -0.51980752170E+04 -0.36449905304E+04  0.65000000000E+04  0.15050000000E+03 0.  1.
</event>
<event>
 4    1  0.4521369E-004  0.6500000E+04  0.7818608E-02  0.7223770E-01
         52   -1    0    0    0    0  0.00000000000E+00  0.00000000000E+00  0.64930732323E+04  0.65000000000E+04  0.30000000000E+03 0. -1.
        -52   -1    0    0    0    0 -0.00000000000E+00 -0.00000000000E+00 -0.64930732323E+04  0.65000000000E+04  0.30000000000E+03 0.  1.
     100001    1    1    2    0    0 -0.23730519023E+03 -0.98046234462E+03 -0.64194804764E+04  0.65000000000E+04  0.15050000000E+03 0.  1.
     100001    1    1    2    0    0  0.23730519023E+03  0.98046234462E+03  0.64194804764E+04  0.65000000000E+04  0.15050000000E+03 0. -1.
</event>
<event>
 4    1  0.4521369E-004  0.6500000E+04  0.7818608E-02  0.7223770E-01
         52   -1    0    0    0    0  0.00000000000E+00  0.00000000000E+00  0.64930732323E+04  0.65000000000E+04  0.30000000000E+03 0. -1.
        -52   -1    0    0    0    0 -0.00000000000E+00 -0.00000000000E+00 -0.64930732323E+04  0.65000000000E+04  0.30000000000E+03 0.  1.
     100001    1    1    2    0    0 -0.70768209914E+03  0.35370776341E+03 -0.64499167913E+04  0.65000000000E+04  0.15050000000E+03 0.  1.
     100001    1    1    2    0    0  0.70768209914E+03 -0.35370776341E+03  0.64499167913E+04  0.65000000000E+04  0.15050000000E+03 0. -1.
</event>
<event>
 4    1  0.4521369E-004  0.6500000E+04  0.7818608E-02  0.7223770E-01
         52   -1    0    0    0    0  0.00000000000E+00  0.00000000000E+00  0.64930732323E+04  0.65000000000E+04  0.30000000000E+03 0. -1.
        -52   -1    0    0    0    0 -0.00000000000E+00 -0.00000000000E+00 -0.64930732323E+04  0.65000000000E+04  0.30000000000E+03 0.  1.
     100001    1    1    2    0    0 -0.36855662700E+03  0.82641823966E+03  0.64349474478E+04  0.65000000000E+04  0.15050000000E+03 0. -1.
     100001    1    1    2    0    0  0.36855662700E+03 -0.82641823966E+03 -0.64349474478E+04  0.65000000000E+04  0.15050000000E+03 0.  1.
</event>
<event>
 4    1  0.4521369E-004  0.6500000E+04  0.7818608E-02  0.7223770E-01
         52   -1    0    0    0    0  0.00000000000E+00  0.00000000000E+00  0.64930732323E+04  0.65000000000E+04  0.30000000000E+03 0.  1.
        -52   -1    0    0    0    0 -0.00000000000E+00 -0.00000000000E+00 -0.64930732323E+04  0.65000000000E+04  0.30000000000E+03 0. -1.
     100001    1    1    2    0    0  0.13302755041E+03 -0.53528708788E+03 -0.64748066500E+04  0.65000000000E+04  0.15050000000E+03 0. -1.
     100001    1    1    2    0    0 -0.13302755041E+03  0.53528708788E+03  0.64748066500E+04  0.65000000000E+04  0.15050000000E+03 0.  1.
</event>
<event>
 4    1  0.4521369E-004  0.6500000E+04  0.7818608E-02  0.7223770E-01
         52   -1    0    0    0    0  0.00000000000E+00  0.00000000000E+00  0.64930732323E+04  0.65000000000E+04  0.30000000000E+03 0.  1.
        -52   -1    0    0    0    0 -0.00000000000E+00 -0.00000000000E+00 -0.64930732323E+04  0.65000000000E+04  0.30000000000E+03 0. -1.
     100001    1    1    2    0    0  0.28376780055E+03  0.46244587888E+03 -0.64755671099E+04  0.65000000000E+04  0.15050000000E+03 0. -1.
     100001    1    1    2    0    0 -0.28376780055E+03 -0.46244587888E+03  0.64755671099E+04  0.65000000000E+04  0.15050000000E+03 0.  1.
</event>
<event>
 4    1  0.4521369E-004  0.6500000E+04  0.7818608E-02  0.7223770E-01
         52   -1    0    0    0    0  0.00000000000E+00  0.00000000000E+00  0.64930732323E+04  0.65000000000E+04  0.30000000000E+03 0. -1.
        -52   -1    0    0    0    0 -0.00000000000E+00 -0.00000000000E+00 -0.64930732323E+04  0.65000000000E+04  0.30000000000E+03 0.  1.
     100001    1    1    2    0    0  0.35782563611E+03  0.50223179120E+02  0.64882037727E+04  0.65000000000E+04  0.15050000000E+03 0. -1.
     100001    1    1    2    0    0 -0.35782563611E+03 -0.50223179120E+02 -0.64882037727E+04  0.65000000000E+04  0.15050000000E+03 0.  1.
</event>
<event>
 4    1  0.4521369E-004  0.6500000E+04  0.7818608E-02  0.7223770E-01
         52   -1    0    0    0    0  0.00000000000E+00  0.00000000000E+00  0.64930732323E+04  0.65000000000E+04  0.30000000000E+03 0.  1.
        -52   -1    0    0    0    0 -0.00000000000E+00 -0.00000000000E+00 -0.64930732323E+04  0.65000000000E+04  0.30000000000E+03 0. -1.
     100001    1    1    2    0    0 -0.24601808863E+04  0.22247973720E+04 -0.55879456342E+04  0.65000000000E+04  0.15050000000E+03 0. -1.
     100001    1    1    2    0    0  0.24601808863E+04 -0.22247973720E+04  0.55879456342E+04  0.65000000000E+04  0.15050000000E+03 0.  1.
</event>
<event>
 4    1  0.4521369E-004  0.6500000E+04  0.7818608E-02  0.7223770E-01
         52   -1    0    0    0    0  0.00000000000E+00  0.00000000000E+00  0.64930732323E+04  0.65000000000E+04  0.30000000000E+03 0.  1.
        -52   -1    0    0    0    0 -0.00000000000E+00 -0.00000000000E+00 -0.64930732323E+04  0.65000000000E+04  0.30000000000E+03 0. -1.
     100001    1    1    2    0    0 -0.93839010058E+03  0.35215431723E+03 -0.64204953941E+04  0.65000000000E+04  0.15050000000E+03 0. -1.
     100001    1    1    2    0    0  0.93839010058E+03 -0.35215431723E+03  0.64204953941E+04  0.65000000000E+04  0.15050000000E+03 0.  1.
</event>
<event>
 4    1  0.4521369E-004  0.6500000E+04  0.7818608E-02  0.7223770E-01
         52   -1    0    0    0    0  0.00000000000E+00  0.00000000000E+00  0.64930732323E+04  0.65000000000E+04  0.30000000000E+03 0. -1.
        -52   -1    0    0    0    0 -0.00000000000E+00 -0.00000000000E+00 -0.64930732323E+04  0.65000000000E+04  0.30000000000E+03 0. -1.
     100001    1    1    2    0    0 -0.43656247880E+03  0.27944939387E+03 -0.64775513111E+04  0.65000000000E+04  0.15050000000E+03 0. -1.
     100001    1    1    2    0    0  0.43656247880E+03 -0.27944939387E+03  0.64775513111E+04  0.65000000000E+04  0.15050000000E+03 0. -1.
</event>
<event>
 4    1  0.4521369E-004  0.6500000E+04  0.7818608E-02  0.7223770E-01
         52   -1    0    0    0    0  0.00000000000E+00  0.00000000000E+00  0.64930732323E+04  0.65000000000E+04  0.30000000000E+03 0.  1.
        -52   -1    0    0    0    0 -0.00000000000E+00 -0.00000000000E+00 -0.64930732323E+04  0.65000000000E+04  0.30000000000E+03 0. -1.
     100001    1    1    2    0    0  0.11452997917E+04 -0.29291579777E+03 -0.63898230392E+04  0.65000000000E+04  0.15050000000E+03 0. -1.
     100001    1    1    2    0    0 -0.11452997917E+04  0.29291579777E+03  0.63898230392E+04  0.65000000000E+04  0.15050000000E+03 0.  1.
</event>
<event>
 4    1  0.4521369E-004  0.6500000E+04  0.7818608E-02  0.7223770E-01
         52   -1    0    0    0    0  0.00000000000E+00  0.00000000000E+00  0.64930732323E+04  0.65000000000E+04  0.30000000000E+03 0.  1.
        -52   -1    0    0    0    0 -0.00000000000E+00 -0.00000000000E+00 -0.64930732323E+04  0.65000000000E+04  0.30000000000E+03 0. -1.
     100001    1    1    2    0    0 -0.25674861643E+03  0.20765783369E+03  0.64898619494E+04  0.65000000000E+04  0.15050000000E+03 0.  1.
     100001    1    1    2    0    0  0.25674861643E+03 -0.20765783369E+03 -0.64898619494E+04  0.65000000000E+04  0.15050000000E+03 0. -1.
</event>
<event>
 4    1  0.4521369E-004  0.6500000E+04  0.7818608E-02  0.7223770E-01
         52   -1    0    0    0    0  0.00000000000E+00  0.00000000000E+00  0.64930732323E+04  0.65000000000E+04  0.30000000000E+03 0. -1.
        -52   -1    0    0    0    0 -0.00000000000E+00 -0.00000000000E+00 -0.64930732323E+04  0.65000000000E+04  0.30000000000E+03 0.  1.
     100001    1    1    2    0    0  0.35487065367E+04  0.44443588813E+04 -0.31435180612E+04  0.65000000000E+04  0.15050000000E+03 0.  1.
     100001    1    1    2    0    0 -0.35487065367E+04 -0.44443588813E+04  0.31435180612E+04  0.65000000000E+04  0.15050000000E+03 0. -1.
</event>
<event>
 4    1  0.4521369E-004  0.6500000E+04  0.7818608E-02  0.7223770E-01
         52   -1    0    0    0    0  0.00000000000E+00  0.00000000000E+00  0.64930732323E+04  0.65000000000E+04  0.30000000000E+03 0.  1.
        -52   -1    0    0    0    0 -0.00000000000E+00 -0.00000000000E+00 -0.64930732323E+04  0.65000000000E+04  0.30000000000E+03 0. -1.
     100001    1    1    2    0    0 -0.20247842522E+04 -0.47758929966E+04  0.39138784558E+04  0.65000000000E+04  0.15050000000E+03 0.  1.
     100001    1    1    2    0    0  0.20247842522E+04  0.47758929966E+04 -0.39138784558E+04  0.65000000000E+04  0.15050000000E+03 0. -1.
</event>
<event>
 4    1  0.4521369E-004  0.6500000E+04  0.7818608E-02  0.7223770E-01
         52   -1    0    0    0    0  0.00000000000E+00  0.00000000000E+00  0.64930732323E+04  0.65000000000E+04  0.30000000000E+03 0.  1.
        -52   -1    0    0    0    0 -0.00000000000E+00 -0.00000000000E+00 -0.64930732323E+04  0.65000000000E+04  0.30000000000E+03 0. -1.
     100001    1    1    2    0    0 -0.41569310730E+03 -0.77573592772E+02 -0.64844838907E+04  0.65000000000E+04  0.15050000000E+03 0. -1.
     100001    1    1    2    0    0  0.41569310730E+03  0.77573592772E+02  0.64844838907E+04  0.65000000000E+04  0.15050000000E+03 0.  1.
</event>
<event>
 4    1  0.4521369E-004  0.6500000E+04  0.7818608E-02  0.7223770E-01
         52   -1    0    0    0    0  0.00000000000E+00  0.00000000000E+00  0.64930732323E+04  0.65000000000E+04  0.30000000000E+03 0.  1.
        -52   -1    0    0    0    0 -0.00000000000E+00 -0.00000000000E+00 -0.64930732323E+04  0.65000000000E+04  0.30000000000E+03 0. -1.
     100001    1    1    2    0    0  0.13039520601E+04 -0.36913577057E+04 -0.51866113276E+04  0.65000000000E+04  0.15050000000E+03 0. -1.
     100001    1    1    2    0    0 -0.13039520601E+04  0.36913577057E+04  0.51866113276E+04  0.65000000000E+04  0.15050000000E+03 0.  1.
</event>
<event>
 4    1  0.4521369E-004  0.6500000E+04  0.7818608E-02  0.7223770E-01
         52   -1    0    0    0    0  0.00000000000E+00  0.00000000000E+00  0.64930732323E+04  0.65000000000E+04  0.30000000000E+03 0.  1.
        -52   -1    0    0    0    0 -0.00000000000E+00 -0.00000000000E+00 -0.64930732323E+04  0.65000000000E+04  0.30000000000E+03 0. -1.
     100001    1    1    2    0    0 -0.87844442177E+03  0.23485984502E+04  0.59949787712E+04  0.65000000000E+04  0.15050000000E+03 0.  1.
     100001    1    1    2    0    0  0.87844442177E+03 -0.23485984502E+04 -0.59949787712E+04  0.65000000000E+04  0.15050000000E+03 0. -1.
</event>
<event>
 4    1  0.4596995E-004  0.6500000E+04  0.7818608E-02  0.7223770E-01
         52   -1    0    0    0    0  0.00000000000E+00  0.00000000000E+00  0.64930732323E+04  0.65000000000E+04  0.30000000000E+03 0. -1.
        -52   -1    0    0    0    0 -0.00000000000E+00 -0.00000000000E+00 -0.64930732323E+04  0.65000000000E+04  0.30000000000E+03 0. -1.
     100001    1    1    2    0    0  0.13827570346E+03  0.18678654854E+03 -0.64941004277E+04  0.65000000000E+04  0.15050000000E+03 0. -1.
     100001    1    1    2    0    0 -0.13827570346E+03 -0.18678654854E+03  0.64941004277E+04  0.65000000000E+04  0.15050000000E+03 0. -1.
</event>
<event>
 4    1  0.4521369E-004  0.6500000E+04  0.7818608E-02  0.7223770E-01
         52   -1    0    0    0    0  0.00000000000E+00  0.00000000000E+00  0.64930732323E+04  0.65000000000E+04  0.30000000000E+03 0.  1.
        -52   -1    0    0    0    0 -0.00000000000E+00 -0.00000000000E+00 -0.64930732323E+04  0.65000000000E+04  0.30000000000E+03 0. -1.
     100001    1    1    2    0    0  0.17771509307E+03  0.88646764231E+03  0.64350557274E+04  0.65000000000E+04  0.15050000000E+03 0.  1.
     100001    1    1    2    0    0 -0.17771509307E+03 -0.88646764231E+03 -0.64350557274E+04  0.65000000000E+04  0.15050000000E+03 0. -1.
</event>
<event>
 4    1  0.4521369E-004  0.6500000E+04  0.7818608E-02  0.7223770E-01
         52   -1    0    0    0    0  0.00000000000E+00  0.00000000000E+00  0.64930732323E+04  0.65000000000E+04  0.30000000000E+03 0. -1.
        -52   -1    0    0    0    0 -0.00000000000E+00 -0.00000000000E+00 -0.64930732323E+04  0.65000000000E+04  0.30000000000E+03 0.  1.
     100001    1    1    2    0    0  0.29527779793E+04 -0.51824790940E+04 -0.25788296562E+04  0.65000000000E+04  0.15050000000E+03 0.  1.
     100001    1    1    2    0    0 -0.29527779793E+04  0.51824790940E+04  0.25788296562E+04  0.65000000000E+04  0.15050000000E+03 0. -1.
</event>
<event>
 4    1  0.4521369E-004  0.6500000E+04  0.7818608E-02  0.7223770E-01
         52   -1    0    0    0    0  0.00000000000E+00  0.00000000000E+00  0.64930732323E+04  0.65000000000E+04  0.30000000000E+03 0. -1.
        -52   -1    0    0    0    0 -0.00000000000E+00 -0.00000000000E+00 -0.64930732323E+04  0.65000000000E+04  0.30000000000E+03 0.  1.
     100001    1    1    2    0    0 -0.17525683576E+04  0.68379414633E+03  0.62199903109E+04  0.65000000000E+04  0.15050000000E+03 0. -1.
     100001    1    1    2    0    0  0.17525683576E+04 -0.68379414633E+03 -0.62199903109E+04  0.65000000000E+04  0.15050000000E+03 0.  1.
</event>
<event>
 4    1  0.4521369E-004  0.6500000E+04  0.7818608E-02  0.7223770E-01
         52   -1    0    0    0    0  0.00000000000E+00  0.00000000000E+00  0.64930732323E+04  0.65000000000E+04  0.30000000000E+03 0. -1.
        -52   -1    0    0    0    0 -0.00000000000E+00 -0.00000000000E+00 -0.64930732323E+04  0.65000000000E+04  0.30000000000E+03 0.  1.
     100001    1    1    2    0    0 -0.22696889483E+03 -0.11967751752E+04 -0.63830685451E+04  0.65000000000E+04  0.15050000000E+03 0.  1.
     100001    1    1    2    0    0  0.22696889483E+03  0.11967751752E+04  0.63830685451E+04  0.65000000000E+04  0.15050000000E+03 0. -1.
</event>
<event>
 4    1  0.4521369E-004  0.6500000E+04  0.7818608E-02  0.7223770E-01
         52   -1    0    0    0    0  0.00000000000E+00  0.00000000000E+00  0.64930732323E+04  0.65000000000E+04  0.30000000000E+03 0.  1.
        -52   -1    0    0    0    0 -0.00000000000E+00 -0.00000000000E+00 -0.64930732323E+04  0.65000000000E+04  0.30000000000E+03 0. -1.
     100001    1    1    2    0    0  0.37663378523E+04 -0.29203777150E+03  0.52874155192E+04  0.65000000000E+04  0.15050000000E+03 0.  1.
     100001    1    1    2    0    0 -0.37663378523E+04  0.29203777150E+03 -0.52874155192E+04  0.65000000000E+04  0.15050000000E+03 0. -1.
</event>
<event>
 4    1  0.4521369E-004  0.6500000E+04  0.7818608E-02  0.7223770E-01
         52   -1    0    0    0    0  0.00000000000E+00  0.00000000000E+00  0.64930732323E+04  0.65000000000E+04  0.30000000000E+03 0. -1.
        -52   -1    0    0    0    0 -0.00000000000E+00 -0.00000000000E+00 -0.64930732323E+04  0.65000000000E+04  0.30000000000E+03 0.  1.
     100001    1    1    2    0    0 -0.13533875318E+03  0.50436235686E+04 -0.40952282562E+04  0.65000000000E+04  0.15050000000E+03 0.  1.
     100001    1    1    2    0    0  0.13533875318E+03 -0.50436235686E+04  0.40952282562E+04  0.65000000000E+04  0.15050000000E+03 0. -1.
</event>
<event>
 4    1  0.4521369E-004  0.6500000E+04  0.7818608E-02  0.7223770E-01
         52   -1    0    0    0    0  0.00000000000E+00  0.00000000000E+00  0.64930732323E+04  0.65000000000E+04  0.30000000000E+03 0.  1.
        -52   -1    0    0    0    0 -0.00000000000E+00 -0.00000000000E+00 -0.64930732323E+04  0.65000000000E+04  0.30000000000E+03 0. -1.
     100001    1    1    2    0    0 -0.15099498733E+04 -0.39571720819E+03  0.63079956422E+04  0.65000000000E+04  0.15050000000E+03 0.  1.
     100001    1    1    2    0    0  0.15099498733E+04  0.39571720819E+03 -0.63079956422E+04  0.65000000000E+04  0.15050000000E+03 0. -1.
</event>
<event>
 4    1  0.4521369E-004  0.6500000E+04  0.7818608E-02  0.7223770E-01
         52   -1    0    0    0    0  0.00000000000E+00  0.00000000000E+00  0.64930732323E+04  0.65000000000E+04  0.30000000000E+03 0. -1.
        -52   -1    0    0    0    0 -0.00000000000E+00 -0.00000000000E+00 -0.64930732323E+04  0.65000000000E+04  0.30000000000E+03 0.  1.
     100001    1    1    2    0    0  0.37394377847E+03 -0.14343439855E+04  0.63269402662E+04  0.65000000000E+04  0.15050000000E+03 0. -1.
     100001    1    1    2    0    0 -0.37394377847E+03  0.14343439855E+04 -0.63269402662E+04  0.65000000000E+04  0.15050000000E+03 0.  1.
</event>
<event>
 4    1  0.4521369E-004  0.6500000E+04  0.7818608E-02  0.7223770E-01
         52   -1    0    0    0    0  0.00000000000E+00  0.00000000000E+00  0.64930732323E+04  0.65000000000E+04  0.30000000000E+03 0.  1.
        -52   -1    0    0    0    0 -0.00000000000E+00 -0.00000000000E+00 -0.64930732323E+04  0.65000000000E+04  0.30000000000E+03 0.  1.
     100001    1    1    2    0    0 -0.33120611290E+03 -0.97457664777E+02  0.64890796161E+04  0.65000000000E+04  0.15050000000E+03 0.  1.
     100001    1    1    2    0    0  0.33120611290E+03  0.97457664777E+02 -0.64890796161E+04  0.65000000000E+04  0.15050000000E+03 0.  1.
</event>
<event>
 4    1  0.4521369E-004  0.6500000E+04  0.7818608E-02  0.7223770E-01
         52   -1    0    0    0    0  0.00000000000E+00  0.00000000000E+00  0.64930732323E+04  0.65000000000E+04  0.30000000000E+03 0. -1.
        -52   -1    0    0    0    0 -0.00000000000E+00 -0.00000000000E+00 -0.64930732323E+04  0.65000000000E+04  0.30000000000E+03 0. -1.
     100001    1    1    2    0    0  0.93751279705E+02  0.92208515270E+03  0.64318208478E+04  0.65000000000E+04  0.15050000000E+03 0. -1.
     100001    1    1    2    0    0 -0.93751279705E+02 -0.92208515270E+03 -0.64318208478E+04  0.65000000000E+04  0.15050000000E+03 0. -1.
</event>
<event>
 4    1  0.4521369E-004  0.6500000E+04  0.7818608E-02  0.7223770E-01
         52   -1    0    0    0    0  0.00000000000E+00  0.00000000000E+00  0.64930732323E+04  0.65000000000E+04  0.30000000000E+03 0. -1.
        -52   -1    0    0    0    0 -0.00000000000E+00 -0.00000000000E+00 -0.64930732323E+04  0.65000000000E+04  0.30000000000E+03 0.  1.
     100001    1    1    2    0    0 -0.13065095430E+02 -0.90253583169E+03  0.64352628638E+04  0.65000000000E+04  0.15050000000E+03 0. -1.
     100001    1    1    2    0    0  0.13065095430E+02  0.90253583169E+03 -0.64352628638E+04  0.65000000000E+04  0.15050000000E+03 0.  1.
</event>
<event>
 4    1  0.4521369E-004  0.6500000E+04  0.7818608E-02  0.7223770E-01
         52   -1    0    0    0    0  0.00000000000E+00  0.00000000000E+00  0.64930732323E+04  0.65000000000E+04  0.30000000000E+03 0.  1.
        -52   -1    0    0    0    0 -0.00000000000E+00 -0.00000000000E+00 -0.64930732323E+04  0.65000000000E+04  0.30000000000E+03 0. -1.
     100001    1    1    2    0    0 -0.12385371876E+04  0.19257333841E+04  0.60815233551E+04  0.65000000000E+04  0.15050000000E+03 0.  1.
     100001    1    1    2    0    0  0.12385371876E+04 -0.19257333841E+04 -0.60815233551E+04  0.65000000000E+04  0.15050000000E+03 0. -1.
</event>
<event>
 4    1  0.4521369E-004  0.6500000E+04  0.7818608E-02  0.7223770E-01
         52   -1    0    0    0    0  0.00000000000E+00  0.00000000000E+00  0.64930732323E+04  0.65000000000E+04  0.30000000000E+03 0.  1.
        -52   -1    0    0    0    0 -0.00000000000E+00 -0.00000000000E+00 -0.64930732323E+04  0.65000000000E+04  0.30000000000E+03 0. -1.
     100001    1    1    2    0    0  0.17477815480E+04 -0.32050035107E+04  0.53759242840E+04  0.65000000000E+04  0.15050000000E+03 0.  1.
     100001    1    1    2    0    0 -0.17477815480E+04  0.32050035107E+04 -0.53759242840E+04  0.65000000000E+04  0.15050000000E+03 0. -1.
</event>
<event>
 4    1  0.4521369E-004  0.6500000E+04  0.7818608E-02  0.7223770E-01
         52   -1    0    0    0    0  0.00000000000E+00  0.00000000000E+00  0.64930732323E+04  0.65000000000E+04  0.30000000000E+03 0.  1.
        -52   -1    0    0    0    0 -0.00000000000E+00 -0.00000000000E+00 -0.64930732323E+04  0.65000000000E+04  0.30000000000E+03 0. -1.
     100001    1    1    2    0    0  0.18547459356E+04  0.58590932499E+04 -0.21114671565E+04  0.65000000000E+04  0.15050000000E+03 0. -1.
     100001    1    1    2    0    0 -0.18547459356E+04 -0.58590932499E+04  0.21114671565E+04  0.65000000000E+04  0.15050000000E+03 0.  1.
</event>
<event>
 4    1  0.4521369E-004  0.6500000E+04  0.7818608E-02  0.7223770E-01
         52   -1    0    0    0    0  0.00000000000E+00  0.00000000000E+00  0.64930732323E+04  0.65000000000E+04  0.30000000000E+03 0.  1.
        -52   -1    0    0    0    0 -0.00000000000E+00 -0.00000000000E+00 -0.64930732323E+04  0.65000000000E+04  0.30000000000E+03 0. -1.
     100001    1    1    2    0    0  0.15767026331E+04 -0.72715237058E+03  0.62619971245E+04  0.65000000000E+04  0.15050000000E+03 0.  1.
     100001    1    1    2    0    0 -0.15767026331E+04  0.72715237058E+03 -0.62619971245E+04  0.65000000000E+04  0.15050000000E+03 0. -1.
</event>
<event>
 4    1  0.4521369E-004  0.6500000E+04  0.7818608E-02  0.7223770E-01
         52   -1    0    0    0    0  0.00000000000E+00  0.00000000000E+00  0.64930732323E+04  0.65000000000E+04  0.30000000000E+03 0. -1.
        -52   -1    0    0    0    0 -0.00000000000E+00 -0.00000000000E+00 -0.64930732323E+04  0.65000000000E+04  0.30000000000E+03 0.  1.
     100001    1    1    2    0    0  0.16120804395E+04 -0.66125106328E+03 -0.62602949961E+04  0.65000000000E+04  0.15050000000E+03 0.  1.
     100001    1    1    2    0    0 -0.16120804395E+04  0.66125106328E+03  0.62602949961E+04  0.65000000000E+04  0.15050000000E+03 0. -1.
</event>
<event>
 4    1  0.4521369E-004  0.6500000E+04  0.7818608E-02  0.7223770E-01
         52   -1    0    0    0    0  0.00000000000E+00  0.00000000000E+00  0.64930732323E+04  0.65000000000E+04  0.30000000000E+03 0.  1.
        -52   -1    0    0    0    0 -0.00000000000E+00 -0.00000000000E+00 -0.64930732323E+04  0.65000000000E+04  0.30000000000E+03 0. -1.
     100001    1    1    2    0    0 -0.52981714329E+04  0.34244186404E+04 -0.15588733728E+04  0.65000000000E+04  0.15050000000E+03 0.  1.
     100001    1    1    2    0    0  0.52981714329E+04 -0.34244186404E+04  0.15588733728E+04  0.65000000000E+04  0.15050000000E+03 0. -1.
</event>
<event>
 4    1  0.4521369E-004  0.6500000E+04  0.7818608E-02  0.7223770E-01
         52   -1    0    0    0    0  0.00000000000E+00  0.00000000000E+00  0.64930732323E+04  0.65000000000E+04  0.30000000000E+03 0.  1.
        -52   -1    0    0    0    0 -0.00000000000E+00 -0.00000000000E+00 -0.64930732323E+04  0.65000000000E+04  0.30000000000E+03 0. -1.
     100001    1    1    2    0    0 -0.24331468409E+04 -0.62625973648E+03 -0.59929078871E+04  0.65000000000E+04  0.15050000000E+03 0. -1.
     100001    1    1    2    0    0  0.24331468409E+04  0.62625973648E+03  0.59929078871E+04  0.65000000000E+04  0.15050000000E+03 0.  1.
</event>
<event>
 4    1  0.4521369E-004  0.6500000E+04  0.7818608E-02  0.7223770E-01
         52   -1    0    0    0    0  0.00000000000E+00  0.00000000000E+00  0.64930732323E+04  0.65000000000E+04  0.30000000000E+03 0. -1.
        -52   -1    0    0    0    0 -0.00000000000E+00 -0.00000000000E+00 -0.64930732323E+04  0.65000000000E+04  0.30000000000E+03 0.  1.
     100001    1    1    2    0    0 -0.14098044055E+03  0.18857895088E+04  0.62170147333E+04  0.65000000000E+04  0.15050000000E+03 0. -1.
     100001    1    1    2    0    0  0.14098044055E+03 -0.18857895088E+04 -0.62170147333E+04  0.65000000000E+04  0.15050000000E+03 0.  1.
</event>
<event>
 4    1  0.4521369E-004  0.6500000E+04  0.7818608E-02  0.7223770E-01
         52   -1    0    0    0    0  0.00000000000E+00  0.00000000000E+00  0.64930732323E+04  0.65000000000E+04  0.30000000000E+03 0. -1.
        -52   -1    0    0    0    0 -0.00000000000E+00 -0.00000000000E+00 -0.64930732323E+04  0.65000000000E+04  0.30000000000E+03 0.  1.
     100001    1    1    2    0    0 -0.10221092932E+03 -0.96889752232E+02 -0.64967311051E+04  0.65000000000E+04  0.15050000000E+03 0.  1.
     100001    1    1    2    0    0  0.10221092932E+03  0.96889752232E+02  0.64967311051E+04  0.65000000000E+04  0.15050000000E+03 0. -1.
</event>
<event>
 4    1  0.4521369E-004  0.6500000E+04  0.7818608E-02  0.7223770E-01
         52   -1    0    0    0    0  0.00000000000E+00  0.00000000000E+00  0.64930732323E+04  0.65000000000E+04  0.30000000000E+03 0. -1.
        -52   -1    0    0    0    0 -0.00000000000E+00 -0.00000000000E+00 -0.64930732323E+04  0.65000000000E+04  0.30000000000E+03 0.  1.
     100001    1    1    2    0    0 -0.20421811817E+04  0.16196431265E+04  0.59526130324E+04  0.65000000000E+04  0.15050000000E+03 0. -1.
     100001    1    1    2    0    0  0.20421811817E+04 -0.16196431265E+04 -0.59526130324E+04  0.65000000000E+04  0.15050000000E+03 0.  1.
</event>
<event>
 4    1  0.4521369E-004  0.6500000E+04  0.7818608E-02  0.7223770E-01
         52   -1    0    0    0    0  0.00000000000E+00  0.00000000000E+00  0.64930732323E+04  0.65000000000E+04  0.30000000000E+03 0. -1.
        -52   -1    0    0    0    0 -0.00000000000E+00 -0.00000000000E+00 -0.64930732323E+04  0.65000000000E+04  0.30000000000E+03 0.  1.
     100001    1    1    2    0    0 -0.50345550914E+03 -0.83402320856E+03 -0.64248180977E+04  0.65000000000E+04  0.15050000000E+03 0.  1.
     100001    1    1    2    0    0  0.50345550914E+03  0.83402320856E+03  0.64248180977E+04  0.65000000000E+04  0.15050000000E+03 0. -1.
</event>
<event>
 4    1  0.4521369E-004  0.6500000E+04  0.7818608E-02  0.7223770E-01
         52   -1    0    0    0    0  0.00000000000E+00  0.00000000000E+00  0.64930732323E+04  0.65000000000E+04  0.30000000000E+03 0. -1.
        -52   -1    0    0    0    0 -0.00000000000E+00 -0.00000000000E+00 -0.64930732323E+04  0.65000000000E+04  0.30000000000E+03 0.  1.
     100001    1    1    2    0    0  0.47198810238E+03 -0.72186349250E+03 -0.64407678175E+04  0.65000000000E+04  0.15050000000E+03 0.  1.
     100001    1    1    2    0    0 -0.47198810238E+03  0.72186349250E+03  0.64407678175E+04  0.65000000000E+04  0.15050000000E+03 0. -1.
</event>
<event>
 4    1  0.4521369E-004  0.6500000E+04  0.7818608E-02  0.7223770E-01
         52   -1    0    0    0    0  0.00000000000E+00  0.00000000000E+00  0.64930732323E+04  0.65000000000E+04  0.30000000000E+03 0.  1.
        -52   -1    0    0    0    0 -0.00000000000E+00 -0.00000000000E+00 -0.64930732323E+04  0.65000000000E+04  0.30000000000E+03 0.  1.
     100001    1    1    2    0    0  0.13733743523E+04 -0.11821448253E+04 -0.62404908662E+04  0.65000000000E+04  0.15050000000E+03 0.  1.
     100001    1    1    2    0    0 -0.13733743523E+04  0.11821448253E+04  0.62404908662E+04  0.65000000000E+04  0.15050000000E+03 0.  1.
</event>
<event>
 4    1  0.4521369E-004  0.6500000E+04  0.7818608E-02  0.7223770E-01
         52   -1    0    0    0    0  0.00000000000E+00  0.00000000000E+00  0.64930732323E+04  0.65000000000E+04  0.30000000000E+03 0. -1.
        -52   -1    0    0    0    0 -0.00000000000E+00 -0.00000000000E+00 -0.64930732323E+04  0.65000000000E+04  0.30000000000E+03 0.  1.
     100001    1    1    2    0    0  0.58876725166E+04  0.19705462328E+04 -0.19182308598E+04  0.65000000000E+04  0.15050000000E+03 0.  1.
     100001    1    1    2    0    0 -0.58876725166E+04 -0.19705462328E+04  0.19182308598E+04  0.65000000000E+04  0.15050000000E+03 0. -1.
</event>
<event>
 4    1  0.4521369E-004  0.6500000E+04  0.7818608E-02  0.7223770E-01
         52   -1    0    0    0    0  0.00000000000E+00  0.00000000000E+00  0.64930732323E+04  0.65000000000E+04  0.30000000000E+03 0. -1.
        -52   -1    0    0    0    0 -0.00000000000E+00 -0.00000000000E+00 -0.64930732323E+04  0.65000000000E+04  0.30000000000E+03 0. -1.
     100001    1    1    2    0    0 -0.46628442780E+03 -0.14201639912E+03 -0.64799506113E+04  0.65000000000E+04  0.15050000000E+03 0. -1.
     100001    1    1    2    0    0  0.46628442780E+03  0.14201639912E+03  0.64799506113E+04  0.65000000000E+04  0.15050000000E+03 0. -1.
</event>
<event>
 4    1  0.4521369E-004  0.6500000E+04  0.7818608E-02  0.7223770E-01
         52   -1    0    0    0    0  0.00000000000E+00  0.00000000000E+00  0.64930732323E+04  0.65000000000E+04  0.30000000000E+03 0. -1.
        -52   -1    0    0    0    0 -0.00000000000E+00 -0.00000000000E+00 -0.64930732323E+04  0.65000000000E+04  0.30000000000E+03 0.  1.
     100001    1    1    2    0    0 -0.93033810142E+03 -0.10315836544E+04  0.63480434727E+04  0.65000000000E+04  0.15050000000E+03 0. -1.
     100001    1    1    2    0    0  0.93033810142E+03  0.10315836544E+04 -0.63480434727E+04  0.65000000000E+04  0.15050000000E+03 0.  1.
</event>
<event>
 4    1  0.4521369E-004  0.6500000E+04  0.7818608E-02  0.7223770E-01
         52   -1    0    0    0    0  0.00000000000E+00  0.00000000000E+00  0.64930732323E+04  0.65000000000E+04  0.30000000000E+03 0.  1.
        -52   -1    0    0    0    0 -0.00000000000E+00 -0.00000000000E+00 -0.64930732323E+04  0.65000000000E+04  0.30000000000E+03 0. -1.
     100001    1    1    2    0    0 -0.14175358789E+04  0.91977839644E+03  0.62747071233E+04  0.65000000000E+04  0.15050000000E+03 0.  1.
     100001    1    1    2    0    0  0.14175358789E+04 -0.91977839644E+03 -0.62747071233E+04  0.65000000000E+04  0.15050000000E+03 0. -1.
</event>
<event>
 4    1  0.4521369E-004  0.6500000E+04  0.7818608E-02  0.7223770E-01
         52   -1    0    0    0    0  0.00000000000E+00  0.00000000000E+00  0.64930732323E+04  0.65000000000E+04  0.30000000000E+03 0. -1.
        -52   -1    0    0    0    0 -0.00000000000E+00 -0.00000000000E+00 -0.64930732323E+04  0.65000000000E+04  0.30000000000E+03 0.  1.
     100001    1    1    2    0    0  0.16221316425E+04 -0.48255393297E+04 -0.40385899596E+04  0.65000000000E+04  0.15050000000E+03 0.  1.
     100001    1    1    2    0    0 -0.16221316425E+04  0.48255393297E+04  0.40385899596E+04  0.65000000000E+04  0.15050000000E+03 0. -1.
</event>
<event>
 4    1  0.4521369E-004  0.6500000E+04  0.7818608E-02  0.7223770E-01
         52   -1    0    0    0    0  0.00000000000E+00  0.00000000000E+00  0.64930732323E+04  0.65000000000E+04  0.30000000000E+03 0.  1.
        -52   -1    0    0    0    0 -0.00000000000E+00 -0.00000000000E+00 -0.64930732323E+04  0.65000000000E+04  0.30000000000E+03 0. -1.
     100001    1    1    2    0    0 -0.14349072604E+04 -0.21040866235E+04  0.59783953018E+04  0.65000000000E+04  0.15050000000E+03 0.  1.
     100001    1    1    2    0    0  0.14349072604E+04  0.21040866235E+04 -0.59783953018E+04  0.65000000000E+04  0.15050000000E+03 0. -1.
</event>
<event>
 4    1  0.4521369E-004  0.6500000E+04  0.7818608E-02  0.7223770E-01
         52   -1    0    0    0    0  0.00000000000E+00  0.00000000000E+00  0.64930732323E+04  0.65000000000E+04  0.30000000000E+03 0. -1.
        -52   -1    0    0    0    0 -0.00000000000E+00 -0.00000000000E+00 -0.64930732323E+04  0.65000000000E+04  0.30000000000E+03 0.  1.
     100001    1    1    2    0    0  0.93722328178E+03 -0.48066014733E+03  0.64123262622E+04  0.65000000000E+04  0.15050000000E+03 0. -1.
     100001    1    1    2    0    0 -0.93722328178E+03  0.48066014733E+03 -0.64123262622E+04  0.65000000000E+04  0.15050000000E+03 0.  1.
</event>
<event>
 4    1  0.4521369E-004  0.6500000E+04  0.7818608E-02  0.7223770E-01
         52   -1    0    0    0    0  0.00000000000E+00  0.00000000000E+00  0.64930732323E+04  0.65000000000E+04  0.30000000000E+03 0. -1.
        -52   -1    0    0    0    0 -0.00000000000E+00 -0.00000000000E+00 -0.64930732323E+04  0.65000000000E+04  0.30000000000E+03 0.  1.
     100001    1    1    2    0    0 -0.74151205628E+03 -0.25781320581E+04 -0.59186776151E+04  0.65000000000E+04  0.15050000000E+03 0.  1.
     100001    1    1    2    0    0  0.74151205628E+03  0.25781320581E+04  0.59186776151E+04  0.65000000000E+04  0.15050000000E+03 0. -1.
</event>
<event>
 4    1  0.4521369E-004  0.6500000E+04  0.7818608E-02  0.7223770E-01
         52   -1    0    0    0    0  0.00000000000E+00  0.00000000000E+00  0.64930732323E+04  0.65000000000E+04  0.30000000000E+03 0.  1.
        -52   -1    0    0    0    0 -0.00000000000E+00 -0.00000000000E+00 -0.64930732323E+04  0.65000000000E+04  0.30000000000E+03 0. -1.
     100001    1    1    2    0    0  0.13407011899E+04  0.44150117311E+04 -0.45757558374E+04  0.65000000000E+04  0.15050000000E+03 0. -1.
     100001    1    1    2    0    0 -0.13407011899E+04 -0.44150117311E+04  0.45757558374E+04  0.65000000000E+04  0.15050000000E+03 0.  1.
</event>
<event>
 4    1  0.4521369E-004  0.6500000E+04  0.7818608E-02  0.7223770E-01
         52   -1    0    0    0    0  0.00000000000E+00  0.00000000000E+00  0.64930732323E+04  0.65000000000E+04  0.30000000000E+03 0. -1.
        -52   -1    0    0    0    0 -0.00000000000E+00 -0.00000000000E+00 -0.64930732323E+04  0.65000000000E+04  0.30000000000E+03 0.  1.
     100001    1    1    2    0    0  0.58316516120E+03 -0.45054900283E+03 -0.64563359377E+04  0.65000000000E+04  0.15050000000E+03 0.  1.
     100001    1    1    2    0    0 -0.58316516120E+03  0.45054900283E+03  0.64563359377E+04  0.65000000000E+04  0.15050000000E+03 0. -1.
</event>
<event>
 4    1  0.4521369E-004  0.6500000E+04  0.7818608E-02  0.7223770E-01
         52   -1    0    0    0    0  0.00000000000E+00  0.00000000000E+00  0.64930732323E+04  0.65000000000E+04  0.30000000000E+03 0.  1.
        -52   -1    0    0    0    0 -0.00000000000E+00 -0.00000000000E+00 -0.64930732323E+04  0.65000000000E+04  0.30000000000E+03 0. -1.
     100001    1    1    2    0    0  0.10447180453E+04  0.70040787211E+03 -0.63753700103E+04  0.65000000000E+04  0.15050000000E+03 0. -1.
     100001    1    1    2    0    0 -0.10447180453E+04 -0.70040787211E+03  0.63753700103E+04  0.65000000000E+04  0.15050000000E+03 0.  1.
</event>
<event>
 4    1  0.4521369E-004  0.6500000E+04  0.7818608E-02  0.7223770E-01
         52   -1    0    0    0    0  0.00000000000E+00  0.00000000000E+00  0.64930732323E+04  0.65000000000E+04  0.30000000000E+03 0.  1.
        -52   -1    0    0    0    0 -0.00000000000E+00 -0.00000000000E+00 -0.64930732323E+04  0.65000000000E+04  0.30000000000E+03 0.  1.
     100001    1    1    2    0    0 -0.21528886401E+04  0.12960206432E+04 -0.59927248181E+04  0.65000000000E+04  0.15050000000E+03 0.  1.
     100001    1    1    2    0    0  0.21528886401E+04 -0.12960206432E+04  0.59927248181E+04  0.65000000000E+04  0.15050000000E+03 0.  1.
</event>
<event>
 4    1  0.4521369E-004  0.6500000E+04  0.7818608E-02  0.7223770E-01
         52   -1    0    0    0    0  0.00000000000E+00  0.00000000000E+00  0.64930732323E+04  0.65000000000E+04  0.30000000000E+03 0. -1.
        -52   -1    0    0    0    0 -0.00000000000E+00 -0.00000000000E+00 -0.64930732323E+04  0.65000000000E+04  0.30000000000E+03 0.  1.
     100001    1    1    2    0    0 -0.46682817369E+03  0.18100567815E+03 -0.64789395854E+04  0.65000000000E+04  0.15050000000E+03 0.  1.
     100001    1    1    2    0    0  0.46682817369E+03 -0.18100567815E+03  0.64789395854E+04  0.65000000000E+04  0.15050000000E+03 0. -1.
</event>
<event>
 4    1  0.4521369E-004  0.6500000E+04  0.7818608E-02  0.7223770E-01
         52   -1    0    0    0    0  0.00000000000E+00  0.00000000000E+00  0.64930732323E+04  0.65000000000E+04  0.30000000000E+03 0. -1.
        -52   -1    0    0    0    0 -0.00000000000E+00 -0.00000000000E+00 -0.64930732323E+04  0.65000000000E+04  0.30000000000E+03 0.  1.
     100001    1    1    2    0    0 -0.49466673483E+03  0.23264693633E+04 -0.60473295654E+04  0.65000000000E+04  0.15050000000E+03 0.  1.
     100001    1    1    2    0    0  0.49466673483E+03 -0.23264693633E+04  0.60473295654E+04  0.65000000000E+04  0.15050000000E+03 0. -1.
</event>
<event>
 4    1  0.4521369E-004  0.6500000E+04  0.7818608E-02  0.7223770E-01
         52   -1    0    0    0    0  0.00000000000E+00  0.00000000000E+00  0.64930732323E+04  0.65000000000E+04  0.30000000000E+03 0.  1.
        -52   -1    0    0    0    0 -0.00000000000E+00 -0.00000000000E+00 -0.64930732323E+04  0.65000000000E+04  0.30000000000E+03 0. -1.
     100001    1    1    2    0    0  0.31813832288E+04  0.11196727819E+04  0.55545011804E+04  0.65000000000E+04  0.15050000000E+03 0.  1.
     100001    1    1    2    0    0 -0.31813832288E+04 -0.11196727819E+04 -0.55545011804E+04  0.65000000000E+04  0.15050000000E+03 0. -1.
</event>
<event>
 4    1  0.4521369E-004  0.6500000E+04  0.7818608E-02  0.7223770E-01
         52   -1    0    0    0    0  0.00000000000E+00  0.00000000000E+00  0.64930732323E+04  0.65000000000E+04  0.30000000000E+03 0.  1.
        -52   -1    0    0    0    0 -0.00000000000E+00 -0.00000000000E+00 -0.64930732323E+04  0.65000000000E+04  0.30000000000E+03 0. -1.
     100001    1    1    2    0    0 -0.99584185683E+03 -0.32539870942E+03  0.64132491318E+04  0.65000000000E+04  0.15050000000E+03 0.  1.
     100001    1    1    2    0    0  0.99584185683E+03  0.32539870942E+03 -0.64132491318E+04  0.65000000000E+04  0.15050000000E+03 0. -1.
</event>
<event>
 4    1  0.4521369E-004  0.6500000E+04  0.7818608E-02  0.7223770E-01
         52   -1    0    0    0    0  0.00000000000E+00  0.00000000000E+00  0.64930732323E+04  0.65000000000E+04  0.30000000000E+03 0.  1.
        -52   -1    0    0    0    0 -0.00000000000E+00 -0.00000000000E+00 -0.64930732323E+04  0.65000000000E+04  0.30000000000E+03 0.  1.
     100001    1    1    2    0    0 -0.29434195280E+03  0.14114960895E+03 -0.64900531086E+04  0.65000000000E+04  0.15050000000E+03 0.  1.
     100001    1    1    2    0    0  0.29434195280E+03 -0.14114960895E+03  0.64900531086E+04  0.65000000000E+04  0.15050000000E+03 0.  1.
</event>
<event>
 4    1  0.4521369E-004  0.6500000E+04  0.7818608E-02  0.7223770E-01
         52   -1    0    0    0    0  0.00000000000E+00  0.00000000000E+00  0.64930732323E+04  0.65000000000E+04  0.30000000000E+03 0.  1.
        -52   -1    0    0    0    0 -0.00000000000E+00 -0.00000000000E+00 -0.64930732323E+04  0.65000000000E+04  0.30000000000E+03 0. -1.
     100001    1    1    2    0    0  0.31816953181E+04 -0.50098334059E+04  0.26468346940E+04  0.65000000000E+04  0.15050000000E+03 0.  1.
     100001    1    1    2    0    0 -0.31816953181E+04  0.50098334059E+04 -0.26468346940E+04  0.65000000000E+04  0.15050000000E+03 0. -1.
</event>
<event>
 4    1  0.4521369E-004  0.6500000E+04  0.7818608E-02  0.7223770E-01
         52   -1    0    0    0    0  0.00000000000E+00  0.00000000000E+00  0.64930732323E+04  0.65000000000E+04  0.30000000000E+03 0.  1.
        -52   -1    0    0    0    0 -0.00000000000E+00 -0.00000000000E+00 -0.64930732323E+04  0.65000000000E+04  0.30000000000E+03 0.  1.
     100001    1    1    2    0    0  0.29026096043E+03  0.23648991421E+03  0.64874625891E+04  0.65000000000E+04  0.15050000000E+03 0.  1.
     100001    1    1    2    0    0 -0.29026096043E+03 -0.23648991421E+03 -0.64874625891E+04  0.65000000000E+04  0.15050000000E+03 0.  1.
</event>
<event>
 4    1  0.4521369E-004  0.6500000E+04  0.7818608E-02  0.7223770E-01
         52   -1    0    0    0    0  0.00000000000E+00  0.00000000000E+00  0.64930732323E+04  0.65000000000E+04  0.30000000000E+03 0. -1.
        -52   -1    0    0    0    0 -0.00000000000E+00 -0.00000000000E+00 -0.64930732323E+04  0.65000000000E+04  0.30000000000E+03 0. -1.
     100001    1    1    2    0    0 -0.20029093049E+03  0.60665330331E+03 -0.64667770228E+04  0.65000000000E+04  0.15050000000E+03 0. -1.
     100001    1    1    2    0    0  0.20029093049E+03 -0.60665330331E+03  0.64667770228E+04  0.65000000000E+04  0.15050000000E+03 0. -1.
</event>
<event>
 4    1  0.4521369E-004  0.6500000E+04  0.7818608E-02  0.7223770E-01
         52   -1    0    0    0    0  0.00000000000E+00  0.00000000000E+00  0.64930732323E+04  0.65000000000E+04  0.30000000000E+03 0. -1.
        -52   -1    0    0    0    0 -0.00000000000E+00 -0.00000000000E+00 -0.64930732323E+04  0.65000000000E+04  0.30000000000E+03 0.  1.
     100001    1    1    2    0    0 -0.10587570842E+04  0.88469735579E+03 -0.63500939974E+04  0.65000000000E+04  0.15050000000E+03 0.  1.
     100001    1    1    2    0    0  0.10587570842E+04 -0.88469735579E+03  0.63500939974E+04  0.65000000000E+04  0.15050000000E+03 0. -1.
</event>
<event>
 4    1  0.4521369E-004  0.6500000E+04  0.7818608E-02  0.7223770E-01
         52   -1    0    0    0    0  0.00000000000E+00  0.00000000000E+00  0.64930732323E+04  0.65000000000E+04  0.30000000000E+03 0. -1.
        -52   -1    0    0    0    0 -0.00000000000E+00 -0.00000000000E+00 -0.64930732323E+04  0.65000000000E+04  0.30000000000E+03 0. -1.
     100001    1    1    2    0    0  0.38995295380E+03  0.73340852517E+03  0.64449513869E+04  0.65000000000E+04  0.15050000000E+03 0. -1.
     100001    1    1    2    0    0 -0.38995295380E+03 -0.73340852517E+03 -0.64449513869E+04  0.65000000000E+04  0.15050000000E+03 0. -1.
</event>
<event>
 4    1  0.4521369E-004  0.6500000E+04  0.7818608E-02  0.7223770E-01
         52   -1    0    0    0    0  0.00000000000E+00  0.00000000000E+00  0.64930732323E+04  0.65000000000E+04  0.30000000000E+03 0.  1.
        -52   -1    0    0    0    0 -0.00000000000E+00 -0.00000000000E+00 -0.64930732323E+04  0.65000000000E+04  0.30000000000E+03 0. -1.
     100001    1    1    2    0    0 -0.17418955839E+04  0.11736559073E+04  0.61494456121E+04  0.65000000000E+04  0.15050000000E+03 0.  1.
     100001    1    1    2    0    0  0.17418955839E+04 -0.11736559073E+04 -0.61494456121E+04  0.65000000000E+04  0.15050000000E+03 0. -1.
</event>
<event>
 4    1  0.4521369E-004  0.6500000E+04  0.7818608E-02  0.7223770E-01
         52   -1    0    0    0    0  0.00000000000E+00  0.00000000000E+00  0.64930732323E+04  0.65000000000E+04  0.30000000000E+03 0.  1.
        -52   -1    0    0    0    0 -0.00000000000E+00 -0.00000000000E+00 -0.64930732323E+04  0.65000000000E+04  0.30000000000E+03 0. -1.
     100001    1    1    2    0    0 -0.33327373204E+04 -0.12315133278E+04  0.54409178111E+04  0.65000000000E+04  0.15050000000E+03 0.  1.
     100001    1    1    2    0    0  0.33327373204E+04  0.12315133278E+04 -0.54409178111E+04  0.65000000000E+04  0.15050000000E+03 0. -1.
</event>
<event>
 4    1  0.4521369E-004  0.6500000E+04  0.7818608E-02  0.7223770E-01
         52   -1    0    0    0    0  0.00000000000E+00  0.00000000000E+00  0.64930732323E+04  0.65000000000E+04  0.30000000000E+03 0. -1.
        -52   -1    0    0    0    0 -0.00000000000E+00 -0.00000000000E+00 -0.64930732323E+04  0.65000000000E+04  0.30000000000E+03 0. -1.
     100001    1    1    2    0    0 -0.37169030732E+03 -0.11447996478E+03  0.64866085440E+04  0.65000000000E+04  0.15050000000E+03 0. -1.
     100001    1    1    2    0    0  0.37169030732E+03  0.11447996478E+03 -0.64866085440E+04  0.65000000000E+04  0.15050000000E+03 0. -1.
</event>
<event>
 4    1  0.4521369E-004  0.6500000E+04  0.7818608E-02  0.7223770E-01
         52   -1    0    0    0    0  0.00000000000E+00  0.00000000000E+00  0.64930732323E+04  0.65000000000E+04  0.30000000000E+03 0. -1.
        -52   -1    0    0    0    0 -0.00000000000E+00 -0.00000000000E+00 -0.64930732323E+04  0.65000000000E+04  0.30000000000E+03 0.  1.
     100001    1    1    2    0    0 -0.94404592177E+03  0.21702667340E+04 -0.60519475668E+04  0.65000000000E+04  0.15050000000E+03 0.  1.
     100001    1    1    2    0    0  0.94404592177E+03 -0.21702667340E+04  0.60519475668E+04  0.65000000000E+04  0.15050000000E+03 0. -1.
</event>
<event>
 4    1  0.4521369E-004  0.6500000E+04  0.7818608E-02  0.7223770E-01
         52   -1    0    0    0    0  0.00000000000E+00  0.00000000000E+00  0.64930732323E+04  0.65000000000E+04  0.30000000000E+03 0. -1.
        -52   -1    0    0    0    0 -0.00000000000E+00 -0.00000000000E+00 -0.64930732323E+04  0.65000000000E+04  0.30000000000E+03 0.  1.
     100001    1    1    2    0    0  0.29870909654E+04  0.18563614928E+04 -0.54642986121E+04  0.65000000000E+04  0.15050000000E+03 0.  1.
     100001    1    1    2    0    0 -0.29870909654E+04 -0.18563614928E+04  0.54642986121E+04  0.65000000000E+04  0.15050000000E+03 0. -1.
</event>
<event>
 4    1  0.4521369E-004  0.6500000E+04  0.7818608E-02  0.7223770E-01
         52   -1    0    0    0    0  0.00000000000E+00  0.00000000000E+00  0.64930732323E+04  0.65000000000E+04  0.30000000000E+03 0.  1.
        -52   -1    0    0    0    0 -0.00000000000E+00 -0.00000000000E+00 -0.64930732323E+04  0.65000000000E+04  0.30000000000E+03 0. -1.
     100001    1    1    2    0    0 -0.48108060129E+03  0.13514294848E+04  0.63379452153E+04  0.65000000000E+04  0.15050000000E+03 0.  1.
     100001    1    1    2    0    0  0.48108060129E+03 -0.13514294848E+04 -0.63379452153E+04  0.65000000000E+04  0.15050000000E+03 0. -1.
</event>
<event>
 4    1  0.4521369E-004  0.6500000E+04  0.7818608E-02  0.7223770E-01
         52   -1    0    0    0    0  0.00000000000E+00  0.00000000000E+00  0.64930732323E+04  0.65000000000E+04  0.30000000000E+03 0.  1.
        -52   -1    0    0    0    0 -0.00000000000E+00 -0.00000000000E+00 -0.64930732323E+04  0.65000000000E+04  0.30000000000E+03 0. -1.
     100001    1    1    2    0    0  0.53535367704E+04 -0.18314115451E+04 -0.31957668173E+04  0.65000000000E+04  0.15050000000E+03 0.  1.
     100001    1    1    2    0    0 -0.53535367704E+04  0.18314115451E+04  0.31957668173E+04  0.65000000000E+04  0.15050000000E+03 0. -1.
</event>
<event>
 4    1  0.4521369E-004  0.6500000E+04  0.7818608E-02  0.7223770E-01
         52   -1    0    0    0    0  0.00000000000E+00  0.00000000000E+00  0.64930732323E+04  0.65000000000E+04  0.30000000000E+03 0.  1.
        -52   -1    0    0    0    0 -0.00000000000E+00 -0.00000000000E+00 -0.64930732323E+04  0.65000000000E+04  0.30000000000E+03 0. -1.
     100001    1    1    2    0    0  0.40799653685E+04 -0.21158630018E+04  0.45939477685E+04  0.65000000000E+04  0.15050000000E+03 0.  1.
     100001    1    1    2    0    0 -0.40799653685E+04  0.21158630018E+04 -0.45939477685E+04  0.65000000000E+04  0.15050000000E+03 0. -1.
</event>
<event>
 4    1  0.4521369E-004  0.6500000E+04  0.7818608E-02  0.7223770E-01
         52   -1    0    0    0    0  0.00000000000E+00  0.00000000000E+00  0.64930732323E+04  0.65000000000E+04  0.30000000000E+03 0.  1.
        -52   -1    0    0    0    0 -0.00000000000E+00 -0.00000000000E+00 -0.64930732323E+04  0.65000000000E+04  0.30000000000E+03 0. -1.
     100001    1    1    2    0    0  0.42401123495E+04 -0.24578193632E+04  0.42670740550E+04  0.65000000000E+04  0.15050000000E+03 0.  1.
     100001    1    1    2    0    0 -0.42401123495E+04  0.24578193632E+04 -0.42670740550E+04  0.65000000000E+04  0.15050000000E+03 0. -1.
</event>
<event>
 4    1  0.4521369E-004  0.6500000E+04  0.7818608E-02  0.7223770E-01
         52   -1    0    0    0    0  0.00000000000E+00  0.00000000000E+00  0.64930732323E+04  0.65000000000E+04  0.30000000000E+03 0.  1.
        -52   -1    0    0    0    0 -0.00000000000E+00 -0.00000000000E+00 -0.64930732323E+04  0.65000000000E+04  0.30000000000E+03 0. -1.
     100001    1    1    2    0    0 -0.20301802783E+03 -0.11306446753E+04 -0.63959187025E+04  0.65000000000E+04  0.15050000000E+03 0. -1.
     100001    1    1    2    0    0  0.20301802783E+03  0.11306446753E+04  0.63959187025E+04  0.65000000000E+04  0.15050000000E+03 0.  1.
</event>
<event>
 4    1  0.4521369E-004  0.6500000E+04  0.7818608E-02  0.7223770E-01
         52   -1    0    0    0    0  0.00000000000E+00  0.00000000000E+00  0.64930732323E+04  0.65000000000E+04  0.30000000000E+03 0. -1.
        -52   -1    0    0    0    0 -0.00000000000E+00 -0.00000000000E+00 -0.64930732323E+04  0.65000000000E+04  0.30000000000E+03 0.  1.
     100001    1    1    2    0    0  0.11384454714E+04  0.56461962737E+02 -0.63975076167E+04  0.65000000000E+04  0.15050000000E+03 0.  1.
     100001    1    1    2    0    0 -0.11384454714E+04 -0.56461962737E+02  0.63975076167E+04  0.65000000000E+04  0.15050000000E+03 0. -1.
</event>
<event>
 4    1  0.4521369E-004  0.6500000E+04  0.7818608E-02  0.7223770E-01
         52   -1    0    0    0    0  0.00000000000E+00  0.00000000000E+00  0.64930732323E+04  0.65000000000E+04  0.30000000000E+03 0. -1.
        -52   -1    0    0    0    0 -0.00000000000E+00 -0.00000000000E+00 -0.64930732323E+04  0.65000000000E+04  0.30000000000E+03 0. -1.
     100001    1    1    2    0    0  0.72189749347E+02 -0.35478647583E+03 -0.64881634494E+04  0.65000000000E+04  0.15050000000E+03 0. -1.
     100001    1    1    2    0    0 -0.72189749347E+02  0.35478647583E+03  0.64881634494E+04  0.65000000000E+04  0.15050000000E+03 0. -1.
</event>
<event>
 4    1  0.4521369E-004  0.6500000E+04  0.7818608E-02  0.7223770E-01
         52   -1    0    0    0    0  0.00000000000E+00  0.00000000000E+00  0.64930732323E+04  0.65000000000E+04  0.30000000000E+03 0.  1.
        -52   -1    0    0    0    0 -0.00000000000E+00 -0.00000000000E+00 -0.64930732323E+04  0.65000000000E+04  0.30000000000E+03 0. -1.
     100001    1    1    2    0    0 -0.36899656182E+04  0.28100161693E+04  0.45514077618E+04  0.65000000000E+04  0.15050000000E+03 0.  1.
     100001    1    1    2    0    0  0.36899656182E+04 -0.28100161693E+04 -0.45514077618E+04  0.65000000000E+04  0.15050000000E+03 0. -1.
</event>
<event>
 4    1  0.4521369E-004  0.6500000E+04  0.7818608E-02  0.7223770E-01
         52   -1    0    0    0    0  0.00000000000E+00  0.00000000000E+00  0.64930732323E+04  0.65000000000E+04  0.30000000000E+03 0.  1.
        -52   -1    0    0    0    0 -0.00000000000E+00 -0.00000000000E+00 -0.64930732323E+04  0.65000000000E+04  0.30000000000E+03 0. -1.
     100001    1    1    2    0    0  0.11995160837E+04  0.11867507317E+04  0.62753592420E+04  0.65000000000E+04  0.15050000000E+03 0.  1.
     100001    1    1    2    0    0 -0.11995160837E+04 -0.11867507317E+04 -0.62753592420E+04  0.65000000000E+04  0.15050000000E+03 0. -1.
</event>
<event>
 4    1  0.4521369E-004  0.6500000E+04  0.7818608E-02  0.7223770E-01
         52   -1    0    0    0    0  0.00000000000E+00  0.00000000000E+00  0.64930732323E+04  0.65000000000E+04  0.30000000000E+03 0.  1.
        -52   -1    0    0    0    0 -0.00000000000E+00 -0.00000000000E+00 -0.64930732323E+04  0.65000000000E+04  0.30000000000E+03 0. -1.
     100001    1    1    2    0    0 -0.39836737855E+03 -0.53062813831E+03  0.64642932298E+04  0.65000000000E+04  0.15050000000E+03 0.  1.
     100001    1    1    2    0    0  0.39836737855E+03  0.53062813831E+03 -0.64642932298E+04  0.65000000000E+04  0.15050000000E+03 0. -1.
</event>
<event>
 4    1  0.4521369E-004  0.6500000E+04  0.7818608E-02  0.7223770E-01
         52   -1    0    0    0    0  0.00000000000E+00  0.00000000000E+00  0.64930732323E+04  0.65000000000E+04  0.30000000000E+03 0.  1.
        -52   -1    0    0    0    0 -0.00000000000E+00 -0.00000000000E+00 -0.64930732323E+04  0.65000000000E+04  0.30000000000E+03 0. -1.
     100001    1    1    2    0    0 -0.21350393627E+04 -0.11741030132E+04 -0.60241546116E+04  0.65000000000E+04  0.15050000000E+03 0. -1.
     100001    1    1    2    0    0  0.21350393627E+04  0.11741030132E+04  0.60241546116E+04  0.65000000000E+04  0.15050000000E+03 0.  1.
</event>
<event>
 4    1  0.4521369E-004  0.6500000E+04  0.7818608E-02  0.7223770E-01
         52   -1    0    0    0    0  0.00000000000E+00  0.00000000000E+00  0.64930732323E+04  0.65000000000E+04  0.30000000000E+03 0. -1.
        -52   -1    0    0    0    0 -0.00000000000E+00 -0.00000000000E+00 -0.64930732323E+04  0.65000000000E+04  0.30000000000E+03 0. -1.
     100001    1    1    2    0    0  0.12037694158E+03  0.58398782246E+03 -0.64708436363E+04  0.65000000000E+04  0.15050000000E+03 0. -1.
     100001    1    1    2    0    0 -0.12037694158E+03 -0.58398782246E+03  0.64708436363E+04  0.65000000000E+04  0.15050000000E+03 0. -1.
</event>
<event>
 4    1  0.4521369E-004  0.6500000E+04  0.7818608E-02  0.7223770E-01
         52   -1    0    0    0    0  0.00000000000E+00  0.00000000000E+00  0.64930732323E+04  0.65000000000E+04  0.30000000000E+03 0. -1.
        -52   -1    0    0    0    0 -0.00000000000E+00 -0.00000000000E+00 -0.64930732323E+04  0.65000000000E+04  0.30000000000E+03 0.  1.
     100001    1    1    2    0    0 -0.13551618729E+04  0.15183036761E+04  0.61713564146E+04  0.65000000000E+04  0.15050000000E+03 0. -1.
     100001    1    1    2    0    0  0.13551618729E+04 -0.15183036761E+04 -0.61713564146E+04  0.65000000000E+04  0.15050000000E+03 0.  1.
</event>
<event>
 4    1  0.4521369E-004  0.6500000E+04  0.7818608E-02  0.7223770E-01
         52   -1    0    0    0    0  0.00000000000E+00  0.00000000000E+00  0.64930732323E+04  0.65000000000E+04  0.30000000000E+03 0.  1.
        -52   -1    0    0    0    0 -0.00000000000E+00 -0.00000000000E+00 -0.64930732323E+04  0.65000000000E+04  0.30000000000E+03 0. -1.
     100001    1    1    2    0    0  0.42962908825E+03  0.19654575020E+04  0.61789760806E+04  0.65000000000E+04  0.15050000000E+03 0.  1.
     100001    1    1    2    0    0 -0.42962908825E+03 -0.19654575020E+04 -0.61789760806E+04  0.65000000000E+04  0.15050000000E+03 0. -1.
</event>
<event>
 4    1  0.4521369E-004  0.6500000E+04  0.7818608E-02  0.7223770E-01
         52   -1    0    0    0    0  0.00000000000E+00  0.00000000000E+00  0.64930732323E+04  0.65000000000E+04  0.30000000000E+03 0. -1.
        -52   -1    0    0    0    0 -0.00000000000E+00 -0.00000000000E+00 -0.64930732323E+04  0.65000000000E+04  0.30000000000E+03 0.  1.
     100001    1    1    2    0    0  0.58055064162E+03 -0.16241603386E+03  0.64702342874E+04  0.65000000000E+04  0.15050000000E+03 0. -1.
     100001    1    1    2    0    0 -0.58055064162E+03  0.16241603386E+03 -0.64702342874E+04  0.65000000000E+04  0.15050000000E+03 0.  1.
</event>
<event>
 4    1  0.4521369E-004  0.6500000E+04  0.7818608E-02  0.7223770E-01
         52   -1    0    0    0    0  0.00000000000E+00  0.00000000000E+00  0.64930732323E+04  0.65000000000E+04  0.30000000000E+03 0. -1.
        -52   -1    0    0    0    0 -0.00000000000E+00 -0.00000000000E+00 -0.64930732323E+04  0.65000000000E+04  0.30000000000E+03 0.  1.
     100001    1    1    2    0    0  0.17223972705E+03 -0.15429759669E+04  0.63100640561E+04  0.65000000000E+04  0.15050000000E+03 0. -1.
     100001    1    1    2    0    0 -0.17223972705E+03  0.15429759669E+04 -0.63100640561E+04  0.65000000000E+04  0.15050000000E+03 0.  1.
</event>
<event>
 4    1  0.4521369E-004  0.6500000E+04  0.7818608E-02  0.7223770E-01
         52   -1    0    0    0    0  0.00000000000E+00  0.00000000000E+00  0.64930732323E+04  0.65000000000E+04  0.30000000000E+03 0. -1.
        -52   -1    0    0    0    0 -0.00000000000E+00 -0.00000000000E+00 -0.64930732323E+04  0.65000000000E+04  0.30000000000E+03 0.  1.
     100001    1    1    2    0    0 -0.68126272972E+03 -0.15368314301E+03  0.64606201200E+04  0.65000000000E+04  0.15050000000E+03 0. -1.
     100001    1    1    2    0    0  0.68126272972E+03  0.15368314301E+03 -0.64606201200E+04  0.65000000000E+04  0.15050000000E+03 0.  1.
</event>
<event>
 4    1  0.4521369E-004  0.6500000E+04  0.7818608E-02  0.7223770E-01
         52   -1    0    0    0    0  0.00000000000E+00  0.00000000000E+00  0.64930732323E+04  0.65000000000E+04  0.30000000000E+03 0. -1.
        -52   -1    0    0    0    0 -0.00000000000E+00 -0.00000000000E+00 -0.64930732323E+04  0.65000000000E+04  0.30000000000E+03 0.  1.
     100001    1    1    2    0    0  0.14739736162E+04  0.17271794535E+04 -0.60886453883E+04  0.65000000000E+04  0.15050000000E+03 0.  1.
     100001    1    1    2    0    0 -0.14739736162E+04 -0.17271794535E+04  0.60886453883E+04  0.65000000000E+04  0.15050000000E+03 0. -1.
</event>
<event>
 4    1  0.4521369E-004  0.6500000E+04  0.7818608E-02  0.7223770E-01
         52   -1    0    0    0    0  0.00000000000E+00  0.00000000000E+00  0.64930732323E+04  0.65000000000E+04  0.30000000000E+03 0.  1.
        -52   -1    0    0    0    0 -0.00000000000E+00 -0.00000000000E+00 -0.64930732323E+04  0.65000000000E+04  0.30000000000E+03 0. -1.
     100001    1    1    2    0    0  0.25513409261E+04 -0.45421291188E+04 -0.38842080656E+04  0.65000000000E+04  0.15050000000E+03 0. -1.
     100001    1    1    2    0    0 -0.25513409261E+04  0.45421291188E+04  0.38842080656E+04  0.65000000000E+04  0.15050000000E+03 0.  1.
</event>
<event>
 4    1  0.4521369E-004  0.6500000E+04  0.7818608E-02  0.7223770E-01
         52   -1    0    0    0    0  0.00000000000E+00  0.00000000000E+00  0.64930732323E+04  0.65000000000E+04  0.30000000000E+03 0. -1.
        -52   -1    0    0    0    0 -0.00000000000E+00 -0.00000000000E+00 -0.64930732323E+04  0.65000000000E+04  0.30000000000E+03 0.  1.
     100001    1    1    2    0    0 -0.39127196013E+03  0.39954967772E+04 -0.51098201051E+04  0.65000000000E+04  0.15050000000E+03 0.  1.
     100001    1    1    2    0    0  0.39127196013E+03 -0.39954967772E+04  0.51098201051E+04  0.65000000000E+04  0.15050000000E+03 0. -1.
</event>
<event>
 4    1  0.4521369E-004  0.6500000E+04  0.7818608E-02  0.7223770E-01
         52   -1    0    0    0    0  0.00000000000E+00  0.00000000000E+00  0.64930732323E+04  0.65000000000E+04  0.30000000000E+03 0. -1.
        -52   -1    0    0    0    0 -0.00000000000E+00 -0.00000000000E+00 -0.64930732323E+04  0.65000000000E+04  0.30000000000E+03 0.  1.
     100001    1    1    2    0    0 -0.49119618804E+04 -0.43311148245E+03  0.42323037082E+04  0.65000000000E+04  0.15050000000E+03 0. -1.
     100001    1    1    2    0    0  0.49119618804E+04  0.43311148245E+03 -0.42323037082E+04  0.65000000000E+04  0.15050000000E+03 0.  1.
</event>
<event>
 4    1  0.4521369E-004  0.6500000E+04  0.7818608E-02  0.7223770E-01
         52   -1    0    0    0    0  0.00000000000E+00  0.00000000000E+00  0.64930732323E+04  0.65000000000E+04  0.30000000000E+03 0.  1.
        -52   -1    0    0    0    0 -0.00000000000E+00 -0.00000000000E+00 -0.64930732323E+04  0.65000000000E+04  0.30000000000E+03 0. -1.
     100001    1    1    2    0    0  0.28068555389E+03  0.51520236463E+04  0.39503440000E+04  0.65000000000E+04  0.15050000000E+03 0.  1.
     100001    1    1    2    0    0 -0.28068555389E+03 -0.51520236463E+04 -0.39503440000E+04  0.65000000000E+04  0.15050000000E+03 0. -1.
</event>
<event>
 4    1  0.4521369E-004  0.6500000E+04  0.7818608E-02  0.7223770E-01
         52   -1    0    0    0    0  0.00000000000E+00  0.00000000000E+00  0.64930732323E+04  0.65000000000E+04  0.30000000000E+03 0. -1.
        -52   -1    0    0    0    0 -0.00000000000E+00 -0.00000000000E+00 -0.64930732323E+04  0.65000000000E+04  0.30000000000E+03 0.  1.
     100001    1    1    2    0    0  0.39771381616E+04  0.18349266189E+03  0.51357620892E+04  0.65000000000E+04  0.15050000000E+03 0. -1.
     100001    1    1    2    0    0 -0.39771381616E+04 -0.18349266189E+03 -0.51357620892E+04  0.65000000000E+04  0.15050000000E+03 0.  1.
</event>
<event>
 4    1  0.4521369E-004  0.6500000E+04  0.7818608E-02  0.7223770E-01
         52   -1    0    0    0    0  0.00000000000E+00  0.00000000000E+00  0.64930732323E+04  0.65000000000E+04  0.30000000000E+03 0. -1.
        -52   -1    0    0    0    0 -0.00000000000E+00 -0.00000000000E+00 -0.64930732323E+04  0.65000000000E+04  0.30000000000E+03 0. -1.
     100001    1    1    2    0    0  0.35566377852E+03 -0.16343867415E+03  0.64864582652E+04  0.65000000000E+04  0.15050000000E+03 0. -1.
     100001    1    1    2    0    0 -0.35566377852E+03  0.16343867415E+03 -0.64864582652E+04  0.65000000000E+04  0.15050000000E+03 0. -1.
</event>
<event>
 4    1  0.4521369E-004  0.6500000E+04  0.7818608E-02  0.7223770E-01
         52   -1    0    0    0    0  0.00000000000E+00  0.00000000000E+00  0.64930732323E+04  0.65000000000E+04  0.30000000000E+03 0. -1.
        -52   -1    0    0    0    0 -0.00000000000E+00 -0.00000000000E+00 -0.64930732323E+04  0.65000000000E+04  0.30000000000E+03 0.  1.
     100001    1    1    2    0    0  0.17654529399E+04 -0.70335191916E+03  0.62141629963E+04  0.65000000000E+04  0.15050000000E+03 0. -1.
     100001    1    1    2    0    0 -0.17654529399E+04  0.70335191916E+03 -0.62141629963E+04  0.65000000000E+04  0.15050000000E+03 0.  1.
</event>
<event>
 4    1  0.4521369E-004  0.6500000E+04  0.7818608E-02  0.7223770E-01
         52   -1    0    0    0    0  0.00000000000E+00  0.00000000000E+00  0.64930732323E+04  0.65000000000E+04  0.30000000000E+03 0. -1.
        -52   -1    0    0    0    0 -0.00000000000E+00 -0.00000000000E+00 -0.64930732323E+04  0.65000000000E+04  0.30000000000E+03 0.  1.
     100001    1    1    2    0    0 -0.13828159092E+04 -0.44737676274E+03  0.63336422336E+04  0.65000000000E+04  0.15050000000E+03 0. -1.
     100001    1    1    2    0    0  0.13828159092E+04  0.44737676274E+03 -0.63336422336E+04  0.65000000000E+04  0.15050000000E+03 0.  1.
</event>
<event>
 4    1  0.4521369E-004  0.6500000E+04  0.7818608E-02  0.7223770E-01
         52   -1    0    0    0    0  0.00000000000E+00  0.00000000000E+00  0.64930732323E+04  0.65000000000E+04  0.30000000000E+03 0. -1.
        -52   -1    0    0    0    0 -0.00000000000E+00 -0.00000000000E+00 -0.64930732323E+04  0.65000000000E+04  0.30000000000E+03 0.  1.
     100001    1    1    2    0    0 -0.56871753545E+03  0.21562700076E+03  0.64697306831E+04  0.65000000000E+04  0.15050000000E+03 0. -1.
     100001    1    1    2    0    0  0.56871753545E+03 -0.21562700076E+03 -0.64697306831E+04  0.65000000000E+04  0.15050000000E+03 0.  1.
</event>
<event>
 4    1  0.4521369E-004  0.6500000E+04  0.7818608E-02  0.7223770E-01
         52   -1    0    0    0    0  0.00000000000E+00  0.00000000000E+00  0.64930732323E+04  0.65000000000E+04  0.30000000000E+03 0. -1.
        -52   -1    0    0    0    0 -0.00000000000E+00 -0.00000000000E+00 -0.64930732323E+04  0.65000000000E+04  0.30000000000E+03 0.  1.
     100001    1    1    2    0    0  0.20095884118E+03 -0.54355315931E+03 -0.64723655071E+04  0.65000000000E+04  0.15050000000E+03 0.  1.
     100001    1    1    2    0    0 -0.20095884118E+03  0.54355315931E+03  0.64723655071E+04  0.65000000000E+04  0.15050000000E+03 0. -1.
</event>
<event>
 4    1  0.4521369E-004  0.6500000E+04  0.7818608E-02  0.7223770E-01
         52   -1    0    0    0    0  0.00000000000E+00  0.00000000000E+00  0.64930732323E+04  0.65000000000E+04  0.30000000000E+03 0.  1.
        -52   -1    0    0    0    0 -0.00000000000E+00 -0.00000000000E+00 -0.64930732323E+04  0.65000000000E+04  0.30000000000E+03 0. -1.
     100001    1    1    2    0    0 -0.20010344032E+04  0.23751098694E+04  0.57080700920E+04  0.65000000000E+04  0.15050000000E+03 0.  1.
     100001    1    1    2    0    0  0.20010344032E+04 -0.23751098694E+04 -0.57080700920E+04  0.65000000000E+04  0.15050000000E+03 0. -1.
</event>
<event>
 4    1  0.4521369E-004  0.6500000E+04  0.7818608E-02  0.7223770E-01
         52   -1    0    0    0    0  0.00000000000E+00  0.00000000000E+00  0.64930732323E+04  0.65000000000E+04  0.30000000000E+03 0. -1.
        -52   -1    0    0    0    0 -0.00000000000E+00 -0.00000000000E+00 -0.64930732323E+04  0.65000000000E+04  0.30000000000E+03 0.  1.
     100001    1    1    2    0    0 -0.35577035679E+03  0.32297761762E+03 -0.64804677811E+04  0.65000000000E+04  0.15050000000E+03 0.  1.
     100001    1    1    2    0    0  0.35577035679E+03 -0.32297761762E+03  0.64804677811E+04  0.65000000000E+04  0.15050000000E+03 0. -1.
</event>
<event>
 4    1  0.4521369E-004  0.6500000E+04  0.7818608E-02  0.7223770E-01
         52   -1    0    0    0    0  0.00000000000E+00  0.00000000000E+00  0.64930732323E+04  0.65000000000E+04  0.30000000000E+03 0. -1.
        -52   -1    0    0    0    0 -0.00000000000E+00 -0.00000000000E+00 -0.64930732323E+04  0.65000000000E+04  0.30000000000E+03 0.  1.
     100001    1    1    2    0    0 -0.59469721120E+03 -0.86008437941E+02 -0.64704163333E+04  0.65000000000E+04  0.15050000000E+03 0.  1.
     100001    1    1    2    0    0  0.59469721120E+03  0.86008437941E+02  0.64704163333E+04  0.65000000000E+04  0.15050000000E+03 0. -1.
</event>
<event>
 4    1  0.4521369E-004  0.6500000E+04  0.7818608E-02  0.7223770E-01
         52   -1    0    0    0    0  0.00000000000E+00  0.00000000000E+00  0.64930732323E+04  0.65000000000E+04  0.30000000000E+03 0. -1.
        -52   -1    0    0    0    0 -0.00000000000E+00 -0.00000000000E+00 -0.64930732323E+04  0.65000000000E+04  0.30000000000E+03 0.  1.
     100001    1    1    2    0    0  0.41953466472E+03 -0.62312200963E+03  0.64546928181E+04  0.65000000000E+04  0.15050000000E+03 0. -1.
     100001    1    1    2    0    0 -0.41953466472E+03  0.62312200963E+03 -0.64546928181E+04  0.65000000000E+04  0.15050000000E+03 0.  1.
</event>
<event>
 4    1  0.4521369E-004  0.6500000E+04  0.7818608E-02  0.7223770E-01
         52   -1    0    0    0    0  0.00000000000E+00  0.00000000000E+00  0.64930732323E+04  0.65000000000E+04  0.30000000000E+03 0.  1.
        -52   -1    0    0    0    0 -0.00000000000E+00 -0.00000000000E+00 -0.64930732323E+04  0.65000000000E+04  0.30000000000E+03 0. -1.
     100001    1    1    2    0    0 -0.28276637746E+03 -0.19845176215E+03  0.64890684866E+04  0.65000000000E+04  0.15050000000E+03 0.  1.
     100001    1    1    2    0    0  0.28276637746E+03  0.19845176215E+03 -0.64890684866E+04  0.65000000000E+04  0.15050000000E+03 0. -1.
</event>
<event>
 4    1  0.4521369E-004  0.6500000E+04  0.7818608E-02  0.7223770E-01
         52   -1    0    0    0    0  0.00000000000E+00  0.00000000000E+00  0.64930732323E+04  0.65000000000E+04  0.30000000000E+03 0.  1.
        -52   -1    0    0    0    0 -0.00000000000E+00 -0.00000000000E+00 -0.64930732323E+04  0.65000000000E+04  0.30000000000E+03 0. -1.
     100001    1    1    2    0    0 -0.23075201193E+04 -0.58343110872E+04 -0.16921923019E+04  0.65000000000E+04  0.15050000000E+03 0. -1.
     100001    1    1    2    0    0  0.23075201193E+04  0.58343110872E+04  0.16921923019E+04  0.65000000000E+04  0.15050000000E+03 0.  1.
</event>
<event>
 4    1  0.4521369E-004  0.6500000E+04  0.7818608E-02  0.7223770E-01
         52   -1    0    0    0    0  0.00000000000E+00  0.00000000000E+00  0.64930732323E+04  0.65000000000E+04  0.30000000000E+03 0.  1.
        -52   -1    0    0    0    0 -0.00000000000E+00 -0.00000000000E+00 -0.64930732323E+04  0.65000000000E+04  0.30000000000E+03 0. -1.
     100001    1    1    2    0    0  0.98442497371E+03  0.64363629973E+02 -0.64229365982E+04  0.65000000000E+04  0.15050000000E+03 0. -1.
     100001    1    1    2    0    0 -0.98442497371E+03 -0.64363629973E+02  0.64229365982E+04  0.65000000000E+04  0.15050000000E+03 0.  1.
</event>
<event>
 4    1  0.4521369E-004  0.6500000E+04  0.7818608E-02  0.7223770E-01
         52   -1    0    0    0    0  0.00000000000E+00  0.00000000000E+00  0.64930732323E+04  0.65000000000E+04  0.30000000000E+03 0. -1.
        -52   -1    0    0    0    0 -0.00000000000E+00 -0.00000000000E+00 -0.64930732323E+04  0.65000000000E+04  0.30000000000E+03 0.  1.
     100001    1    1    2    0    0  0.15838379608E+02  0.48489229022E+03 -0.64801217861E+04  0.65000000000E+04  0.15050000000E+03 0.  1.
     100001    1    1    2    0    0 -0.15838379608E+02 -0.48489229022E+03  0.64801217861E+04  0.65000000000E+04  0.15050000000E+03 0. -1.
</event>
<event>
 4    1  0.4521369E-004  0.6500000E+04  0.7818608E-02  0.7223770E-01
         52   -1    0    0    0    0  0.00000000000E+00  0.00000000000E+00  0.64930732323E+04  0.65000000000E+04  0.30000000000E+03 0.  1.
        -52   -1    0    0    0    0 -0.00000000000E+00 -0.00000000000E+00 -0.64930732323E+04  0.65000000000E+04  0.30000000000E+03 0. -1.
     100001    1    1    2    0    0 -0.76800157351E+03  0.13759366283E+04 -0.63043097741E+04  0.65000000000E+04  0.15050000000E+03 0. -1.
     100001    1    1    2    0    0  0.76800157351E+03 -0.13759366283E+04  0.63043097741E+04  0.65000000000E+04  0.15050000000E+03 0.  1.
</event>
<event>
 4    1  0.4521369E-004  0.6500000E+04  0.7818608E-02  0.7223770E-01
         52   -1    0    0    0    0  0.00000000000E+00  0.00000000000E+00  0.64930732323E+04  0.65000000000E+04  0.30000000000E+03 0. -1.
        -52   -1    0    0    0    0 -0.00000000000E+00 -0.00000000000E+00 -0.64930732323E+04  0.65000000000E+04  0.30000000000E+03 0.  1.
     100001    1    1    2    0    0  0.42410883537E+03 -0.50429038701E+02  0.64842068411E+04  0.65000000000E+04  0.15050000000E+03 0. -1.
     100001    1    1    2    0    0 -0.42410883537E+03  0.50429038701E+02 -0.64842068411E+04  0.65000000000E+04  0.15050000000E+03 0.  1.
</event>
<event>
 4    1  0.4521369E-004  0.6500000E+04  0.7818608E-02  0.7223770E-01
         52   -1    0    0    0    0  0.00000000000E+00  0.00000000000E+00  0.64930732323E+04  0.65000000000E+04  0.30000000000E+03 0. -1.
        -52   -1    0    0    0    0 -0.00000000000E+00 -0.00000000000E+00 -0.64930732323E+04  0.65000000000E+04  0.30000000000E+03 0.  1.
     100001    1    1    2    0    0 -0.22999430626E+04  0.39912894063E+04  0.45833634521E+04  0.65000000000E+04  0.15050000000E+03 0. -1.
     100001    1    1    2    0    0  0.22999430626E+04 -0.39912894063E+04 -0.45833634521E+04  0.65000000000E+04  0.15050000000E+03 0.  1.
</event>
<event>
 4    1  0.4521369E-004  0.6500000E+04  0.7818608E-02  0.7223770E-01
         52   -1    0    0    0    0  0.00000000000E+00  0.00000000000E+00  0.64930732323E+04  0.65000000000E+04  0.30000000000E+03 0. -1.
        -52   -1    0    0    0    0 -0.00000000000E+00 -0.00000000000E+00 -0.64930732323E+04  0.65000000000E+04  0.30000000000E+03 0.  1.
     100001    1    1    2    0    0 -0.17428677411E+04 -0.61117437860E+04 -0.13551198034E+04  0.65000000000E+04  0.15050000000E+03 0. -1.
     100001    1    1    2    0    0  0.17428677411E+04  0.61117437860E+04  0.13551198034E+04  0.65000000000E+04  0.15050000000E+03 0.  1.
</event>
<event>
 4    1  0.4521369E-004  0.6500000E+04  0.7818608E-02  0.7223770E-01
         52   -1    0    0    0    0  0.00000000000E+00  0.00000000000E+00  0.64930732323E+04  0.65000000000E+04  0.30000000000E+03 0.  1.
        -52   -1    0    0    0    0 -0.00000000000E+00 -0.00000000000E+00 -0.64930732323E+04  0.65000000000E+04  0.30000000000E+03 0.  1.
     100001    1    1    2    0    0  0.48321811453E+03 -0.37563337011E+03  0.64693701065E+04  0.65000000000E+04  0.15050000000E+03 0.  1.
     100001    1    1    2    0    0 -0.48321811453E+03  0.37563337011E+03 -0.64693701065E+04  0.65000000000E+04  0.15050000000E+03 0.  1.
</event>
<event>
 4    1  0.4521369E-004  0.6500000E+04  0.7818608E-02  0.7223770E-01
         52   -1    0    0    0    0  0.00000000000E+00  0.00000000000E+00  0.64930732323E+04  0.65000000000E+04  0.30000000000E+03 0. -1.
        -52   -1    0    0    0    0 -0.00000000000E+00 -0.00000000000E+00 -0.64930732323E+04  0.65000000000E+04  0.30000000000E+03 0.  1.
     100001    1    1    2    0    0  0.46955880079E+04  0.11938837456E+04 -0.43305247502E+04  0.65000000000E+04  0.15050000000E+03 0.  1.
     100001    1    1    2    0    0 -0.46955880079E+04 -0.11938837456E+04  0.43305247502E+04  0.65000000000E+04  0.15050000000E+03 0. -1.
</event>
<event>
 4    1  0.4521369E-004  0.6500000E+04  0.7818608E-02  0.7223770E-01
         52   -1    0    0    0    0  0.00000000000E+00  0.00000000000E+00  0.64930732323E+04  0.65000000000E+04  0.30000000000E+03 0.  1.
        -52   -1    0    0    0    0 -0.00000000000E+00 -0.00000000000E+00 -0.64930732323E+04  0.65000000000E+04  0.30000000000E+03 0. -1.
     100001    1    1    2    0    0 -0.11542183801E+03 -0.59811231619E+03  0.64696436692E+04  0.65000000000E+04  0.15050000000E+03 0.  1.
     100001    1    1    2    0    0  0.11542183801E+03  0.59811231619E+03 -0.64696436692E+04  0.65000000000E+04  0.15050000000E+03 0. -1.
</event>
<event>
 4    1  0.4521369E-004  0.6500000E+04  0.7818608E-02  0.7223770E-01
         52   -1    0    0    0    0  0.00000000000E+00  0.00000000000E+00  0.64930732323E+04  0.65000000000E+04  0.30000000000E+03 0. -1.
        -52   -1    0    0    0    0 -0.00000000000E+00 -0.00000000000E+00 -0.64930732323E+04  0.65000000000E+04  0.30000000000E+03 0. -1.
     100001    1    1    2    0    0 -0.52706395295E+03  0.37194285073E+03 -0.64661589723E+04  0.65000000000E+04  0.15050000000E+03 0. -1.
     100001    1    1    2    0    0  0.52706395295E+03 -0.37194285073E+03  0.64661589723E+04  0.65000000000E+04  0.15050000000E+03 0. -1.
</event>
<event>
 4    1  0.4521369E-004  0.6500000E+04  0.7818608E-02  0.7223770E-01
         52   -1    0    0    0    0  0.00000000000E+00  0.00000000000E+00  0.64930732323E+04  0.65000000000E+04  0.30000000000E+03 0.  1.
        -52   -1    0    0    0    0 -0.00000000000E+00 -0.00000000000E+00 -0.64930732323E+04  0.65000000000E+04  0.30000000000E+03 0. -1.
     100001    1    1    2    0    0  0.38210561837E+04 -0.15779699552E+04 -0.50136703334E+04  0.65000000000E+04  0.15050000000E+03 0. -1.
     100001    1    1    2    0    0 -0.38210561837E+04  0.15779699552E+04  0.50136703334E+04  0.65000000000E+04  0.15050000000E+03 0.  1.
</event>
<event>
 4    1  0.4521369E-004  0.6500000E+04  0.7818608E-02  0.7223770E-01
         52   -1    0    0    0    0  0.00000000000E+00  0.00000000000E+00  0.64930732323E+04  0.65000000000E+04  0.30000000000E+03 0. -1.
        -52   -1    0    0    0    0 -0.00000000000E+00 -0.00000000000E+00 -0.64930732323E+04  0.65000000000E+04  0.30000000000E+03 0.  1.
     100001    1    1    2    0    0  0.20873588655E+04 -0.34982199331E+04 -0.50628786294E+04  0.65000000000E+04  0.15050000000E+03 0.  1.
     100001    1    1    2    0    0 -0.20873588655E+04  0.34982199331E+04  0.50628786294E+04  0.65000000000E+04  0.15050000000E+03 0. -1.
</event>
<event>
 4    1  0.4521369E-004  0.6500000E+04  0.7818608E-02  0.7223770E-01
         52   -1    0    0    0    0  0.00000000000E+00  0.00000000000E+00  0.64930732323E+04  0.65000000000E+04  0.30000000000E+03 0.  1.
        -52   -1    0    0    0    0 -0.00000000000E+00 -0.00000000000E+00 -0.64930732323E+04  0.65000000000E+04  0.30000000000E+03 0. -1.
     100001    1    1    2    0    0 -0.57460274171E+04 -0.90353718254E+03  0.28972640943E+04  0.65000000000E+04  0.15050000000E+03 0. -1.
     100001    1    1    2    0    0  0.57460274171E+04  0.90353718254E+03 -0.28972640943E+04  0.65000000000E+04  0.15050000000E+03 0.  1.
</event>
<event>
 4    1  0.4521369E-004  0.6500000E+04  0.7818608E-02  0.7223770E-01
         52   -1    0    0    0    0  0.00000000000E+00  0.00000000000E+00  0.64930732323E+04  0.65000000000E+04  0.30000000000E+03 0. -1.
        -52   -1    0    0    0    0 -0.00000000000E+00 -0.00000000000E+00 -0.64930732323E+04  0.65000000000E+04  0.30000000000E+03 0.  1.
     100001    1    1    2    0    0 -0.92873837770E+03 -0.18999919629E+03  0.64287397740E+04  0.65000000000E+04  0.15050000000E+03 0. -1.
     100001    1    1    2    0    0  0.92873837770E+03  0.18999919629E+03 -0.64287397740E+04  0.65000000000E+04  0.15050000000E+03 0.  1.
</event>
<event>
 4    1  0.4521369E-004  0.6500000E+04  0.7818608E-02  0.7223770E-01
         52   -1    0    0    0    0  0.00000000000E+00  0.00000000000E+00  0.64930732323E+04  0.65000000000E+04  0.30000000000E+03 0.  1.
        -52   -1    0    0    0    0 -0.00000000000E+00 -0.00000000000E+00 -0.64930732323E+04  0.65000000000E+04  0.30000000000E+03 0. -1.
     100001    1    1    2    0    0 -0.42743818149E+04 -0.48939956564E+04  0.76265099193E+02  0.65000000000E+04  0.15050000000E+03 0.  1.
     100001    1    1    2    0    0  0.42743818149E+04  0.48939956564E+04 -0.76265099193E+02  0.65000000000E+04  0.15050000000E+03 0. -1.
</event>
<event>
 4    1  0.4521369E-004  0.6500000E+04  0.7818608E-02  0.7223770E-01
         52   -1    0    0    0    0  0.00000000000E+00  0.00000000000E+00  0.64930732323E+04  0.65000000000E+04  0.30000000000E+03 0. -1.
        -52   -1    0    0    0    0 -0.00000000000E+00 -0.00000000000E+00 -0.64930732323E+04  0.65000000000E+04  0.30000000000E+03 0.  1.
     100001    1    1    2    0    0 -0.54050312345E+03 -0.14256881698E+04  0.63168520139E+04  0.65000000000E+04  0.15050000000E+03 0. -1.
     100001    1    1    2    0    0  0.54050312345E+03  0.14256881698E+04 -0.63168520139E+04  0.65000000000E+04  0.15050000000E+03 0.  1.
</event>
<event>
 4    1  0.4521369E-004  0.6500000E+04  0.7818608E-02  0.7223770E-01
         52   -1    0    0    0    0  0.00000000000E+00  0.00000000000E+00  0.64930732323E+04  0.65000000000E+04  0.30000000000E+03 0. -1.
        -52   -1    0    0    0    0 -0.00000000000E+00 -0.00000000000E+00 -0.64930732323E+04  0.65000000000E+04  0.30000000000E+03 0.  1.
     100001    1    1    2    0    0 -0.43813866577E+03 -0.66280231788E+03 -0.64495021007E+04  0.65000000000E+04  0.15050000000E+03 0.  1.
     100001    1    1    2    0    0  0.43813866577E+03  0.66280231788E+03  0.64495021007E+04  0.65000000000E+04  0.15050000000E+03 0. -1.
</event>
<event>
 4    1  0.4521369E-004  0.6500000E+04  0.7818608E-02  0.7223770E-01
         52   -1    0    0    0    0  0.00000000000E+00  0.00000000000E+00  0.64930732323E+04  0.65000000000E+04  0.30000000000E+03 0.  1.
        -52   -1    0    0    0    0 -0.00000000000E+00 -0.00000000000E+00 -0.64930732323E+04  0.65000000000E+04  0.30000000000E+03 0. -1.
     100001    1    1    2    0    0  0.32354311176E+04 -0.20852484592E+04 -0.52355586232E+04  0.65000000000E+04  0.15050000000E+03 0. -1.
     100001    1    1    2    0    0 -0.32354311176E+04  0.20852484592E+04  0.52355586232E+04  0.65000000000E+04  0.15050000000E+03 0.  1.
</event>
<event>
 4    1  0.4521369E-004  0.6500000E+04  0.7818608E-02  0.7223770E-01
         52   -1    0    0    0    0  0.00000000000E+00  0.00000000000E+00  0.64930732323E+04  0.65000000000E+04  0.30000000000E+03 0.  1.
        -52   -1    0    0    0    0 -0.00000000000E+00 -0.00000000000E+00 -0.64930732323E+04  0.65000000000E+04  0.30000000000E+03 0. -1.
     100001    1    1    2    0    0 -0.16990521754E+03 -0.67592375402E+02  0.64956842009E+04  0.65000000000E+04  0.15050000000E+03 0.  1.
     100001    1    1    2    0    0  0.16990521754E+03  0.67592375402E+02 -0.64956842009E+04  0.65000000000E+04  0.15050000000E+03 0. -1.
</event>
<event>
 4    1  0.4521369E-004  0.6500000E+04  0.7818608E-02  0.7223770E-01
         52   -1    0    0    0    0  0.00000000000E+00  0.00000000000E+00  0.64930732323E+04  0.65000000000E+04  0.30000000000E+03 0. -1.
        -52   -1    0    0    0    0 -0.00000000000E+00 -0.00000000000E+00 -0.64930732323E+04  0.65000000000E+04  0.30000000000E+03 0.  1.
     100001    1    1    2    0    0  0.40531079587E+04 -0.18697983119E+04 -0.47226602565E+04  0.65000000000E+04  0.15050000000E+03 0.  1.
     100001    1    1    2    0    0 -0.40531079587E+04  0.18697983119E+04  0.47226602565E+04  0.65000000000E+04  0.15050000000E+03 0. -1.
</event>
<event>
 4    1  0.4521369E-004  0.6500000E+04  0.7818608E-02  0.7223770E-01
         52   -1    0    0    0    0  0.00000000000E+00  0.00000000000E+00  0.64930732323E+04  0.65000000000E+04  0.30000000000E+03 0.  1.
        -52   -1    0    0    0    0 -0.00000000000E+00 -0.00000000000E+00 -0.64930732323E+04  0.65000000000E+04  0.30000000000E+03 0. -1.
     100001    1    1    2    0    0  0.73301718675E+03  0.40008397668E+03 -0.64443749399E+04  0.65000000000E+04  0.15050000000E+03 0. -1.
     100001    1    1    2    0    0 -0.73301718675E+03 -0.40008397668E+03  0.64443749399E+04  0.65000000000E+04  0.15050000000E+03 0.  1.
</event>
<event>
 4    1  0.4521369E-004  0.6500000E+04  0.7818608E-02  0.7223770E-01
         52   -1    0    0    0    0  0.00000000000E+00  0.00000000000E+00  0.64930732323E+04  0.65000000000E+04  0.30000000000E+03 0.  1.
        -52   -1    0    0    0    0 -0.00000000000E+00 -0.00000000000E+00 -0.64930732323E+04  0.65000000000E+04  0.30000000000E+03 0. -1.
     100001    1    1    2    0    0  0.15067506723E+03 -0.57847064558E+03 -0.64707046360E+04  0.65000000000E+04  0.15050000000E+03 0. -1.
     100001    1    1    2    0    0 -0.15067506723E+03  0.57847064558E+03  0.64707046360E+04  0.65000000000E+04  0.15050000000E+03 0.  1.
</event>
<event>
 4    1  0.4521369E-004  0.6500000E+04  0.7818608E-02  0.7223770E-01
         52   -1    0    0    0    0  0.00000000000E+00  0.00000000000E+00  0.64930732323E+04  0.65000000000E+04  0.30000000000E+03 0. -1.
        -52   -1    0    0    0    0 -0.00000000000E+00 -0.00000000000E+00 -0.64930732323E+04  0.65000000000E+04  0.30000000000E+03 0.  1.
     100001    1    1    2    0    0 -0.79594647976E+03 -0.62263526146E+03  0.64192012184E+04  0.65000000000E+04  0.15050000000E+03 0. -1.
     100001    1    1    2    0    0  0.79594647976E+03  0.62263526146E+03 -0.64192012184E+04  0.65000000000E+04  0.15050000000E+03 0.  1.
</event>
<event>
 4    1  0.4521369E-004  0.6500000E+04  0.7818608E-02  0.7223770E-01
         52   -1    0    0    0    0  0.00000000000E+00  0.00000000000E+00  0.64930732323E+04  0.65000000000E+04  0.30000000000E+03 0.  1.
        -52   -1    0    0    0    0 -0.00000000000E+00 -0.00000000000E+00 -0.64930732323E+04  0.65000000000E+04  0.30000000000E+03 0.  1.
     100001    1    1    2    0    0  0.38276465818E+03  0.38132532077E+03 -0.64757572504E+04  0.65000000000E+04  0.15050000000E+03 0.  1.
     100001    1    1    2    0    0 -0.38276465818E+03 -0.38132532077E+03  0.64757572504E+04  0.65000000000E+04  0.15050000000E+03 0.  1.
</event>
<event>
 4    1  0.4521369E-004  0.6500000E+04  0.7818608E-02  0.7223770E-01
         52   -1    0    0    0    0  0.00000000000E+00  0.00000000000E+00  0.64930732323E+04  0.65000000000E+04  0.30000000000E+03 0. -1.
        -52   -1    0    0    0    0 -0.00000000000E+00 -0.00000000000E+00 -0.64930732323E+04  0.65000000000E+04  0.30000000000E+03 0.  1.
     100001    1    1    2    0    0 -0.15266226121E+04 -0.17696325322E+04  0.60634292155E+04  0.65000000000E+04  0.15050000000E+03 0. -1.
     100001    1    1    2    0    0  0.15266226121E+04  0.17696325322E+04 -0.60634292155E+04  0.65000000000E+04  0.15050000000E+03 0.  1.
</event>
<event>
 4    1  0.4521369E-004  0.6500000E+04  0.7818608E-02  0.7223770E-01
         52   -1    0    0    0    0  0.00000000000E+00  0.00000000000E+00  0.64930732323E+04  0.65000000000E+04  0.30000000000E+03 0. -1.
        -52   -1    0    0    0    0 -0.00000000000E+00 -0.00000000000E+00 -0.64930732323E+04  0.65000000000E+04  0.30000000000E+03 0. -1.
     100001    1    1    2    0    0  0.10604287085E+03 -0.63656956826E+03 -0.64661336086E+04  0.65000000000E+04  0.15050000000E+03 0. -1.
     100001    1    1    2    0    0 -0.10604287085E+03  0.63656956826E+03  0.64661336086E+04  0.65000000000E+04  0.15050000000E+03 0. -1.
</event>
<event>
 4    1  0.4521369E-004  0.6500000E+04  0.7818608E-02  0.7223770E-01
         52   -1    0    0    0    0  0.00000000000E+00  0.00000000000E+00  0.64930732323E+04  0.65000000000E+04  0.30000000000E+03 0.  1.
        -52   -1    0    0    0    0 -0.00000000000E+00 -0.00000000000E+00 -0.64930732323E+04  0.65000000000E+04  0.30000000000E+03 0. -1.
     100001    1    1    2    0    0 -0.42346883425E+03 -0.27150722325E+02 -0.64843879229E+04  0.65000000000E+04  0.15050000000E+03 0. -1.
     100001    1    1    2    0    0  0.42346883425E+03  0.27150722325E+02  0.64843879229E+04  0.65000000000E+04  0.15050000000E+03 0.  1.
</event>
<event>
 4    1  0.4521369E-004  0.6500000E+04  0.7818608E-02  0.7223770E-01
         52   -1    0    0    0    0  0.00000000000E+00  0.00000000000E+00  0.64930732323E+04  0.65000000000E+04  0.30000000000E+03 0.  1.
        -52   -1    0    0    0    0 -0.00000000000E+00 -0.00000000000E+00 -0.64930732323E+04  0.65000000000E+04  0.30000000000E+03 0.  1.
     100001    1    1    2    0    0 -0.32364386189E+02 -0.99095710254E+03  0.64221730214E+04  0.65000000000E+04  0.15050000000E+03 0.  1.
     100001    1    1    2    0    0  0.32364386189E+02  0.99095710254E+03 -0.64221730214E+04  0.65000000000E+04  0.15050000000E+03 0.  1.
</event>
<event>
 4    1  0.4521369E-004  0.6500000E+04  0.7818608E-02  0.7223770E-01
         52   -1    0    0    0    0  0.00000000000E+00  0.00000000000E+00  0.64930732323E+04  0.65000000000E+04  0.30000000000E+03 0.  1.
        -52   -1    0    0    0    0 -0.00000000000E+00 -0.00000000000E+00 -0.64930732323E+04  0.65000000000E+04  0.30000000000E+03 0. -1.
     100001    1    1    2    0    0  0.69528490435E+03 -0.91953392768E+03 -0.63951845953E+04  0.65000000000E+04  0.15050000000E+03 0. -1.
     100001    1    1    2    0    0 -0.69528490435E+03  0.91953392768E+03  0.63951845953E+04  0.65000000000E+04  0.15050000000E+03 0.  1.
</event>
<event>
 4    1  0.4521369E-004  0.6500000E+04  0.7818608E-02  0.7223770E-01
         52   -1    0    0    0    0  0.00000000000E+00  0.00000000000E+00  0.64930732323E+04  0.65000000000E+04  0.30000000000E+03 0. -1.
        -52   -1    0    0    0    0 -0.00000000000E+00 -0.00000000000E+00 -0.64930732323E+04  0.65000000000E+04  0.30000000000E+03 0.  1.
     100001    1    1    2    0    0 -0.30574428570E+03  0.36174345704E+03 -0.64809730637E+04  0.65000000000E+04  0.15050000000E+03 0.  1.
     100001    1    1    2    0    0  0.30574428570E+03 -0.36174345704E+03  0.64809730637E+04  0.65000000000E+04  0.15050000000E+03 0. -1.
</event>
<event>
 4    1  0.4521369E-004  0.6500000E+04  0.7818608E-02  0.7223770E-01
         52   -1    0    0    0    0  0.00000000000E+00  0.00000000000E+00  0.64930732323E+04  0.65000000000E+04  0.30000000000E+03 0.  1.
        -52   -1    0    0    0    0 -0.00000000000E+00 -0.00000000000E+00 -0.64930732323E+04  0.65000000000E+04  0.30000000000E+03 0. -1.
     100001    1    1    2    0    0 -0.60834755583E+04  0.22495088085E+04 -0.39797613215E+03  0.65000000000E+04  0.15050000000E+03 0.  1.
     100001    1    1    2    0    0  0.60834755583E+04 -0.22495088085E+04  0.39797613215E+03  0.65000000000E+04  0.15050000000E+03 0. -1.
</event>
<event>
 4    1  0.4521369E-004  0.6500000E+04  0.7818608E-02  0.7223770E-01
         52   -1    0    0    0    0  0.00000000000E+00  0.00000000000E+00  0.64930732323E+04  0.65000000000E+04  0.30000000000E+03 0. -1.
        -52   -1    0    0    0    0 -0.00000000000E+00 -0.00000000000E+00 -0.64930732323E+04  0.65000000000E+04  0.30000000000E+03 0.  1.
     100001    1    1    2    0    0 -0.30425726968E+04 -0.17919858361E+04 -0.54551707487E+04  0.65000000000E+04  0.15050000000E+03 0.  1.
     100001    1    1    2    0    0  0.30425726968E+04  0.17919858361E+04  0.54551707487E+04  0.65000000000E+04  0.15050000000E+03 0. -1.
</event>
<event>
 4    1  0.4521369E-004  0.6500000E+04  0.7818608E-02  0.7223770E-01
         52   -1    0    0    0    0  0.00000000000E+00  0.00000000000E+00  0.64930732323E+04  0.65000000000E+04  0.30000000000E+03 0.  1.
        -52   -1    0    0    0    0 -0.00000000000E+00 -0.00000000000E+00 -0.64930732323E+04  0.65000000000E+04  0.30000000000E+03 0. -1.
     100001    1    1    2    0    0 -0.14749595250E+04  0.10484507370E+04  0.62412014229E+04  0.65000000000E+04  0.15050000000E+03 0.  1.
     100001    1    1    2    0    0  0.14749595250E+04 -0.10484507370E+04 -0.62412014229E+04  0.65000000000E+04  0.15050000000E+03 0. -1.
</event>
<event>
 4    1  0.4521369E-004  0.6500000E+04  0.7818608E-02  0.7223770E-01
         52   -1    0    0    0    0  0.00000000000E+00  0.00000000000E+00  0.64930732323E+04  0.65000000000E+04  0.30000000000E+03 0. -1.
        -52   -1    0    0    0    0 -0.00000000000E+00 -0.00000000000E+00 -0.64930732323E+04  0.65000000000E+04  0.30000000000E+03 0.  1.
     100001    1    1    2    0    0  0.83892678538E+02  0.45311742329E+04 -0.46571205524E+04  0.65000000000E+04  0.15050000000E+03 0.  1.
     100001    1    1    2    0    0 -0.83892678538E+02 -0.45311742329E+04  0.46571205524E+04  0.65000000000E+04  0.15050000000E+03 0. -1.
</event>
<event>
 4    1  0.4521369E-004  0.6500000E+04  0.7818608E-02  0.7223770E-01
         52   -1    0    0    0    0  0.00000000000E+00  0.00000000000E+00  0.64930732323E+04  0.65000000000E+04  0.30000000000E+03 0. -1.
        -52   -1    0    0    0    0 -0.00000000000E+00 -0.00000000000E+00 -0.64930732323E+04  0.65000000000E+04  0.30000000000E+03 0.  1.
     100001    1    1    2    0    0  0.69698798924E+02 -0.55440030615E+04 -0.33891771688E+04  0.65000000000E+04  0.15050000000E+03 0.  1.
     100001    1    1    2    0    0 -0.69698798924E+02  0.55440030615E+04  0.33891771688E+04  0.65000000000E+04  0.15050000000E+03 0. -1.
</event>
<event>
 4    1  0.4521369E-004  0.6500000E+04  0.7818608E-02  0.7223770E-01
         52   -1    0    0    0    0  0.00000000000E+00  0.00000000000E+00  0.64930732323E+04  0.65000000000E+04  0.30000000000E+03 0.  1.
        -52   -1    0    0    0    0 -0.00000000000E+00 -0.00000000000E+00 -0.64930732323E+04  0.65000000000E+04  0.30000000000E+03 0. -1.
     100001    1    1    2    0    0  0.95693269321E+03  0.73782621579E+03 -0.63849230258E+04  0.65000000000E+04  0.15050000000E+03 0. -1.
     100001    1    1    2    0    0 -0.95693269321E+03 -0.73782621579E+03  0.63849230258E+04  0.65000000000E+04  0.15050000000E+03 0.  1.
</event>
<event>
 4    1  0.4521369E-004  0.6500000E+04  0.7818608E-02  0.7223770E-01
         52   -1    0    0    0    0  0.00000000000E+00  0.00000000000E+00  0.64930732323E+04  0.65000000000E+04  0.30000000000E+03 0. -1.
        -52   -1    0    0    0    0 -0.00000000000E+00 -0.00000000000E+00 -0.64930732323E+04  0.65000000000E+04  0.30000000000E+03 0.  1.
     100001    1    1    2    0    0  0.18316221833E+04  0.25812814660E+04 -0.56753410401E+04  0.65000000000E+04  0.15050000000E+03 0.  1.
     100001    1    1    2    0    0 -0.18316221833E+04 -0.25812814660E+04  0.56753410401E+04  0.65000000000E+04  0.15050000000E+03 0. -1.
</event>
<event>
 4    1  0.4521369E-004  0.6500000E+04  0.7818608E-02  0.7223770E-01
         52   -1    0    0    0    0  0.00000000000E+00  0.00000000000E+00  0.64930732323E+04  0.65000000000E+04  0.30000000000E+03 0. -1.
        -52   -1    0    0    0    0 -0.00000000000E+00 -0.00000000000E+00 -0.64930732323E+04  0.65000000000E+04  0.30000000000E+03 0.  1.
     100001    1    1    2    0    0  0.57425452258E+04 -0.44353506461E+03 -0.30089534270E+04  0.65000000000E+04  0.15050000000E+03 0.  1.
     100001    1    1    2    0    0 -0.57425452258E+04  0.44353506461E+03  0.30089534270E+04  0.65000000000E+04  0.15050000000E+03 0. -1.
</event>
<event>
 4    1  0.4521369E-004  0.6500000E+04  0.7818608E-02  0.7223770E-01
         52   -1    0    0    0    0  0.00000000000E+00  0.00000000000E+00  0.64930732323E+04  0.65000000000E+04  0.30000000000E+03 0.  1.
        -52   -1    0    0    0    0 -0.00000000000E+00 -0.00000000000E+00 -0.64930732323E+04  0.65000000000E+04  0.30000000000E+03 0. -1.
     100001    1    1    2    0    0  0.16643806784E+04 -0.23258183755E+04 -0.58350454661E+04  0.65000000000E+04  0.15050000000E+03 0. -1.
     100001    1    1    2    0    0 -0.16643806784E+04  0.23258183755E+04  0.58350454661E+04  0.65000000000E+04  0.15050000000E+03 0.  1.
</event>
<event>
 4    1  0.4521369E-004  0.6500000E+04  0.7818608E-02  0.7223770E-01
         52   -1    0    0    0    0  0.00000000000E+00  0.00000000000E+00  0.64930732323E+04  0.65000000000E+04  0.30000000000E+03 0.  1.
        -52   -1    0    0    0    0 -0.00000000000E+00 -0.00000000000E+00 -0.64930732323E+04  0.65000000000E+04  0.30000000000E+03 0. -1.
     100001    1    1    2    0    0  0.23445664243E+04 -0.49357557216E+03  0.60404255799E+04  0.65000000000E+04  0.15050000000E+03 0.  1.
     100001    1    1    2    0    0 -0.23445664243E+04  0.49357557216E+03 -0.60404255799E+04  0.65000000000E+04  0.15050000000E+03 0. -1.
</event>
<event>
 4    1  0.4521369E-004  0.6500000E+04  0.7818608E-02  0.7223770E-01
         52   -1    0    0    0    0  0.00000000000E+00  0.00000000000E+00  0.64930732323E+04  0.65000000000E+04  0.30000000000E+03 0.  1.
        -52   -1    0    0    0    0 -0.00000000000E+00 -0.00000000000E+00 -0.64930732323E+04  0.65000000000E+04  0.30000000000E+03 0. -1.
     100001    1    1    2    0    0 -0.68601564623E+03  0.83439902162E+02  0.64614061988E+04  0.65000000000E+04  0.15050000000E+03 0.  1.
     100001    1    1    2    0    0  0.68601564623E+03 -0.83439902162E+02 -0.64614061988E+04  0.65000000000E+04  0.15050000000E+03 0. -1.
</event>
<event>
 4    1  0.7069477E-004  0.6500000E+04  0.7818608E-02  0.7223770E-01
         52   -1    0    0    0    0  0.00000000000E+00  0.00000000000E+00  0.64930732323E+04  0.65000000000E+04  0.30000000000E+03 0.  1.
        -52   -1    0    0    0    0 -0.00000000000E+00 -0.00000000000E+00 -0.64930732323E+04  0.65000000000E+04  0.30000000000E+03 0. -1.
     100001    1    1    2    0    0  0.11757953543E+03  0.71753622560E+02 -0.64967973818E+04  0.65000000000E+04  0.15050000000E+03 0. -1.
     100001    1    1    2    0    0 -0.11757953543E+03 -0.71753622560E+02  0.64967973818E+04  0.65000000000E+04  0.15050000000E+03 0.  1.
</event>
<event>
 4    1  0.4521369E-004  0.6500000E+04  0.7818608E-02  0.7223770E-01
         52   -1    0    0    0    0  0.00000000000E+00  0.00000000000E+00  0.64930732323E+04  0.65000000000E+04  0.30000000000E+03 0. -1.
        -52   -1    0    0    0    0 -0.00000000000E+00 -0.00000000000E+00 -0.64930732323E+04  0.65000000000E+04  0.30000000000E+03 0. -1.
     100001    1    1    2    0    0 -0.28553542577E+03 -0.21386499497E+03 -0.64884575235E+04  0.65000000000E+04  0.15050000000E+03 0. -1.
     100001    1    1    2    0    0  0.28553542577E+03  0.21386499497E+03  0.64884575235E+04  0.65000000000E+04  0.15050000000E+03 0. -1.
</event>
<event>
 4    1  0.4521369E-004  0.6500000E+04  0.7818608E-02  0.7223770E-01
         52   -1    0    0    0    0  0.00000000000E+00  0.00000000000E+00  0.64930732323E+04  0.65000000000E+04  0.30000000000E+03 0. -1.
        -52   -1    0    0    0    0 -0.00000000000E+00 -0.00000000000E+00 -0.64930732323E+04  0.65000000000E+04  0.30000000000E+03 0.  1.
     100001    1    1    2    0    0 -0.36232817159E+03 -0.11409369720E+03  0.64871450326E+04  0.65000000000E+04  0.15050000000E+03 0. -1.
     100001    1    1    2    0    0  0.36232817159E+03  0.11409369720E+03 -0.64871450326E+04  0.65000000000E+04  0.15050000000E+03 0.  1.
</event>
<event>
 4    1  0.4521369E-004  0.6500000E+04  0.7818608E-02  0.7223770E-01
         52   -1    0    0    0    0  0.00000000000E+00  0.00000000000E+00  0.64930732323E+04  0.65000000000E+04  0.30000000000E+03 0. -1.
        -52   -1    0    0    0    0 -0.00000000000E+00 -0.00000000000E+00 -0.64930732323E+04  0.65000000000E+04  0.30000000000E+03 0.  1.
     100001    1    1    2    0    0 -0.96804794547E+03  0.11975255304E+04 -0.63131739663E+04  0.65000000000E+04  0.15050000000E+03 0.  1.
     100001    1    1    2    0    0  0.96804794547E+03 -0.11975255304E+04  0.63131739663E+04  0.65000000000E+04  0.15050000000E+03 0. -1.
</event>
<event>
 4    1  0.4521369E-004  0.6500000E+04  0.7818608E-02  0.7223770E-01
         52   -1    0    0    0    0  0.00000000000E+00  0.00000000000E+00  0.64930732323E+04  0.65000000000E+04  0.30000000000E+03 0.  1.
        -52   -1    0    0    0    0 -0.00000000000E+00 -0.00000000000E+00 -0.64930732323E+04  0.65000000000E+04  0.30000000000E+03 0. -1.
     100001    1    1    2    0    0  0.19828202471E+04 -0.57657527479E+02  0.61880893034E+04  0.65000000000E+04  0.15050000000E+03 0.  1.
     100001    1    1    2    0    0 -0.19828202471E+04  0.57657527479E+02 -0.61880893034E+04  0.65000000000E+04  0.15050000000E+03 0. -1.
</event>
<event>
 4    1  0.4521369E-004  0.6500000E+04  0.7818608E-02  0.7223770E-01
         52   -1    0    0    0    0  0.00000000000E+00  0.00000000000E+00  0.64930732323E+04  0.65000000000E+04  0.30000000000E+03 0.  1.
        -52   -1    0    0    0    0 -0.00000000000E+00 -0.00000000000E+00 -0.64930732323E+04  0.65000000000E+04  0.30000000000E+03 0. -1.
     100001    1    1    2    0    0 -0.26284667002E+04 -0.46457195578E+04  0.37061843378E+04  0.65000000000E+04  0.15050000000E+03 0.  1.
     100001    1    1    2    0    0  0.26284667002E+04  0.46457195578E+04 -0.37061843378E+04  0.65000000000E+04  0.15050000000E+03 0. -1.
</event>
<event>
 4    1  0.4521369E-004  0.6500000E+04  0.7818608E-02  0.7223770E-01
         52   -1    0    0    0    0  0.00000000000E+00  0.00000000000E+00  0.64930732323E+04  0.65000000000E+04  0.30000000000E+03 0.  1.
        -52   -1    0    0    0    0 -0.00000000000E+00 -0.00000000000E+00 -0.64930732323E+04  0.65000000000E+04  0.30000000000E+03 0. -1.
     100001    1    1    2    0    0 -0.42090024997E+04  0.18069125563E+04  0.46094158764E+04  0.65000000000E+04  0.15050000000E+03 0.  1.
     100001    1    1    2    0    0  0.42090024997E+04 -0.18069125563E+04 -0.46094158764E+04  0.65000000000E+04  0.15050000000E+03 0. -1.
</event>
<event>
 4    1  0.4521369E-004  0.6500000E+04  0.7818608E-02  0.7223770E-01
         52   -1    0    0    0    0  0.00000000000E+00  0.00000000000E+00  0.64930732323E+04  0.65000000000E+04  0.30000000000E+03 0. -1.
        -52   -1    0    0    0    0 -0.00000000000E+00 -0.00000000000E+00 -0.64930732323E+04  0.65000000000E+04  0.30000000000E+03 0.  1.
     100001    1    1    2    0    0  0.16261501988E+04  0.24026965475E+03 -0.62869114654E+04  0.65000000000E+04  0.15050000000E+03 0.  1.
     100001    1    1    2    0    0 -0.16261501988E+04 -0.24026965475E+03  0.62869114654E+04  0.65000000000E+04  0.15050000000E+03 0. -1.
</event>
<event>
 4    1  0.4521369E-004  0.6500000E+04  0.7818608E-02  0.7223770E-01
         52   -1    0    0    0    0  0.00000000000E+00  0.00000000000E+00  0.64930732323E+04  0.65000000000E+04  0.30000000000E+03 0. -1.
        -52   -1    0    0    0    0 -0.00000000000E+00 -0.00000000000E+00 -0.64930732323E+04  0.65000000000E+04  0.30000000000E+03 0.  1.
     100001    1    1    2    0    0 -0.57730351928E+03 -0.30641658383E+03  0.64653058144E+04  0.65000000000E+04  0.15050000000E+03 0. -1.
     100001    1    1    2    0    0  0.57730351928E+03  0.30641658383E+03 -0.64653058144E+04  0.65000000000E+04  0.15050000000E+03 0.  1.
</event>
<event>
 4    1  0.4521369E-004  0.6500000E+04  0.7818608E-02  0.7223770E-01
         52   -1    0    0    0    0  0.00000000000E+00  0.00000000000E+00  0.64930732323E+04  0.65000000000E+04  0.30000000000E+03 0.  1.
        -52   -1    0    0    0    0 -0.00000000000E+00 -0.00000000000E+00 -0.64930732323E+04  0.65000000000E+04  0.30000000000E+03 0. -1.
     100001    1    1    2    0    0  0.56619497334E+03  0.72945903817E+03  0.64323139315E+04  0.65000000000E+04  0.15050000000E+03 0.  1.
     100001    1    1    2    0    0 -0.56619497334E+03 -0.72945903817E+03 -0.64323139315E+04  0.65000000000E+04  0.15050000000E+03 0. -1.
</event>
<event>
 4    1  0.4521369E-004  0.6500000E+04  0.7818608E-02  0.7223770E-01
         52   -1    0    0    0    0  0.00000000000E+00  0.00000000000E+00  0.64930732323E+04  0.65000000000E+04  0.30000000000E+03 0. -1.
        -52   -1    0    0    0    0 -0.00000000000E+00 -0.00000000000E+00 -0.64930732323E+04  0.65000000000E+04  0.30000000000E+03 0.  1.
     100001    1    1    2    0    0 -0.88766402255E+03 -0.22214903607E+03 -0.64335100947E+04  0.65000000000E+04  0.15050000000E+03 0.  1.
     100001    1    1    2    0    0  0.88766402255E+03  0.22214903607E+03  0.64335100947E+04  0.65000000000E+04  0.15050000000E+03 0. -1.
</event>
<event>
 4    1  0.4521369E-004  0.6500000E+04  0.7818608E-02  0.7223770E-01
         52   -1    0    0    0    0  0.00000000000E+00  0.00000000000E+00  0.64930732323E+04  0.65000000000E+04  0.30000000000E+03 0. -1.
        -52   -1    0    0    0    0 -0.00000000000E+00 -0.00000000000E+00 -0.64930732323E+04  0.65000000000E+04  0.30000000000E+03 0.  1.
     100001    1    1    2    0    0  0.79572889588E+03  0.27950293468E+04  0.58122264430E+04  0.65000000000E+04  0.15050000000E+03 0. -1.
     100001    1    1    2    0    0 -0.79572889588E+03 -0.27950293468E+04 -0.58122264430E+04  0.65000000000E+04  0.15050000000E+03 0.  1.
</event>
<event>
 4    1  0.4521369E-004  0.6500000E+04  0.7818608E-02  0.7223770E-01
         52   -1    0    0    0    0  0.00000000000E+00  0.00000000000E+00  0.64930732323E+04  0.65000000000E+04  0.30000000000E+03 0.  1.
        -52   -1    0    0    0    0 -0.00000000000E+00 -0.00000000000E+00 -0.64930732323E+04  0.65000000000E+04  0.30000000000E+03 0. -1.
     100001    1    1    2    0    0 -0.45997070311E+03 -0.19498435275E+04 -0.61817381796E+04  0.65000000000E+04  0.15050000000E+03 0. -1.
     100001    1    1    2    0    0  0.45997070311E+03  0.19498435275E+04  0.61817381796E+04  0.65000000000E+04  0.15050000000E+03 0.  1.
</event>
<event>
 4    1  0.4521369E-004  0.6500000E+04  0.7818608E-02  0.7223770E-01
         52   -1    0    0    0    0  0.00000000000E+00  0.00000000000E+00  0.64930732323E+04  0.65000000000E+04  0.30000000000E+03 0.  1.
        -52   -1    0    0    0    0 -0.00000000000E+00 -0.00000000000E+00 -0.64930732323E+04  0.65000000000E+04  0.30000000000E+03 0. -1.
     100001    1    1    2    0    0  0.24404957203E+04 -0.66132987558E+03 -0.59861484433E+04  0.65000000000E+04  0.15050000000E+03 0. -1.
     100001    1    1    2    0    0 -0.24404957203E+04  0.66132987558E+03  0.59861484433E+04  0.65000000000E+04  0.15050000000E+03 0.  1.
</event>
<event>
 4    1  0.4521369E-004  0.6500000E+04  0.7818608E-02  0.7223770E-01
         52   -1    0    0    0    0  0.00000000000E+00  0.00000000000E+00  0.64930732323E+04  0.65000000000E+04  0.30000000000E+03 0.  1.
        -52   -1    0    0    0    0 -0.00000000000E+00 -0.00000000000E+00 -0.64930732323E+04  0.65000000000E+04  0.30000000000E+03 0. -1.
     100001    1    1    2    0    0  0.37335820425E+03  0.40140177533E+03  0.64750930508E+04  0.65000000000E+04  0.15050000000E+03 0.  1.
     100001    1    1    2    0    0 -0.37335820425E+03 -0.40140177533E+03 -0.64750930508E+04  0.65000000000E+04  0.15050000000E+03 0. -1.
</event>
<event>
 4    1  0.6921465E-004  0.6500000E+04  0.7818608E-02  0.7223770E-01
         52   -1    0    0    0    0  0.00000000000E+00  0.00000000000E+00  0.64930732323E+04  0.65000000000E+04  0.30000000000E+03 0.  1.
        -52   -1    0    0    0    0 -0.00000000000E+00 -0.00000000000E+00 -0.64930732323E+04  0.65000000000E+04  0.30000000000E+03 0. -1.
     100001    1    1    2    0    0  0.22242978545E+02  0.12238336892E+03  0.64970668236E+04  0.65000000000E+04  0.15050000000E+03 0.  1.
     100001    1    1    2    0    0 -0.22242978545E+02 -0.12238336892E+03 -0.64970668236E+04  0.65000000000E+04  0.15050000000E+03 0. -1.
</event>
<event>
 4    1  0.4521369E-004  0.6500000E+04  0.7818608E-02  0.7223770E-01
         52   -1    0    0    0    0  0.00000000000E+00  0.00000000000E+00  0.64930732323E+04  0.65000000000E+04  0.30000000000E+03 0.  1.
        -52   -1    0    0    0    0 -0.00000000000E+00 -0.00000000000E+00 -0.64930732323E+04  0.65000000000E+04  0.30000000000E+03 0.  1.
     100001    1    1    2    0    0 -0.38442337345E+03 -0.25272433565E+02 -0.64868274005E+04  0.65000000000E+04  0.15050000000E+03 0.  1.
     100001    1    1    2    0    0  0.38442337345E+03  0.25272433565E+02  0.64868274005E+04  0.65000000000E+04  0.15050000000E+03 0.  1.
</event>
<event>
 4    1  0.4521369E-004  0.6500000E+04  0.7818608E-02  0.7223770E-01
         52   -1    0    0    0    0  0.00000000000E+00  0.00000000000E+00  0.64930732323E+04  0.65000000000E+04  0.30000000000E+03 0.  1.
        -52   -1    0    0    0    0 -0.00000000000E+00 -0.00000000000E+00 -0.64930732323E+04  0.65000000000E+04  0.30000000000E+03 0.  1.
     100001    1    1    2    0    0 -0.10677174890E+04  0.27270650013E+03  0.64041361852E+04  0.65000000000E+04  0.15050000000E+03 0.  1.
     100001    1    1    2    0    0  0.10677174890E+04 -0.27270650013E+03 -0.64041361852E+04  0.65000000000E+04  0.15050000000E+03 0.  1.
</event>
<event>
 4    1  0.7870417E-004  0.6500000E+04  0.7818608E-02  0.7223770E-01
         52   -1    0    0    0    0  0.00000000000E+00  0.00000000000E+00  0.64930732323E+04  0.65000000000E+04  0.30000000000E+03 0. -1.
        -52   -1    0    0    0    0 -0.00000000000E+00 -0.00000000000E+00 -0.64930732323E+04  0.65000000000E+04  0.30000000000E+03 0. -1.
     100001    1    1    2    0    0 -0.89927534353E+02 -0.45854936860E+02 -0.64974733638E+04  0.65000000000E+04  0.15050000000E+03 0. -1.
     100001    1    1    2    0    0  0.89927534353E+02  0.45854936860E+02  0.64974733638E+04  0.65000000000E+04  0.15050000000E+03 0. -1.
</event>
<event>
 4    1  0.4521369E-004  0.6500000E+04  0.7818608E-02  0.7223770E-01
         52   -1    0    0    0    0  0.00000000000E+00  0.00000000000E+00  0.64930732323E+04  0.65000000000E+04  0.30000000000E+03 0.  1.
        -52   -1    0    0    0    0 -0.00000000000E+00 -0.00000000000E+00 -0.64930732323E+04  0.65000000000E+04  0.30000000000E+03 0. -1.
     100001    1    1    2    0    0  0.22428523838E+03 -0.16583677286E+04 -0.62790813308E+04  0.65000000000E+04  0.15050000000E+03 0. -1.
     100001    1    1    2    0    0 -0.22428523838E+03  0.16583677286E+04  0.62790813308E+04  0.65000000000E+04  0.15050000000E+03 0.  1.
</event>
<event>
 4    1  0.4521369E-004  0.6500000E+04  0.7818608E-02  0.7223770E-01
         52   -1    0    0    0    0  0.00000000000E+00  0.00000000000E+00  0.64930732323E+04  0.65000000000E+04  0.30000000000E+03 0.  1.
        -52   -1    0    0    0    0 -0.00000000000E+00 -0.00000000000E+00 -0.64930732323E+04  0.65000000000E+04  0.30000000000E+03 0. -1.
     100001    1    1    2    0    0  0.18693097243E+03  0.33175180618E+03  0.64870908195E+04  0.65000000000E+04  0.15050000000E+03 0.  1.
     100001    1    1    2    0    0 -0.18693097243E+03 -0.33175180618E+03 -0.64870908195E+04  0.65000000000E+04  0.15050000000E+03 0. -1.
</event>
<event>
 4    1  0.4521369E-004  0.6500000E+04  0.7818608E-02  0.7223770E-01
         52   -1    0    0    0    0  0.00000000000E+00  0.00000000000E+00  0.64930732323E+04  0.65000000000E+04  0.30000000000E+03 0.  1.
        -52   -1    0    0    0    0 -0.00000000000E+00 -0.00000000000E+00 -0.64930732323E+04  0.65000000000E+04  0.30000000000E+03 0. -1.
     100001    1    1    2    0    0  0.43562925998E+04 -0.26540411225E+04  0.40256838245E+04  0.65000000000E+04  0.15050000000E+03 0.  1.
     100001    1    1    2    0    0 -0.43562925998E+04  0.26540411225E+04 -0.40256838245E+04  0.65000000000E+04  0.15050000000E+03 0. -1.
</event>
<event>
 4    1  0.4521369E-004  0.6500000E+04  0.7818608E-02  0.7223770E-01
         52   -1    0    0    0    0  0.00000000000E+00  0.00000000000E+00  0.64930732323E+04  0.65000000000E+04  0.30000000000E+03 0. -1.
        -52   -1    0    0    0    0 -0.00000000000E+00 -0.00000000000E+00 -0.64930732323E+04  0.65000000000E+04  0.30000000000E+03 0.  1.
     100001    1    1    2    0    0  0.39229013170E+04  0.13703917523E+03  0.51787464962E+04  0.65000000000E+04  0.15050000000E+03 0. -1.
     100001    1    1    2    0    0 -0.39229013170E+04 -0.13703917523E+03 -0.51787464962E+04  0.65000000000E+04  0.15050000000E+03 0.  1.
</event>
<event>
 4    1  0.4521369E-004  0.6500000E+04  0.7818608E-02  0.7223770E-01
         52   -1    0    0    0    0  0.00000000000E+00  0.00000000000E+00  0.64930732323E+04  0.65000000000E+04  0.30000000000E+03 0.  1.
        -52   -1    0    0    0    0 -0.00000000000E+00 -0.00000000000E+00 -0.64930732323E+04  0.65000000000E+04  0.30000000000E+03 0.  1.
     100001    1    1    2    0    0 -0.52059678247E+03 -0.24842557596E+02 -0.64773228719E+04  0.65000000000E+04  0.15050000000E+03 0.  1.
     100001    1    1    2    0    0  0.52059678247E+03  0.24842557596E+02  0.64773228719E+04  0.65000000000E+04  0.15050000000E+03 0.  1.
</event>
<event>
 4    1  0.4521369E-004  0.6500000E+04  0.7818608E-02  0.7223770E-01
         52   -1    0    0    0    0  0.00000000000E+00  0.00000000000E+00  0.64930732323E+04  0.65000000000E+04  0.30000000000E+03 0.  1.
        -52   -1    0    0    0    0 -0.00000000000E+00 -0.00000000000E+00 -0.64930732323E+04  0.65000000000E+04  0.30000000000E+03 0. -1.
     100001    1    1    2    0    0  0.94304611479E+02 -0.49942917226E+03 -0.64783506305E+04  0.65000000000E+04  0.15050000000E+03 0. -1.
     100001    1    1    2    0    0 -0.94304611479E+02  0.49942917226E+03  0.64783506305E+04  0.65000000000E+04  0.15050000000E+03 0.  1.
</event>
<event>
 4    1  0.4521369E-004  0.6500000E+04  0.7818608E-02  0.7223770E-01
         52   -1    0    0    0    0  0.00000000000E+00  0.00000000000E+00  0.64930732323E+04  0.65000000000E+04  0.30000000000E+03 0.  1.
        -52   -1    0    0    0    0 -0.00000000000E+00 -0.00000000000E+00 -0.64930732323E+04  0.65000000000E+04  0.30000000000E+03 0. -1.
     100001    1    1    2    0    0  0.66532847701E+03  0.13675892612E+03  0.64626608114E+04  0.65000000000E+04  0.15050000000E+03 0.  1.
     100001    1    1    2    0    0 -0.66532847701E+03 -0.13675892612E+03 -0.64626608114E+04  0.65000000000E+04  0.15050000000E+03 0. -1.
</event>
<event>
 4    1  0.4521369E-004  0.6500000E+04  0.7818608E-02  0.7223770E-01
         52   -1    0    0    0    0  0.00000000000E+00  0.00000000000E+00  0.64930732323E+04  0.65000000000E+04  0.30000000000E+03 0.  1.
        -52   -1    0    0    0    0 -0.00000000000E+00 -0.00000000000E+00 -0.64930732323E+04  0.65000000000E+04  0.30000000000E+03 0. -1.
     100001    1    1    2    0    0  0.61547399247E+02  0.52809558895E+03 -0.64764710079E+04  0.65000000000E+04  0.15050000000E+03 0. -1.
     100001    1    1    2    0    0 -0.61547399247E+02 -0.52809558895E+03  0.64764710079E+04  0.65000000000E+04  0.15050000000E+03 0.  1.
</event>
<event>
 4    1  0.4521369E-004  0.6500000E+04  0.7818608E-02  0.7223770E-01
         52   -1    0    0    0    0  0.00000000000E+00  0.00000000000E+00  0.64930732323E+04  0.65000000000E+04  0.30000000000E+03 0.  1.
        -52   -1    0    0    0    0 -0.00000000000E+00 -0.00000000000E+00 -0.64930732323E+04  0.65000000000E+04  0.30000000000E+03 0. -1.
     100001    1    1    2    0    0  0.17653847333E+04 -0.86050973527E+03 -0.61943756335E+04  0.65000000000E+04  0.15050000000E+03 0. -1.
     100001    1    1    2    0    0 -0.17653847333E+04  0.86050973527E+03  0.61943756335E+04  0.65000000000E+04  0.15050000000E+03 0.  1.
</event>
<event>
 4    1  0.4521369E-004  0.6500000E+04  0.7818608E-02  0.7223770E-01
         52   -1    0    0    0    0  0.00000000000E+00  0.00000000000E+00  0.64930732323E+04  0.65000000000E+04  0.30000000000E+03 0. -1.
        -52   -1    0    0    0    0 -0.00000000000E+00 -0.00000000000E+00 -0.64930732323E+04  0.65000000000E+04  0.30000000000E+03 0. -1.
     100001    1    1    2    0    0  0.27997569838E+03 -0.21537087678E+03  0.64886499939E+04  0.65000000000E+04  0.15050000000E+03 0. -1.
     100001    1    1    2    0    0 -0.27997569838E+03  0.21537087678E+03 -0.64886499939E+04  0.65000000000E+04  0.15050000000E+03 0. -1.
</event>
<event>
 4    1  0.4521369E-004  0.6500000E+04  0.7818608E-02  0.7223770E-01
         52   -1    0    0    0    0  0.00000000000E+00  0.00000000000E+00  0.64930732323E+04  0.65000000000E+04  0.30000000000E+03 0. -1.
        -52   -1    0    0    0    0 -0.00000000000E+00 -0.00000000000E+00 -0.64930732323E+04  0.65000000000E+04  0.30000000000E+03 0.  1.
     100001    1    1    2    0    0 -0.18379312069E+03 -0.60362157784E+03  0.64675506051E+04  0.65000000000E+04  0.15050000000E+03 0. -1.
     100001    1    1    2    0    0  0.18379312069E+03  0.60362157784E+03 -0.64675506051E+04  0.65000000000E+04  0.15050000000E+03 0.  1.
</event>
<event>
 4    1  0.4521369E-004  0.6500000E+04  0.7818608E-02  0.7223770E-01
         52   -1    0    0    0    0  0.00000000000E+00  0.00000000000E+00  0.64930732323E+04  0.65000000000E+04  0.30000000000E+03 0.  1.
        -52   -1    0    0    0    0 -0.00000000000E+00 -0.00000000000E+00 -0.64930732323E+04  0.65000000000E+04  0.30000000000E+03 0. -1.
     100001    1    1    2    0    0  0.12796108302E+04 -0.19774292843E+03  0.63679544288E+04  0.65000000000E+04  0.15050000000E+03 0.  1.
     100001    1    1    2    0    0 -0.12796108302E+04  0.19774292843E+03 -0.63679544288E+04  0.65000000000E+04  0.15050000000E+03 0. -1.
</event>
<event>
 4    1  0.4521369E-004  0.6500000E+04  0.7818608E-02  0.7223770E-01
         52   -1    0    0    0    0  0.00000000000E+00  0.00000000000E+00  0.64930732323E+04  0.65000000000E+04  0.30000000000E+03 0. -1.
        -52   -1    0    0    0    0 -0.00000000000E+00 -0.00000000000E+00 -0.64930732323E+04  0.65000000000E+04  0.30000000000E+03 0.  1.
     100001    1    1    2    0    0  0.10923347244E+04 -0.61386846208E+04  0.18304933014E+04  0.65000000000E+04  0.15050000000E+03 0. -1.
     100001    1    1    2    0    0 -0.10923347244E+04  0.61386846208E+04 -0.18304933014E+04  0.65000000000E+04  0.15050000000E+03 0.  1.
</event>
<event>
 4    1  0.4521369E-004  0.6500000E+04  0.7818608E-02  0.7223770E-01
         52   -1    0    0    0    0  0.00000000000E+00  0.00000000000E+00  0.64930732323E+04  0.65000000000E+04  0.30000000000E+03 0.  1.
        -52   -1    0    0    0    0 -0.00000000000E+00 -0.00000000000E+00 -0.64930732323E+04  0.65000000000E+04  0.30000000000E+03 0. -1.
     100001    1    1    2    0    0 -0.61856412425E+02  0.46297092043E+03 -0.64814490248E+04  0.65000000000E+04  0.15050000000E+03 0. -1.
     100001    1    1    2    0    0  0.61856412425E+02 -0.46297092043E+03  0.64814490248E+04  0.65000000000E+04  0.15050000000E+03 0.  1.
</event>
<event>
 4    1  0.4521369E-004  0.6500000E+04  0.7818608E-02  0.7223770E-01
         52   -1    0    0    0    0  0.00000000000E+00  0.00000000000E+00  0.64930732323E+04  0.65000000000E+04  0.30000000000E+03 0. -1.
        -52   -1    0    0    0    0 -0.00000000000E+00 -0.00000000000E+00 -0.64930732323E+04  0.65000000000E+04  0.30000000000E+03 0.  1.
     100001    1    1    2    0    0  0.62172411450E+04 -0.14389096724E+04  0.12258879431E+04  0.65000000000E+04  0.15050000000E+03 0. -1.
     100001    1    1    2    0    0 -0.62172411450E+04  0.14389096724E+04 -0.12258879431E+04  0.65000000000E+04  0.15050000000E+03 0.  1.
</event>
<event>
 4    1  0.4521369E-004  0.6500000E+04  0.7818608E-02  0.7223770E-01
         52   -1    0    0    0    0  0.00000000000E+00  0.00000000000E+00  0.64930732323E+04  0.65000000000E+04  0.30000000000E+03 0. -1.
        -52   -1    0    0    0    0 -0.00000000000E+00 -0.00000000000E+00 -0.64930732323E+04  0.65000000000E+04  0.30000000000E+03 0.  1.
     100001    1    1    2    0    0  0.13078013429E+04 -0.63363421945E+04 -0.60644290049E+03  0.65000000000E+04  0.15050000000E+03 0.  1.
     100001    1    1    2    0    0 -0.13078013429E+04  0.63363421945E+04  0.60644290049E+03  0.65000000000E+04  0.15050000000E+03 0. -1.
</event>
<event>
 4    1  0.4521369E-004  0.6500000E+04  0.7818608E-02  0.7223770E-01
         52   -1    0    0    0    0  0.00000000000E+00  0.00000000000E+00  0.64930732323E+04  0.65000000000E+04  0.30000000000E+03 0.  1.
        -52   -1    0    0    0    0 -0.00000000000E+00 -0.00000000000E+00 -0.64930732323E+04  0.65000000000E+04  0.30000000000E+03 0. -1.
     100001    1    1    2    0    0 -0.35133245985E+04 -0.43207686206E+04 -0.33488592898E+04  0.65000000000E+04  0.15050000000E+03 0. -1.
     100001    1    1    2    0    0  0.35133245985E+04  0.43207686206E+04  0.33488592898E+04  0.65000000000E+04  0.15050000000E+03 0.  1.
</event>
<event>
 4    1  0.4521369E-004  0.6500000E+04  0.7818608E-02  0.7223770E-01
         52   -1    0    0    0    0  0.00000000000E+00  0.00000000000E+00  0.64930732323E+04  0.65000000000E+04  0.30000000000E+03 0. -1.
        -52   -1    0    0    0    0 -0.00000000000E+00 -0.00000000000E+00 -0.64930732323E+04  0.65000000000E+04  0.30000000000E+03 0.  1.
     100001    1    1    2    0    0 -0.16997242411E+03  0.54357539059E+03  0.64732514952E+04  0.65000000000E+04  0.15050000000E+03 0. -1.
     100001    1    1    2    0    0  0.16997242411E+03 -0.54357539059E+03 -0.64732514952E+04  0.65000000000E+04  0.15050000000E+03 0.  1.
</event>
<event>
 4    1  0.4521369E-004  0.6500000E+04  0.7818608E-02  0.7223770E-01
         52   -1    0    0    0    0  0.00000000000E+00  0.00000000000E+00  0.64930732323E+04  0.65000000000E+04  0.30000000000E+03 0. -1.
        -52   -1    0    0    0    0 -0.00000000000E+00 -0.00000000000E+00 -0.64930732323E+04  0.65000000000E+04  0.30000000000E+03 0.  1.
     100001    1    1    2    0    0 -0.28938206498E+04 -0.13055411372E+03  0.58168812451E+04  0.65000000000E+04  0.15050000000E+03 0. -1.
     100001    1    1    2    0    0  0.28938206498E+04  0.13055411372E+03 -0.58168812451E+04  0.65000000000E+04  0.15050000000E+03 0.  1.
</event>
<event>
 4    1  0.4521369E-004  0.6500000E+04  0.7818608E-02  0.7223770E-01
         52   -1    0    0    0    0  0.00000000000E+00  0.00000000000E+00  0.64930732323E+04  0.65000000000E+04  0.30000000000E+03 0.  1.
        -52   -1    0    0    0    0 -0.00000000000E+00 -0.00000000000E+00 -0.64930732323E+04  0.65000000000E+04  0.30000000000E+03 0.  1.
     100001    1    1    2    0    0  0.12184296056E+03  0.37416559423E+03 -0.64863321031E+04  0.65000000000E+04  0.15050000000E+03 0.  1.
     100001    1    1    2    0    0 -0.12184296056E+03 -0.37416559423E+03  0.64863321031E+04  0.65000000000E+04  0.15050000000E+03 0.  1.
</event>
<event>
 4    1  0.5927563E-004  0.6500000E+04  0.7818608E-02  0.7223770E-01
         52   -1    0    0    0    0  0.00000000000E+00  0.00000000000E+00  0.64930732323E+04  0.65000000000E+04  0.30000000000E+03 0. -1.
        -52   -1    0    0    0    0 -0.00000000000E+00 -0.00000000000E+00 -0.64930732323E+04  0.65000000000E+04  0.30000000000E+03 0. -1.
     100001    1    1    2    0    0  0.69348539073E+02  0.14626199857E+03  0.64962410637E+04  0.65000000000E+04  0.15050000000E+03 0. -1.
     100001    1    1    2    0    0 -0.69348539073E+02 -0.14626199857E+03 -0.64962410637E+04  0.65000000000E+04  0.15050000000E+03 0. -1.
</event>
<event>
 4    1  0.4521369E-004  0.6500000E+04  0.7818608E-02  0.7223770E-01
         52   -1    0    0    0    0  0.00000000000E+00  0.00000000000E+00  0.64930732323E+04  0.65000000000E+04  0.30000000000E+03 0. -1.
        -52   -1    0    0    0    0 -0.00000000000E+00 -0.00000000000E+00 -0.64930732323E+04  0.65000000000E+04  0.30000000000E+03 0.  1.
     100001    1    1    2    0    0  0.30016301015E+04  0.46548819242E+03  0.57446398692E+04  0.65000000000E+04  0.15050000000E+03 0. -1.
     100001    1    1    2    0    0 -0.30016301015E+04 -0.46548819242E+03 -0.57446398692E+04  0.65000000000E+04  0.15050000000E+03 0.  1.
</event>
<event>
 4    1  0.4521369E-004  0.6500000E+04  0.7818608E-02  0.7223770E-01
         52   -1    0    0    0    0  0.00000000000E+00  0.00000000000E+00  0.64930732323E+04  0.65000000000E+04  0.30000000000E+03 0.  1.
        -52   -1    0    0    0    0 -0.00000000000E+00 -0.00000000000E+00 -0.64930732323E+04  0.65000000000E+04  0.30000000000E+03 0. -1.
     100001    1    1    2    0    0 -0.14332673702E+04  0.97670774973E+03 -0.62625183726E+04  0.65000000000E+04  0.15050000000E+03 0. -1.
     100001    1    1    2    0    0  0.14332673702E+04 -0.97670774973E+03  0.62625183726E+04  0.65000000000E+04  0.15050000000E+03 0.  1.
</event>
<event>
 4    1  0.4521369E-004  0.6500000E+04  0.7818608E-02  0.7223770E-01
         52   -1    0    0    0    0  0.00000000000E+00  0.00000000000E+00  0.64930732323E+04  0.65000000000E+04  0.30000000000E+03 0. -1.
        -52   -1    0    0    0    0 -0.00000000000E+00 -0.00000000000E+00 -0.64930732323E+04  0.65000000000E+04  0.30000000000E+03 0.  1.
     100001    1    1    2    0    0  0.29090821014E+04  0.25774319583E+04 -0.52078244573E+04  0.65000000000E+04  0.15050000000E+03 0.  1.
     100001    1    1    2    0    0 -0.29090821014E+04 -0.25774319583E+04  0.52078244573E+04  0.65000000000E+04  0.15050000000E+03 0. -1.
</event>
<event>
 4    1  0.4521369E-004  0.6500000E+04  0.7818608E-02  0.7223770E-01
         52   -1    0    0    0    0  0.00000000000E+00  0.00000000000E+00  0.64930732323E+04  0.65000000000E+04  0.30000000000E+03 0. -1.
        -52   -1    0    0    0    0 -0.00000000000E+00 -0.00000000000E+00 -0.64930732323E+04  0.65000000000E+04  0.30000000000E+03 0. -1.
     100001    1    1    2    0    0 -0.48951190988E+03  0.12582956703E+03  0.64785719692E+04  0.65000000000E+04  0.15050000000E+03 0. -1.
     100001    1    1    2    0    0  0.48951190988E+03 -0.12582956703E+03 -0.64785719692E+04  0.65000000000E+04  0.15050000000E+03 0. -1.
</event>
<event>
 4    1  0.4521369E-004  0.6500000E+04  0.7818608E-02  0.7223770E-01
         52   -1    0    0    0    0  0.00000000000E+00  0.00000000000E+00  0.64930732323E+04  0.65000000000E+04  0.30000000000E+03 0. -1.
        -52   -1    0    0    0    0 -0.00000000000E+00 -0.00000000000E+00 -0.64930732323E+04  0.65000000000E+04  0.30000000000E+03 0.  1.
     100001    1    1    2    0    0 -0.12807367721E+04  0.51617202579E+03 -0.63498527156E+04  0.65000000000E+04  0.15050000000E+03 0.  1.
     100001    1    1    2    0    0  0.12807367721E+04 -0.51617202579E+03  0.63498527156E+04  0.65000000000E+04  0.15050000000E+03 0. -1.
</event>
<event>
 4    1  0.4521369E-004  0.6500000E+04  0.7818608E-02  0.7223770E-01
         52   -1    0    0    0    0  0.00000000000E+00  0.00000000000E+00  0.64930732323E+04  0.65000000000E+04  0.30000000000E+03 0. -1.
        -52   -1    0    0    0    0 -0.00000000000E+00 -0.00000000000E+00 -0.64930732323E+04  0.65000000000E+04  0.30000000000E+03 0.  1.
     100001    1    1    2    0    0 -0.15290682371E+04 -0.59830528243E+03  0.62873946007E+04  0.65000000000E+04  0.15050000000E+03 0. -1.
     100001    1    1    2    0    0  0.15290682371E+04  0.59830528243E+03 -0.62873946007E+04  0.65000000000E+04  0.15050000000E+03 0.  1.
</event>
<event>
 4    1  0.4521369E-004  0.6500000E+04  0.7818608E-02  0.7223770E-01
         52   -1    0    0    0    0  0.00000000000E+00  0.00000000000E+00  0.64930732323E+04  0.65000000000E+04  0.30000000000E+03 0.  1.
        -52   -1    0    0    0    0 -0.00000000000E+00 -0.00000000000E+00 -0.64930732323E+04  0.65000000000E+04  0.30000000000E+03 0. -1.
     100001    1    1    2    0    0 -0.50526265352E+02  0.10839861006E+04 -0.64070095193E+04  0.65000000000E+04  0.15050000000E+03 0. -1.
     100001    1    1    2    0    0  0.50526265352E+02 -0.10839861006E+04  0.64070095193E+04  0.65000000000E+04  0.15050000000E+03 0.  1.
</event>
<event>
 4    1  0.4521369E-004  0.6500000E+04  0.7818608E-02  0.7223770E-01
         52   -1    0    0    0    0  0.00000000000E+00  0.00000000000E+00  0.64930732323E+04  0.65000000000E+04  0.30000000000E+03 0. -1.
        -52   -1    0    0    0    0 -0.00000000000E+00 -0.00000000000E+00 -0.64930732323E+04  0.65000000000E+04  0.30000000000E+03 0.  1.
     100001    1    1    2    0    0  0.32647585902E+04 -0.38419929431E+03  0.56054519889E+04  0.65000000000E+04  0.15050000000E+03 0. -1.
     100001    1    1    2    0    0 -0.32647585902E+04  0.38419929431E+03 -0.56054519889E+04  0.65000000000E+04  0.15050000000E+03 0.  1.
</event>
<event>
 4    1  0.4521369E-004  0.6500000E+04  0.7818608E-02  0.7223770E-01
         52   -1    0    0    0    0  0.00000000000E+00  0.00000000000E+00  0.64930732323E+04  0.65000000000E+04  0.30000000000E+03 0. -1.
        -52   -1    0    0    0    0 -0.00000000000E+00 -0.00000000000E+00 -0.64930732323E+04  0.65000000000E+04  0.30000000000E+03 0.  1.
     100001    1    1    2    0    0 -0.85949864633E+03 -0.43572463140E+04  0.47437344347E+04  0.65000000000E+04  0.15050000000E+03 0. -1.
     100001    1    1    2    0    0  0.85949864633E+03  0.43572463140E+04 -0.47437344347E+04  0.65000000000E+04  0.15050000000E+03 0.  1.
</event>
<event>
 4    1  0.4521369E-004  0.6500000E+04  0.7818608E-02  0.7223770E-01
         52   -1    0    0    0    0  0.00000000000E+00  0.00000000000E+00  0.64930732323E+04  0.65000000000E+04  0.30000000000E+03 0.  1.
        -52   -1    0    0    0    0 -0.00000000000E+00 -0.00000000000E+00 -0.64930732323E+04  0.65000000000E+04  0.30000000000E+03 0. -1.
     100001    1    1    2    0    0  0.27291592183E+03 -0.32820243353E+03  0.64842231464E+04  0.65000000000E+04  0.15050000000E+03 0.  1.
     100001    1    1    2    0    0 -0.27291592183E+03  0.32820243353E+03 -0.64842231464E+04  0.65000000000E+04  0.15050000000E+03 0. -1.
</event>
<event>
 4    1  0.4521369E-004  0.6500000E+04  0.7818608E-02  0.7223770E-01
         52   -1    0    0    0    0  0.00000000000E+00  0.00000000000E+00  0.64930732323E+04  0.65000000000E+04  0.30000000000E+03 0.  1.
        -52   -1    0    0    0    0 -0.00000000000E+00 -0.00000000000E+00 -0.64930732323E+04  0.65000000000E+04  0.30000000000E+03 0. -1.
     100001    1    1    2    0    0 -0.36805116566E+04  0.31267653047E+04 -0.43479331210E+04  0.65000000000E+04  0.15050000000E+03 0. -1.
     100001    1    1    2    0    0  0.36805116566E+04 -0.31267653047E+04  0.43479331210E+04  0.65000000000E+04  0.15050000000E+03 0.  1.
</event>
<event>
 4    1  0.4521369E-004  0.6500000E+04  0.7818608E-02  0.7223770E-01
         52   -1    0    0    0    0  0.00000000000E+00  0.00000000000E+00  0.64930732323E+04  0.65000000000E+04  0.30000000000E+03 0. -1.
        -52   -1    0    0    0    0 -0.00000000000E+00 -0.00000000000E+00 -0.64930732323E+04  0.65000000000E+04  0.30000000000E+03 0.  1.
     100001    1    1    2    0    0 -0.81992333326E+03 -0.18128163013E+04  0.61861759218E+04  0.65000000000E+04  0.15050000000E+03 0. -1.
     100001    1    1    2    0    0  0.81992333326E+03  0.18128163013E+04 -0.61861759218E+04  0.65000000000E+04  0.15050000000E+03 0.  1.
</event>
<event>
 4    1  0.4521369E-004  0.6500000E+04  0.7818608E-02  0.7223770E-01
         52   -1    0    0    0    0  0.00000000000E+00  0.00000000000E+00  0.64930732323E+04  0.65000000000E+04  0.30000000000E+03 0. -1.
        -52   -1    0    0    0    0 -0.00000000000E+00 -0.00000000000E+00 -0.64930732323E+04  0.65000000000E+04  0.30000000000E+03 0.  1.
     100001    1    1    2    0    0 -0.63745142840E+04 -0.12609728289E+04  0.53524930464E+02  0.65000000000E+04  0.15050000000E+03 0. -1.
     100001    1    1    2    0    0  0.63745142840E+04  0.12609728289E+04 -0.53524930464E+02  0.65000000000E+04  0.15050000000E+03 0.  1.
</event>
<event>
 4    1  0.4521369E-004  0.6500000E+04  0.7818608E-02  0.7223770E-01
         52   -1    0    0    0    0  0.00000000000E+00  0.00000000000E+00  0.64930732323E+04  0.65000000000E+04  0.30000000000E+03 0. -1.
        -52   -1    0    0    0    0 -0.00000000000E+00 -0.00000000000E+00 -0.64930732323E+04  0.65000000000E+04  0.30000000000E+03 0.  1.
     100001    1    1    2    0    0  0.18648683927E+04 -0.80211813705E+03 -0.61730237422E+04  0.65000000000E+04  0.15050000000E+03 0.  1.
     100001    1    1    2    0    0 -0.18648683927E+04  0.80211813705E+03  0.61730237422E+04  0.65000000000E+04  0.15050000000E+03 0. -1.
</event>
<event>
 4    1  0.4521369E-004  0.6500000E+04  0.7818608E-02  0.7223770E-01
         52   -1    0    0    0    0  0.00000000000E+00  0.00000000000E+00  0.64930732323E+04  0.65000000000E+04  0.30000000000E+03 0. -1.
        -52   -1    0    0    0    0 -0.00000000000E+00 -0.00000000000E+00 -0.64930732323E+04  0.65000000000E+04  0.30000000000E+03 0.  1.
     100001    1    1    2    0    0 -0.32281289060E+03 -0.14764440347E+04  0.63200676104E+04  0.65000000000E+04  0.15050000000E+03 0. -1.
     100001    1    1    2    0    0  0.32281289060E+03  0.14764440347E+04 -0.63200676104E+04  0.65000000000E+04  0.15050000000E+03 0.  1.
</event>
<event>
 4    1  0.4521369E-004  0.6500000E+04  0.7818608E-02  0.7223770E-01
         52   -1    0    0    0    0  0.00000000000E+00  0.00000000000E+00  0.64930732323E+04  0.65000000000E+04  0.30000000000E+03 0.  1.
        -52   -1    0    0    0    0 -0.00000000000E+00 -0.00000000000E+00 -0.64930732323E+04  0.65000000000E+04  0.30000000000E+03 0. -1.
     100001    1    1    2    0    0  0.41281517679E+03  0.13611918661E+04 -0.63406695296E+04  0.65000000000E+04  0.15050000000E+03 0. -1.
     100001    1    1    2    0    0 -0.41281517679E+03 -0.13611918661E+04  0.63406695296E+04  0.65000000000E+04  0.15050000000E+03 0.  1.
</event>
<event>
 4    1  0.4521369E-004  0.6500000E+04  0.7818608E-02  0.7223770E-01
         52   -1    0    0    0    0  0.00000000000E+00  0.00000000000E+00  0.64930732323E+04  0.65000000000E+04  0.30000000000E+03 0. -1.
        -52   -1    0    0    0    0 -0.00000000000E+00 -0.00000000000E+00 -0.64930732323E+04  0.65000000000E+04  0.30000000000E+03 0.  1.
     100001    1    1    2    0    0  0.25015807402E+04 -0.25691172428E+03  0.59919479234E+04  0.65000000000E+04  0.15050000000E+03 0. -1.
     100001    1    1    2    0    0 -0.25015807402E+04  0.25691172428E+03 -0.59919479234E+04  0.65000000000E+04  0.15050000000E+03 0.  1.
</event>
<event>
 4    1  0.4521369E-004  0.6500000E+04  0.7818608E-02  0.7223770E-01
         52   -1    0    0    0    0  0.00000000000E+00  0.00000000000E+00  0.64930732323E+04  0.65000000000E+04  0.30000000000E+03 0.  1.
        -52   -1    0    0    0    0 -0.00000000000E+00 -0.00000000000E+00 -0.64930732323E+04  0.65000000000E+04  0.30000000000E+03 0. -1.
     100001    1    1    2    0    0  0.30272279027E+03 -0.43216653070E+03 -0.64768001939E+04  0.65000000000E+04  0.15050000000E+03 0. -1.
     100001    1    1    2    0    0 -0.30272279027E+03  0.43216653070E+03  0.64768001939E+04  0.65000000000E+04  0.15050000000E+03 0.  1.
</event>
<event>
 4    1  0.4521369E-004  0.6500000E+04  0.7818608E-02  0.7223770E-01
         52   -1    0    0    0    0  0.00000000000E+00  0.00000000000E+00  0.64930732323E+04  0.65000000000E+04  0.30000000000E+03 0.  1.
        -52   -1    0    0    0    0 -0.00000000000E+00 -0.00000000000E+00 -0.64930732323E+04  0.65000000000E+04  0.30000000000E+03 0. -1.
     100001    1    1    2    0    0  0.64720899645E+03  0.26799455596E+04  0.58844168838E+04  0.65000000000E+04  0.15050000000E+03 0.  1.
     100001    1    1    2    0    0 -0.64720899645E+03 -0.26799455596E+04 -0.58844168838E+04  0.65000000000E+04  0.15050000000E+03 0. -1.
</event>
<event>
 4    1  0.4521369E-004  0.6500000E+04  0.7818608E-02  0.7223770E-01
         52   -1    0    0    0    0  0.00000000000E+00  0.00000000000E+00  0.64930732323E+04  0.65000000000E+04  0.30000000000E+03 0.  1.
        -52   -1    0    0    0    0 -0.00000000000E+00 -0.00000000000E+00 -0.64930732323E+04  0.65000000000E+04  0.30000000000E+03 0. -1.
     100001    1    1    2    0    0  0.45414645987E+03 -0.13857261873E+03 -0.64808871594E+04  0.65000000000E+04  0.15050000000E+03 0. -1.
     100001    1    1    2    0    0 -0.45414645987E+03  0.13857261873E+03  0.64808871594E+04  0.65000000000E+04  0.15050000000E+03 0.  1.
</event>
<event>
 4    1  0.4521369E-004  0.6500000E+04  0.7818608E-02  0.7223770E-01
         52   -1    0    0    0    0  0.00000000000E+00  0.00000000000E+00  0.64930732323E+04  0.65000000000E+04  0.30000000000E+03 0.  1.
        -52   -1    0    0    0    0 -0.00000000000E+00 -0.00000000000E+00 -0.64930732323E+04  0.65000000000E+04  0.30000000000E+03 0. -1.
     100001    1    1    2    0    0 -0.48993757311E+03 -0.13379016820E+03 -0.64783802849E+04  0.65000000000E+04  0.15050000000E+03 0. -1.
     100001    1    1    2    0    0  0.48993757311E+03  0.13379016820E+03  0.64783802849E+04  0.65000000000E+04  0.15050000000E+03 0.  1.
</event>
<event>
 4    1  0.4521369E-004  0.6500000E+04  0.7818608E-02  0.7223770E-01
         52   -1    0    0    0    0  0.00000000000E+00  0.00000000000E+00  0.64930732323E+04  0.65000000000E+04  0.30000000000E+03 0.  1.
        -52   -1    0    0    0    0 -0.00000000000E+00 -0.00000000000E+00 -0.64930732323E+04  0.65000000000E+04  0.30000000000E+03 0. -1.
     100001    1    1    2    0    0 -0.21029544597E+04 -0.88628925399E+03 -0.60843589349E+04  0.65000000000E+04  0.15050000000E+03 0. -1.
     100001    1    1    2    0    0  0.21029544597E+04  0.88628925399E+03  0.60843589349E+04  0.65000000000E+04  0.15050000000E+03 0.  1.
</event>
<event>
 4    1  0.4521369E-004  0.6500000E+04  0.7818608E-02  0.7223770E-01
         52   -1    0    0    0    0  0.00000000000E+00  0.00000000000E+00  0.64930732323E+04  0.65000000000E+04  0.30000000000E+03 0.  1.
        -52   -1    0    0    0    0 -0.00000000000E+00 -0.00000000000E+00 -0.64930732323E+04  0.65000000000E+04  0.30000000000E+03 0. -1.
     100001    1    1    2    0    0  0.38664010969E+03  0.27743531222E+04  0.58635163451E+04  0.65000000000E+04  0.15050000000E+03 0.  1.
     100001    1    1    2    0    0 -0.38664010969E+03 -0.27743531222E+04 -0.58635163451E+04  0.65000000000E+04  0.15050000000E+03 0. -1.
</event>
<event>
 4    1  0.4521369E-004  0.6500000E+04  0.7818608E-02  0.7223770E-01
         52   -1    0    0    0    0  0.00000000000E+00  0.00000000000E+00  0.64930732323E+04  0.65000000000E+04  0.30000000000E+03 0. -1.
        -52   -1    0    0    0    0 -0.00000000000E+00 -0.00000000000E+00 -0.64930732323E+04  0.65000000000E+04  0.30000000000E+03 0.  1.
     100001    1    1    2    0    0 -0.64181178256E+03 -0.17960249160E+04  0.62120626113E+04  0.65000000000E+04  0.15050000000E+03 0. -1.
     100001    1    1    2    0    0  0.64181178256E+03  0.17960249160E+04 -0.62120626113E+04  0.65000000000E+04  0.15050000000E+03 0.  1.
</event>
<event>
 4    1  0.4521369E-004  0.6500000E+04  0.7818608E-02  0.7223770E-01
         52   -1    0    0    0    0  0.00000000000E+00  0.00000000000E+00  0.64930732323E+04  0.65000000000E+04  0.30000000000E+03 0.  1.
        -52   -1    0    0    0    0 -0.00000000000E+00 -0.00000000000E+00 -0.64930732323E+04  0.65000000000E+04  0.30000000000E+03 0. -1.
     100001    1    1    2    0    0 -0.11579696889E+03  0.59876635378E+03 -0.64695764672E+04  0.65000000000E+04  0.15050000000E+03 0. -1.
     100001    1    1    2    0    0  0.11579696889E+03 -0.59876635378E+03  0.64695764672E+04  0.65000000000E+04  0.15050000000E+03 0.  1.
</event>
<event>
 4    1  0.4521369E-004  0.6500000E+04  0.7818608E-02  0.7223770E-01
         52   -1    0    0    0    0  0.00000000000E+00  0.00000000000E+00  0.64930732323E+04  0.65000000000E+04  0.30000000000E+03 0.  1.
        -52   -1    0    0    0    0 -0.00000000000E+00 -0.00000000000E+00 -0.64930732323E+04  0.65000000000E+04  0.30000000000E+03 0. -1.
     100001    1    1    2    0    0  0.11952305301E+04  0.33344910646E+04  0.54479301638E+04  0.65000000000E+04  0.15050000000E+03 0.  1.
     100001    1    1    2    0    0 -0.11952305301E+04 -0.33344910646E+04 -0.54479301638E+04  0.65000000000E+04  0.15050000000E+03 0. -1.
</event>
<event>
 4    1  0.4521369E-004  0.6500000E+04  0.7818608E-02  0.7223770E-01
         52   -1    0    0    0    0  0.00000000000E+00  0.00000000000E+00  0.64930732323E+04  0.65000000000E+04  0.30000000000E+03 0. -1.
        -52   -1    0    0    0    0 -0.00000000000E+00 -0.00000000000E+00 -0.64930732323E+04  0.65000000000E+04  0.30000000000E+03 0.  1.
     100001    1    1    2    0    0 -0.33540731289E+03 -0.97007805314E+02 -0.64888705620E+04  0.65000000000E+04  0.15050000000E+03 0.  1.
     100001    1    1    2    0    0  0.33540731289E+03  0.97007805314E+02  0.64888705620E+04  0.65000000000E+04  0.15050000000E+03 0. -1.
</event>
<event>
 4    1  0.4521369E-004  0.6500000E+04  0.7818608E-02  0.7223770E-01
         52   -1    0    0    0    0  0.00000000000E+00  0.00000000000E+00  0.64930732323E+04  0.65000000000E+04  0.30000000000E+03 0. -1.
        -52   -1    0    0    0    0 -0.00000000000E+00 -0.00000000000E+00 -0.64930732323E+04  0.65000000000E+04  0.30000000000E+03 0.  1.
     100001    1    1    2    0    0 -0.18742717214E+04 -0.86214996673E+02  0.62214967844E+04  0.65000000000E+04  0.15050000000E+03 0. -1.
     100001    1    1    2    0    0  0.18742717214E+04  0.86214996673E+02 -0.62214967844E+04  0.65000000000E+04  0.15050000000E+03 0.  1.
</event>
<event>
 4    1  0.4521369E-004  0.6500000E+04  0.7818608E-02  0.7223770E-01
         52   -1    0    0    0    0  0.00000000000E+00  0.00000000000E+00  0.64930732323E+04  0.65000000000E+04  0.30000000000E+03 0.  1.
        -52   -1    0    0    0    0 -0.00000000000E+00 -0.00000000000E+00 -0.64930732323E+04  0.65000000000E+04  0.30000000000E+03 0. -1.
     100001    1    1    2    0    0  0.34350215756E+02  0.16529907800E+04 -0.62844085874E+04  0.65000000000E+04  0.15050000000E+03 0. -1.
     100001    1    1    2    0    0 -0.34350215756E+02 -0.16529907800E+04  0.62844085874E+04  0.65000000000E+04  0.15050000000E+03 0.  1.
</event>
<event>
 4    1  0.4521369E-004  0.6500000E+04  0.7818608E-02  0.7223770E-01
         52   -1    0    0    0    0  0.00000000000E+00  0.00000000000E+00  0.64930732323E+04  0.65000000000E+04  0.30000000000E+03 0. -1.
        -52   -1    0    0    0    0 -0.00000000000E+00 -0.00000000000E+00 -0.64930732323E+04  0.65000000000E+04  0.30000000000E+03 0.  1.
     100001    1    1    2    0    0  0.17184531594E+04 -0.34308382943E+04 -0.52443891053E+04  0.65000000000E+04  0.15050000000E+03 0.  1.
     100001    1    1    2    0    0 -0.17184531594E+04  0.34308382943E+04  0.52443891053E+04  0.65000000000E+04  0.15050000000E+03 0. -1.
</event>
<event>
 4    1  0.4521369E-004  0.6500000E+04  0.7818608E-02  0.7223770E-01
         52   -1    0    0    0    0  0.00000000000E+00  0.00000000000E+00  0.64930732323E+04  0.65000000000E+04  0.30000000000E+03 0. -1.
        -52   -1    0    0    0    0 -0.00000000000E+00 -0.00000000000E+00 -0.64930732323E+04  0.65000000000E+04  0.30000000000E+03 0.  1.
     100001    1    1    2    0    0  0.86804205750E+03  0.73297093951E+03 -0.63981721091E+04  0.65000000000E+04  0.15050000000E+03 0.  1.
     100001    1    1    2    0    0 -0.86804205750E+03 -0.73297093951E+03  0.63981721091E+04  0.65000000000E+04  0.15050000000E+03 0. -1.
</event>
<event>
 4    1  0.4521369E-004  0.6500000E+04  0.7818608E-02  0.7223770E-01
         52   -1    0    0    0    0  0.00000000000E+00  0.00000000000E+00  0.64930732323E+04  0.65000000000E+04  0.30000000000E+03 0. -1.
        -52   -1    0    0    0    0 -0.00000000000E+00 -0.00000000000E+00 -0.64930732323E+04  0.65000000000E+04  0.30000000000E+03 0.  1.
     100001    1    1    2    0    0 -0.82524148464E+03 -0.13803842567E+02  0.64456291932E+04  0.65000000000E+04  0.15050000000E+03 0. -1.
     100001    1    1    2    0    0  0.82524148464E+03  0.13803842567E+02 -0.64456291932E+04  0.65000000000E+04  0.15050000000E+03 0.  1.
</event>
<event>
 4    1  0.4521369E-004  0.6500000E+04  0.7818608E-02  0.7223770E-01
         52   -1    0    0    0    0  0.00000000000E+00  0.00000000000E+00  0.64930732323E+04  0.65000000000E+04  0.30000000000E+03 0.  1.
        -52   -1    0    0    0    0 -0.00000000000E+00 -0.00000000000E+00 -0.64930732323E+04  0.65000000000E+04  0.30000000000E+03 0.  1.
     100001    1    1    2    0    0 -0.10658306651E+04 -0.42223602050E+03 -0.63963326591E+04  0.65000000000E+04  0.15050000000E+03 0.  1.
     100001    1    1    2    0    0  0.10658306651E+04  0.42223602050E+03  0.63963326591E+04  0.65000000000E+04  0.15050000000E+03 0.  1.
</event>
<event>
 4    1  0.4521369E-004  0.6500000E+04  0.7818608E-02  0.7223770E-01
         52   -1    0    0    0    0  0.00000000000E+00  0.00000000000E+00  0.64930732323E+04  0.65000000000E+04  0.30000000000E+03 0.  1.
        -52   -1    0    0    0    0 -0.00000000000E+00 -0.00000000000E+00 -0.64930732323E+04  0.65000000000E+04  0.30000000000E+03 0. -1.
     100001    1    1    2    0    0  0.42164281050E+03 -0.44958621182E+03  0.64689596790E+04  0.65000000000E+04  0.15050000000E+03 0.  1.
     100001    1    1    2    0    0 -0.42164281050E+03  0.44958621182E+03 -0.64689596790E+04  0.65000000000E+04  0.15050000000E+03 0. -1.
</event>
<event>
 4    1  0.4521369E-004  0.6500000E+04  0.7818608E-02  0.7223770E-01
         52   -1    0    0    0    0  0.00000000000E+00  0.00000000000E+00  0.64930732323E+04  0.65000000000E+04  0.30000000000E+03 0. -1.
        -52   -1    0    0    0    0 -0.00000000000E+00 -0.00000000000E+00 -0.64930732323E+04  0.65000000000E+04  0.30000000000E+03 0. -1.
     100001    1    1    2    0    0 -0.15651536249E+03 -0.11090922521E+03  0.64954254545E+04  0.65000000000E+04  0.15050000000E+03 0. -1.
     100001    1    1    2    0    0  0.15651536249E+03  0.11090922521E+03 -0.64954254545E+04  0.65000000000E+04  0.15050000000E+03 0. -1.
</event>
<event>
 4    1  0.4521369E-004  0.6500000E+04  0.7818608E-02  0.7223770E-01
         52   -1    0    0    0    0  0.00000000000E+00  0.00000000000E+00  0.64930732323E+04  0.65000000000E+04  0.30000000000E+03 0. -1.
        -52   -1    0    0    0    0 -0.00000000000E+00 -0.00000000000E+00 -0.64930732323E+04  0.65000000000E+04  0.30000000000E+03 0.  1.
     100001    1    1    2    0    0  0.21470413714E+04 -0.27615435091E+04 -0.54764441517E+04  0.65000000000E+04  0.15050000000E+03 0.  1.
     100001    1    1    2    0    0 -0.21470413714E+04  0.27615435091E+04  0.54764441517E+04  0.65000000000E+04  0.15050000000E+03 0. -1.
</event>
<event>
 4    1  0.4521369E-004  0.6500000E+04  0.7818608E-02  0.7223770E-01
         52   -1    0    0    0    0  0.00000000000E+00  0.00000000000E+00  0.64930732323E+04  0.65000000000E+04  0.30000000000E+03 0. -1.
        -52   -1    0    0    0    0 -0.00000000000E+00 -0.00000000000E+00 -0.64930732323E+04  0.65000000000E+04  0.30000000000E+03 0.  1.
     100001    1    1    2    0    0  0.27417523145E+04 -0.57917929286E+04 -0.10794807399E+04  0.65000000000E+04  0.15050000000E+03 0.  1.
     100001    1    1    2    0    0 -0.27417523145E+04  0.57917929286E+04  0.10794807399E+04  0.65000000000E+04  0.15050000000E+03 0. -1.
</event>
<event>
 4    1  0.4521369E-004  0.6500000E+04  0.7818608E-02  0.7223770E-01
         52   -1    0    0    0    0  0.00000000000E+00  0.00000000000E+00  0.64930732323E+04  0.65000000000E+04  0.30000000000E+03 0.  1.
        -52   -1    0    0    0    0 -0.00000000000E+00 -0.00000000000E+00 -0.64930732323E+04  0.65000000000E+04  0.30000000000E+03 0. -1.
     100001    1    1    2    0    0  0.25636807344E+04  0.26733459741E+03 -0.59651842432E+04  0.65000000000E+04  0.15050000000E+03 0. -1.
     100001    1    1    2    0    0 -0.25636807344E+04 -0.26733459741E+03  0.59651842432E+04  0.65000000000E+04  0.15050000000E+03 0.  1.
</event>
<event>
 4    1  0.4521369E-004  0.6500000E+04  0.7818608E-02  0.7223770E-01
         52   -1    0    0    0    0  0.00000000000E+00  0.00000000000E+00  0.64930732323E+04  0.65000000000E+04  0.30000000000E+03 0.  1.
        -52   -1    0    0    0    0 -0.00000000000E+00 -0.00000000000E+00 -0.64930732323E+04  0.65000000000E+04  0.30000000000E+03 0. -1.
     100001    1    1    2    0    0  0.26903744858E+03 -0.38691210893E+03 -0.64811470915E+04  0.65000000000E+04  0.15050000000E+03 0. -1.
     100001    1    1    2    0    0 -0.26903744858E+03  0.38691210893E+03  0.64811470915E+04  0.65000000000E+04  0.15050000000E+03 0.  1.
</event>
<event>
 4    1  0.4521369E-004  0.6500000E+04  0.7818608E-02  0.7223770E-01
         52   -1    0    0    0    0  0.00000000000E+00  0.00000000000E+00  0.64930732323E+04  0.65000000000E+04  0.30000000000E+03 0.  1.
        -52   -1    0    0    0    0 -0.00000000000E+00 -0.00000000000E+00 -0.64930732323E+04  0.65000000000E+04  0.30000000000E+03 0.  1.
     100001    1    1    2    0    0  0.45631574022E+03  0.23363230847E+03  0.64780044489E+04  0.65000000000E+04  0.15050000000E+03 0.  1.
     100001    1    1    2    0    0 -0.45631574022E+03 -0.23363230847E+03 -0.64780044489E+04  0.65000000000E+04  0.15050000000E+03 0.  1.
</event>
<event>
 4    1  0.4521369E-004  0.6500000E+04  0.7818608E-02  0.7223770E-01
         52   -1    0    0    0    0  0.00000000000E+00  0.00000000000E+00  0.64930732323E+04  0.65000000000E+04  0.30000000000E+03 0.  1.
        -52   -1    0    0    0    0 -0.00000000000E+00 -0.00000000000E+00 -0.64930732323E+04  0.65000000000E+04  0.30000000000E+03 0. -1.
     100001    1    1    2    0    0 -0.25830122122E+03 -0.69972079631E+03  0.64553095229E+04  0.65000000000E+04  0.15050000000E+03 0.  1.
     100001    1    1    2    0    0  0.25830122122E+03  0.69972079631E+03 -0.64553095229E+04  0.65000000000E+04  0.15050000000E+03 0. -1.
</event>
<event>
 4    1  0.4521369E-004  0.6500000E+04  0.7818608E-02  0.7223770E-01
         52   -1    0    0    0    0  0.00000000000E+00  0.00000000000E+00  0.64930732323E+04  0.65000000000E+04  0.30000000000E+03 0. -1.
        -52   -1    0    0    0    0 -0.00000000000E+00 -0.00000000000E+00 -0.64930732323E+04  0.65000000000E+04  0.30000000000E+03 0.  1.
     100001    1    1    2    0    0  0.44783519968E+03 -0.25261515519E+03  0.64778838340E+04  0.65000000000E+04  0.15050000000E+03 0. -1.
     100001    1    1    2    0    0 -0.44783519968E+03  0.25261515519E+03 -0.64778838340E+04  0.65000000000E+04  0.15050000000E+03 0.  1.
</event>
<event>
 4    1  0.4521369E-004  0.6500000E+04  0.7818608E-02  0.7223770E-01
         52   -1    0    0    0    0  0.00000000000E+00  0.00000000000E+00  0.64930732323E+04  0.65000000000E+04  0.30000000000E+03 0. -1.
        -52   -1    0    0    0    0 -0.00000000000E+00 -0.00000000000E+00 -0.64930732323E+04  0.65000000000E+04  0.30000000000E+03 0.  1.
     100001    1    1    2    0    0 -0.69302782678E+03  0.10832233649E+04 -0.63697479796E+04  0.65000000000E+04  0.15050000000E+03 0.  1.
     100001    1    1    2    0    0  0.69302782678E+03 -0.10832233649E+04  0.63697479796E+04  0.65000000000E+04  0.15050000000E+03 0. -1.
</event>
<event>
 4    1  0.4521369E-004  0.6500000E+04  0.7818608E-02  0.7223770E-01
         52   -1    0    0    0    0  0.00000000000E+00  0.00000000000E+00  0.64930732323E+04  0.65000000000E+04  0.30000000000E+03 0. -1.
        -52   -1    0    0    0    0 -0.00000000000E+00 -0.00000000000E+00 -0.64930732323E+04  0.65000000000E+04  0.30000000000E+03 0.  1.
     100001    1    1    2    0    0 -0.26757765051E+04 -0.82723707693E+03 -0.58637231059E+04  0.65000000000E+04  0.15050000000E+03 0.  1.
     100001    1    1    2    0    0  0.26757765051E+04  0.82723707693E+03  0.58637231059E+04  0.65000000000E+04  0.15050000000E+03 0. -1.
</event>
<event>
 4    1  0.4521369E-004  0.6500000E+04  0.7818608E-02  0.7223770E-01
         52   -1    0    0    0    0  0.00000000000E+00  0.00000000000E+00  0.64930732323E+04  0.65000000000E+04  0.30000000000E+03 0. -1.
        -52   -1    0    0    0    0 -0.00000000000E+00 -0.00000000000E+00 -0.64930732323E+04  0.65000000000E+04  0.30000000000E+03 0.  1.
     100001    1    1    2    0    0 -0.39574580747E+03 -0.19271905879E+04 -0.61932763093E+04  0.65000000000E+04  0.15050000000E+03 0.  1.
     100001    1    1    2    0    0  0.39574580747E+03  0.19271905879E+04  0.61932763093E+04  0.65000000000E+04  0.15050000000E+03 0. -1.
</event>
<event>
 4    1  0.4521369E-004  0.6500000E+04  0.7818608E-02  0.7223770E-01
         52   -1    0    0    0    0  0.00000000000E+00  0.00000000000E+00  0.64930732323E+04  0.65000000000E+04  0.30000000000E+03 0. -1.
        -52   -1    0    0    0    0 -0.00000000000E+00 -0.00000000000E+00 -0.64930732323E+04  0.65000000000E+04  0.30000000000E+03 0.  1.
     100001    1    1    2    0    0 -0.26546279853E+03 -0.99033768547E+03  0.64168614229E+04  0.65000000000E+04  0.15050000000E+03 0. -1.
     100001    1    1    2    0    0  0.26546279853E+03  0.99033768547E+03 -0.64168614229E+04  0.65000000000E+04  0.15050000000E+03 0.  1.
</event>
<event>
 4    1  0.4521369E-004  0.6500000E+04  0.7818608E-02  0.7223770E-01
         52   -1    0    0    0    0  0.00000000000E+00  0.00000000000E+00  0.64930732323E+04  0.65000000000E+04  0.30000000000E+03 0.  1.
        -52   -1    0    0    0    0 -0.00000000000E+00 -0.00000000000E+00 -0.64930732323E+04  0.65000000000E+04  0.30000000000E+03 0. -1.
     100001    1    1    2    0    0  0.13266170389E+02  0.12913016771E+04  0.63686508569E+04  0.65000000000E+04  0.15050000000E+03 0.  1.
     100001    1    1    2    0    0 -0.13266170389E+02 -0.12913016771E+04 -0.63686508569E+04  0.65000000000E+04  0.15050000000E+03 0. -1.
</event>
<event>
 4    1  0.4521369E-004  0.6500000E+04  0.7818608E-02  0.7223770E-01
         52   -1    0    0    0    0  0.00000000000E+00  0.00000000000E+00  0.64930732323E+04  0.65000000000E+04  0.30000000000E+03 0. -1.
        -52   -1    0    0    0    0 -0.00000000000E+00 -0.00000000000E+00 -0.64930732323E+04  0.65000000000E+04  0.30000000000E+03 0.  1.
     100001    1    1    2    0    0  0.11457887181E+04 -0.94319023711E+03  0.63265243333E+04  0.65000000000E+04  0.15050000000E+03 0. -1.
     100001    1    1    2    0    0 -0.11457887181E+04  0.94319023711E+03 -0.63265243333E+04  0.65000000000E+04  0.15050000000E+03 0.  1.
</event>
<event>
 4    1  0.4521369E-004  0.6500000E+04  0.7818608E-02  0.7223770E-01
         52   -1    0    0    0    0  0.00000000000E+00  0.00000000000E+00  0.64930732323E+04  0.65000000000E+04  0.30000000000E+03 0.  1.
        -52   -1    0    0    0    0 -0.00000000000E+00 -0.00000000000E+00 -0.64930732323E+04  0.65000000000E+04  0.30000000000E+03 0. -1.
     100001    1    1    2    0    0 -0.11578526803E+04  0.63714342772E+04 -0.53995571332E+03  0.65000000000E+04  0.15050000000E+03 0. -1.
     100001    1    1    2    0    0  0.11578526803E+04 -0.63714342772E+04  0.53995571332E+03  0.65000000000E+04  0.15050000000E+03 0.  1.
</event>
<event>
 4    1  0.4521369E-004  0.6500000E+04  0.7818608E-02  0.7223770E-01
         52   -1    0    0    0    0  0.00000000000E+00  0.00000000000E+00  0.64930732323E+04  0.65000000000E+04  0.30000000000E+03 0.  1.
        -52   -1    0    0    0    0 -0.00000000000E+00 -0.00000000000E+00 -0.64930732323E+04  0.65000000000E+04  0.30000000000E+03 0. -1.
     100001    1    1    2    0    0  0.60934034665E+03  0.11179725563E+04 -0.63722987575E+04  0.65000000000E+04  0.15050000000E+03 0. -1.
     100001    1    1    2    0    0 -0.60934034665E+03 -0.11179725563E+04  0.63722987575E+04  0.65000000000E+04  0.15050000000E+03 0.  1.
</event>
<event>
 4    1  0.4521369E-004  0.6500000E+04  0.7818608E-02  0.7223770E-01
         52   -1    0    0    0    0  0.00000000000E+00  0.00000000000E+00  0.64930732323E+04  0.65000000000E+04  0.30000000000E+03 0.  1.
        -52   -1    0    0    0    0 -0.00000000000E+00 -0.00000000000E+00 -0.64930732323E+04  0.65000000000E+04  0.30000000000E+03 0. -1.
     100001    1    1    2    0    0  0.22024478384E+03  0.34789881878E+03  0.64851991794E+04  0.65000000000E+04  0.15050000000E+03 0.  1.
     100001    1    1    2    0    0 -0.22024478384E+03 -0.34789881878E+03 -0.64851991794E+04  0.65000000000E+04  0.15050000000E+03 0. -1.
</event>
<event>
 4    1  0.4521369E-004  0.6500000E+04  0.7818608E-02  0.7223770E-01
         52   -1    0    0    0    0  0.00000000000E+00  0.00000000000E+00  0.64930732323E+04  0.65000000000E+04  0.30000000000E+03 0.  1.
        -52   -1    0    0    0    0 -0.00000000000E+00 -0.00000000000E+00 -0.64930732323E+04  0.65000000000E+04  0.30000000000E+03 0. -1.
     100001    1    1    2    0    0 -0.43074909602E+04 -0.28463471538E+04 -0.39460333573E+04  0.65000000000E+04  0.15050000000E+03 0. -1.
     100001    1    1    2    0    0  0.43074909602E+04  0.28463471538E+04  0.39460333573E+04  0.65000000000E+04  0.15050000000E+03 0.  1.
</event>
<event>
 4    1  0.4521369E-004  0.6500000E+04  0.7818608E-02  0.7223770E-01
         52   -1    0    0    0    0  0.00000000000E+00  0.00000000000E+00  0.64930732323E+04  0.65000000000E+04  0.30000000000E+03 0. -1.
        -52   -1    0    0    0    0 -0.00000000000E+00 -0.00000000000E+00 -0.64930732323E+04  0.65000000000E+04  0.30000000000E+03 0.  1.
     100001    1    1    2    0    0  0.62608815666E+04 -0.35326672664E+03 -0.17040875504E+04  0.65000000000E+04  0.15050000000E+03 0.  1.
     100001    1    1    2    0    0 -0.62608815666E+04  0.35326672664E+03  0.17040875504E+04  0.65000000000E+04  0.15050000000E+03 0. -1.
</event>
<event>
 4    1  0.4521369E-004  0.6500000E+04  0.7818608E-02  0.7223770E-01
         52   -1    0    0    0    0  0.00000000000E+00  0.00000000000E+00  0.64930732323E+04  0.65000000000E+04  0.30000000000E+03 0.  1.
        -52   -1    0    0    0    0 -0.00000000000E+00 -0.00000000000E+00 -0.64930732323E+04  0.65000000000E+04  0.30000000000E+03 0. -1.
     100001    1    1    2    0    0  0.63857959166E+04  0.11811540559E+04 -0.23202447765E+03  0.65000000000E+04  0.15050000000E+03 0.  1.
     100001    1    1    2    0    0 -0.63857959166E+04 -0.11811540559E+04  0.23202447765E+03  0.65000000000E+04  0.15050000000E+03 0. -1.
</event>
<event>
 4    1  0.4521369E-004  0.6500000E+04  0.7818608E-02  0.7223770E-01
         52   -1    0    0    0    0  0.00000000000E+00  0.00000000000E+00  0.64930732323E+04  0.65000000000E+04  0.30000000000E+03 0. -1.
        -52   -1    0    0    0    0 -0.00000000000E+00 -0.00000000000E+00 -0.64930732323E+04  0.65000000000E+04  0.30000000000E+03 0.  1.
     100001    1    1    2    0    0 -0.16894863274E+03 -0.64156597422E+03 -0.64643019121E+04  0.65000000000E+04  0.15050000000E+03 0.  1.
     100001    1    1    2    0    0  0.16894863274E+03  0.64156597422E+03  0.64643019121E+04  0.65000000000E+04  0.15050000000E+03 0. -1.
</event>
<event>
 4    1  0.4521369E-004  0.6500000E+04  0.7818608E-02  0.7223770E-01
         52   -1    0    0    0    0  0.00000000000E+00  0.00000000000E+00  0.64930732323E+04  0.65000000000E+04  0.30000000000E+03 0. -1.
        -52   -1    0    0    0    0 -0.00000000000E+00 -0.00000000000E+00 -0.64930732323E+04  0.65000000000E+04  0.30000000000E+03 0.  1.
     100001    1    1    2    0    0  0.13221764079E+04 -0.29292186242E+04 -0.56479091307E+04  0.65000000000E+04  0.15050000000E+03 0.  1.
     100001    1    1    2    0    0 -0.13221764079E+04  0.29292186242E+04  0.56479091307E+04  0.65000000000E+04  0.15050000000E+03 0. -1.
</event>
<event>
 4    1  0.4521369E-004  0.6500000E+04  0.7818608E-02  0.7223770E-01
         52   -1    0    0    0    0  0.00000000000E+00  0.00000000000E+00  0.64930732323E+04  0.65000000000E+04  0.30000000000E+03 0.  1.
        -52   -1    0    0    0    0 -0.00000000000E+00 -0.00000000000E+00 -0.64930732323E+04  0.65000000000E+04  0.30000000000E+03 0. -1.
     100001    1    1    2    0    0 -0.97847115776E+03  0.46716808846E+03 -0.64071598950E+04  0.65000000000E+04  0.15050000000E+03 0. -1.
     100001    1    1    2    0    0  0.97847115776E+03 -0.46716808846E+03  0.64071598950E+04  0.65000000000E+04  0.15050000000E+03 0.  1.
</event>
<event>
 4    1  0.8296877E-004  0.6500000E+04  0.7818608E-02  0.7223770E-01
         52   -1    0    0    0    0  0.00000000000E+00  0.00000000000E+00  0.64930732323E+04  0.65000000000E+04  0.30000000000E+03 0. -1.
        -52   -1    0    0    0    0 -0.00000000000E+00 -0.00000000000E+00 -0.64930732323E+04  0.65000000000E+04  0.30000000000E+03 0. -1.
     100001    1    1    2    0    0 -0.15823632448E+02 -0.44060208036E+02  0.64980888006E+04  0.65000000000E+04  0.15050000000E+03 0. -1.
     100001    1    1    2    0    0  0.15823632448E+02  0.44060208036E+02 -0.64980888006E+04  0.65000000000E+04  0.15050000000E+03 0. -1.
</event>
<event>
 4    1  0.4521369E-004  0.6500000E+04  0.7818608E-02  0.7223770E-01
         52   -1    0    0    0    0  0.00000000000E+00  0.00000000000E+00  0.64930732323E+04  0.65000000000E+04  0.30000000000E+03 0.  1.
        -52   -1    0    0    0    0 -0.00000000000E+00 -0.00000000000E+00 -0.64930732323E+04  0.65000000000E+04  0.30000000000E+03 0. -1.
     100001    1    1    2    0    0 -0.40432724119E+03 -0.10607829672E+03  0.64847988887E+04  0.65000000000E+04  0.15050000000E+03 0.  1.
     100001    1    1    2    0    0  0.40432724119E+03  0.10607829672E+03 -0.64847988887E+04  0.65000000000E+04  0.15050000000E+03 0. -1.
</event>
<event>
 4    1  0.4521369E-004  0.6500000E+04  0.7818608E-02  0.7223770E-01
         52   -1    0    0    0    0  0.00000000000E+00  0.00000000000E+00  0.64930732323E+04  0.65000000000E+04  0.30000000000E+03 0. -1.
        -52   -1    0    0    0    0 -0.00000000000E+00 -0.00000000000E+00 -0.64930732323E+04  0.65000000000E+04  0.30000000000E+03 0.  1.
     100001    1    1    2    0    0 -0.25835437264E+04  0.16228469824E+04  0.57375098462E+04  0.65000000000E+04  0.15050000000E+03 0. -1.
     100001    1    1    2    0    0  0.25835437264E+04 -0.16228469824E+04 -0.57375098462E+04  0.65000000000E+04  0.15050000000E+03 0.  1.
</event>
<event>
 4    1  0.4521369E-004  0.6500000E+04  0.7818608E-02  0.7223770E-01
         52   -1    0    0    0    0  0.00000000000E+00  0.00000000000E+00  0.64930732323E+04  0.65000000000E+04  0.30000000000E+03 0.  1.
        -52   -1    0    0    0    0 -0.00000000000E+00 -0.00000000000E+00 -0.64930732323E+04  0.65000000000E+04  0.30000000000E+03 0. -1.
     100001    1    1    2    0    0 -0.33878859732E+03 -0.92464794798E+03 -0.64232077818E+04  0.65000000000E+04  0.15050000000E+03 0. -1.
     100001    1    1    2    0    0  0.33878859732E+03  0.92464794798E+03  0.64232077818E+04  0.65000000000E+04  0.15050000000E+03 0.  1.
</event>
<event>
 4    1  0.4521369E-004  0.6500000E+04  0.7818608E-02  0.7223770E-01
         52   -1    0    0    0    0  0.00000000000E+00  0.00000000000E+00  0.64930732323E+04  0.65000000000E+04  0.30000000000E+03 0.  1.
        -52   -1    0    0    0    0 -0.00000000000E+00 -0.00000000000E+00 -0.64930732323E+04  0.65000000000E+04  0.30000000000E+03 0. -1.
     100001    1    1    2    0    0 -0.11465877248E+04  0.99231276454E+03  0.63188607926E+04  0.65000000000E+04  0.15050000000E+03 0.  1.
     100001    1    1    2    0    0  0.11465877248E+04 -0.99231276454E+03 -0.63188607926E+04  0.65000000000E+04  0.15050000000E+03 0. -1.
</event>
<event>
 4    1  0.4521369E-004  0.6500000E+04  0.7818608E-02  0.7223770E-01
         52   -1    0    0    0    0  0.00000000000E+00  0.00000000000E+00  0.64930732323E+04  0.65000000000E+04  0.30000000000E+03 0. -1.
        -52   -1    0    0    0    0 -0.00000000000E+00 -0.00000000000E+00 -0.64930732323E+04  0.65000000000E+04  0.30000000000E+03 0.  1.
     100001    1    1    2    0    0  0.19470133141E+03 -0.63528113922E+03 -0.64641982500E+04  0.65000000000E+04  0.15050000000E+03 0.  1.
     100001    1    1    2    0    0 -0.19470133141E+03  0.63528113922E+03  0.64641982500E+04  0.65000000000E+04  0.15050000000E+03 0. -1.
</event>
<event>
 4    1  0.4521369E-004  0.6500000E+04  0.7818608E-02  0.7223770E-01
         52   -1    0    0    0    0  0.00000000000E+00  0.00000000000E+00  0.64930732323E+04  0.65000000000E+04  0.30000000000E+03 0. -1.
        -52   -1    0    0    0    0 -0.00000000000E+00 -0.00000000000E+00 -0.64930732323E+04  0.65000000000E+04  0.30000000000E+03 0.  1.
     100001    1    1    2    0    0  0.63693154256E+03  0.46651185479E+03 -0.64501189640E+04  0.65000000000E+04  0.15050000000E+03 0.  1.
     100001    1    1    2    0    0 -0.63693154256E+03 -0.46651185479E+03  0.64501189640E+04  0.65000000000E+04  0.15050000000E+03 0. -1.
</event>
<event>
 4    1  0.4521369E-004  0.6500000E+04  0.7818608E-02  0.7223770E-01
         52   -1    0    0    0    0  0.00000000000E+00  0.00000000000E+00  0.64930732323E+04  0.65000000000E+04  0.30000000000E+03 0. -1.
        -52   -1    0    0    0    0 -0.00000000000E+00 -0.00000000000E+00 -0.64930732323E+04  0.65000000000E+04  0.30000000000E+03 0.  1.
     100001    1    1    2    0    0 -0.42890210625E+03 -0.46717285920E+03  0.64672360598E+04  0.65000000000E+04  0.15050000000E+03 0. -1.
     100001    1    1    2    0    0  0.42890210625E+03  0.46717285920E+03 -0.64672360598E+04  0.65000000000E+04  0.15050000000E+03 0.  1.
</event>
<event>
 4    1  0.4521369E-004  0.6500000E+04  0.7818608E-02  0.7223770E-01
         52   -1    0    0    0    0  0.00000000000E+00  0.00000000000E+00  0.64930732323E+04  0.65000000000E+04  0.30000000000E+03 0.  1.
        -52   -1    0    0    0    0 -0.00000000000E+00 -0.00000000000E+00 -0.64930732323E+04  0.65000000000E+04  0.30000000000E+03 0.  1.
     100001    1    1    2    0    0 -0.82444256177E+03 -0.10711588719E+04  0.63561201124E+04  0.65000000000E+04  0.15050000000E+03 0.  1.
     100001    1    1    2    0    0  0.82444256177E+03  0.10711588719E+04 -0.63561201124E+04  0.65000000000E+04  0.15050000000E+03 0.  1.
</event>
<event>
 4    1  0.4521369E-004  0.6500000E+04  0.7818608E-02  0.7223770E-01
         52   -1    0    0    0    0  0.00000000000E+00  0.00000000000E+00  0.64930732323E+04  0.65000000000E+04  0.30000000000E+03 0.  1.
        -52   -1    0    0    0    0 -0.00000000000E+00 -0.00000000000E+00 -0.64930732323E+04  0.65000000000E+04  0.30000000000E+03 0. -1.
     100001    1    1    2    0    0 -0.19444068860E+04  0.66784223282E+03  0.61644641587E+04  0.65000000000E+04  0.15050000000E+03 0.  1.
     100001    1    1    2    0    0  0.19444068860E+04 -0.66784223282E+03 -0.61644641587E+04  0.65000000000E+04  0.15050000000E+03 0. -1.
</event>
<event>
 4    1  0.4521369E-004  0.6500000E+04  0.7818608E-02  0.7223770E-01
         52   -1    0    0    0    0  0.00000000000E+00  0.00000000000E+00  0.64930732323E+04  0.65000000000E+04  0.30000000000E+03 0.  1.
        -52   -1    0    0    0    0 -0.00000000000E+00 -0.00000000000E+00 -0.64930732323E+04  0.65000000000E+04  0.30000000000E+03 0. -1.
     100001    1    1    2    0    0  0.30197345891E+04  0.22165740858E+04 -0.53099295742E+04  0.65000000000E+04  0.15050000000E+03 0. -1.
     100001    1    1    2    0    0 -0.30197345891E+04 -0.22165740858E+04  0.53099295742E+04  0.65000000000E+04  0.15050000000E+03 0.  1.
</event>
<event>
 4    1  0.4521369E-004  0.6500000E+04  0.7818608E-02  0.7223770E-01
         52   -1    0    0    0    0  0.00000000000E+00  0.00000000000E+00  0.64930732323E+04  0.65000000000E+04  0.30000000000E+03 0. -1.
        -52   -1    0    0    0    0 -0.00000000000E+00 -0.00000000000E+00 -0.64930732323E+04  0.65000000000E+04  0.30000000000E+03 0.  1.
     100001    1    1    2    0    0 -0.72708351066E+02  0.50026222433E+03  0.64785647294E+04  0.65000000000E+04  0.15050000000E+03 0. -1.
     100001    1    1    2    0    0  0.72708351066E+02 -0.50026222433E+03 -0.64785647294E+04  0.65000000000E+04  0.15050000000E+03 0.  1.
</event>
<event>
 4    1  0.4521369E-004  0.6500000E+04  0.7818608E-02  0.7223770E-01
         52   -1    0    0    0    0  0.00000000000E+00  0.00000000000E+00  0.64930732323E+04  0.65000000000E+04  0.30000000000E+03 0.  1.
        -52   -1    0    0    0    0 -0.00000000000E+00 -0.00000000000E+00 -0.64930732323E+04  0.65000000000E+04  0.30000000000E+03 0. -1.
     100001    1    1    2    0    0 -0.13813703714E+04  0.46632512970E+02  0.63495662101E+04  0.65000000000E+04  0.15050000000E+03 0.  1.
     100001    1    1    2    0    0  0.13813703714E+04 -0.46632512970E+02 -0.63495662101E+04  0.65000000000E+04  0.15050000000E+03 0. -1.
</event>
<event>
 4    1  0.4521369E-004  0.6500000E+04  0.7818608E-02  0.7223770E-01
         52   -1    0    0    0    0  0.00000000000E+00  0.00000000000E+00  0.64930732323E+04  0.65000000000E+04  0.30000000000E+03 0.  1.
        -52   -1    0    0    0    0 -0.00000000000E+00 -0.00000000000E+00 -0.64930732323E+04  0.65000000000E+04  0.30000000000E+03 0. -1.
     100001    1    1    2    0    0 -0.29836211374E+04 -0.31029475584E+04  0.48679637538E+04  0.65000000000E+04  0.15050000000E+03 0.  1.
     100001    1    1    2    0    0  0.29836211374E+04  0.31029475584E+04 -0.48679637538E+04  0.65000000000E+04  0.15050000000E+03 0. -1.
</event>
<event>
 4    1  0.4521369E-004  0.6500000E+04  0.7818608E-02  0.7223770E-01
         52   -1    0    0    0    0  0.00000000000E+00  0.00000000000E+00  0.64930732323E+04  0.65000000000E+04  0.30000000000E+03 0. -1.
        -52   -1    0    0    0    0 -0.00000000000E+00 -0.00000000000E+00 -0.64930732323E+04  0.65000000000E+04  0.30000000000E+03 0.  1.
     100001    1    1    2    0    0 -0.56892284327E+03  0.14108890703E+04 -0.63176790501E+04  0.65000000000E+04  0.15050000000E+03 0.  1.
     100001    1    1    2    0    0  0.56892284327E+03 -0.14108890703E+04  0.63176790501E+04  0.65000000000E+04  0.15050000000E+03 0. -1.
</event>
<event>
 4    1  0.4521369E-004  0.6500000E+04  0.7818608E-02  0.7223770E-01
         52   -1    0    0    0    0  0.00000000000E+00  0.00000000000E+00  0.64930732323E+04  0.65000000000E+04  0.30000000000E+03 0. -1.
        -52   -1    0    0    0    0 -0.00000000000E+00 -0.00000000000E+00 -0.64930732323E+04  0.65000000000E+04  0.30000000000E+03 0.  1.
     100001    1    1    2    0    0  0.25508365740E+04 -0.21429915618E+04 -0.55792624682E+04  0.65000000000E+04  0.15050000000E+03 0.  1.
     100001    1    1    2    0    0 -0.25508365740E+04  0.21429915618E+04  0.55792624682E+04  0.65000000000E+04  0.15050000000E+03 0. -1.
</event>
<event>
 4    1  0.4521369E-004  0.6500000E+04  0.7818608E-02  0.7223770E-01
         52   -1    0    0    0    0  0.00000000000E+00  0.00000000000E+00  0.64930732323E+04  0.65000000000E+04  0.30000000000E+03 0.  1.
        -52   -1    0    0    0    0 -0.00000000000E+00 -0.00000000000E+00 -0.64930732323E+04  0.65000000000E+04  0.30000000000E+03 0.  1.
     100001    1    1    2    0    0 -0.23936991284E+03  0.36101525563E+03 -0.64838044218E+04  0.65000000000E+04  0.15050000000E+03 0.  1.
     100001    1    1    2    0    0  0.23936991284E+03 -0.36101525563E+03  0.64838044218E+04  0.65000000000E+04  0.15050000000E+03 0.  1.
</event>
<event>
 4    1  0.4521369E-004  0.6500000E+04  0.7818608E-02  0.7223770E-01
         52   -1    0    0    0    0  0.00000000000E+00  0.00000000000E+00  0.64930732323E+04  0.65000000000E+04  0.30000000000E+03 0.  1.
        -52   -1    0    0    0    0 -0.00000000000E+00 -0.00000000000E+00 -0.64930732323E+04  0.65000000000E+04  0.30000000000E+03 0. -1.
     100001    1    1    2    0    0  0.19030153007E+03 -0.63433319352E+03 -0.64644223622E+04  0.65000000000E+04  0.15050000000E+03 0. -1.
     100001    1    1    2    0    0 -0.19030153007E+03  0.63433319352E+03  0.64644223622E+04  0.65000000000E+04  0.15050000000E+03 0.  1.
</event>
<event>
 4    1  0.4521369E-004  0.6500000E+04  0.7818608E-02  0.7223770E-01
         52   -1    0    0    0    0  0.00000000000E+00  0.00000000000E+00  0.64930732323E+04  0.65000000000E+04  0.30000000000E+03 0.  1.
        -52   -1    0    0    0    0 -0.00000000000E+00 -0.00000000000E+00 -0.64930732323E+04  0.65000000000E+04  0.30000000000E+03 0. -1.
     100001    1    1    2    0    0 -0.45743216593E+02 -0.16693015931E+04  0.62800230493E+04  0.65000000000E+04  0.15050000000E+03 0.  1.
     100001    1    1    2    0    0  0.45743216593E+02  0.16693015931E+04 -0.62800230493E+04  0.65000000000E+04  0.15050000000E+03 0. -1.
</event>
<event>
 4    1  0.4521369E-004  0.6500000E+04  0.7818608E-02  0.7223770E-01
         52   -1    0    0    0    0  0.00000000000E+00  0.00000000000E+00  0.64930732323E+04  0.65000000000E+04  0.30000000000E+03 0.  1.
        -52   -1    0    0    0    0 -0.00000000000E+00 -0.00000000000E+00 -0.64930732323E+04  0.65000000000E+04  0.30000000000E+03 0. -1.
     100001    1    1    2    0    0  0.62389846820E+03 -0.26288757991E+03  0.64628933591E+04  0.65000000000E+04  0.15050000000E+03 0.  1.
     100001    1    1    2    0    0 -0.62389846820E+03  0.26288757991E+03 -0.64628933591E+04  0.65000000000E+04  0.15050000000E+03 0. -1.
</event>
<event>
 4    1  0.4521369E-004  0.6500000E+04  0.7818608E-02  0.7223770E-01
         52   -1    0    0    0    0  0.00000000000E+00  0.00000000000E+00  0.64930732323E+04  0.65000000000E+04  0.30000000000E+03 0.  1.
        -52   -1    0    0    0    0 -0.00000000000E+00 -0.00000000000E+00 -0.64930732323E+04  0.65000000000E+04  0.30000000000E+03 0. -1.
     100001    1    1    2    0    0 -0.46618073698E+03 -0.17474655469E+03  0.64791580404E+04  0.65000000000E+04  0.15050000000E+03 0.  1.
     100001    1    1    2    0    0  0.46618073698E+03  0.17474655469E+03 -0.64791580404E+04  0.65000000000E+04  0.15050000000E+03 0. -1.
</event>
<event>
 4    1  0.4521369E-004  0.6500000E+04  0.7818608E-02  0.7223770E-01
         52   -1    0    0    0    0  0.00000000000E+00  0.00000000000E+00  0.64930732323E+04  0.65000000000E+04  0.30000000000E+03 0.  1.
        -52   -1    0    0    0    0 -0.00000000000E+00 -0.00000000000E+00 -0.64930732323E+04  0.65000000000E+04  0.30000000000E+03 0.  1.
     100001    1    1    2    0    0 -0.21150582990E+03  0.19549239202E+03  0.64918716684E+04  0.65000000000E+04  0.15050000000E+03 0.  1.
     100001    1    1    2    0    0  0.21150582990E+03 -0.19549239202E+03 -0.64918716684E+04  0.65000000000E+04  0.15050000000E+03 0.  1.
</event>
<event>
 4    1  0.4521369E-004  0.6500000E+04  0.7818608E-02  0.7223770E-01
         52   -1    0    0    0    0  0.00000000000E+00  0.00000000000E+00  0.64930732323E+04  0.65000000000E+04  0.30000000000E+03 0.  1.
        -52   -1    0    0    0    0 -0.00000000000E+00 -0.00000000000E+00 -0.64930732323E+04  0.65000000000E+04  0.30000000000E+03 0. -1.
     100001    1    1    2    0    0 -0.74321779586E+02 -0.61021463809E+03  0.64691161775E+04  0.65000000000E+04  0.15050000000E+03 0.  1.
     100001    1    1    2    0    0  0.74321779586E+02  0.61021463809E+03 -0.64691161775E+04  0.65000000000E+04  0.15050000000E+03 0. -1.
</event>
<event>
 4    1  0.4521369E-004  0.6500000E+04  0.7818608E-02  0.7223770E-01
         52   -1    0    0    0    0  0.00000000000E+00  0.00000000000E+00  0.64930732323E+04  0.65000000000E+04  0.30000000000E+03 0. -1.
        -52   -1    0    0    0    0 -0.00000000000E+00 -0.00000000000E+00 -0.64930732323E+04  0.65000000000E+04  0.30000000000E+03 0.  1.
     100001    1    1    2    0    0 -0.18708877747E+03 -0.51884519070E+03  0.64748086618E+04  0.65000000000E+04  0.15050000000E+03 0. -1.
     100001    1    1    2    0    0  0.18708877747E+03  0.51884519070E+03 -0.64748086618E+04  0.65000000000E+04  0.15050000000E+03 0.  1.
</event>
<event>
 4    1  0.4521369E-004  0.6500000E+04  0.7818608E-02  0.7223770E-01
         52   -1    0    0    0    0  0.00000000000E+00  0.00000000000E+00  0.64930732323E+04  0.65000000000E+04  0.30000000000E+03 0. -1.
        -52   -1    0    0    0    0 -0.00000000000E+00 -0.00000000000E+00 -0.64930732323E+04  0.65000000000E+04  0.30000000000E+03 0.  1.
     100001    1    1    2    0    0 -0.23229081376E+04  0.74249958136E+03  0.60232999183E+04  0.65000000000E+04  0.15050000000E+03 0. -1.
     100001    1    1    2    0    0  0.23229081376E+04 -0.74249958136E+03 -0.60232999183E+04  0.65000000000E+04  0.15050000000E+03 0.  1.
</event>
<event>
 4    1  0.4521369E-004  0.6500000E+04  0.7818608E-02  0.7223770E-01
         52   -1    0    0    0    0  0.00000000000E+00  0.00000000000E+00  0.64930732323E+04  0.65000000000E+04  0.30000000000E+03 0.  1.
        -52   -1    0    0    0    0 -0.00000000000E+00 -0.00000000000E+00 -0.64930732323E+04  0.65000000000E+04  0.30000000000E+03 0. -1.
     100001    1    1    2    0    0  0.21057127586E+04 -0.82658458741E+03  0.60918044493E+04  0.65000000000E+04  0.15050000000E+03 0.  1.
     100001    1    1    2    0    0 -0.21057127586E+04  0.82658458741E+03 -0.60918044493E+04  0.65000000000E+04  0.15050000000E+03 0. -1.
</event>
<event>
 4    1  0.4521369E-004  0.6500000E+04  0.7818608E-02  0.7223770E-01
         52   -1    0    0    0    0  0.00000000000E+00  0.00000000000E+00  0.64930732323E+04  0.65000000000E+04  0.30000000000E+03 0. -1.
        -52   -1    0    0    0    0 -0.00000000000E+00 -0.00000000000E+00 -0.64930732323E+04  0.65000000000E+04  0.30000000000E+03 0.  1.
     100001    1    1    2    0    0 -0.61472051558E+03 -0.42258451333E+03  0.64552994328E+04  0.65000000000E+04  0.15050000000E+03 0. -1.
     100001    1    1    2    0    0  0.61472051558E+03  0.42258451333E+03 -0.64552994328E+04  0.65000000000E+04  0.15050000000E+03 0.  1.
</event>
<event>
 4    1  0.4521369E-004  0.6500000E+04  0.7818608E-02  0.7223770E-01
         52   -1    0    0    0    0  0.00000000000E+00  0.00000000000E+00  0.64930732323E+04  0.65000000000E+04  0.30000000000E+03 0. -1.
        -52   -1    0    0    0    0 -0.00000000000E+00 -0.00000000000E+00 -0.64930732323E+04  0.65000000000E+04  0.30000000000E+03 0. -1.
     100001    1    1    2    0    0 -0.22119085959E+03  0.60860956728E+03 -0.64659120585E+04  0.65000000000E+04  0.15050000000E+03 0. -1.
     100001    1    1    2    0    0  0.22119085959E+03 -0.60860956728E+03  0.64659120585E+04  0.65000000000E+04  0.15050000000E+03 0. -1.
</event>
<event>
 4    1  0.4521369E-004  0.6500000E+04  0.7818608E-02  0.7223770E-01
         52   -1    0    0    0    0  0.00000000000E+00  0.00000000000E+00  0.64930732323E+04  0.65000000000E+04  0.30000000000E+03 0. -1.
        -52   -1    0    0    0    0 -0.00000000000E+00 -0.00000000000E+00 -0.64930732323E+04  0.65000000000E+04  0.30000000000E+03 0.  1.
     100001    1    1    2    0    0  0.47621039475E+03  0.11247570949E+04  0.63824364382E+04  0.65000000000E+04  0.15050000000E+03 0. -1.
     100001    1    1    2    0    0 -0.47621039475E+03 -0.11247570949E+04 -0.63824364382E+04  0.65000000000E+04  0.15050000000E+03 0.  1.
</event>
<event>
 4    1  0.4521369E-004  0.6500000E+04  0.7818608E-02  0.7223770E-01
         52   -1    0    0    0    0  0.00000000000E+00  0.00000000000E+00  0.64930732323E+04  0.65000000000E+04  0.30000000000E+03 0.  1.
        -52   -1    0    0    0    0 -0.00000000000E+00 -0.00000000000E+00 -0.64930732323E+04  0.65000000000E+04  0.30000000000E+03 0. -1.
     100001    1    1    2    0    0 -0.59142753633E+03  0.19558584478E+03  0.64683312683E+04  0.65000000000E+04  0.15050000000E+03 0.  1.
     100001    1    1    2    0    0  0.59142753633E+03 -0.19558584478E+03 -0.64683312683E+04  0.65000000000E+04  0.15050000000E+03 0. -1.
</event>
<event>
 4    1  0.4521369E-004  0.6500000E+04  0.7818608E-02  0.7223770E-01
         52   -1    0    0    0    0  0.00000000000E+00  0.00000000000E+00  0.64930732323E+04  0.65000000000E+04  0.30000000000E+03 0.  1.
        -52   -1    0    0    0    0 -0.00000000000E+00 -0.00000000000E+00 -0.64930732323E+04  0.65000000000E+04  0.30000000000E+03 0. -1.
     100001    1    1    2    0    0 -0.87058196088E+03 -0.23445864543E+03 -0.64354072088E+04  0.65000000000E+04  0.15050000000E+03 0. -1.
     100001    1    1    2    0    0  0.87058196088E+03  0.23445864543E+03  0.64354072088E+04  0.65000000000E+04  0.15050000000E+03 0.  1.
</event>
<event>
 4    1  0.4521369E-004  0.6500000E+04  0.7818608E-02  0.7223770E-01
         52   -1    0    0    0    0  0.00000000000E+00  0.00000000000E+00  0.64930732323E+04  0.65000000000E+04  0.30000000000E+03 0.  1.
        -52   -1    0    0    0    0 -0.00000000000E+00 -0.00000000000E+00 -0.64930732323E+04  0.65000000000E+04  0.30000000000E+03 0. -1.
     100001    1    1    2    0    0 -0.98252877528E+03 -0.97039179572E+03 -0.63498288732E+04  0.65000000000E+04  0.15050000000E+03 0. -1.
     100001    1    1    2    0    0  0.98252877528E+03  0.97039179572E+03  0.63498288732E+04  0.65000000000E+04  0.15050000000E+03 0.  1.
</event>
<event>
 4    1  0.4521369E-004  0.6500000E+04  0.7818608E-02  0.7223770E-01
         52   -1    0    0    0    0  0.00000000000E+00  0.00000000000E+00  0.64930732323E+04  0.65000000000E+04  0.30000000000E+03 0.  1.
        -52   -1    0    0    0    0 -0.00000000000E+00 -0.00000000000E+00 -0.64930732323E+04  0.65000000000E+04  0.30000000000E+03 0. -1.
     100001    1    1    2    0    0  0.57197171321E+03 -0.40614746619E+04 -0.50402997609E+04  0.65000000000E+04  0.15050000000E+03 0. -1.
     100001    1    1    2    0    0 -0.57197171321E+03  0.40614746619E+04  0.50402997609E+04  0.65000000000E+04  0.15050000000E+03 0.  1.
</event>
<event>
 4    1  0.4521369E-004  0.6500000E+04  0.7818608E-02  0.7223770E-01
         52   -1    0    0    0    0  0.00000000000E+00  0.00000000000E+00  0.64930732323E+04  0.65000000000E+04  0.30000000000E+03 0.  1.
        -52   -1    0    0    0    0 -0.00000000000E+00 -0.00000000000E+00 -0.64930732323E+04  0.65000000000E+04  0.30000000000E+03 0. -1.
     100001    1    1    2    0    0  0.52135951310E+03 -0.10405524848E+03  0.64764733083E+04  0.65000000000E+04  0.15050000000E+03 0.  1.
     100001    1    1    2    0    0 -0.52135951310E+03  0.10405524848E+03 -0.64764733083E+04  0.65000000000E+04  0.15050000000E+03 0. -1.
</event>
<event>
 4    1  0.4521369E-004  0.6500000E+04  0.7818608E-02  0.7223770E-01
         52   -1    0    0    0    0  0.00000000000E+00  0.00000000000E+00  0.64930732323E+04  0.65000000000E+04  0.30000000000E+03 0.  1.
        -52   -1    0    0    0    0 -0.00000000000E+00 -0.00000000000E+00 -0.64930732323E+04  0.65000000000E+04  0.30000000000E+03 0.  1.
     100001    1    1    2    0    0 -0.16310344785E+03 -0.18154929748E+03 -0.64936728334E+04  0.65000000000E+04  0.15050000000E+03 0.  1.
     100001    1    1    2    0    0  0.16310344785E+03  0.18154929748E+03  0.64936728334E+04  0.65000000000E+04  0.15050000000E+03 0.  1.
</event>
<event>
 4    1  0.4521369E-004  0.6500000E+04  0.7818608E-02  0.7223770E-01
         52   -1    0    0    0    0  0.00000000000E+00  0.00000000000E+00  0.64930732323E+04  0.65000000000E+04  0.30000000000E+03 0.  1.
        -52   -1    0    0    0    0 -0.00000000000E+00 -0.00000000000E+00 -0.64930732323E+04  0.65000000000E+04  0.30000000000E+03 0.  1.
     100001    1    1    2    0    0  0.72932519570E+02 -0.22021906165E+02  0.64978108339E+04  0.65000000000E+04  0.15050000000E+03 0.  1.
     100001    1    1    2    0    0 -0.72932519570E+02  0.22021906165E+02 -0.64978108339E+04  0.65000000000E+04  0.15050000000E+03 0.  1.
</event>
<event>
 4    1  0.4521369E-004  0.6500000E+04  0.7818608E-02  0.7223770E-01
         52   -1    0    0    0    0  0.00000000000E+00  0.00000000000E+00  0.64930732323E+04  0.65000000000E+04  0.30000000000E+03 0. -1.
        -52   -1    0    0    0    0 -0.00000000000E+00 -0.00000000000E+00 -0.64930732323E+04  0.65000000000E+04  0.30000000000E+03 0.  1.
     100001    1    1    2    0    0 -0.40603376097E+02  0.18620282223E+04  0.62256366755E+04  0.65000000000E+04  0.15050000000E+03 0. -1.
     100001    1    1    2    0    0  0.40603376097E+02 -0.18620282223E+04 -0.62256366755E+04  0.65000000000E+04  0.15050000000E+03 0.  1.
</event>
<event>
 4    1  0.4521369E-004  0.6500000E+04  0.7818608E-02  0.7223770E-01
         52   -1    0    0    0    0  0.00000000000E+00  0.00000000000E+00  0.64930732323E+04  0.65000000000E+04  0.30000000000E+03 0.  1.
        -52   -1    0    0    0    0 -0.00000000000E+00 -0.00000000000E+00 -0.64930732323E+04  0.65000000000E+04  0.30000000000E+03 0. -1.
     100001    1    1    2    0    0  0.22594843631E+04 -0.71340338723E+03  0.60508789254E+04  0.65000000000E+04  0.15050000000E+03 0.  1.
     100001    1    1    2    0    0 -0.22594843631E+04  0.71340338723E+03 -0.60508789254E+04  0.65000000000E+04  0.15050000000E+03 0. -1.
</event>
<event>
 4    1  0.4521369E-004  0.6500000E+04  0.7818608E-02  0.7223770E-01
         52   -1    0    0    0    0  0.00000000000E+00  0.00000000000E+00  0.64930732323E+04  0.65000000000E+04  0.30000000000E+03 0.  1.
        -52   -1    0    0    0    0 -0.00000000000E+00 -0.00000000000E+00 -0.64930732323E+04  0.65000000000E+04  0.30000000000E+03 0. -1.
     100001    1    1    2    0    0 -0.10505702359E+03  0.30744377333E+03  0.64901302836E+04  0.65000000000E+04  0.15050000000E+03 0.  1.
     100001    1    1    2    0    0  0.10505702359E+03 -0.30744377333E+03 -0.64901302836E+04  0.65000000000E+04  0.15050000000E+03 0. -1.
</event>
<event>
 4    1  0.4591334E-004  0.6500000E+04  0.7818608E-02  0.7223770E-01
         52   -1    0    0    0    0  0.00000000000E+00  0.00000000000E+00  0.64930732323E+04  0.65000000000E+04  0.30000000000E+03 0. -1.
        -52   -1    0    0    0    0 -0.00000000000E+00 -0.00000000000E+00 -0.64930732323E+04  0.65000000000E+04  0.30000000000E+03 0. -1.
     100001    1    1    2    0    0 -0.19888282742E+03  0.29451097653E+02  0.64951464959E+04  0.65000000000E+04  0.15050000000E+03 0. -1.
     100001    1    1    2    0    0  0.19888282742E+03 -0.29451097653E+02 -0.64951464959E+04  0.65000000000E+04  0.15050000000E+03 0. -1.
</event>
<event>
 4    1  0.4521369E-004  0.6500000E+04  0.7818608E-02  0.7223770E-01
         52   -1    0    0    0    0  0.00000000000E+00  0.00000000000E+00  0.64930732323E+04  0.65000000000E+04  0.30000000000E+03 0.  1.
        -52   -1    0    0    0    0 -0.00000000000E+00 -0.00000000000E+00 -0.64930732323E+04  0.65000000000E+04  0.30000000000E+03 0. -1.
     100001    1    1    2    0    0  0.10238572819E+04 -0.58982060629E+03 -0.63899278297E+04  0.65000000000E+04  0.15050000000E+03 0. -1.
     100001    1    1    2    0    0 -0.10238572819E+04  0.58982060629E+03  0.63899278297E+04  0.65000000000E+04  0.15050000000E+03 0.  1.
</event>
<event>
 4    1  0.4521369E-004  0.6500000E+04  0.7818608E-02  0.7223770E-01
         52   -1    0    0    0    0  0.00000000000E+00  0.00000000000E+00  0.64930732323E+04  0.65000000000E+04  0.30000000000E+03 0. -1.
        -52   -1    0    0    0    0 -0.00000000000E+00 -0.00000000000E+00 -0.64930732323E+04  0.65000000000E+04  0.30000000000E+03 0.  1.
     100001    1    1    2    0    0  0.22602816491E+03  0.70342134407E+03  0.64561179846E+04  0.65000000000E+04  0.15050000000E+03 0. -1.
     100001    1    1    2    0    0 -0.22602816491E+03 -0.70342134407E+03 -0.64561179846E+04  0.65000000000E+04  0.15050000000E+03 0.  1.
</event>
<event>
 4    1  0.4521369E-004  0.6500000E+04  0.7818608E-02  0.7223770E-01
         52   -1    0    0    0    0  0.00000000000E+00  0.00000000000E+00  0.64930732323E+04  0.65000000000E+04  0.30000000000E+03 0. -1.
        -52   -1    0    0    0    0 -0.00000000000E+00 -0.00000000000E+00 -0.64930732323E+04  0.65000000000E+04  0.30000000000E+03 0.  1.
     100001    1    1    2    0    0 -0.45820159987E+04 -0.24809965530E+04 -0.38829286938E+04  0.65000000000E+04  0.15050000000E+03 0.  1.
     100001    1    1    2    0    0  0.45820159987E+04  0.24809965530E+04  0.38829286938E+04  0.65000000000E+04  0.15050000000E+03 0. -1.
</event>
<event>
 4    1  0.4521369E-004  0.6500000E+04  0.7818608E-02  0.7223770E-01
         52   -1    0    0    0    0  0.00000000000E+00  0.00000000000E+00  0.64930732323E+04  0.65000000000E+04  0.30000000000E+03 0. -1.
        -52   -1    0    0    0    0 -0.00000000000E+00 -0.00000000000E+00 -0.64930732323E+04  0.65000000000E+04  0.30000000000E+03 0.  1.
     100001    1    1    2    0    0  0.12043303985E+04 -0.28245512222E+03 -0.63794323529E+04  0.65000000000E+04  0.15050000000E+03 0.  1.
     100001    1    1    2    0    0 -0.12043303985E+04  0.28245512222E+03  0.63794323529E+04  0.65000000000E+04  0.15050000000E+03 0. -1.
</event>
<event>
 4    1  0.4521369E-004  0.6500000E+04  0.7818608E-02  0.7223770E-01
         52   -1    0    0    0    0  0.00000000000E+00  0.00000000000E+00  0.64930732323E+04  0.65000000000E+04  0.30000000000E+03 0. -1.
        -52   -1    0    0    0    0 -0.00000000000E+00 -0.00000000000E+00 -0.64930732323E+04  0.65000000000E+04  0.30000000000E+03 0.  1.
     100001    1    1    2    0    0  0.13064543163E+04  0.69317356314E+03  0.63277197536E+04  0.65000000000E+04  0.15050000000E+03 0. -1.
     100001    1    1    2    0    0 -0.13064543163E+04 -0.69317356314E+03 -0.63277197536E+04  0.65000000000E+04  0.15050000000E+03 0.  1.
</event>
<event>
 4    1  0.4521369E-004  0.6500000E+04  0.7818608E-02  0.7223770E-01
         52   -1    0    0    0    0  0.00000000000E+00  0.00000000000E+00  0.64930732323E+04  0.65000000000E+04  0.30000000000E+03 0. -1.
        -52   -1    0    0    0    0 -0.00000000000E+00 -0.00000000000E+00 -0.64930732323E+04  0.65000000000E+04  0.30000000000E+03 0.  1.
     100001    1    1    2    0    0 -0.90952948561E+03 -0.15851812720E+04  0.62359687459E+04  0.65000000000E+04  0.15050000000E+03 0. -1.
     100001    1    1    2    0    0  0.90952948561E+03  0.15851812720E+04 -0.62359687459E+04  0.65000000000E+04  0.15050000000E+03 0.  1.
</event>
<event>
 4    1  0.4521369E-004  0.6500000E+04  0.7818608E-02  0.7223770E-01
         52   -1    0    0    0    0  0.00000000000E+00  0.00000000000E+00  0.64930732323E+04  0.65000000000E+04  0.30000000000E+03 0. -1.
        -52   -1    0    0    0    0 -0.00000000000E+00 -0.00000000000E+00 -0.64930732323E+04  0.65000000000E+04  0.30000000000E+03 0.  1.
     100001    1    1    2    0    0 -0.20920448845E+04  0.35996791357E+04  0.49892893353E+04  0.65000000000E+04  0.15050000000E+03 0.  0.
     100001    1    1    2    0    0  0.20920448845E+04 -0.35996791357E+04 -0.49892893353E+04  0.65000000000E+04  0.15050000000E+03 0.  1.
</event>
<event>
 4    1  0.4521369E-004  0.6500000E+04  0.7818608E-02  0.7223770E-01
         52   -1    0    0    0    0  0.00000000000E+00  0.00000000000E+00  0.64930732323E+04  0.65000000000E+04  0.30000000000E+03 0. -1.
        -52   -1    0    0    0    0 -0.00000000000E+00 -0.00000000000E+00 -0.64930732323E+04  0.65000000000E+04  0.30000000000E+03 0.  1.
     100001    1    1    2    0    0  0.11590069161E+04  0.42151109296E+04  0.48080029711E+04  0.65000000000E+04  0.15050000000E+03 0. -1.
     100001    1    1    2    0    0 -0.11590069161E+04 -0.42151109296E+04 -0.48080029711E+04  0.65000000000E+04  0.15050000000E+03 0.  1.
</event>
<event>
 4    1  0.4521369E-004  0.6500000E+04  0.7818608E-02  0.7223770E-01
         52   -1    0    0    0    0  0.00000000000E+00  0.00000000000E+00  0.64930732323E+04  0.65000000000E+04  0.30000000000E+03 0.  1.
        -52   -1    0    0    0    0 -0.00000000000E+00 -0.00000000000E+00 -0.64930732323E+04  0.65000000000E+04  0.30000000000E+03 0. -1.
     100001    1    1    2    0    0  0.81573584209E+03  0.74587267481E+03 -0.64035614106E+04  0.65000000000E+04  0.15050000000E+03 0. -1.
     100001    1    1    2    0    0 -0.81573584209E+03 -0.74587267481E+03  0.64035614106E+04  0.65000000000E+04  0.15050000000E+03 0.  1.
</event>
<event>
 4    1  0.4521369E-004  0.6500000E+04  0.7818608E-02  0.7223770E-01
         52   -1    0    0    0    0  0.00000000000E+00  0.00000000000E+00  0.64930732323E+04  0.65000000000E+04  0.30000000000E+03 0. -1.
        -52   -1    0    0    0    0 -0.00000000000E+00 -0.00000000000E+00 -0.64930732323E+04  0.65000000000E+04  0.30000000000E+03 0. -1.
     100001    1    1    2    0    0  0.98378625885E+02  0.32199896437E+03  0.64895291095E+04  0.65000000000E+04  0.15050000000E+03 0. -1.
     100001    1    1    2    0    0 -0.98378625885E+02 -0.32199896437E+03 -0.64895291095E+04  0.65000000000E+04  0.15050000000E+03 0. -1.
</event>
<event>
 4    1  0.4521369E-004  0.6500000E+04  0.7818608E-02  0.7223770E-01
         52   -1    0    0    0    0  0.00000000000E+00  0.00000000000E+00  0.64930732323E+04  0.65000000000E+04  0.30000000000E+03 0.  1.
        -52   -1    0    0    0    0 -0.00000000000E+00 -0.00000000000E+00 -0.64930732323E+04  0.65000000000E+04  0.30000000000E+03 0.  1.
     100001    1    1    2    0    0  0.61884425747E+03 -0.49049942213E+02  0.64685373647E+04  0.65000000000E+04  0.15050000000E+03 0.  1.
     100001    1    1    2    0    0 -0.61884425747E+03  0.49049942213E+02 -0.64685373647E+04  0.65000000000E+04  0.15050000000E+03 0.  1.
</event>
<event>
 4    1  0.4521369E-004  0.6500000E+04  0.7818608E-02  0.7223770E-01
         52   -1    0    0    0    0  0.00000000000E+00  0.00000000000E+00  0.64930732323E+04  0.65000000000E+04  0.30000000000E+03 0. -1.
        -52   -1    0    0    0    0 -0.00000000000E+00 -0.00000000000E+00 -0.64930732323E+04  0.65000000000E+04  0.30000000000E+03 0.  1.
     100001    1    1    2    0    0  0.28954025400E+04  0.35478086690E+04  0.46105365772E+04  0.65000000000E+04  0.15050000000E+03 0. -1.
     100001    1    1    2    0    0 -0.28954025400E+04 -0.35478086690E+04 -0.46105365772E+04  0.65000000000E+04  0.15050000000E+03 0.  1.
</event>
<event>
 4    1  0.4521369E-004  0.6500000E+04  0.7818608E-02  0.7223770E-01
         52   -1    0    0    0    0  0.00000000000E+00  0.00000000000E+00  0.64930732323E+04  0.65000000000E+04  0.30000000000E+03 0. -1.
        -52   -1    0    0    0    0 -0.00000000000E+00 -0.00000000000E+00 -0.64930732323E+04  0.65000000000E+04  0.30000000000E+03 0.  1.
     100001    1    1    2    0    0  0.46090721106E+04  0.45477661745E+04 -0.54920565451E+03  0.65000000000E+04  0.15050000000E+03 0.  1.
     100001    1    1    2    0    0 -0.46090721106E+04 -0.45477661745E+04  0.54920565451E+03  0.65000000000E+04  0.15050000000E+03 0. -1.
</event>
<event>
 4    1  0.4521369E-004  0.6500000E+04  0.7818608E-02  0.7223770E-01
         52   -1    0    0    0    0  0.00000000000E+00  0.00000000000E+00  0.64930732323E+04  0.65000000000E+04  0.30000000000E+03 0. -1.
        -52   -1    0    0    0    0 -0.00000000000E+00 -0.00000000000E+00 -0.64930732323E+04  0.65000000000E+04  0.30000000000E+03 0.  1.
     100001    1    1    2    0    0 -0.58996158645E+03  0.51148364745E+03 -0.64511766024E+04  0.65000000000E+04  0.15050000000E+03 0.  1.
     100001    1    1    2    0    0  0.58996158645E+03 -0.51148364745E+03  0.64511766024E+04  0.65000000000E+04  0.15050000000E+03 0. -1.
</event>
<event>
 4    1  0.4521369E-004  0.6500000E+04  0.7818608E-02  0.7223770E-01
         52   -1    0    0    0    0  0.00000000000E+00  0.00000000000E+00  0.64930732323E+04  0.65000000000E+04  0.30000000000E+03 0.  1.
        -52   -1    0    0    0    0 -0.00000000000E+00 -0.00000000000E+00 -0.64930732323E+04  0.65000000000E+04  0.30000000000E+03 0. -1.
     100001    1    1    2    0    0  0.51843337787E+04  0.37633367526E+02  0.39177310718E+04  0.65000000000E+04  0.15050000000E+03 0.  1.
     100001    1    1    2    0    0 -0.51843337787E+04 -0.37633367526E+02 -0.39177310718E+04  0.65000000000E+04  0.15050000000E+03 0. -1.
</event>
<event>
 4    1  0.4521369E-004  0.6500000E+04  0.7818608E-02  0.7223770E-01
         52   -1    0    0    0    0  0.00000000000E+00  0.00000000000E+00  0.64930732323E+04  0.65000000000E+04  0.30000000000E+03 0. -1.
        -52   -1    0    0    0    0 -0.00000000000E+00 -0.00000000000E+00 -0.64930732323E+04  0.65000000000E+04  0.30000000000E+03 0. -1.
     100001    1    1    2    0    0  0.80803962757E+03  0.29542761633E+03 -0.64410514851E+04  0.65000000000E+04  0.15050000000E+03 0. -1.
     100001    1    1    2    0    0 -0.80803962757E+03 -0.29542761633E+03  0.64410514851E+04  0.65000000000E+04  0.15050000000E+03 0. -1.
</event>
<event>
 4    1  0.4521369E-004  0.6500000E+04  0.7818608E-02  0.7223770E-01
         52   -1    0    0    0    0  0.00000000000E+00  0.00000000000E+00  0.64930732323E+04  0.65000000000E+04  0.30000000000E+03 0. -1.
        -52   -1    0    0    0    0 -0.00000000000E+00 -0.00000000000E+00 -0.64930732323E+04  0.65000000000E+04  0.30000000000E+03 0.  1.
     100001    1    1    2    0    0  0.55559459216E+04 -0.32258179459E+04  0.97617275424E+03  0.65000000000E+04  0.15050000000E+03 0. -1.
     100001    1    1    2    0    0 -0.55559459216E+04  0.32258179459E+04 -0.97617275424E+03  0.65000000000E+04  0.15050000000E+03 0.  1.
</event>
<event>
 4    1  0.4521369E-004  0.6500000E+04  0.7818608E-02  0.7223770E-01
         52   -1    0    0    0    0  0.00000000000E+00  0.00000000000E+00  0.64930732323E+04  0.65000000000E+04  0.30000000000E+03 0. -1.
        -52   -1    0    0    0    0 -0.00000000000E+00 -0.00000000000E+00 -0.64930732323E+04  0.65000000000E+04  0.30000000000E+03 0.  1.
     100001    1    1    2    0    0 -0.86487757544E+03  0.72027934245E+03 -0.64000417341E+04  0.65000000000E+04  0.15050000000E+03 0.  1.
     100001    1    1    2    0    0  0.86487757544E+03 -0.72027934245E+03  0.64000417341E+04  0.65000000000E+04  0.15050000000E+03 0. -1.
</event>
<event>
 4    1  0.4521369E-004  0.6500000E+04  0.7818608E-02  0.7223770E-01
         52   -1    0    0    0    0  0.00000000000E+00  0.00000000000E+00  0.64930732323E+04  0.65000000000E+04  0.30000000000E+03 0.  1.
        -52   -1    0    0    0    0 -0.00000000000E+00 -0.00000000000E+00 -0.64930732323E+04  0.65000000000E+04  0.30000000000E+03 0. -1.
     100001    1    1    2    0    0  0.29383341124E+02  0.49979099465E+03 -0.64789424547E+04  0.65000000000E+04  0.15050000000E+03 0. -1.
     100001    1    1    2    0    0 -0.29383341124E+02 -0.49979099465E+03  0.64789424547E+04  0.65000000000E+04  0.15050000000E+03 0.  1.
</event>
<event>
 4    1  0.4521369E-004  0.6500000E+04  0.7818608E-02  0.7223770E-01
         52   -1    0    0    0    0  0.00000000000E+00  0.00000000000E+00  0.64930732323E+04  0.65000000000E+04  0.30000000000E+03 0.  1.
        -52   -1    0    0    0    0 -0.00000000000E+00 -0.00000000000E+00 -0.64930732323E+04  0.65000000000E+04  0.30000000000E+03 0. -1.
     100001    1    1    2    0    0  0.25240105310E+04  0.53252870352E+04 -0.27382546599E+04  0.65000000000E+04  0.15050000000E+03 0. -1.
     100001    1    1    2    0    0 -0.25240105310E+04 -0.53252870352E+04  0.27382546599E+04  0.65000000000E+04  0.15050000000E+03 0.  1.
</event>
<event>
 4    1  0.4521369E-004  0.6500000E+04  0.7818608E-02  0.7223770E-01
         52   -1    0    0    0    0  0.00000000000E+00  0.00000000000E+00  0.64930732323E+04  0.65000000000E+04  0.30000000000E+03 0. -1.
        -52   -1    0    0    0    0 -0.00000000000E+00 -0.00000000000E+00 -0.64930732323E+04  0.65000000000E+04  0.30000000000E+03 0.  1.
     100001    1    1    2    0    0  0.20473820447E+04  0.18815055779E+04 -0.58732881143E+04  0.65000000000E+04  0.15050000000E+03 0.  1.
     100001    1    1    2    0    0 -0.20473820447E+04 -0.18815055779E+04  0.58732881143E+04  0.65000000000E+04  0.15050000000E+03 0. -1.
</event>
<event>
 4    1  0.4521369E-004  0.6500000E+04  0.7818608E-02  0.7223770E-01
         52   -1    0    0    0    0  0.00000000000E+00  0.00000000000E+00  0.64930732323E+04  0.65000000000E+04  0.30000000000E+03 0. -1.
        -52   -1    0    0    0    0 -0.00000000000E+00 -0.00000000000E+00 -0.64930732323E+04  0.65000000000E+04  0.30000000000E+03 0.  1.
     100001    1    1    2    0    0  0.12001573076E+04  0.53836534907E+04 -0.34355854347E+04  0.65000000000E+04  0.15050000000E+03 0.  1.
     100001    1    1    2    0    0 -0.12001573076E+04 -0.53836534907E+04  0.34355854347E+04  0.65000000000E+04  0.15050000000E+03 0. -1.
</event>
<event>
 4    1  0.4521369E-004  0.6500000E+04  0.7818608E-02  0.7223770E-01
         52   -1    0    0    0    0  0.00000000000E+00  0.00000000000E+00  0.64930732323E+04  0.65000000000E+04  0.30000000000E+03 0.  1.
        -52   -1    0    0    0    0 -0.00000000000E+00 -0.00000000000E+00 -0.64930732323E+04  0.65000000000E+04  0.30000000000E+03 0.  1.
     100001    1    1    2    0    0  0.40762672443E+02 -0.80943457247E+02  0.64976254364E+04  0.65000000000E+04  0.15050000000E+03 0.  1.
     100001    1    1    2    0    0 -0.40762672443E+02  0.80943457247E+02 -0.64976254364E+04  0.65000000000E+04  0.15050000000E+03 0.  1.
</event>
<event>
 4    1  0.4521369E-004  0.6500000E+04  0.7818608E-02  0.7223770E-01
         52   -1    0    0    0    0  0.00000000000E+00  0.00000000000E+00  0.64930732323E+04  0.65000000000E+04  0.30000000000E+03 0. -1.
        -52   -1    0    0    0    0 -0.00000000000E+00 -0.00000000000E+00 -0.64930732323E+04  0.65000000000E+04  0.30000000000E+03 0. -1.
     100001    1    1    2    0    0  0.79610125138E+03 -0.47126941524E+03  0.64320663620E+04  0.65000000000E+04  0.15050000000E+03 0. -1.
     100001    1    1    2    0    0 -0.79610125138E+03  0.47126941524E+03 -0.64320663620E+04  0.65000000000E+04  0.15050000000E+03 0. -1.
</event>
<event>
 4    1  0.4521369E-004  0.6500000E+04  0.7818608E-02  0.7223770E-01
         52   -1    0    0    0    0  0.00000000000E+00  0.00000000000E+00  0.64930732323E+04  0.65000000000E+04  0.30000000000E+03 0. -1.
        -52   -1    0    0    0    0 -0.00000000000E+00 -0.00000000000E+00 -0.64930732323E+04  0.65000000000E+04  0.30000000000E+03 0.  1.
     100001    1    1    2    0    0  0.60610816602E+04  0.98999950689E+03 -0.21238031534E+04  0.65000000000E+04  0.15050000000E+03 0.  1.
     100001    1    1    2    0    0 -0.60610816602E+04 -0.98999950689E+03  0.21238031534E+04  0.65000000000E+04  0.15050000000E+03 0. -1.
</event>
<event>
 4    1  0.4521369E-004  0.6500000E+04  0.7818608E-02  0.7223770E-01
         52   -1    0    0    0    0  0.00000000000E+00  0.00000000000E+00  0.64930732323E+04  0.65000000000E+04  0.30000000000E+03 0.  1.
        -52   -1    0    0    0    0 -0.00000000000E+00 -0.00000000000E+00 -0.64930732323E+04  0.65000000000E+04  0.30000000000E+03 0. -1.
     100001    1    1    2    0    0 -0.37028819961E+04  0.11899884492E+04  0.52057604789E+04  0.65000000000E+04  0.15050000000E+03 0.  1.
     100001    1    1    2    0    0  0.37028819961E+04 -0.11899884492E+04 -0.52057604789E+04  0.65000000000E+04  0.15050000000E+03 0. -1.
</event>
<event>
 4    1  0.4521369E-004  0.6500000E+04  0.7818608E-02  0.7223770E-01
         52   -1    0    0    0    0  0.00000000000E+00  0.00000000000E+00  0.64930732323E+04  0.65000000000E+04  0.30000000000E+03 0. -1.
        -52   -1    0    0    0    0 -0.00000000000E+00 -0.00000000000E+00 -0.64930732323E+04  0.65000000000E+04  0.30000000000E+03 0.  1.
     100001    1    1    2    0    0  0.57175872947E+03  0.70531312491E+01 -0.64730512093E+04  0.65000000000E+04  0.15050000000E+03 0.  1.
     100001    1    1    2    0    0 -0.57175872947E+03 -0.70531312491E+01  0.64730512093E+04  0.65000000000E+04  0.15050000000E+03 0. -1.
</event>
<event>
 4    1  0.4521369E-004  0.6500000E+04  0.7818608E-02  0.7223770E-01
         52   -1    0    0    0    0  0.00000000000E+00  0.00000000000E+00  0.64930732323E+04  0.65000000000E+04  0.30000000000E+03 0.  1.
        -52   -1    0    0    0    0 -0.00000000000E+00 -0.00000000000E+00 -0.64930732323E+04  0.65000000000E+04  0.30000000000E+03 0.  1.
     100001    1    1    2    0    0  0.25625261586E+03  0.62069504727E+04 -0.19066856521E+04  0.65000000000E+04  0.15050000000E+03 0.  1.
     100001    1    1    2    0    0 -0.25625261586E+03 -0.62069504727E+04  0.19066856521E+04  0.65000000000E+04  0.15050000000E+03 0.  1.
</event>
<event>
 4    1  0.4521369E-004  0.6500000E+04  0.7818608E-02  0.7223770E-01
         52   -1    0    0    0    0  0.00000000000E+00  0.00000000000E+00  0.64930732323E+04  0.65000000000E+04  0.30000000000E+03 0. -1.
        -52   -1    0    0    0    0 -0.00000000000E+00 -0.00000000000E+00 -0.64930732323E+04  0.65000000000E+04  0.30000000000E+03 0.  1.
     100001    1    1    2    0    0  0.11169820111E+04  0.15897007186E+04  0.62010122208E+04  0.65000000000E+04  0.15050000000E+03 0. -1.
     100001    1    1    2    0    0 -0.11169820111E+04 -0.15897007186E+04 -0.62010122208E+04  0.65000000000E+04  0.15050000000E+03 0.  1.
</event>
<event>
 4    1  0.4521369E-004  0.6500000E+04  0.7818608E-02  0.7223770E-01
         52   -1    0    0    0    0  0.00000000000E+00  0.00000000000E+00  0.64930732323E+04  0.65000000000E+04  0.30000000000E+03 0. -1.
        -52   -1    0    0    0    0 -0.00000000000E+00 -0.00000000000E+00 -0.64930732323E+04  0.65000000000E+04  0.30000000000E+03 0.  1.
     100001    1    1    2    0    0  0.55256923145E+04 -0.32218557260E+04 -0.11461761978E+04  0.65000000000E+04  0.15050000000E+03 0.  1.
     100001    1    1    2    0    0 -0.55256923145E+04  0.32218557260E+04  0.11461761978E+04  0.65000000000E+04  0.15050000000E+03 0. -1.
</event>
<event>
 4    1  0.4521369E-004  0.6500000E+04  0.7818608E-02  0.7223770E-01
         52   -1    0    0    0    0  0.00000000000E+00  0.00000000000E+00  0.64930732323E+04  0.65000000000E+04  0.30000000000E+03 0. -1.
        -52   -1    0    0    0    0 -0.00000000000E+00 -0.00000000000E+00 -0.64930732323E+04  0.65000000000E+04  0.30000000000E+03 0.  1.
     100001    1    1    2    0    0 -0.11916626414E+04 -0.80012934408E+03  0.63377506208E+04  0.65000000000E+04  0.15050000000E+03 0. -1.
     100001    1    1    2    0    0  0.11916626414E+04  0.80012934408E+03 -0.63377506208E+04  0.65000000000E+04  0.15050000000E+03 0.  1.
</event>
<event>
 4    1  0.4521369E-004  0.6500000E+04  0.7818608E-02  0.7223770E-01
         52   -1    0    0    0    0  0.00000000000E+00  0.00000000000E+00  0.64930732323E+04  0.65000000000E+04  0.30000000000E+03 0. -1.
        -52   -1    0    0    0    0 -0.00000000000E+00 -0.00000000000E+00 -0.64930732323E+04  0.65000000000E+04  0.30000000000E+03 0.  1.
     100001    1    1    2    0    0  0.61331122431E+03  0.55895508311E+04 -0.32570109914E+04  0.65000000000E+04  0.15050000000E+03 0.  1.
     100001    1    1    2    0    0 -0.61331122431E+03 -0.55895508311E+04  0.32570109914E+04  0.65000000000E+04  0.15050000000E+03 0. -1.
</event>
<event>
 4    1  0.4521369E-004  0.6500000E+04  0.7818608E-02  0.7223770E-01
         52   -1    0    0    0    0  0.00000000000E+00  0.00000000000E+00  0.64930732323E+04  0.65000000000E+04  0.30000000000E+03 0. -1.
        -52   -1    0    0    0    0 -0.00000000000E+00 -0.00000000000E+00 -0.64930732323E+04  0.65000000000E+04  0.30000000000E+03 0.  1.
     100001    1    1    2    0    0  0.54007544055E+04  0.90823381693E+03  0.34977582728E+04  0.65000000000E+04  0.15050000000E+03 0. -1.
     100001    1    1    2    0    0 -0.54007544055E+04 -0.90823381693E+03 -0.34977582728E+04  0.65000000000E+04  0.15050000000E+03 0.  1.
</event>
<event>
 4    1  0.4521369E-004  0.6500000E+04  0.7818608E-02  0.7223770E-01
         52   -1    0    0    0    0  0.00000000000E+00  0.00000000000E+00  0.64930732323E+04  0.65000000000E+04  0.30000000000E+03 0.  1.
        -52   -1    0    0    0    0 -0.00000000000E+00 -0.00000000000E+00 -0.64930732323E+04  0.65000000000E+04  0.30000000000E+03 0. -1.
     100001    1    1    2    0    0  0.64800443009E+04  0.15371087008E+03  0.46124676410E+03  0.65000000000E+04  0.15050000000E+03 0. -1.
     100001    1    1    2    0    0 -0.64800443009E+04 -0.15371087008E+03 -0.46124676410E+03  0.65000000000E+04  0.15050000000E+03 0.  1.
</event>
<event>
 4    1  0.4521369E-004  0.6500000E+04  0.7818608E-02  0.7223770E-01
         52   -1    0    0    0    0  0.00000000000E+00  0.00000000000E+00  0.64930732323E+04  0.65000000000E+04  0.30000000000E+03 0.  1.
        -52   -1    0    0    0    0 -0.00000000000E+00 -0.00000000000E+00 -0.64930732323E+04  0.65000000000E+04  0.30000000000E+03 0. -1.
     100001    1    1    2    0    0 -0.36667681655E+03 -0.13454041403E+03  0.64865088252E+04  0.65000000000E+04  0.15050000000E+03 0.  1.
     100001    1    1    2    0    0  0.36667681655E+03  0.13454041403E+03 -0.64865088252E+04  0.65000000000E+04  0.15050000000E+03 0. -1.
</event>
<event>
 4    1  0.4521369E-004  0.6500000E+04  0.7818608E-02  0.7223770E-01
         52   -1    0    0    0    0  0.00000000000E+00  0.00000000000E+00  0.64930732323E+04  0.65000000000E+04  0.30000000000E+03 0. -1.
        -52   -1    0    0    0    0 -0.00000000000E+00 -0.00000000000E+00 -0.64930732323E+04  0.65000000000E+04  0.30000000000E+03 0. -1.
     100001    1    1    2    0    0 -0.22544906033E+02  0.92670597231E+02 -0.64975575132E+04  0.65000000000E+04  0.15050000000E+03 0. -1.
     100001    1    1    2    0    0  0.22544906033E+02 -0.92670597231E+02  0.64975575132E+04  0.65000000000E+04  0.15050000000E+03 0. -1.
</event>
<event>
 4    1  0.4521369E-004  0.6500000E+04  0.7818608E-02  0.7223770E-01
         52   -1    0    0    0    0  0.00000000000E+00  0.00000000000E+00  0.64930732323E+04  0.65000000000E+04  0.30000000000E+03 0. -1.
        -52   -1    0    0    0    0 -0.00000000000E+00 -0.00000000000E+00 -0.64930732323E+04  0.65000000000E+04  0.30000000000E+03 0.  1.
     100001    1    1    2    0    0  0.39026405082E+03 -0.12116979127E+04  0.63723490087E+04  0.65000000000E+04  0.15050000000E+03 0. -1.
     100001    1    1    2    0    0 -0.39026405082E+03  0.12116979127E+04 -0.63723490087E+04  0.65000000000E+04  0.15050000000E+03 0.  1.
</event>
<event>
 4    1  0.4521369E-004  0.6500000E+04  0.7818608E-02  0.7223770E-01
         52   -1    0    0    0    0  0.00000000000E+00  0.00000000000E+00  0.64930732323E+04  0.65000000000E+04  0.30000000000E+03 0. -1.
        -52   -1    0    0    0    0 -0.00000000000E+00 -0.00000000000E+00 -0.64930732323E+04  0.65000000000E+04  0.30000000000E+03 0.  1.
     100001    1    1    2    0    0 -0.58283823254E+04 -0.71944350369E+02 -0.28726526468E+04  0.65000000000E+04  0.15050000000E+03 0.  1.
     100001    1    1    2    0    0  0.58283823254E+04  0.71944350369E+02  0.28726526468E+04  0.65000000000E+04  0.15050000000E+03 0. -1.
</event>
<event>
 4    1  0.4521369E-004  0.6500000E+04  0.7818608E-02  0.7223770E-01
         52   -1    0    0    0    0  0.00000000000E+00  0.00000000000E+00  0.64930732323E+04  0.65000000000E+04  0.30000000000E+03 0. -1.
        -52   -1    0    0    0    0 -0.00000000000E+00 -0.00000000000E+00 -0.64930732323E+04  0.65000000000E+04  0.30000000000E+03 0.  1.
     100001    1    1    2    0    0 -0.75169469231E+03 -0.11879431175E+04  0.63443751457E+04  0.65000000000E+04  0.15050000000E+03 0. -1.
     100001    1    1    2    0    0  0.75169469231E+03  0.11879431175E+04 -0.63443751457E+04  0.65000000000E+04  0.15050000000E+03 0.  1.
</event>
<event>
 4    1  0.4521369E-004  0.6500000E+04  0.7818608E-02  0.7223770E-01
         52   -1    0    0    0    0  0.00000000000E+00  0.00000000000E+00  0.64930732323E+04  0.65000000000E+04  0.30000000000E+03 0. -1.
        -52   -1    0    0    0    0 -0.00000000000E+00 -0.00000000000E+00 -0.64930732323E+04  0.65000000000E+04  0.30000000000E+03 0.  1.
     100001    1    1    2    0    0  0.13605551710E+03  0.16608905135E+04  0.62809458960E+04  0.65000000000E+04  0.15050000000E+03 0. -1.
     100001    1    1    2    0    0 -0.13605551710E+03 -0.16608905135E+04 -0.62809458960E+04  0.65000000000E+04  0.15050000000E+03 0.  1.
</event>
<event>
 4    1  0.4521369E-004  0.6500000E+04  0.7818608E-02  0.7223770E-01
         52   -1    0    0    0    0  0.00000000000E+00  0.00000000000E+00  0.64930732323E+04  0.65000000000E+04  0.30000000000E+03 0.  1.
        -52   -1    0    0    0    0 -0.00000000000E+00 -0.00000000000E+00 -0.64930732323E+04  0.65000000000E+04  0.30000000000E+03 0.  1.
     100001    1    1    2    0    0 -0.26022439165E+03  0.19508936591E+03  0.64901134933E+04  0.65000000000E+04  0.15050000000E+03 0.  1.
     100001    1    1    2    0    0  0.26022439165E+03 -0.19508936591E+03 -0.64901134933E+04  0.65000000000E+04  0.15050000000E+03 0.  1.
</event>
<event>
 4    1  0.4521369E-004  0.6500000E+04  0.7818608E-02  0.7223770E-01
         52   -1    0    0    0    0  0.00000000000E+00  0.00000000000E+00  0.64930732323E+04  0.65000000000E+04  0.30000000000E+03 0. -1.
        -52   -1    0    0    0    0 -0.00000000000E+00 -0.00000000000E+00 -0.64930732323E+04  0.65000000000E+04  0.30000000000E+03 0.  1.
     100001    1    1    2    0    0 -0.11965402642E+04 -0.14235768937E+04 -0.62264813478E+04  0.65000000000E+04  0.15050000000E+03 0.  1.
     100001    1    1    2    0    0  0.11965402642E+04  0.14235768937E+04  0.62264813478E+04  0.65000000000E+04  0.15050000000E+03 0. -1.
</event>
<event>
 4    1  0.4521369E-004  0.6500000E+04  0.7818608E-02  0.7223770E-01
         52   -1    0    0    0    0  0.00000000000E+00  0.00000000000E+00  0.64930732323E+04  0.65000000000E+04  0.30000000000E+03 0. -1.
        -52   -1    0    0    0    0 -0.00000000000E+00 -0.00000000000E+00 -0.64930732323E+04  0.65000000000E+04  0.30000000000E+03 0.  1.
     100001    1    1    2    0    0 -0.24521724856E+04  0.14474952875E+04  0.58411434877E+04  0.65000000000E+04  0.15050000000E+03 0. -1.
     100001    1    1    2    0    0  0.24521724856E+04 -0.14474952875E+04 -0.58411434877E+04  0.65000000000E+04  0.15050000000E+03 0.  1.
</event>
<event>
 4    1  0.4521369E-004  0.6500000E+04  0.7818608E-02  0.7223770E-01
         52   -1    0    0    0    0  0.00000000000E+00  0.00000000000E+00  0.64930732323E+04  0.65000000000E+04  0.30000000000E+03 0.  1.
        -52   -1    0    0    0    0 -0.00000000000E+00 -0.00000000000E+00 -0.64930732323E+04  0.65000000000E+04  0.30000000000E+03 0. -1.
     100001    1    1    2    0    0 -0.52097822340E+03  0.20466237232E+04  0.61455075280E+04  0.65000000000E+04  0.15050000000E+03 0.  1.
     100001    1    1    2    0    0  0.52097822340E+03 -0.20466237232E+04 -0.61455075280E+04  0.65000000000E+04  0.15050000000E+03 0. -1.
</event>
<event>
 4    1  0.4521369E-004  0.6500000E+04  0.7818608E-02  0.7223770E-01
         52   -1    0    0    0    0  0.00000000000E+00  0.00000000000E+00  0.64930732323E+04  0.65000000000E+04  0.30000000000E+03 0. -1.
        -52   -1    0    0    0    0 -0.00000000000E+00 -0.00000000000E+00 -0.64930732323E+04  0.65000000000E+04  0.30000000000E+03 0.  1.
     100001    1    1    2    0    0 -0.47222719590E+03 -0.23638690543E+04  0.60346063931E+04  0.65000000000E+04  0.15050000000E+03 0. -1.
     100001    1    1    2    0    0  0.47222719590E+03  0.23638690543E+04 -0.60346063931E+04  0.65000000000E+04  0.15050000000E+03 0.  1.
</event>
<event>
 4    1  0.4521369E-004  0.6500000E+04  0.7818608E-02  0.7223770E-01
         52   -1    0    0    0    0  0.00000000000E+00  0.00000000000E+00  0.64930732323E+04  0.65000000000E+04  0.30000000000E+03 0. -1.
        -52   -1    0    0    0    0 -0.00000000000E+00 -0.00000000000E+00 -0.64930732323E+04  0.65000000000E+04  0.30000000000E+03 0.  1.
     100001    1    1    2    0    0  0.19524530177E+03  0.63376174894E+04  0.14226150501E+04  0.65000000000E+04  0.15050000000E+03 0. -1.
     100001    1    1    2    0    0 -0.19524530177E+03 -0.63376174894E+04 -0.14226150501E+04  0.65000000000E+04  0.15050000000E+03 0.  1.
</event>
<event>
 4    1  0.4521369E-004  0.6500000E+04  0.7818608E-02  0.7223770E-01
         52   -1    0    0    0    0  0.00000000000E+00  0.00000000000E+00  0.64930732323E+04  0.65000000000E+04  0.30000000000E+03 0.  1.
        -52   -1    0    0    0    0 -0.00000000000E+00 -0.00000000000E+00 -0.64930732323E+04  0.65000000000E+04  0.30000000000E+03 0. -1.
     100001    1    1    2    0    0  0.20369305479E+04 -0.61581337948E+04 -0.39452738618E+03  0.65000000000E+04  0.15050000000E+03 0.  1.
     100001    1    1    2    0    0 -0.20369305479E+04  0.61581337948E+04  0.39452738618E+03  0.65000000000E+04  0.15050000000E+03 0. -1.
</event>
<event>
 4    1  0.4521369E-004  0.6500000E+04  0.7818608E-02  0.7223770E-01
         52   -1    0    0    0    0  0.00000000000E+00  0.00000000000E+00  0.64930732323E+04  0.65000000000E+04  0.30000000000E+03 0.  1.
        -52   -1    0    0    0    0 -0.00000000000E+00 -0.00000000000E+00 -0.64930732323E+04  0.65000000000E+04  0.30000000000E+03 0.  1.
     100001    1    1    2    0    0  0.33027558845E+03  0.18917653799E+03 -0.64871010492E+04  0.65000000000E+04  0.15050000000E+03 0.  1.
     100001    1    1    2    0    0 -0.33027558845E+03 -0.18917653799E+03  0.64871010492E+04  0.65000000000E+04  0.15050000000E+03 0.  1.
</event>
<event>
 4    1  0.4521369E-004  0.6500000E+04  0.7818608E-02  0.7223770E-01
         52   -1    0    0    0    0  0.00000000000E+00  0.00000000000E+00  0.64930732323E+04  0.65000000000E+04  0.30000000000E+03 0.  1.
        -52   -1    0    0    0    0 -0.00000000000E+00 -0.00000000000E+00 -0.64930732323E+04  0.65000000000E+04  0.30000000000E+03 0. -1.
     100001    1    1    2    0    0 -0.13190941614E+03  0.10764031551E+04 -0.64071293029E+04  0.65000000000E+04  0.15050000000E+03 0. -1.
     100001    1    1    2    0    0  0.13190941614E+03 -0.10764031551E+04  0.64071293029E+04  0.65000000000E+04  0.15050000000E+03 0.  1.
</event>
<event>
 4    1  0.4521369E-004  0.6500000E+04  0.7818608E-02  0.7223770E-01
         52   -1    0    0    0    0  0.00000000000E+00  0.00000000000E+00  0.64930732323E+04  0.65000000000E+04  0.30000000000E+03 0. -1.
        -52   -1    0    0    0    0 -0.00000000000E+00 -0.00000000000E+00 -0.64930732323E+04  0.65000000000E+04  0.30000000000E+03 0.  1.
     100001    1    1    2    0    0 -0.29349098455E+04 -0.38607272476E+03  0.57848597044E+04  0.65000000000E+04  0.15050000000E+03 0. -1.
     100001    1    1    2    0    0  0.29349098455E+04  0.38607272476E+03 -0.57848597044E+04  0.65000000000E+04  0.15050000000E+03 0.  1.
</event>
<event>
 4    1  0.4521369E-004  0.6500000E+04  0.7818608E-02  0.7223770E-01
         52   -1    0    0    0    0  0.00000000000E+00  0.00000000000E+00  0.64930732323E+04  0.65000000000E+04  0.30000000000E+03 0.  1.
        -52   -1    0    0    0    0 -0.00000000000E+00 -0.00000000000E+00 -0.64930732323E+04  0.65000000000E+04  0.30000000000E+03 0. -1.
     100001    1    1    2    0    0 -0.14271965715E+04  0.71767295122E+03 -0.62988415785E+04  0.65000000000E+04  0.15050000000E+03 0. -1.
     100001    1    1    2    0    0  0.14271965715E+04 -0.71767295122E+03  0.62988415785E+04  0.65000000000E+04  0.15050000000E+03 0.  1.
</event>
<event>
 4    1  0.4521369E-004  0.6500000E+04  0.7818608E-02  0.7223770E-01
         52   -1    0    0    0    0  0.00000000000E+00  0.00000000000E+00  0.64930732323E+04  0.65000000000E+04  0.30000000000E+03 0.  1.
        -52   -1    0    0    0    0 -0.00000000000E+00 -0.00000000000E+00 -0.64930732323E+04  0.65000000000E+04  0.30000000000E+03 0. -1.
     100001    1    1    2    0    0  0.55690509953E+03  0.12937886721E+04  0.63437620804E+04  0.65000000000E+04  0.15050000000E+03 0.  1.
     100001    1    1    2    0    0 -0.55690509953E+03 -0.12937886721E+04 -0.63437620804E+04  0.65000000000E+04  0.15050000000E+03 0. -1.
</event>
<event>
 4    1  0.4521369E-004  0.6500000E+04  0.7818608E-02  0.7223770E-01
         52   -1    0    0    0    0  0.00000000000E+00  0.00000000000E+00  0.64930732323E+04  0.65000000000E+04  0.30000000000E+03 0. -1.
        -52   -1    0    0    0    0 -0.00000000000E+00 -0.00000000000E+00 -0.64930732323E+04  0.65000000000E+04  0.30000000000E+03 0.  1.
     100001    1    1    2    0    0 -0.48981269796E+04  0.20482682709E+04  0.37470386883E+04  0.65000000000E+04  0.15050000000E+03 0. -1.
     100001    1    1    2    0    0  0.48981269796E+04 -0.20482682709E+04 -0.37470386883E+04  0.65000000000E+04  0.15050000000E+03 0.  1.
</event>
<event>
 4    1  0.4521369E-004  0.6500000E+04  0.7818608E-02  0.7223770E-01
         52   -1    0    0    0    0  0.00000000000E+00  0.00000000000E+00  0.64930732323E+04  0.65000000000E+04  0.30000000000E+03 0. -1.
        -52   -1    0    0    0    0 -0.00000000000E+00 -0.00000000000E+00 -0.64930732323E+04  0.65000000000E+04  0.30000000000E+03 0.  1.
     100001    1    1    2    0    0 -0.15047861370E+04  0.37053511568E+04  0.51218493962E+04  0.65000000000E+04  0.15050000000E+03 0. -1.
     100001    1    1    2    0    0  0.15047861370E+04 -0.37053511568E+04 -0.51218493962E+04  0.65000000000E+04  0.15050000000E+03 0.  1.
</event>
<event>
 4    1  0.4521369E-004  0.6500000E+04  0.7818608E-02  0.7223770E-01
         52   -1    0    0    0    0  0.00000000000E+00  0.00000000000E+00  0.64930732323E+04  0.65000000000E+04  0.30000000000E+03 0.  1.
        -52   -1    0    0    0    0 -0.00000000000E+00 -0.00000000000E+00 -0.64930732323E+04  0.65000000000E+04  0.30000000000E+03 0.  1.
     100001    1    1    2    0    0 -0.39356937702E+03  0.25440103100E+03 -0.64813372857E+04  0.65000000000E+04  0.15050000000E+03 0.  1.
     100001    1    1    2    0    0  0.39356937702E+03 -0.25440103100E+03  0.64813372857E+04  0.65000000000E+04  0.15050000000E+03 0.  1.
</event>
<event>
 4    1  0.4684692E-004  0.6500000E+04  0.7818608E-02  0.7223770E-01
         52   -1    0    0    0    0  0.00000000000E+00  0.00000000000E+00  0.64930732323E+04  0.65000000000E+04  0.30000000000E+03 0.  1.
        -52   -1    0    0    0    0 -0.00000000000E+00 -0.00000000000E+00 -0.64930732323E+04  0.65000000000E+04  0.30000000000E+03 0.  1.
     100001    1    1    2    0    0 -0.18459477557E+03  0.71478022460E+02 -0.64952417516E+04  0.65000000000E+04  0.15050000000E+03 0.  1.
     100001    1    1    2    0    0  0.18459477557E+03 -0.71478022460E+02  0.64952417516E+04  0.65000000000E+04  0.15050000000E+03 0.  1.
</event>
<event>
 4    1  0.4521369E-004  0.6500000E+04  0.7818608E-02  0.7223770E-01
         52   -1    0    0    0    0  0.00000000000E+00  0.00000000000E+00  0.64930732323E+04  0.65000000000E+04  0.30000000000E+03 0. -1.
        -52   -1    0    0    0    0 -0.00000000000E+00 -0.00000000000E+00 -0.64930732323E+04  0.65000000000E+04  0.30000000000E+03 0.  1.
     100001    1    1    2    0    0 -0.32774384190E+03 -0.15803136549E+03 -0.64880628705E+04  0.65000000000E+04  0.15050000000E+03 0.  1.
     100001    1    1    2    0    0  0.32774384190E+03  0.15803136549E+03  0.64880628705E+04  0.65000000000E+04  0.15050000000E+03 0. -1.
</event>
<event>
 4    1  0.4521369E-004  0.6500000E+04  0.7818608E-02  0.7223770E-01
         52   -1    0    0    0    0  0.00000000000E+00  0.00000000000E+00  0.64930732323E+04  0.65000000000E+04  0.30000000000E+03 0.  1.
        -52   -1    0    0    0    0 -0.00000000000E+00 -0.00000000000E+00 -0.64930732323E+04  0.65000000000E+04  0.30000000000E+03 0.  1.
     100001    1    1    2    0    0  0.83079136285E+03 -0.44692079998E+03 -0.64294165567E+04  0.65000000000E+04  0.15050000000E+03 0.  1.
     100001    1    1    2    0    0 -0.83079136285E+03  0.44692079998E+03  0.64294165567E+04  0.65000000000E+04  0.15050000000E+03 0.  1.
</event>
<event>
 4    1  0.4521369E-004  0.6500000E+04  0.7818608E-02  0.7223770E-01
         52   -1    0    0    0    0  0.00000000000E+00  0.00000000000E+00  0.64930732323E+04  0.65000000000E+04  0.30000000000E+03 0. -1.
        -52   -1    0    0    0    0 -0.00000000000E+00 -0.00000000000E+00 -0.64930732323E+04  0.65000000000E+04  0.30000000000E+03 0.  1.
     100001    1    1    2    0    0  0.11337390020E+03 -0.34164116709E+03  0.64882800049E+04  0.65000000000E+04  0.15050000000E+03 0. -1.
     100001    1    1    2    0    0 -0.11337390020E+03  0.34164116709E+03 -0.64882800049E+04  0.65000000000E+04  0.15050000000E+03 0.  1.
</event>
<event>
 4    1  0.4521369E-004  0.6500000E+04  0.7818608E-02  0.7223770E-01
         52   -1    0    0    0    0  0.00000000000E+00  0.00000000000E+00  0.64930732323E+04  0.65000000000E+04  0.30000000000E+03 0.  1.
        -52   -1    0    0    0    0 -0.00000000000E+00 -0.00000000000E+00 -0.64930732323E+04  0.65000000000E+04  0.30000000000E+03 0. -1.
     100001    1    1    2    0    0  0.11194114041E+04 -0.83439233061E+03 -0.63464996098E+04  0.65000000000E+04  0.15050000000E+03 0. -1.
     100001    1    1    2    0    0 -0.11194114041E+04  0.83439233061E+03  0.63464996098E+04  0.65000000000E+04  0.15050000000E+03 0.  1.
</event>
<event>
 4    1  0.4521369E-004  0.6500000E+04  0.7818608E-02  0.7223770E-01
         52   -1    0    0    0    0  0.00000000000E+00  0.00000000000E+00  0.64930732323E+04  0.65000000000E+04  0.30000000000E+03 0. -1.
        -52   -1    0    0    0    0 -0.00000000000E+00 -0.00000000000E+00 -0.64930732323E+04  0.65000000000E+04  0.30000000000E+03 0.  1.
     100001    1    1    2    0    0  0.40827813911E+04 -0.20906537257E+04 -0.46029786945E+04  0.65000000000E+04  0.15050000000E+03 0.  1.
     100001    1    1    2    0    0 -0.40827813911E+04  0.20906537257E+04  0.46029786945E+04  0.65000000000E+04  0.15050000000E+03 0. -1.
</event>
<event>
 4    1  0.4521369E-004  0.6500000E+04  0.7818608E-02  0.7223770E-01
         52   -1    0    0    0    0  0.00000000000E+00  0.00000000000E+00  0.64930732323E+04  0.65000000000E+04  0.30000000000E+03 0. -1.
        -52   -1    0    0    0    0 -0.00000000000E+00 -0.00000000000E+00 -0.64930732323E+04  0.65000000000E+04  0.30000000000E+03 0.  1.
     100001    1    1    2    0    0 -0.17433167661E+03 -0.34697165247E+04 -0.54916323124E+04  0.65000000000E+04  0.15050000000E+03 0.  1.
     100001    1    1    2    0    0  0.17433167661E+03  0.34697165247E+04  0.54916323124E+04  0.65000000000E+04  0.15050000000E+03 0. -1.
</event>
<event>
 4    1  0.4521369E-004  0.6500000E+04  0.7818608E-02  0.7223770E-01
         52   -1    0    0    0    0  0.00000000000E+00  0.00000000000E+00  0.64930732323E+04  0.65000000000E+04  0.30000000000E+03 0.  1.
        -52   -1    0    0    0    0 -0.00000000000E+00 -0.00000000000E+00 -0.64930732323E+04  0.65000000000E+04  0.30000000000E+03 0.  1.
     100001    1    1    2    0    0  0.15568028458E+03 -0.37950257812E+03 -0.64852980804E+04  0.65000000000E+04  0.15050000000E+03 0.  1.
     100001    1    1    2    0    0 -0.15568028458E+03  0.37950257812E+03  0.64852980804E+04  0.65000000000E+04  0.15050000000E+03 0.  1.
</event>
<event>
 4    1  0.4521369E-004  0.6500000E+04  0.7818608E-02  0.7223770E-01
         52   -1    0    0    0    0  0.00000000000E+00  0.00000000000E+00  0.64930732323E+04  0.65000000000E+04  0.30000000000E+03 0. -1.
        -52   -1    0    0    0    0 -0.00000000000E+00 -0.00000000000E+00 -0.64930732323E+04  0.65000000000E+04  0.30000000000E+03 0.  1.
     100001    1    1    2    0    0 -0.17952658009E+04 -0.28008743532E+03 -0.62390641512E+04  0.65000000000E+04  0.15050000000E+03 0.  1.
     100001    1    1    2    0    0  0.17952658009E+04  0.28008743532E+03  0.62390641512E+04  0.65000000000E+04  0.15050000000E+03 0. -1.
</event>
<event>
 4    1  0.4521369E-004  0.6500000E+04  0.7818608E-02  0.7223770E-01
         52   -1    0    0    0    0  0.00000000000E+00  0.00000000000E+00  0.64930732323E+04  0.65000000000E+04  0.30000000000E+03 0.  1.
        -52   -1    0    0    0    0 -0.00000000000E+00 -0.00000000000E+00 -0.64930732323E+04  0.65000000000E+04  0.30000000000E+03 0.  1.
     100001    1    1    2    0    0  0.19727971894E+03 -0.39197980212E+03 -0.64834236555E+04  0.65000000000E+04  0.15050000000E+03 0.  1.
     100001    1    1    2    0    0 -0.19727971894E+03  0.39197980212E+03  0.64834236555E+04  0.65000000000E+04  0.15050000000E+03 0.  1.
</event>
<event>
 4    1  0.4521369E-004  0.6500000E+04  0.7818608E-02  0.7223770E-01
         52   -1    0    0    0    0  0.00000000000E+00  0.00000000000E+00  0.64930732323E+04  0.65000000000E+04  0.30000000000E+03 0. -1.
        -52   -1    0    0    0    0 -0.00000000000E+00 -0.00000000000E+00 -0.64930732323E+04  0.65000000000E+04  0.30000000000E+03 0.  1.
     100001    1    1    2    0    0  0.17684743784E+04  0.22257694485E+03  0.62490245340E+04  0.65000000000E+04  0.15050000000E+03 0. -1.
     100001    1    1    2    0    0 -0.17684743784E+04 -0.22257694485E+03 -0.62490245340E+04  0.65000000000E+04  0.15050000000E+03 0.  1.
</event>
<event>
 4    1  0.4521369E-004  0.6500000E+04  0.7818608E-02  0.7223770E-01
         52   -1    0    0    0    0  0.00000000000E+00  0.00000000000E+00  0.64930732323E+04  0.65000000000E+04  0.30000000000E+03 0.  1.
        -52   -1    0    0    0    0 -0.00000000000E+00 -0.00000000000E+00 -0.64930732323E+04  0.65000000000E+04  0.30000000000E+03 0. -1.
     100001    1    1    2    0    0  0.16024086674E+04 -0.27927196567E+04  0.56444975978E+04  0.65000000000E+04  0.15050000000E+03 0.  1.
     100001    1    1    2    0    0 -0.16024086674E+04  0.27927196567E+04 -0.56444975978E+04  0.65000000000E+04  0.15050000000E+03 0. -1.
</event>
<event>
 4    1  0.4521369E-004  0.6500000E+04  0.7818608E-02  0.7223770E-01
         52   -1    0    0    0    0  0.00000000000E+00  0.00000000000E+00  0.64930732323E+04  0.65000000000E+04  0.30000000000E+03 0.  1.
        -52   -1    0    0    0    0 -0.00000000000E+00 -0.00000000000E+00 -0.64930732323E+04  0.65000000000E+04  0.30000000000E+03 0. -1.
     100001    1    1    2    0    0  0.40049273901E+04  0.11141454121E+04 -0.49946557790E+04  0.65000000000E+04  0.15050000000E+03 0. -1.
     100001    1    1    2    0    0 -0.40049273901E+04 -0.11141454121E+04  0.49946557790E+04  0.65000000000E+04  0.15050000000E+03 0.  1.
</event>
<event>
 4    1  0.4521369E-004  0.6500000E+04  0.7818608E-02  0.7223770E-01
         52   -1    0    0    0    0  0.00000000000E+00  0.00000000000E+00  0.64930732323E+04  0.65000000000E+04  0.30000000000E+03 0.  1.
        -52   -1    0    0    0    0 -0.00000000000E+00 -0.00000000000E+00 -0.64930732323E+04  0.65000000000E+04  0.30000000000E+03 0. -1.
     100001    1    1    2    0    0  0.53039416076E+02  0.11818716898E+04 -0.63896569453E+04  0.65000000000E+04  0.15050000000E+03 0. -1.
     100001    1    1    2    0    0 -0.53039416076E+02 -0.11818716898E+04  0.63896569453E+04  0.65000000000E+04  0.15050000000E+03 0.  1.
</event>
<event>
 4    1  0.4521369E-004  0.6500000E+04  0.7818608E-02  0.7223770E-01
         52   -1    0    0    0    0  0.00000000000E+00  0.00000000000E+00  0.64930732323E+04  0.65000000000E+04  0.30000000000E+03 0.  1.
        -52   -1    0    0    0    0 -0.00000000000E+00 -0.00000000000E+00 -0.64930732323E+04  0.65000000000E+04  0.30000000000E+03 0. -1.
     100001    1    1    2    0    0 -0.58546435615E+04  0.47165997572E+03 -0.27799344210E+04  0.65000000000E+04  0.15050000000E+03 0. -1.
     100001    1    1    2    0    0  0.58546435615E+04 -0.47165997572E+03  0.27799344210E+04  0.65000000000E+04  0.15050000000E+03 0.  1.
</event>
<event>
 4    1  0.4521369E-004  0.6500000E+04  0.7818608E-02  0.7223770E-01
         52   -1    0    0    0    0  0.00000000000E+00  0.00000000000E+00  0.64930732323E+04  0.65000000000E+04  0.30000000000E+03 0. -1.
        -52   -1    0    0    0    0 -0.00000000000E+00 -0.00000000000E+00 -0.64930732323E+04  0.65000000000E+04  0.30000000000E+03 0. -1.
     100001    1    1    2    0    0  0.41851034416E+01  0.16666491391E+03 -0.64961184596E+04  0.65000000000E+04  0.15050000000E+03 0. -1.
     100001    1    1    2    0    0 -0.41851034416E+01 -0.16666491391E+03  0.64961184596E+04  0.65000000000E+04  0.15050000000E+03 0. -1.
</event>
<event>
 4    1  0.4521369E-004  0.6500000E+04  0.7818608E-02  0.7223770E-01
         52   -1    0    0    0    0  0.00000000000E+00  0.00000000000E+00  0.64930732323E+04  0.65000000000E+04  0.30000000000E+03 0.  1.
        -52   -1    0    0    0    0 -0.00000000000E+00 -0.00000000000E+00 -0.64930732323E+04  0.65000000000E+04  0.30000000000E+03 0. -1.
     100001    1    1    2    0    0 -0.45763944733E+04  0.16266918951E+04 -0.43171561071E+04  0.65000000000E+04  0.15050000000E+03 0. -1.
     100001    1    1    2    0    0  0.45763944733E+04 -0.16266918951E+04  0.43171561071E+04  0.65000000000E+04  0.15050000000E+03 0.  1.
</event>
<event>
 4    1  0.4521369E-004  0.6500000E+04  0.7818608E-02  0.7223770E-01
         52   -1    0    0    0    0  0.00000000000E+00  0.00000000000E+00  0.64930732323E+04  0.65000000000E+04  0.30000000000E+03 0.  1.
        -52   -1    0    0    0    0 -0.00000000000E+00 -0.00000000000E+00 -0.64930732323E+04  0.65000000000E+04  0.30000000000E+03 0. -1.
     100001    1    1    2    0    0  0.24349376694E+03 -0.46909792134E+04 -0.44902978247E+04  0.65000000000E+04  0.15050000000E+03 0. -1.
     100001    1    1    2    0    0 -0.24349376694E+03  0.46909792134E+04  0.44902978247E+04  0.65000000000E+04  0.15050000000E+03 0.  1.
</event>
<event>
 4    1  0.4521369E-004  0.6500000E+04  0.7818608E-02  0.7223770E-01
         52   -1    0    0    0    0  0.00000000000E+00  0.00000000000E+00  0.64930732323E+04  0.65000000000E+04  0.30000000000E+03 0. -1.
        -52   -1    0    0    0    0 -0.00000000000E+00 -0.00000000000E+00 -0.64930732323E+04  0.65000000000E+04  0.30000000000E+03 0.  1.
     100001    1    1    2    0    0 -0.68481959631E+03 -0.18972293559E+03 -0.64592861121E+04  0.65000000000E+04  0.15050000000E+03 0.  1.
     100001    1    1    2    0    0  0.68481959631E+03  0.18972293559E+03  0.64592861121E+04  0.65000000000E+04  0.15050000000E+03 0. -1.
</event>
<event>
 4    1  0.4521369E-004  0.6500000E+04  0.7818608E-02  0.7223770E-01
         52   -1    0    0    0    0  0.00000000000E+00  0.00000000000E+00  0.64930732323E+04  0.65000000000E+04  0.30000000000E+03 0. -1.
        -52   -1    0    0    0    0 -0.00000000000E+00 -0.00000000000E+00 -0.64930732323E+04  0.65000000000E+04  0.30000000000E+03 0. -1.
     100001    1    1    2    0    0 -0.21824249502E+03 -0.28576699358E+03 -0.64883015643E+04  0.65000000000E+04  0.15050000000E+03 0. -1.
     100001    1    1    2    0    0  0.21824249502E+03  0.28576699358E+03  0.64883015643E+04  0.65000000000E+04  0.15050000000E+03 0. -1.
</event>
<event>
 4    1  0.4521369E-004  0.6500000E+04  0.7818608E-02  0.7223770E-01
         52   -1    0    0    0    0  0.00000000000E+00  0.00000000000E+00  0.64930732323E+04  0.65000000000E+04  0.30000000000E+03 0.  1.
        -52   -1    0    0    0    0 -0.00000000000E+00 -0.00000000000E+00 -0.64930732323E+04  0.65000000000E+04  0.30000000000E+03 0. -1.
     100001    1    1    2    0    0 -0.28266858954E+03 -0.60250755706E+03  0.64640879374E+04  0.65000000000E+04  0.15050000000E+03 0.  1.
     100001    1    1    2    0    0  0.28266858954E+03  0.60250755706E+03 -0.64640879374E+04  0.65000000000E+04  0.15050000000E+03 0. -1.
</event>
<event>
 4    1  0.4521369E-004  0.6500000E+04  0.7818608E-02  0.7223770E-01
         52   -1    0    0    0    0  0.00000000000E+00  0.00000000000E+00  0.64930732323E+04  0.65000000000E+04  0.30000000000E+03 0. -1.
        -52   -1    0    0    0    0 -0.00000000000E+00 -0.00000000000E+00 -0.64930732323E+04  0.65000000000E+04  0.30000000000E+03 0.  1.
     100001    1    1    2    0    0  0.53199405948E+04  0.37316800412E+04 -0.12078394094E+02  0.65000000000E+04  0.15050000000E+03 0. -1.
     100001    1    1    2    0    0 -0.53199405948E+04 -0.37316800412E+04  0.12078394094E+02  0.65000000000E+04  0.15050000000E+03 0.  1.
</event>
<event>
 4    1  0.4521369E-004  0.6500000E+04  0.7818608E-02  0.7223770E-01
         52   -1    0    0    0    0  0.00000000000E+00  0.00000000000E+00  0.64930732323E+04  0.65000000000E+04  0.30000000000E+03 0.  1.
        -52   -1    0    0    0    0 -0.00000000000E+00 -0.00000000000E+00 -0.64930732323E+04  0.65000000000E+04  0.30000000000E+03 0. -1.
     100001    1    1    2    0    0 -0.28006014583E+04  0.63829157563E+02  0.58634381603E+04  0.65000000000E+04  0.15050000000E+03 0.  1.
     100001    1    1    2    0    0  0.28006014583E+04 -0.63829157563E+02 -0.58634381603E+04  0.65000000000E+04  0.15050000000E+03 0. -1.
</event>
<event>
 4    1  0.4521369E-004  0.6500000E+04  0.7818608E-02  0.7223770E-01
         52   -1    0    0    0    0  0.00000000000E+00  0.00000000000E+00  0.64930732323E+04  0.65000000000E+04  0.30000000000E+03 0. -1.
        -52   -1    0    0    0    0 -0.00000000000E+00 -0.00000000000E+00 -0.64930732323E+04  0.65000000000E+04  0.30000000000E+03 0.  1.
     100001    1    1    2    0    0 -0.30694704855E+04 -0.76303766624E+03 -0.56765723997E+04  0.65000000000E+04  0.15050000000E+03 0.  1.
     100001    1    1    2    0    0  0.30694704855E+04  0.76303766624E+03  0.56765723997E+04  0.65000000000E+04  0.15050000000E+03 0. -1.
</event>
<event>
 4    1  0.4521369E-004  0.6500000E+04  0.7818608E-02  0.7223770E-01
         52   -1    0    0    0    0  0.00000000000E+00  0.00000000000E+00  0.64930732323E+04  0.65000000000E+04  0.30000000000E+03 0.  1.
        -52   -1    0    0    0    0 -0.00000000000E+00 -0.00000000000E+00 -0.64930732323E+04  0.65000000000E+04  0.30000000000E+03 0. -1.
     100001    1    1    2    0    0  0.39573564908E+03 -0.24237314240E+03  0.64816663217E+04  0.65000000000E+04  0.15050000000E+03 0.  1.
     100001    1    1    2    0    0 -0.39573564908E+03  0.24237314240E+03 -0.64816663217E+04  0.65000000000E+04  0.15050000000E+03 0. -1.
</event>
<event>
 4    1  0.4521369E-004  0.6500000E+04  0.7818608E-02  0.7223770E-01
         52   -1    0    0    0    0  0.00000000000E+00  0.00000000000E+00  0.64930732323E+04  0.65000000000E+04  0.30000000000E+03 0.  1.
        -52   -1    0    0    0    0 -0.00000000000E+00 -0.00000000000E+00 -0.64930732323E+04  0.65000000000E+04  0.30000000000E+03 0. -1.
     100001    1    1    2    0    0 -0.38744565739E+03  0.41664128403E+03  0.64733025306E+04  0.65000000000E+04  0.15050000000E+03 0.  1.
     100001    1    1    2    0    0  0.38744565739E+03 -0.41664128403E+03 -0.64733025306E+04  0.65000000000E+04  0.15050000000E+03 0. -1.
</event>
<event>
 4    1  0.4521369E-004  0.6500000E+04  0.7818608E-02  0.7223770E-01
         52   -1    0    0    0    0  0.00000000000E+00  0.00000000000E+00  0.64930732323E+04  0.65000000000E+04  0.30000000000E+03 0. -1.
        -52   -1    0    0    0    0 -0.00000000000E+00 -0.00000000000E+00 -0.64930732323E+04  0.65000000000E+04  0.30000000000E+03 0.  1.
     100001    1    1    2    0    0 -0.59229265194E+04 -0.22482811668E+04  0.14462098709E+04  0.65000000000E+04  0.15050000000E+03 0. -1.
     100001    1    1    2    0    0  0.59229265194E+04  0.22482811668E+04 -0.14462098709E+04  0.65000000000E+04  0.15050000000E+03 0.  1.
</event>
<event>
 4    1  0.4521369E-004  0.6500000E+04  0.7818608E-02  0.7223770E-01
         52   -1    0    0    0    0  0.00000000000E+00  0.00000000000E+00  0.64930732323E+04  0.65000000000E+04  0.30000000000E+03 0. -1.
        -52   -1    0    0    0    0 -0.00000000000E+00 -0.00000000000E+00 -0.64930732323E+04  0.65000000000E+04  0.30000000000E+03 0.  1.
     100001    1    1    2    0    0 -0.30778119100E+03  0.36646114152E+04 -0.53575408224E+04  0.65000000000E+04  0.15050000000E+03 0.  1.
     100001    1    1    2    0    0  0.30778119100E+03 -0.36646114152E+04  0.53575408224E+04  0.65000000000E+04  0.15050000000E+03 0. -1.
</event>
<event>
 4    1  0.4521369E-004  0.6500000E+04  0.7818608E-02  0.7223770E-01
         52   -1    0    0    0    0  0.00000000000E+00  0.00000000000E+00  0.64930732323E+04  0.65000000000E+04  0.30000000000E+03 0. -1.
        -52   -1    0    0    0    0 -0.00000000000E+00 -0.00000000000E+00 -0.64930732323E+04  0.65000000000E+04  0.30000000000E+03 0.  1.
     100001    1    1    2    0    0 -0.89201432349E+03  0.22133272583E+03  0.64329365006E+04  0.65000000000E+04  0.15050000000E+03 0. -1.
     100001    1    1    2    0    0  0.89201432349E+03 -0.22133272583E+03 -0.64329365006E+04  0.65000000000E+04  0.15050000000E+03 0.  1.
</event>
<event>
 4    1  0.4521369E-004  0.6500000E+04  0.7818608E-02  0.7223770E-01
         52   -1    0    0    0    0  0.00000000000E+00  0.00000000000E+00  0.64930732323E+04  0.65000000000E+04  0.30000000000E+03 0. -1.
        -52   -1    0    0    0    0 -0.00000000000E+00 -0.00000000000E+00 -0.64930732323E+04  0.65000000000E+04  0.30000000000E+03 0.  1.
     100001    1    1    2    0    0 -0.76872036498E+03 -0.76963645932E+03  0.64065652631E+04  0.65000000000E+04  0.15050000000E+03 0. -1.
     100001    1    1    2    0    0  0.76872036498E+03  0.76963645932E+03 -0.64065652631E+04  0.65000000000E+04  0.15050000000E+03 0.  1.
</event>
<event>
 4    1  0.4521369E-004  0.6500000E+04  0.7818608E-02  0.7223770E-01
         52   -1    0    0    0    0  0.00000000000E+00  0.00000000000E+00  0.64930732323E+04  0.65000000000E+04  0.30000000000E+03 0.  1.
        -52   -1    0    0    0    0 -0.00000000000E+00 -0.00000000000E+00 -0.64930732323E+04  0.65000000000E+04  0.30000000000E+03 0. -1.
     100001    1    1    2    0    0  0.22022759981E+04 -0.57958841758E+04  0.19455222433E+04  0.65000000000E+04  0.15050000000E+03 0.  1.
     100001    1    1    2    0    0 -0.22022759981E+04  0.57958841758E+04 -0.19455222433E+04  0.65000000000E+04  0.15050000000E+03 0. -1.
</event>
<event>
 4    1  0.4521369E-004  0.6500000E+04  0.7818608E-02  0.7223770E-01
         52   -1    0    0    0    0  0.00000000000E+00  0.00000000000E+00  0.64930732323E+04  0.65000000000E+04  0.30000000000E+03 0. -1.
        -52   -1    0    0    0    0 -0.00000000000E+00 -0.00000000000E+00 -0.64930732323E+04  0.65000000000E+04  0.30000000000E+03 0.  1.
     100001    1    1    2    0    0  0.55207405596E+04  0.31930057193E+03  0.34127438475E+04  0.65000000000E+04  0.15050000000E+03 0.  1.
     100001    1    1    2    0    0 -0.55207405596E+04 -0.31930057193E+03 -0.34127438475E+04  0.65000000000E+04  0.15050000000E+03 0. -1.
</event>
<event>
 4    1  0.4521369E-004  0.6500000E+04  0.7818608E-02  0.7223770E-01
         52   -1    0    0    0    0  0.00000000000E+00  0.00000000000E+00  0.64930732323E+04  0.65000000000E+04  0.30000000000E+03 0. -1.
        -52   -1    0    0    0    0 -0.00000000000E+00 -0.00000000000E+00 -0.64930732323E+04  0.65000000000E+04  0.30000000000E+03 0.  1.
     100001    1    1    2    0    0  0.11180366982E+03  0.42620791869E+03 -0.64833013581E+04  0.65000000000E+04  0.15050000000E+03 0.  1.
     100001    1    1    2    0    0 -0.11180366982E+03 -0.42620791869E+03  0.64833013581E+04  0.65000000000E+04  0.15050000000E+03 0. -1.
</event>
<event>
 4    1  0.4521369E-004  0.6500000E+04  0.7818608E-02  0.7223770E-01
         52   -1    0    0    0    0  0.00000000000E+00  0.00000000000E+00  0.64930732323E+04  0.65000000000E+04  0.30000000000E+03 0.  1.
        -52   -1    0    0    0    0 -0.00000000000E+00 -0.00000000000E+00 -0.64930732323E+04  0.65000000000E+04  0.30000000000E+03 0. -1.
     100001    1    1    2    0    0 -0.13259572644E+04 -0.10686625859E+04 -0.62711360502E+04  0.65000000000E+04  0.15050000000E+03 0. -1.
     100001    1    1    2    0    0  0.13259572644E+04  0.10686625859E+04  0.62711360502E+04  0.65000000000E+04  0.15050000000E+03 0.  1.
</event>
<event>
 4    1  0.4521369E-004  0.6500000E+04  0.7818608E-02  0.7223770E-01
         52   -1    0    0    0    0  0.00000000000E+00  0.00000000000E+00  0.64930732323E+04  0.65000000000E+04  0.30000000000E+03 0. -1.
        -52   -1    0    0    0    0 -0.00000000000E+00 -0.00000000000E+00 -0.64930732323E+04  0.65000000000E+04  0.30000000000E+03 0.  1.
     100001    1    1    2    0    0 -0.25372273313E+04  0.16524438940E+04  0.57497179406E+04  0.65000000000E+04  0.15050000000E+03 0. -1.
     100001    1    1    2    0    0  0.25372273313E+04 -0.16524438940E+04 -0.57497179406E+04  0.65000000000E+04  0.15050000000E+03 0.  1.
</event>
<event>
 4    1  0.4521369E-004  0.6500000E+04  0.7818608E-02  0.7223770E-01
         52   -1    0    0    0    0  0.00000000000E+00  0.00000000000E+00  0.64930732323E+04  0.65000000000E+04  0.30000000000E+03 0.  1.
        -52   -1    0    0    0    0 -0.00000000000E+00 -0.00000000000E+00 -0.64930732323E+04  0.65000000000E+04  0.30000000000E+03 0. -1.
     100001    1    1    2    0    0 -0.15161808824E+04  0.58870809743E+04  0.22958272766E+04  0.65000000000E+04  0.15050000000E+03 0.  1.
     100001    1    1    2    0    0  0.15161808824E+04 -0.58870809743E+04 -0.22958272766E+04  0.65000000000E+04  0.15050000000E+03 0. -1.
</event>
<event>
 4    1  0.4521369E-004  0.6500000E+04  0.7818608E-02  0.7223770E-01
         52   -1    0    0    0    0  0.00000000000E+00  0.00000000000E+00  0.64930732323E+04  0.65000000000E+04  0.30000000000E+03 0.  1.
        -52   -1    0    0    0    0 -0.00000000000E+00 -0.00000000000E+00 -0.64930732323E+04  0.65000000000E+04  0.30000000000E+03 0. -1.
     100001    1    1    2    0    0  0.29452125548E+04 -0.49577784457E+04 -0.29955810189E+04  0.65000000000E+04  0.15050000000E+03 0.  1.
     100001    1    1    2    0    0 -0.29452125548E+04  0.49577784457E+04  0.29955810189E+04  0.65000000000E+04  0.15050000000E+03 0. -1.
</event>
<event>
 4    1  0.4521369E-004  0.6500000E+04  0.7818608E-02  0.7223770E-01
         52   -1    0    0    0    0  0.00000000000E+00  0.00000000000E+00  0.64930732323E+04  0.65000000000E+04  0.30000000000E+03 0.  1.
        -52   -1    0    0    0    0 -0.00000000000E+00 -0.00000000000E+00 -0.64930732323E+04  0.65000000000E+04  0.30000000000E+03 0. -1.
     100001    1    1    2    0    0  0.70237159461E+03  0.53256308671E+03 -0.64381985409E+04  0.65000000000E+04  0.15050000000E+03 0. -1.
     100001    1    1    2    0    0 -0.70237159461E+03 -0.53256308671E+03  0.64381985409E+04  0.65000000000E+04  0.15050000000E+03 0.  1.
</event>
<event>
 4    1  0.4521369E-004  0.6500000E+04  0.7818608E-02  0.7223770E-01
         52   -1    0    0    0    0  0.00000000000E+00  0.00000000000E+00  0.64930732323E+04  0.65000000000E+04  0.30000000000E+03 0.  1.
        -52   -1    0    0    0    0 -0.00000000000E+00 -0.00000000000E+00 -0.64930732323E+04  0.65000000000E+04  0.30000000000E+03 0. -1.
     100001    1    1    2    0    0  0.33155467999E+04  0.39715059971E+04  0.39321291031E+04  0.65000000000E+04  0.15050000000E+03 0.  1.
     100001    1    1    2    0    0 -0.33155467999E+04 -0.39715059971E+04 -0.39321291031E+04  0.65000000000E+04  0.15050000000E+03 0. -1.
</event>
<event>
 4    1  0.4521369E-004  0.6500000E+04  0.7818608E-02  0.7223770E-01
         52   -1    0    0    0    0  0.00000000000E+00  0.00000000000E+00  0.64930732323E+04  0.65000000000E+04  0.30000000000E+03 0. -1.
        -52   -1    0    0    0    0 -0.00000000000E+00 -0.00000000000E+00 -0.64930732323E+04  0.65000000000E+04  0.30000000000E+03 0.  1.
     100001    1    1    2    0    0 -0.96103182936E+03 -0.19296197066E+02  0.64267717580E+04  0.65000000000E+04  0.15050000000E+03 0. -1.
     100001    1    1    2    0    0  0.96103182936E+03  0.19296197066E+02 -0.64267717580E+04  0.65000000000E+04  0.15050000000E+03 0.  1.
</event>
<event>
 4    1  0.4521369E-004  0.6500000E+04  0.7818608E-02  0.7223770E-01
         52   -1    0    0    0    0  0.00000000000E+00  0.00000000000E+00  0.64930732323E+04  0.65000000000E+04  0.30000000000E+03 0.  1.
        -52   -1    0    0    0    0 -0.00000000000E+00 -0.00000000000E+00 -0.64930732323E+04  0.65000000000E+04  0.30000000000E+03 0. -1.
     100001    1    1    2    0    0  0.65797760167E+03 -0.56083849116E+04 -0.32156545070E+04  0.65000000000E+04  0.15050000000E+03 0. -1.
     100001    1    1    2    0    0 -0.65797760167E+03  0.56083849116E+04  0.32156545070E+04  0.65000000000E+04  0.15050000000E+03 0.  1.
</event>
<event>
 4    1  0.4521369E-004  0.6500000E+04  0.7818608E-02  0.7223770E-01
         52   -1    0    0    0    0  0.00000000000E+00  0.00000000000E+00  0.64930732323E+04  0.65000000000E+04  0.30000000000E+03 0. -1.
        -52   -1    0    0    0    0 -0.00000000000E+00 -0.00000000000E+00 -0.64930732323E+04  0.65000000000E+04  0.30000000000E+03 0.  1.
     100001    1    1    2    0    0  0.38241704093E+04 -0.32297717614E+04 -0.41438683377E+04  0.65000000000E+04  0.15050000000E+03 0.  1.
     100001    1    1    2    0    0 -0.38241704093E+04  0.32297717614E+04  0.41438683377E+04  0.65000000000E+04  0.15050000000E+03 0. -1.
</event>
<event>
 4    1  0.4521369E-004  0.6500000E+04  0.7818608E-02  0.7223770E-01
         52   -1    0    0    0    0  0.00000000000E+00  0.00000000000E+00  0.64930732323E+04  0.65000000000E+04  0.30000000000E+03 0. -1.
        -52   -1    0    0    0    0 -0.00000000000E+00 -0.00000000000E+00 -0.64930732323E+04  0.65000000000E+04  0.30000000000E+03 0.  1.
     100001    1    1    2    0    0 -0.73048022377E+03 -0.13859577154E+04  0.63065735232E+04  0.65000000000E+04  0.15050000000E+03 0. -1.
     100001    1    1    2    0    0  0.73048022377E+03  0.13859577154E+04 -0.63065735232E+04  0.65000000000E+04  0.15050000000E+03 0.  1.
</event>
<event>
 4    1  0.4521369E-004  0.6500000E+04  0.7818608E-02  0.7223770E-01
         52   -1    0    0    0    0  0.00000000000E+00  0.00000000000E+00  0.64930732323E+04  0.65000000000E+04  0.30000000000E+03 0. -1.
        -52   -1    0    0    0    0 -0.00000000000E+00 -0.00000000000E+00 -0.64930732323E+04  0.65000000000E+04  0.30000000000E+03 0.  1.
     100001    1    1    2    0    0  0.81256044970E+03  0.37518138124E+03 -0.64363292486E+04  0.65000000000E+04  0.15050000000E+03 0.  1.
     100001    1    1    2    0    0 -0.81256044970E+03 -0.37518138124E+03  0.64363292486E+04  0.65000000000E+04  0.15050000000E+03 0. -1.
</event>
<event>
 4    1  0.4521369E-004  0.6500000E+04  0.7818608E-02  0.7223770E-01
         52   -1    0    0    0    0  0.00000000000E+00  0.00000000000E+00  0.64930732323E+04  0.65000000000E+04  0.30000000000E+03 0.  1.
        -52   -1    0    0    0    0 -0.00000000000E+00 -0.00000000000E+00 -0.64930732323E+04  0.65000000000E+04  0.30000000000E+03 0.  1.
     100001    1    1    2    0    0 -0.91378527689E+02 -0.36071345475E+02  0.64975147997E+04  0.65000000000E+04  0.15050000000E+03 0.  1.
     100001    1    1    2    0    0  0.91378527689E+02  0.36071345475E+02 -0.64975147997E+04  0.65000000000E+04  0.15050000000E+03 0.  1.
</event>
<event>
 4    1  0.4521369E-004  0.6500000E+04  0.7818608E-02  0.7223770E-01
         52   -1    0    0    0    0  0.00000000000E+00  0.00000000000E+00  0.64930732323E+04  0.65000000000E+04  0.30000000000E+03 0.  1.
        -52   -1    0    0    0    0 -0.00000000000E+00 -0.00000000000E+00 -0.64930732323E+04  0.65000000000E+04  0.30000000000E+03 0.  1.
     100001    1    1    2    0    0  0.98004157342E+02 -0.15516892944E+02 -0.64974998393E+04  0.65000000000E+04  0.15050000000E+03 0.  1.
     100001    1    1    2    0    0 -0.98004157342E+02  0.15516892944E+02  0.64974998393E+04  0.65000000000E+04  0.15050000000E+03 0.  1.
</event>
<event>
 4    1  0.4521369E-004  0.6500000E+04  0.7818608E-02  0.7223770E-01
         52   -1    0    0    0    0  0.00000000000E+00  0.00000000000E+00  0.64930732323E+04  0.65000000000E+04  0.30000000000E+03 0.  1.
        -52   -1    0    0    0    0 -0.00000000000E+00 -0.00000000000E+00 -0.64930732323E+04  0.65000000000E+04  0.30000000000E+03 0. -1.
     100001    1    1    2    0    0  0.21279665656E+04  0.58746817221E+04  0.17852794485E+04  0.65000000000E+04  0.15050000000E+03 0.  1.
     100001    1    1    2    0    0 -0.21279665656E+04 -0.58746817221E+04 -0.17852794485E+04  0.65000000000E+04  0.15050000000E+03 0. -1.
</event>
<event>
 4    1  0.4521369E-004  0.6500000E+04  0.7818608E-02  0.7223770E-01
         52   -1    0    0    0    0  0.00000000000E+00  0.00000000000E+00  0.64930732323E+04  0.65000000000E+04  0.30000000000E+03 0. -1.
        -52   -1    0    0    0    0 -0.00000000000E+00 -0.00000000000E+00 -0.64930732323E+04  0.65000000000E+04  0.30000000000E+03 0.  1.
     100001    1    1    2    0    0  0.30420962054E+02 -0.39208807462E+03 -0.64863465261E+04  0.65000000000E+04  0.15050000000E+03 0.  1.
     100001    1    1    2    0    0 -0.30420962054E+02  0.39208807462E+03  0.64863465261E+04  0.65000000000E+04  0.15050000000E+03 0. -1.
</event>
<event>
 4    1  0.4521369E-004  0.6500000E+04  0.7818608E-02  0.7223770E-01
         52   -1    0    0    0    0  0.00000000000E+00  0.00000000000E+00  0.64930732323E+04  0.65000000000E+04  0.30000000000E+03 0.  1.
        -52   -1    0    0    0    0 -0.00000000000E+00 -0.00000000000E+00 -0.64930732323E+04  0.65000000000E+04  0.30000000000E+03 0. -1.
     100001    1    1    2    0    0  0.61738245787E+04  0.15816048914E+04  0.12687654585E+04  0.65000000000E+04  0.15050000000E+03 0.  1.
     100001    1    1    2    0    0 -0.61738245787E+04 -0.15816048914E+04 -0.12687654585E+04  0.65000000000E+04  0.15050000000E+03 0. -1.
</event>
<event>
 4    1  0.4521369E-004  0.6500000E+04  0.7818608E-02  0.7223770E-01
         52   -1    0    0    0    0  0.00000000000E+00  0.00000000000E+00  0.64930732323E+04  0.65000000000E+04  0.30000000000E+03 0.  1.
        -52   -1    0    0    0    0 -0.00000000000E+00 -0.00000000000E+00 -0.64930732323E+04  0.65000000000E+04  0.30000000000E+03 0.  1.
     100001    1    1    2    0    0  0.18628346870E+03  0.44249811654E+01 -0.64955853192E+04  0.65000000000E+04  0.15050000000E+03 0.  1.
     100001    1    1    2    0    0 -0.18628346870E+03 -0.44249811654E+01  0.64955853192E+04  0.65000000000E+04  0.15050000000E+03 0.  1.
</event>
<event>
 4    1  0.4972616E-004  0.6500000E+04  0.7818608E-02  0.7223770E-01
         52   -1    0    0    0    0  0.00000000000E+00  0.00000000000E+00  0.64930732323E+04  0.65000000000E+04  0.30000000000E+03 0. -1.
        -52   -1    0    0    0    0 -0.00000000000E+00 -0.00000000000E+00 -0.64930732323E+04  0.65000000000E+04  0.30000000000E+03 0. -1.
     100001    1    1    2    0    0 -0.16893938333E+03  0.18233989379E+03  0.64935014744E+04  0.65000000000E+04  0.15050000000E+03 0. -1.
     100001    1    1    2    0    0  0.16893938333E+03 -0.18233989379E+03 -0.64935014744E+04  0.65000000000E+04  0.15050000000E+03 0. -1.
</event>
<event>
 4    1  0.4521369E-004  0.6500000E+04  0.7818608E-02  0.7223770E-01
         52   -1    0    0    0    0  0.00000000000E+00  0.00000000000E+00  0.64930732323E+04  0.65000000000E+04  0.30000000000E+03 0.  1.
        -52   -1    0    0    0    0 -0.00000000000E+00 -0.00000000000E+00 -0.64930732323E+04  0.65000000000E+04  0.30000000000E+03 0. -1.
     100001    1    1    2    0    0  0.53550662820E+03  0.52069439691E+03  0.64551885911E+04  0.65000000000E+04  0.15050000000E+03 0.  1.
     100001    1    1    2    0    0 -0.53550662820E+03 -0.52069439691E+03 -0.64551885911E+04  0.65000000000E+04  0.15050000000E+03 0. -1.
</event>
<event>
 4    1  0.4521369E-004  0.6500000E+04  0.7818608E-02  0.7223770E-01
         52   -1    0    0    0    0  0.00000000000E+00  0.00000000000E+00  0.64930732323E+04  0.65000000000E+04  0.30000000000E+03 0. -1.
        -52   -1    0    0    0    0 -0.00000000000E+00 -0.00000000000E+00 -0.64930732323E+04  0.65000000000E+04  0.30000000000E+03 0.  1.
     100001    1    1    2    0    0 -0.38654517791E+04  0.20462481960E+04  0.48060899507E+04  0.65000000000E+04  0.15050000000E+03 0. -1.
     100001    1    1    2    0    0  0.38654517791E+04 -0.20462481960E+04 -0.48060899507E+04  0.65000000000E+04  0.15050000000E+03 0.  1.
</event>
<event>
 4    1  0.4521369E-004  0.6500000E+04  0.7818608E-02  0.7223770E-01
         52   -1    0    0    0    0  0.00000000000E+00  0.00000000000E+00  0.64930732323E+04  0.65000000000E+04  0.30000000000E+03 0.  1.
        -52   -1    0    0    0    0 -0.00000000000E+00 -0.00000000000E+00 -0.64930732323E+04  0.65000000000E+04  0.30000000000E+03 0.  1.
     100001    1    1    2    0    0  0.66162917463E+02  0.25224779394E+03  0.64930226604E+04  0.65000000000E+04  0.15050000000E+03 0.  1.
     100001    1    1    2    0    0 -0.66162917463E+02 -0.25224779394E+03 -0.64930226604E+04  0.65000000000E+04  0.15050000000E+03 0.  1.
</event>
<event>
 4    1  0.4521369E-004  0.6500000E+04  0.7818608E-02  0.7223770E-01
         52   -1    0    0    0    0  0.00000000000E+00  0.00000000000E+00  0.64930732323E+04  0.65000000000E+04  0.30000000000E+03 0.  1.
        -52   -1    0    0    0    0 -0.00000000000E+00 -0.00000000000E+00 -0.64930732323E+04  0.65000000000E+04  0.30000000000E+03 0. -1.
     100001    1    1    2    0    0 -0.50955914777E+02  0.49292088152E+03  0.64793350160E+04  0.65000000000E+04  0.15050000000E+03 0.  1.
     100001    1    1    2    0    0  0.50955914777E+02 -0.49292088152E+03 -0.64793350160E+04  0.65000000000E+04  0.15050000000E+03 0. -1.
</event>
<event>
 4    1  0.4521369E-004  0.6500000E+04  0.7818608E-02  0.7223770E-01
         52   -1    0    0    0    0  0.00000000000E+00  0.00000000000E+00  0.64930732323E+04  0.65000000000E+04  0.30000000000E+03 0.  1.
        -52   -1    0    0    0    0 -0.00000000000E+00 -0.00000000000E+00 -0.64930732323E+04  0.65000000000E+04  0.30000000000E+03 0. -1.
     100001    1    1    2    0    0 -0.87003301187E+03 -0.93483053885E+03 -0.63715370337E+04  0.65000000000E+04  0.15050000000E+03 0. -1.
     100001    1    1    2    0    0  0.87003301187E+03  0.93483053885E+03  0.63715370337E+04  0.65000000000E+04  0.15050000000E+03 0.  1.
</event>
<event>
 4    1  0.4521369E-004  0.6500000E+04  0.7818608E-02  0.7223770E-01
         52   -1    0    0    0    0  0.00000000000E+00  0.00000000000E+00  0.64930732323E+04  0.65000000000E+04  0.30000000000E+03 0.  1.
        -52   -1    0    0    0    0 -0.00000000000E+00 -0.00000000000E+00 -0.64930732323E+04  0.65000000000E+04  0.30000000000E+03 0. -1.
     100001    1    1    2    0    0 -0.29267729126E+04  0.14269157793E+04  0.56236341832E+04  0.65000000000E+04  0.15050000000E+03 0.  1.
     100001    1    1    2    0    0  0.29267729126E+04 -0.14269157793E+04 -0.56236341832E+04  0.65000000000E+04  0.15050000000E+03 0. -1.
</event>
<event>
 4    1  0.4521369E-004  0.6500000E+04  0.7818608E-02  0.7223770E-01
         52   -1    0    0    0    0  0.00000000000E+00  0.00000000000E+00  0.64930732323E+04  0.65000000000E+04  0.30000000000E+03 0. -1.
        -52   -1    0    0    0    0 -0.00000000000E+00 -0.00000000000E+00 -0.64930732323E+04  0.65000000000E+04  0.30000000000E+03 0.  1.
     100001    1    1    2    0    0  0.92102313180E+03  0.39257863022E+04  0.50958088710E+04  0.65000000000E+04  0.15050000000E+03 0. -1.
     100001    1    1    2    0    0 -0.92102313180E+03 -0.39257863022E+04 -0.50958088710E+04  0.65000000000E+04  0.15050000000E+03 0.  1.
</event>
<event>
 4    1  0.4521369E-004  0.6500000E+04  0.7818608E-02  0.7223770E-01
         52   -1    0    0    0    0  0.00000000000E+00  0.00000000000E+00  0.64930732323E+04  0.65000000000E+04  0.30000000000E+03 0.  1.
        -52   -1    0    0    0    0 -0.00000000000E+00 -0.00000000000E+00 -0.64930732323E+04  0.65000000000E+04  0.30000000000E+03 0. -1.
     100001    1    1    2    0    0 -0.28043454381E+04 -0.38972967777E+04  0.43788211016E+04  0.65000000000E+04  0.15050000000E+03 0. -1.
     100001    1    1    2    0    0  0.28043454381E+04  0.38972967777E+04 -0.43788211016E+04  0.65000000000E+04  0.15050000000E+03 0.  1.
</event>
<event>
 4    1  0.4521369E-004  0.6500000E+04  0.7818608E-02  0.7223770E-01
         52   -1    0    0    0    0  0.00000000000E+00  0.00000000000E+00  0.64930732323E+04  0.65000000000E+04  0.30000000000E+03 0. -1.
        -52   -1    0    0    0    0 -0.00000000000E+00 -0.00000000000E+00 -0.64930732323E+04  0.65000000000E+04  0.30000000000E+03 0.  1.
     100001    1    1    2    0    0 -0.20980912485E+04  0.14417820908E+04  0.59788483227E+04  0.65000000000E+04  0.15050000000E+03 0. -1.
     100001    1    1    2    0    0  0.20980912485E+04 -0.14417820908E+04 -0.59788483227E+04  0.65000000000E+04  0.15050000000E+03 0.  1.
</event>
<event>
 4    1  0.4521369E-004  0.6500000E+04  0.7818608E-02  0.7223770E-01
         52   -1    0    0    0    0  0.00000000000E+00  0.00000000000E+00  0.64930732323E+04  0.65000000000E+04  0.30000000000E+03 0.  1.
        -52   -1    0    0    0    0 -0.00000000000E+00 -0.00000000000E+00 -0.64930732323E+04  0.65000000000E+04  0.30000000000E+03 0. -1.
     100001    1    1    2    0    0  0.27464491717E+03 -0.13556718691E+04 -0.63493364774E+04  0.65000000000E+04  0.15050000000E+03 0. -1.
     100001    1    1    2    0    0 -0.27464491717E+03  0.13556718691E+04  0.63493364774E+04  0.65000000000E+04  0.15050000000E+03 0.  1.
</event>
<event>
 4    1  0.4521369E-004  0.6500000E+04  0.7818608E-02  0.7223770E-01
         52   -1    0    0    0    0  0.00000000000E+00  0.00000000000E+00  0.64930732323E+04  0.65000000000E+04  0.30000000000E+03 0. -1.
        -52   -1    0    0    0    0 -0.00000000000E+00 -0.00000000000E+00 -0.64930732323E+04  0.65000000000E+04  0.30000000000E+03 0.  1.
     100001    1    1    2    0    0  0.10310214694E+03 -0.87426751176E+03  0.64383519642E+04  0.65000000000E+04  0.15050000000E+03 0. -1.
     100001    1    1    2    0    0 -0.10310214694E+03  0.87426751176E+03 -0.64383519642E+04  0.65000000000E+04  0.15050000000E+03 0.  1.
</event>
<event>
 4    1  0.7306994E-004  0.6500000E+04  0.7818608E-02  0.7223770E-01
         52   -1    0    0    0    0  0.00000000000E+00  0.00000000000E+00  0.64930732323E+04  0.65000000000E+04  0.30000000000E+03 0. -1.
        -52   -1    0    0    0    0 -0.00000000000E+00 -0.00000000000E+00 -0.64930732323E+04  0.65000000000E+04  0.30000000000E+03 0. -1.
     100001    1    1    2    0    0 -0.55556208411E+02  0.62830902105E+02 -0.64977161784E+04  0.65000000000E+04  0.15050000000E+03 0. -1.
     100001    1    1    2    0    0  0.55556208411E+02 -0.62830902105E+02  0.64977161784E+04  0.65000000000E+04  0.15050000000E+03 0. -1.
</event>
<event>
 4    1  0.4521369E-004  0.6500000E+04  0.7818608E-02  0.7223770E-01
         52   -1    0    0    0    0  0.00000000000E+00  0.00000000000E+00  0.64930732323E+04  0.65000000000E+04  0.30000000000E+03 0. -1.
        -52   -1    0    0    0    0 -0.00000000000E+00 -0.00000000000E+00 -0.64930732323E+04  0.65000000000E+04  0.30000000000E+03 0.  1.
     100001    1    1    2    0    0  0.12791907353E+04 -0.26587385709E+04 -0.57898298787E+04  0.65000000000E+04  0.15050000000E+03 0.  1.
     100001    1    1    2    0    0 -0.12791907353E+04  0.26587385709E+04  0.57898298787E+04  0.65000000000E+04  0.15050000000E+03 0. -1.
</event>
<event>
 4    1  0.4521369E-004  0.6500000E+04  0.7818608E-02  0.7223770E-01
         52   -1    0    0    0    0  0.00000000000E+00  0.00000000000E+00  0.64930732323E+04  0.65000000000E+04  0.30000000000E+03 0.  1.
        -52   -1    0    0    0    0 -0.00000000000E+00 -0.00000000000E+00 -0.64930732323E+04  0.65000000000E+04  0.30000000000E+03 0.  1.
     100001    1    1    2    0    0 -0.26533063157E+03  0.31690351761E+02 -0.64927609788E+04  0.65000000000E+04  0.15050000000E+03 0.  1.
     100001    1    1    2    0    0  0.26533063157E+03 -0.31690351761E+02  0.64927609788E+04  0.65000000000E+04  0.15050000000E+03 0.  1.
</event>
<event>
 4    1  0.4521369E-004  0.6500000E+04  0.7818608E-02  0.7223770E-01
         52   -1    0    0    0    0  0.00000000000E+00  0.00000000000E+00  0.64930732323E+04  0.65000000000E+04  0.30000000000E+03 0.  1.
        -52   -1    0    0    0    0 -0.00000000000E+00 -0.00000000000E+00 -0.64930732323E+04  0.65000000000E+04  0.30000000000E+03 0. -1.
     100001    1    1    2    0    0 -0.27927456212E+04 -0.46884937665E+03  0.58487692643E+04  0.65000000000E+04  0.15050000000E+03 0.  1.
     100001    1    1    2    0    0  0.27927456212E+04  0.46884937665E+03 -0.58487692643E+04  0.65000000000E+04  0.15050000000E+03 0. -1.
</event>
<event>
 4    1  0.4521369E-004  0.6500000E+04  0.7818608E-02  0.7223770E-01
         52   -1    0    0    0    0  0.00000000000E+00  0.00000000000E+00  0.64930732323E+04  0.65000000000E+04  0.30000000000E+03 0. -1.
        -52   -1    0    0    0    0 -0.00000000000E+00 -0.00000000000E+00 -0.64930732323E+04  0.65000000000E+04  0.30000000000E+03 0.  1.
     100001    1    1    2    0    0  0.71222773973E+03 -0.48097249863E+04  0.43112210513E+04  0.65000000000E+04  0.15050000000E+03 0. -1.
     100001    1    1    2    0    0 -0.71222773973E+03  0.48097249863E+04 -0.43112210513E+04  0.65000000000E+04  0.15050000000E+03 0.  1.
</event>
<event>
 4    1  0.4521369E-004  0.6500000E+04  0.7818608E-02  0.7223770E-01
         52   -1    0    0    0    0  0.00000000000E+00  0.00000000000E+00  0.64930732323E+04  0.65000000000E+04  0.30000000000E+03 0. -1.
        -52   -1    0    0    0    0 -0.00000000000E+00 -0.00000000000E+00 -0.64930732323E+04  0.65000000000E+04  0.30000000000E+03 0.  1.
     100001    1    1    2    0    0 -0.43873983273E+03  0.21241416926E+03 -0.64799488678E+04  0.65000000000E+04  0.15050000000E+03 0.  1.
     100001    1    1    2    0    0  0.43873983273E+03 -0.21241416926E+03  0.64799488678E+04  0.65000000000E+04  0.15050000000E+03 0. -1.
</event>
<event>
 4    1  0.4521369E-004  0.6500000E+04  0.7818608E-02  0.7223770E-01
         52   -1    0    0    0    0  0.00000000000E+00  0.00000000000E+00  0.64930732323E+04  0.65000000000E+04  0.30000000000E+03 0.  1.
        -52   -1    0    0    0    0 -0.00000000000E+00 -0.00000000000E+00 -0.64930732323E+04  0.65000000000E+04  0.30000000000E+03 0. -1.
     100001    1    1    2    0    0 -0.22478046730E+04 -0.31944707598E+04 -0.51932726162E+04  0.65000000000E+04  0.15050000000E+03 0. -1.
     100001    1    1    2    0    0  0.22478046730E+04  0.31944707598E+04  0.51932726162E+04  0.65000000000E+04  0.15050000000E+03 0.  1.
</event>
<event>
 4    1  0.4521369E-004  0.6500000E+04  0.7818608E-02  0.7223770E-01
         52   -1    0    0    0    0  0.00000000000E+00  0.00000000000E+00  0.64930732323E+04  0.65000000000E+04  0.30000000000E+03 0. -1.
        -52   -1    0    0    0    0 -0.00000000000E+00 -0.00000000000E+00 -0.64930732323E+04  0.65000000000E+04  0.30000000000E+03 0.  1.
     100001    1    1    2    0    0  0.11489775279E+03 -0.57537175888E+03  0.64717150428E+04  0.65000000000E+04  0.15050000000E+03 0. -1.
     100001    1    1    2    0    0 -0.11489775279E+03  0.57537175888E+03 -0.64717150428E+04  0.65000000000E+04  0.15050000000E+03 0.  1.
</event>
<event>
 4    1  0.4521369E-004  0.6500000E+04  0.7818608E-02  0.7223770E-01
         52   -1    0    0    0    0  0.00000000000E+00  0.00000000000E+00  0.64930732323E+04  0.65000000000E+04  0.30000000000E+03 0.  1.
        -52   -1    0    0    0    0 -0.00000000000E+00 -0.00000000000E+00 -0.64930732323E+04  0.65000000000E+04  0.30000000000E+03 0. -1.
     100001    1    1    2    0    0  0.44557623302E+03  0.73244620274E+03 -0.64414543490E+04  0.65000000000E+04  0.15050000000E+03 0. -1.
     100001    1    1    2    0    0 -0.44557623302E+03 -0.73244620274E+03  0.64414543490E+04  0.65000000000E+04  0.15050000000E+03 0.  1.
</event>
<event>
 4    1  0.4521369E-004  0.6500000E+04  0.7818608E-02  0.7223770E-01
         52   -1    0    0    0    0  0.00000000000E+00  0.00000000000E+00  0.64930732323E+04  0.65000000000E+04  0.30000000000E+03 0. -1.
        -52   -1    0    0    0    0 -0.00000000000E+00 -0.00000000000E+00 -0.64930732323E+04  0.65000000000E+04  0.30000000000E+03 0.  1.
     100001    1    1    2    0    0  0.63983241136E+03 -0.17426805286E+04 -0.62274415943E+04  0.65000000000E+04  0.15050000000E+03 0.  1.
     100001    1    1    2    0    0 -0.63983241136E+03  0.17426805286E+04  0.62274415943E+04  0.65000000000E+04  0.15050000000E+03 0. -1.
</event>
<event>
 4    1  0.4521369E-004  0.6500000E+04  0.7818608E-02  0.7223770E-01
         52   -1    0    0    0    0  0.00000000000E+00  0.00000000000E+00  0.64930732323E+04  0.65000000000E+04  0.30000000000E+03 0. -1.
        -52   -1    0    0    0    0 -0.00000000000E+00 -0.00000000000E+00 -0.64930732323E+04  0.65000000000E+04  0.30000000000E+03 0.  1.
     100001    1    1    2    0    0 -0.61931303841E+03 -0.34980108772E+03 -0.64592135984E+04  0.65000000000E+04  0.15050000000E+03 0.  1.
     100001    1    1    2    0    0  0.61931303841E+03  0.34980108772E+03  0.64592135984E+04  0.65000000000E+04  0.15050000000E+03 0. -1.
</event>
<event>
 4    1  0.4521369E-004  0.6500000E+04  0.7818608E-02  0.7223770E-01
         52   -1    0    0    0    0  0.00000000000E+00  0.00000000000E+00  0.64930732323E+04  0.65000000000E+04  0.30000000000E+03 0.  1.
        -52   -1    0    0    0    0 -0.00000000000E+00 -0.00000000000E+00 -0.64930732323E+04  0.65000000000E+04  0.30000000000E+03 0.  1.
     100001    1    1    2    0    0 -0.48600997267E+01  0.29678027004E+03 -0.64914749942E+04  0.65000000000E+04  0.15050000000E+03 0.  1.
     100001    1    1    2    0    0  0.48600997267E+01 -0.29678027004E+03  0.64914749942E+04  0.65000000000E+04  0.15050000000E+03 0.  1.
</event>
<event>
 4    1  0.4521369E-004  0.6500000E+04  0.7818608E-02  0.7223770E-01
         52   -1    0    0    0    0  0.00000000000E+00  0.00000000000E+00  0.64930732323E+04  0.65000000000E+04  0.30000000000E+03 0. -1.
        -52   -1    0    0    0    0 -0.00000000000E+00 -0.00000000000E+00 -0.64930732323E+04  0.65000000000E+04  0.30000000000E+03 0.  1.
     100001    1    1    2    0    0 -0.11732078762E+04  0.26578125133E+04 -0.58126556472E+04  0.65000000000E+04  0.15050000000E+03 0.  1.
     100001    1    1    2    0    0  0.11732078762E+04 -0.26578125133E+04  0.58126556472E+04  0.65000000000E+04  0.15050000000E+03 0. -1.
</event>
<event>
 4    1  0.4521369E-004  0.6500000E+04  0.7818608E-02  0.7223770E-01
         52   -1    0    0    0    0  0.00000000000E+00  0.00000000000E+00  0.64930732323E+04  0.65000000000E+04  0.30000000000E+03 0. -1.
        -52   -1    0    0    0    0 -0.00000000000E+00 -0.00000000000E+00 -0.64930732323E+04  0.65000000000E+04  0.30000000000E+03 0.  1.
     100001    1    1    2    0    0 -0.13040383707E+04  0.18013204250E+03 -0.63635199477E+04  0.65000000000E+04  0.15050000000E+03 0.  1.
     100001    1    1    2    0    0  0.13040383707E+04 -0.18013204250E+03  0.63635199477E+04  0.65000000000E+04  0.15050000000E+03 0. -1.
</event>
<event>
 4    1  0.4521369E-004  0.6500000E+04  0.7818608E-02  0.7223770E-01
         52   -1    0    0    0    0  0.00000000000E+00  0.00000000000E+00  0.64930732323E+04  0.65000000000E+04  0.30000000000E+03 0. -1.
        -52   -1    0    0    0    0 -0.00000000000E+00 -0.00000000000E+00 -0.64930732323E+04  0.65000000000E+04  0.30000000000E+03 0.  1.
     100001    1    1    2    0    0 -0.51206132886E+04  0.38222582886E+04  0.11819521452E+04  0.65000000000E+04  0.15050000000E+03 0. -1.
     100001    1    1    2    0    0  0.51206132886E+04 -0.38222582886E+04 -0.11819521452E+04  0.65000000000E+04  0.15050000000E+03 0.  1.
</event>
<event>
 4    1  0.4521369E-004  0.6500000E+04  0.7818608E-02  0.7223770E-01
         52   -1    0    0    0    0  0.00000000000E+00  0.00000000000E+00  0.64930732323E+04  0.65000000000E+04  0.30000000000E+03 0. -1.
        -52   -1    0    0    0    0 -0.00000000000E+00 -0.00000000000E+00 -0.64930732323E+04  0.65000000000E+04  0.30000000000E+03 0.  1.
     100001    1    1    2    0    0 -0.99928875592E+03 -0.41003684170E+03 -0.64078577950E+04  0.65000000000E+04  0.15050000000E+03 0.  1.
     100001    1    1    2    0    0  0.99928875592E+03  0.41003684170E+03  0.64078577950E+04  0.65000000000E+04  0.15050000000E+03 0. -1.
</event>
<event>
 4    1  0.4521369E-004  0.6500000E+04  0.7818608E-02  0.7223770E-01
         52   -1    0    0    0    0  0.00000000000E+00  0.00000000000E+00  0.64930732323E+04  0.65000000000E+04  0.30000000000E+03 0. -1.
        -52   -1    0    0    0    0 -0.00000000000E+00 -0.00000000000E+00 -0.64930732323E+04  0.65000000000E+04  0.30000000000E+03 0.  1.
     100001    1    1    2    0    0 -0.36851521813E+04  0.32686851483E+04 -0.42382426254E+04  0.65000000000E+04  0.15050000000E+03 0.  1.
     100001    1    1    2    0    0  0.36851521813E+04 -0.32686851483E+04  0.42382426254E+04  0.65000000000E+04  0.15050000000E+03 0. -1.
</event>
<event>
 4    1  0.4521369E-004  0.6500000E+04  0.7818608E-02  0.7223770E-01
         52   -1    0    0    0    0  0.00000000000E+00  0.00000000000E+00  0.64930732323E+04  0.65000000000E+04  0.30000000000E+03 0. -1.
        -52   -1    0    0    0    0 -0.00000000000E+00 -0.00000000000E+00 -0.64930732323E+04  0.65000000000E+04  0.30000000000E+03 0. -1.
     100001    1    1    2    0    0  0.42043132997E+02  0.44009960618E+01 -0.64981199401E+04  0.65000000000E+04  0.15050000000E+03 0. -1.
     100001    1    1    2    0    0 -0.42043132997E+02 -0.44009960618E+01  0.64981199401E+04  0.65000000000E+04  0.15050000000E+03 0. -1.
</event>
<event>
 4    1  0.5250509E-004  0.6500000E+04  0.7818608E-02  0.7223770E-01
         52   -1    0    0    0    0  0.00000000000E+00  0.00000000000E+00  0.64930732323E+04  0.65000000000E+04  0.30000000000E+03 0. -1.
        -52   -1    0    0    0    0 -0.00000000000E+00 -0.00000000000E+00 -0.64930732323E+04  0.65000000000E+04  0.30000000000E+03 0. -1.
     100001    1    1    2    0    0  0.11809472415E+03 -0.19246570776E+03 -0.64943329401E+04  0.65000000000E+04  0.15050000000E+03 0. -1.
     100001    1    1    2    0    0 -0.11809472415E+03  0.19246570776E+03  0.64943329401E+04  0.65000000000E+04  0.15050000000E+03 0. -1.
</event>
<event>
 4    1  0.4521369E-004  0.6500000E+04  0.7818608E-02  0.7223770E-01
         52   -1    0    0    0    0  0.00000000000E+00  0.00000000000E+00  0.64930732323E+04  0.65000000000E+04  0.30000000000E+03 0. -1.
        -52   -1    0    0    0    0 -0.00000000000E+00 -0.00000000000E+00 -0.64930732323E+04  0.65000000000E+04  0.30000000000E+03 0.  1.
     100001    1    1    2    0    0  0.40326404830E+03 -0.30462529026E+04 -0.57258249284E+04  0.65000000000E+04  0.15050000000E+03 0.  1.
     100001    1    1    2    0    0 -0.40326404830E+03  0.30462529026E+04  0.57258249284E+04  0.65000000000E+04  0.15050000000E+03 0. -1.
</event>
<event>
 4    1  0.4521369E-004  0.6500000E+04  0.7818608E-02  0.7223770E-01
         52   -1    0    0    0    0  0.00000000000E+00  0.00000000000E+00  0.64930732323E+04  0.65000000000E+04  0.30000000000E+03 0. -1.
        -52   -1    0    0    0    0 -0.00000000000E+00 -0.00000000000E+00 -0.64930732323E+04  0.65000000000E+04  0.30000000000E+03 0. -1.
     100001    1    1    2    0    0  0.17562272105E+03 -0.15516548093E+03  0.64940303420E+04  0.65000000000E+04  0.15050000000E+03 0. -1.
     100001    1    1    2    0    0 -0.17562272105E+03  0.15516548093E+03 -0.64940303420E+04  0.65000000000E+04  0.15050000000E+03 0. -1.
</event>
<event>
 4    1  0.4521369E-004  0.6500000E+04  0.7818608E-02  0.7223770E-01
         52   -1    0    0    0    0  0.00000000000E+00  0.00000000000E+00  0.64930732323E+04  0.65000000000E+04  0.30000000000E+03 0. -1.
        -52   -1    0    0    0    0 -0.00000000000E+00 -0.00000000000E+00 -0.64930732323E+04  0.65000000000E+04  0.30000000000E+03 0. -1.
     100001    1    1    2    0    0 -0.18825379567E+03  0.32799006918E+03  0.64872438503E+04  0.65000000000E+04  0.15050000000E+03 0. -1.
     100001    1    1    2    0    0  0.18825379567E+03 -0.32799006918E+03 -0.64872438503E+04  0.65000000000E+04  0.15050000000E+03 0. -1.
</event>
<event>
 4    1  0.4521369E-004  0.6500000E+04  0.7818608E-02  0.7223770E-01
         52   -1    0    0    0    0  0.00000000000E+00  0.00000000000E+00  0.64930732323E+04  0.65000000000E+04  0.30000000000E+03 0. -1.
        -52   -1    0    0    0    0 -0.00000000000E+00 -0.00000000000E+00 -0.64930732323E+04  0.65000000000E+04  0.30000000000E+03 0.  1.
     100001    1    1    2    0    0  0.19308626058E+04 -0.28901209548E+03 -0.61980312484E+04  0.65000000000E+04  0.15050000000E+03 0.  1.
     100001    1    1    2    0    0 -0.19308626058E+04  0.28901209548E+03  0.61980312484E+04  0.65000000000E+04  0.15050000000E+03 0. -1.
</event>
<event>
 4    1  0.4521369E-004  0.6500000E+04  0.7818608E-02  0.7223770E-01
         52   -1    0    0    0    0  0.00000000000E+00  0.00000000000E+00  0.64930732323E+04  0.65000000000E+04  0.30000000000E+03 0. -1.
        -52   -1    0    0    0    0 -0.00000000000E+00 -0.00000000000E+00 -0.64930732323E+04  0.65000000000E+04  0.30000000000E+03 0.  1.
     100001    1    1    2    0    0  0.61825273210E+03  0.16574991818E+03 -0.64666560349E+04  0.65000000000E+04  0.15050000000E+03 0.  1.
     100001    1    1    2    0    0 -0.61825273210E+03 -0.16574991818E+03  0.64666560349E+04  0.65000000000E+04  0.15050000000E+03 0. -1.
</event>
<event>
 4    1  0.4521369E-004  0.6500000E+04  0.7818608E-02  0.7223770E-01
         52   -1    0    0    0    0  0.00000000000E+00  0.00000000000E+00  0.64930732323E+04  0.65000000000E+04  0.30000000000E+03 0. -1.
        -52   -1    0    0    0    0 -0.00000000000E+00 -0.00000000000E+00 -0.64930732323E+04  0.65000000000E+04  0.30000000000E+03 0.  1.
     100001    1    1    2    0    0  0.57159738010E+03 -0.83499873538E+03  0.64189877159E+04  0.65000000000E+04  0.15050000000E+03 0. -1.
     100001    1    1    2    0    0 -0.57159738010E+03  0.83499873538E+03 -0.64189877159E+04  0.65000000000E+04  0.15050000000E+03 0.  1.
</event>
<event>
 4    1  0.4521369E-004  0.6500000E+04  0.7818608E-02  0.7223770E-01
         52   -1    0    0    0    0  0.00000000000E+00  0.00000000000E+00  0.64930732323E+04  0.65000000000E+04  0.30000000000E+03 0. -1.
        -52   -1    0    0    0    0 -0.00000000000E+00 -0.00000000000E+00 -0.64930732323E+04  0.65000000000E+04  0.30000000000E+03 0.  1.
     100001    1    1    2    0    0 -0.38437819070E+04  0.51990223257E+04  0.65027475609E+03  0.65000000000E+04  0.15050000000E+03 0. -1.
     100001    1    1    2    0    0  0.38437819070E+04 -0.51990223257E+04 -0.65027475609E+03  0.65000000000E+04  0.15050000000E+03 0.  1.
</event>
<event>
 4    1  0.4521369E-004  0.6500000E+04  0.7818608E-02  0.7223770E-01
         52   -1    0    0    0    0  0.00000000000E+00  0.00000000000E+00  0.64930732323E+04  0.65000000000E+04  0.30000000000E+03 0.  1.
        -52   -1    0    0    0    0 -0.00000000000E+00 -0.00000000000E+00 -0.64930732323E+04  0.65000000000E+04  0.30000000000E+03 0.  1.
     100001    1    1    2    0    0  0.48480526630E+03  0.64865168027E+03  0.64476014611E+04  0.65000000000E+04  0.15050000000E+03 0.  1.
     100001    1    1    2    0    0 -0.48480526630E+03 -0.64865168027E+03 -0.64476014611E+04  0.65000000000E+04  0.15050000000E+03 0.  1.
</event>
<event>
 4    1  0.4521369E-004  0.6500000E+04  0.7818608E-02  0.7223770E-01
         52   -1    0    0    0    0  0.00000000000E+00  0.00000000000E+00  0.64930732323E+04  0.65000000000E+04  0.30000000000E+03 0. -1.
        -52   -1    0    0    0    0 -0.00000000000E+00 -0.00000000000E+00 -0.64930732323E+04  0.65000000000E+04  0.30000000000E+03 0.  1.
     100001    1    1    2    0    0  0.32948339746E+04 -0.12556722849E+04  0.54584527059E+04  0.65000000000E+04  0.15050000000E+03 0. -1.
     100001    1    1    2    0    0 -0.32948339746E+04  0.12556722849E+04 -0.54584527059E+04  0.65000000000E+04  0.15050000000E+03 0.  1.
</event>
<event>
 4    1  0.6561488E-004  0.6500000E+04  0.7818608E-02  0.7223770E-01
         52   -1    0    0    0    0  0.00000000000E+00  0.00000000000E+00  0.64930732323E+04  0.65000000000E+04  0.30000000000E+03 0.  1.
        -52   -1    0    0    0    0 -0.00000000000E+00 -0.00000000000E+00 -0.64930732323E+04  0.65000000000E+04  0.30000000000E+03 0.  1.
     100001    1    1    2    0    0  0.45001571046E+02  0.15598427485E+03 -0.64962291766E+04  0.65000000000E+04  0.15050000000E+03 0.  1.
     100001    1    1    2    0    0 -0.45001571046E+02 -0.15598427485E+03  0.64962291766E+04  0.65000000000E+04  0.15050000000E+03 0.  1.
</event>
<event>
 4    1  0.4521369E-004  0.6500000E+04  0.7818608E-02  0.7223770E-01
         52   -1    0    0    0    0  0.00000000000E+00  0.00000000000E+00  0.64930732323E+04  0.65000000000E+04  0.30000000000E+03 0.  1.
        -52   -1    0    0    0    0 -0.00000000000E+00 -0.00000000000E+00 -0.64930732323E+04  0.65000000000E+04  0.30000000000E+03 0. -1.
     100001    1    1    2    0    0  0.51251348517E+03  0.11216528071E+04  0.63801704255E+04  0.65000000000E+04  0.15050000000E+03 0.  1.
     100001    1    1    2    0    0 -0.51251348517E+03 -0.11216528071E+04 -0.63801704255E+04  0.65000000000E+04  0.15050000000E+03 0. -1.
</event>
<event>
 4    1  0.4521369E-004  0.6500000E+04  0.7818608E-02  0.7223770E-01
         52   -1    0    0    0    0  0.00000000000E+00  0.00000000000E+00  0.64930732323E+04  0.65000000000E+04  0.30000000000E+03 0. -1.
        -52   -1    0    0    0    0 -0.00000000000E+00 -0.00000000000E+00 -0.64930732323E+04  0.65000000000E+04  0.30000000000E+03 0.  1.
     100001    1    1    2    0    0  0.36242283965E+03  0.19944687167E+04 -0.61739852586E+04  0.65000000000E+04  0.15050000000E+03 0.  1.
     100001    1    1    2    0    0 -0.36242283965E+03 -0.19944687167E+04  0.61739852586E+04  0.65000000000E+04  0.15050000000E+03 0. -1.
</event>
<event>
 4    1  0.4521369E-004  0.6500000E+04  0.7818608E-02  0.7223770E-01
         52   -1    0    0    0    0  0.00000000000E+00  0.00000000000E+00  0.64930732323E+04  0.65000000000E+04  0.30000000000E+03 0.  1.
        -52   -1    0    0    0    0 -0.00000000000E+00 -0.00000000000E+00 -0.64930732323E+04  0.65000000000E+04  0.30000000000E+03 0. -1.
     100001    1    1    2    0    0  0.40770139804E+04  0.41726144714E+04  0.28626203427E+04  0.65000000000E+04  0.15050000000E+03 0.  1.
     100001    1    1    2    0    0 -0.40770139804E+04 -0.41726144714E+04 -0.28626203427E+04  0.65000000000E+04  0.15050000000E+03 0. -1.
</event>
<event>
 4    1  0.4521369E-004  0.6500000E+04  0.7818608E-02  0.7223770E-01
         52   -1    0    0    0    0  0.00000000000E+00  0.00000000000E+00  0.64930732323E+04  0.65000000000E+04  0.30000000000E+03 0.  1.
        -52   -1    0    0    0    0 -0.00000000000E+00 -0.00000000000E+00 -0.64930732323E+04  0.65000000000E+04  0.30000000000E+03 0. -1.
     100001    1    1    2    0    0  0.34881701743E+03 -0.26849414439E+04  0.59073484645E+04  0.65000000000E+04  0.15050000000E+03 0.  1.
     100001    1    1    2    0    0 -0.34881701743E+03  0.26849414439E+04 -0.59073484645E+04  0.65000000000E+04  0.15050000000E+03 0. -1.
</event>
<event>
 4    1  0.4521369E-004  0.6500000E+04  0.7818608E-02  0.7223770E-01
         52   -1    0    0    0    0  0.00000000000E+00  0.00000000000E+00  0.64930732323E+04  0.65000000000E+04  0.30000000000E+03 0. -1.
        -52   -1    0    0    0    0 -0.00000000000E+00 -0.00000000000E+00 -0.64930732323E+04  0.65000000000E+04  0.30000000000E+03 0.  1.
     100001    1    1    2    0    0 -0.60688322599E+03  0.69858781513E+02  0.64694792874E+04  0.65000000000E+04  0.15050000000E+03 0. -1.
     100001    1    1    2    0    0  0.60688322599E+03 -0.69858781513E+02 -0.64694792874E+04  0.65000000000E+04  0.15050000000E+03 0.  1.
</event>
<event>
 4    1  0.4521369E-004  0.6500000E+04  0.7818608E-02  0.7223770E-01
         52   -1    0    0    0    0  0.00000000000E+00  0.00000000000E+00  0.64930732323E+04  0.65000000000E+04  0.30000000000E+03 0. -1.
        -52   -1    0    0    0    0 -0.00000000000E+00 -0.00000000000E+00 -0.64930732323E+04  0.65000000000E+04  0.30000000000E+03 0.  1.
     100001    1    1    2    0    0  0.59304747572E+04  0.14232290999E+04  0.22430420935E+04  0.65000000000E+04  0.15050000000E+03 0. -1.
     100001    1    1    2    0    0 -0.59304747572E+04 -0.14232290999E+04 -0.22430420935E+04  0.65000000000E+04  0.15050000000E+03 0.  1.
</event>
<event>
 4    1  0.4521369E-004  0.6500000E+04  0.7818608E-02  0.7223770E-01
         52   -1    0    0    0    0  0.00000000000E+00  0.00000000000E+00  0.64930732323E+04  0.65000000000E+04  0.30000000000E+03 0. -1.
        -52   -1    0    0    0    0 -0.00000000000E+00 -0.00000000000E+00 -0.64930732323E+04  0.65000000000E+04  0.30000000000E+03 0.  1.
     100001    1    1    2    0    0 -0.75354232903E+02  0.14978084069E+04 -0.63228349232E+04  0.65000000000E+04  0.15050000000E+03 0.  1.
     100001    1    1    2    0    0  0.75354232903E+02 -0.14978084069E+04  0.63228349232E+04  0.65000000000E+04  0.15050000000E+03 0. -1.
</event>
<event>
 4    1  0.4521369E-004  0.6500000E+04  0.7818608E-02  0.7223770E-01
         52   -1    0    0    0    0  0.00000000000E+00  0.00000000000E+00  0.64930732323E+04  0.65000000000E+04  0.30000000000E+03 0. -1.
        -52   -1    0    0    0    0 -0.00000000000E+00 -0.00000000000E+00 -0.64930732323E+04  0.65000000000E+04  0.30000000000E+03 0. -1.
     100001    1    1    2    0    0  0.75202475474E+02  0.28990844305E+03  0.64913517415E+04  0.65000000000E+04  0.15050000000E+03 0. -1.
     100001    1    1    2    0    0 -0.75202475474E+02 -0.28990844305E+03 -0.64913517415E+04  0.65000000000E+04  0.15050000000E+03 0. -1.
</event>
<event>
 4    1  0.4521369E-004  0.6500000E+04  0.7818608E-02  0.7223770E-01
         52   -1    0    0    0    0  0.00000000000E+00  0.00000000000E+00  0.64930732323E+04  0.65000000000E+04  0.30000000000E+03 0.  1.
        -52   -1    0    0    0    0 -0.00000000000E+00 -0.00000000000E+00 -0.64930732323E+04  0.65000000000E+04  0.30000000000E+03 0. -1.
     100001    1    1    2    0    0  0.10193679056E+04 -0.10886196234E+03  0.64168830359E+04  0.65000000000E+04  0.15050000000E+03 0.  1.
     100001    1    1    2    0    0 -0.10193679056E+04  0.10886196234E+03 -0.64168830359E+04  0.65000000000E+04  0.15050000000E+03 0. -1.
</event>
<event>
 4    1  0.4521369E-004  0.6500000E+04  0.7818608E-02  0.7223770E-01
         52   -1    0    0    0    0  0.00000000000E+00  0.00000000000E+00  0.64930732323E+04  0.65000000000E+04  0.30000000000E+03 0.  1.
        -52   -1    0    0    0    0 -0.00000000000E+00 -0.00000000000E+00 -0.64930732323E+04  0.65000000000E+04  0.30000000000E+03 0.  1.
     100001    1    1    2    0    0  0.36442118832E+03 -0.43263444315E+03 -0.64735905328E+04  0.65000000000E+04  0.15050000000E+03 0.  1.
     100001    1    1    2    0    0 -0.36442118832E+03  0.43263444315E+03  0.64735905328E+04  0.65000000000E+04  0.15050000000E+03 0.  1.
</event>
<event>
 4    1  0.4521369E-004  0.6500000E+04  0.7818608E-02  0.7223770E-01
         52   -1    0    0    0    0  0.00000000000E+00  0.00000000000E+00  0.64930732323E+04  0.65000000000E+04  0.30000000000E+03 0.  1.
        -52   -1    0    0    0    0 -0.00000000000E+00 -0.00000000000E+00 -0.64930732323E+04  0.65000000000E+04  0.30000000000E+03 0.  1.
     100001    1    1    2    0    0 -0.60890690557E+03  0.46781328856E+03  0.64527306512E+04  0.65000000000E+04  0.15050000000E+03 0.  1.
     100001    1    1    2    0    0  0.60890690557E+03 -0.46781328856E+03 -0.64527306512E+04  0.65000000000E+04  0.15050000000E+03 0.  1.
</event>
<event>
 4    1  0.4521369E-004  0.6500000E+04  0.7818608E-02  0.7223770E-01
         52   -1    0    0    0    0  0.00000000000E+00  0.00000000000E+00  0.64930732323E+04  0.65000000000E+04  0.30000000000E+03 0. -1.
        -52   -1    0    0    0    0 -0.00000000000E+00 -0.00000000000E+00 -0.64930732323E+04  0.65000000000E+04  0.30000000000E+03 0.  1.
     100001    1    1    2    0    0  0.37686375210E+02 -0.12014645116E+04  0.63861109068E+04  0.65000000000E+04  0.15050000000E+03 0. -1.
     100001    1    1    2    0    0 -0.37686375210E+02  0.12014645116E+04 -0.63861109068E+04  0.65000000000E+04  0.15050000000E+03 0.  1.
</event>
<event>
 4    1  0.4521369E-004  0.6500000E+04  0.7818608E-02  0.7223770E-01
         52   -1    0    0    0    0  0.00000000000E+00  0.00000000000E+00  0.64930732323E+04  0.65000000000E+04  0.30000000000E+03 0.  1.
        -52   -1    0    0    0    0 -0.00000000000E+00 -0.00000000000E+00 -0.64930732323E+04  0.65000000000E+04  0.30000000000E+03 0. -1.
     100001    1    1    2    0    0  0.23400682478E+03  0.20116422016E+03  0.64909262446E+04  0.65000000000E+04  0.15050000000E+03 0.  1.
     100001    1    1    2    0    0 -0.23400682478E+03 -0.20116422016E+03 -0.64909262446E+04  0.65000000000E+04  0.15050000000E+03 0. -1.
</event>
<event>
 4    1  0.4521369E-004  0.6500000E+04  0.7818608E-02  0.7223770E-01
         52   -1    0    0    0    0  0.00000000000E+00  0.00000000000E+00  0.64930732323E+04  0.65000000000E+04  0.30000000000E+03 0.  1.
        -52   -1    0    0    0    0 -0.00000000000E+00 -0.00000000000E+00 -0.64930732323E+04  0.65000000000E+04  0.30000000000E+03 0. -1.
     100001    1    1    2    0    0 -0.69173068042E+03 -0.40078904209E+03  0.64488934368E+04  0.65000000000E+04  0.15050000000E+03 0.  1.
     100001    1    1    2    0    0  0.69173068042E+03  0.40078904209E+03 -0.64488934368E+04  0.65000000000E+04  0.15050000000E+03 0. -1.
</event>
<event>
 4    1  0.4521369E-004  0.6500000E+04  0.7818608E-02  0.7223770E-01
         52   -1    0    0    0    0  0.00000000000E+00  0.00000000000E+00  0.64930732323E+04  0.65000000000E+04  0.30000000000E+03 0. -1.
        -52   -1    0    0    0    0 -0.00000000000E+00 -0.00000000000E+00 -0.64930732323E+04  0.65000000000E+04  0.30000000000E+03 0.  1.
     100001    1    1    2    0    0 -0.73361697218E+03  0.73714991065E+02  0.64562932080E+04  0.65000000000E+04  0.15050000000E+03 0. -1.
     100001    1    1    2    0    0  0.73361697218E+03 -0.73714991065E+02 -0.64562932080E+04  0.65000000000E+04  0.15050000000E+03 0.  1.
</event>
<event>
 4    1  0.4521369E-004  0.6500000E+04  0.7818608E-02  0.7223770E-01
         52   -1    0    0    0    0  0.00000000000E+00  0.00000000000E+00  0.64930732323E+04  0.65000000000E+04  0.30000000000E+03 0.  1.
        -52   -1    0    0    0    0 -0.00000000000E+00 -0.00000000000E+00 -0.64930732323E+04  0.65000000000E+04  0.30000000000E+03 0. -1.
     100001    1    1    2    0    0  0.11124560568E+04  0.33867918548E+03  0.63933627835E+04  0.65000000000E+04  0.15050000000E+03 0.  1.
     100001    1    1    2    0    0 -0.11124560568E+04 -0.33867918548E+03 -0.63933627835E+04  0.65000000000E+04  0.15050000000E+03 0. -1.
</event>
<event>
 4    1  0.4521369E-004  0.6500000E+04  0.7818608E-02  0.7223770E-01
         52   -1    0    0    0    0  0.00000000000E+00  0.00000000000E+00  0.64930732323E+04  0.65000000000E+04  0.30000000000E+03 0. -1.
        -52   -1    0    0    0    0 -0.00000000000E+00 -0.00000000000E+00 -0.64930732323E+04  0.65000000000E+04  0.30000000000E+03 0.  1.
     100001    1    1    2    0    0 -0.44328357808E+04  0.12791243773E+04  0.45761509501E+04  0.65000000000E+04  0.15050000000E+03 0. -1.
     100001    1    1    2    0    0  0.44328357808E+04 -0.12791243773E+04 -0.45761509501E+04  0.65000000000E+04  0.15050000000E+03 0.  1.
</event>
<event>
 4    1  0.4521369E-004  0.6500000E+04  0.7818608E-02  0.7223770E-01
         52   -1    0    0    0    0  0.00000000000E+00  0.00000000000E+00  0.64930732323E+04  0.65000000000E+04  0.30000000000E+03 0.  1.
        -52   -1    0    0    0    0 -0.00000000000E+00 -0.00000000000E+00 -0.64930732323E+04  0.65000000000E+04  0.30000000000E+03 0. -1.
     100001    1    1    2    0    0 -0.11061929608E+04 -0.61672874799E+03 -0.63736435839E+04  0.65000000000E+04  0.15050000000E+03 0. -1.
     100001    1    1    2    0    0  0.11061929608E+04  0.61672874799E+03  0.63736435839E+04  0.65000000000E+04  0.15050000000E+03 0.  1.
</event>
<event>
 4    1  0.4521369E-004  0.6500000E+04  0.7818608E-02  0.7223770E-01
         52   -1    0    0    0    0  0.00000000000E+00  0.00000000000E+00  0.64930732323E+04  0.65000000000E+04  0.30000000000E+03 0. -1.
        -52   -1    0    0    0    0 -0.00000000000E+00 -0.00000000000E+00 -0.64930732323E+04  0.65000000000E+04  0.30000000000E+03 0.  1.
     100001    1    1    2    0    0  0.57042526648E+03 -0.12476180150E+04 -0.63518040000E+04  0.65000000000E+04  0.15050000000E+03 0.  1.
     100001    1    1    2    0    0 -0.57042526648E+03  0.12476180150E+04  0.63518040000E+04  0.65000000000E+04  0.15050000000E+03 0. -1.
</event>
<event>
 4    1  0.4521369E-004  0.6500000E+04  0.7818608E-02  0.7223770E-01
         52   -1    0    0    0    0  0.00000000000E+00  0.00000000000E+00  0.64930732323E+04  0.65000000000E+04  0.30000000000E+03 0. -1.
        -52   -1    0    0    0    0 -0.00000000000E+00 -0.00000000000E+00 -0.64930732323E+04  0.65000000000E+04  0.30000000000E+03 0.  1.
     100001    1    1    2    0    0 -0.42579558090E+03  0.87359996256E+03  0.64251747820E+04  0.65000000000E+04  0.15050000000E+03 0. -1.
     100001    1    1    2    0    0  0.42579558090E+03 -0.87359996256E+03 -0.64251747820E+04  0.65000000000E+04  0.15050000000E+03 0.  1.
</event>
<event>
 4    1  0.4521369E-004  0.6500000E+04  0.7818608E-02  0.7223770E-01
         52   -1    0    0    0    0  0.00000000000E+00  0.00000000000E+00  0.64930732323E+04  0.65000000000E+04  0.30000000000E+03 0.  1.
        -52   -1    0    0    0    0 -0.00000000000E+00 -0.00000000000E+00 -0.64930732323E+04  0.65000000000E+04  0.30000000000E+03 0. -1.
     100001    1    1    2    0    0 -0.11165561252E+03  0.36829021284E+04 -0.53526736018E+04  0.65000000000E+04  0.15050000000E+03 0. -1.
     100001    1    1    2    0    0  0.11165561252E+03 -0.36829021284E+04  0.53526736018E+04  0.65000000000E+04  0.15050000000E+03 0.  1.
</event>
<event>
 4    1  0.4521369E-004  0.6500000E+04  0.7818608E-02  0.7223770E-01
         52   -1    0    0    0    0  0.00000000000E+00  0.00000000000E+00  0.64930732323E+04  0.65000000000E+04  0.30000000000E+03 0.  1.
        -52   -1    0    0    0    0 -0.00000000000E+00 -0.00000000000E+00 -0.64930732323E+04  0.65000000000E+04  0.30000000000E+03 0. -1.
     100001    1    1    2    0    0 -0.75157921247E+03 -0.13697140455E+04 -0.63076431312E+04  0.65000000000E+04  0.15050000000E+03 0. -1.
     100001    1    1    2    0    0  0.75157921247E+03  0.13697140455E+04  0.63076431312E+04  0.65000000000E+04  0.15050000000E+03 0.  1.
</event>
<event>
 4    1  0.4521369E-004  0.6500000E+04  0.7818608E-02  0.7223770E-01
         52   -1    0    0    0    0  0.00000000000E+00  0.00000000000E+00  0.64930732323E+04  0.65000000000E+04  0.30000000000E+03 0.  1.
        -52   -1    0    0    0    0 -0.00000000000E+00 -0.00000000000E+00 -0.64930732323E+04  0.65000000000E+04  0.30000000000E+03 0. -1.
     100001    1    1    2    0    0 -0.13077017356E+03 -0.82053868438E+03  0.64449177791E+04  0.65000000000E+04  0.15050000000E+03 0.  1.
     100001    1    1    2    0    0  0.13077017356E+03  0.82053868438E+03 -0.64449177791E+04  0.65000000000E+04  0.15050000000E+03 0. -1.
</event>
<event>
 4    1  0.4521369E-004  0.6500000E+04  0.7818608E-02  0.7223770E-01
         52   -1    0    0    0    0  0.00000000000E+00  0.00000000000E+00  0.64930732323E+04  0.65000000000E+04  0.30000000000E+03 0.  1.
        -52   -1    0    0    0    0 -0.00000000000E+00 -0.00000000000E+00 -0.64930732323E+04  0.65000000000E+04  0.30000000000E+03 0. -1.
     100001    1    1    2    0    0 -0.10754323306E+03 -0.33258455703E+03  0.64888497991E+04  0.65000000000E+04  0.15050000000E+03 0.  1.
     100001    1    1    2    0    0  0.10754323306E+03  0.33258455703E+03 -0.64888497991E+04  0.65000000000E+04  0.15050000000E+03 0. -1.
</event>
<event>
 4    1  0.4521369E-004  0.6500000E+04  0.7818608E-02  0.7223770E-01
         52   -1    0    0    0    0  0.00000000000E+00  0.00000000000E+00  0.64930732323E+04  0.65000000000E+04  0.30000000000E+03 0. -1.
        -52   -1    0    0    0    0 -0.00000000000E+00 -0.00000000000E+00 -0.64930732323E+04  0.65000000000E+04  0.30000000000E+03 0.  1.
     100001    1    1    2    0    0  0.61965828745E+04 -0.71788070535E+03  0.18205377564E+04  0.65000000000E+04  0.15050000000E+03 0. -1.
     100001    1    1    2    0    0 -0.61965828745E+04  0.71788070535E+03 -0.18205377564E+04  0.65000000000E+04  0.15050000000E+03 0.  1.
</event>
<event>
 4    1  0.4521369E-004  0.6500000E+04  0.7818608E-02  0.7223770E-01
         52   -1    0    0    0    0  0.00000000000E+00  0.00000000000E+00  0.64930732323E+04  0.65000000000E+04  0.30000000000E+03 0. -1.
        -52   -1    0    0    0    0 -0.00000000000E+00 -0.00000000000E+00 -0.64930732323E+04  0.65000000000E+04  0.30000000000E+03 0.  1.
     100001    1    1    2    0    0  0.17792033174E+04 -0.18318513564E+04 -0.59754586362E+04  0.65000000000E+04  0.15050000000E+03 0.  1.
     100001    1    1    2    0    0 -0.17792033174E+04  0.18318513564E+04  0.59754586362E+04  0.65000000000E+04  0.15050000000E+03 0. -1.
</event>
<event>
 4    1  0.4521369E-004  0.6500000E+04  0.7818608E-02  0.7223770E-01
         52   -1    0    0    0    0  0.00000000000E+00  0.00000000000E+00  0.64930732323E+04  0.65000000000E+04  0.30000000000E+03 0.  1.
        -52   -1    0    0    0    0 -0.00000000000E+00 -0.00000000000E+00 -0.64930732323E+04  0.65000000000E+04  0.30000000000E+03 0. -1.
     100001    1    1    2    0    0 -0.15618443059E+04  0.16064714091E+03  0.63057263349E+04  0.65000000000E+04  0.15050000000E+03 0.  1.
     100001    1    1    2    0    0  0.15618443059E+04 -0.16064714091E+03 -0.63057263349E+04  0.65000000000E+04  0.15050000000E+03 0. -1.
</event>
<event>
 4    1  0.4521369E-004  0.6500000E+04  0.7818608E-02  0.7223770E-01
         52   -1    0    0    0    0  0.00000000000E+00  0.00000000000E+00  0.64930732323E+04  0.65000000000E+04  0.30000000000E+03 0.  1.
        -52   -1    0    0    0    0 -0.00000000000E+00 -0.00000000000E+00 -0.64930732323E+04  0.65000000000E+04  0.30000000000E+03 0. -1.
     100001    1    1    2    0    0  0.16109602312E+04 -0.40385228488E+04 -0.48293364020E+04  0.65000000000E+04  0.15050000000E+03 0. -1.
     100001    1    1    2    0    0 -0.16109602312E+04  0.40385228488E+04  0.48293364020E+04  0.65000000000E+04  0.15050000000E+03 0.  1.
</event>
<event>
 4    1  0.4521369E-004  0.6500000E+04  0.7818608E-02  0.7223770E-01
         52   -1    0    0    0    0  0.00000000000E+00  0.00000000000E+00  0.64930732323E+04  0.65000000000E+04  0.30000000000E+03 0.  1.
        -52   -1    0    0    0    0 -0.00000000000E+00 -0.00000000000E+00 -0.64930732323E+04  0.65000000000E+04  0.30000000000E+03 0. -1.
     100001    1    1    2    0    0  0.36685208709E+03  0.15190718722E+03  0.64861154401E+04  0.65000000000E+04  0.15050000000E+03 0.  1.
     100001    1    1    2    0    0 -0.36685208709E+03 -0.15190718722E+03 -0.64861154401E+04  0.65000000000E+04  0.15050000000E+03 0. -1.
</event>
<event>
 4    1  0.4521369E-004  0.6500000E+04  0.7818608E-02  0.7223770E-01
         52   -1    0    0    0    0  0.00000000000E+00  0.00000000000E+00  0.64930732323E+04  0.65000000000E+04  0.30000000000E+03 0. -1.
        -52   -1    0    0    0    0 -0.00000000000E+00 -0.00000000000E+00 -0.64930732323E+04  0.65000000000E+04  0.30000000000E+03 0.  1.
     100001    1    1    2    0    0  0.28173337289E+04 -0.50223203509E+04 -0.30110261877E+04  0.65000000000E+04  0.15050000000E+03 0.  1.
     100001    1    1    2    0    0 -0.28173337289E+04  0.50223203509E+04  0.30110261877E+04  0.65000000000E+04  0.15050000000E+03 0. -1.
</event>
<event>
 4    1  0.6601693E-004  0.6500000E+04  0.7818608E-02  0.7223770E-01
         52   -1    0    0    0    0  0.00000000000E+00  0.00000000000E+00  0.64930732323E+04  0.65000000000E+04  0.30000000000E+03 0. -1.
        -52   -1    0    0    0    0 -0.00000000000E+00 -0.00000000000E+00 -0.64930732323E+04  0.65000000000E+04  0.30000000000E+03 0.  1.
     100001    1    1    2    0    0 -0.11755014662E+03  0.10392391531E+03 -0.64963629465E+04  0.65000000000E+04  0.15050000000E+03 0.  1.
     100001    1    1    2    0    0  0.11755014662E+03 -0.10392391531E+03  0.64963629465E+04  0.65000000000E+04  0.15050000000E+03 0. -1.
</event>
<event>
 4    1  0.4521369E-004  0.6500000E+04  0.7818608E-02  0.7223770E-01
         52   -1    0    0    0    0  0.00000000000E+00  0.00000000000E+00  0.64930732323E+04  0.65000000000E+04  0.30000000000E+03 0. -1.
        -52   -1    0    0    0    0 -0.00000000000E+00 -0.00000000000E+00 -0.64930732323E+04  0.65000000000E+04  0.30000000000E+03 0. -1.
     100001    1    1    2    0    0  0.35942382744E+03  0.18552267248E+03  0.64856569135E+04  0.65000000000E+04  0.15050000000E+03 0. -1.
     100001    1    1    2    0    0 -0.35942382744E+03 -0.18552267248E+03 -0.64856569135E+04  0.65000000000E+04  0.15050000000E+03 0. -1.
</event>
<event>
 4    1  0.4521369E-004  0.6500000E+04  0.7818608E-02  0.7223770E-01
         52   -1    0    0    0    0  0.00000000000E+00  0.00000000000E+00  0.64930732323E+04  0.65000000000E+04  0.30000000000E+03 0. -1.
        -52   -1    0    0    0    0 -0.00000000000E+00 -0.00000000000E+00 -0.64930732323E+04  0.65000000000E+04  0.30000000000E+03 0. -1.
     100001    1    1    2    0    0 -0.10861748405E+03 -0.12977496206E+03  0.64960534520E+04  0.65000000000E+04  0.15050000000E+03 0. -1.
     100001    1    1    2    0    0  0.10861748405E+03  0.12977496206E+03 -0.64960534520E+04  0.65000000000E+04  0.15050000000E+03 0. -1.
</event>
<event>
 4    1  0.4521369E-004  0.6500000E+04  0.7818608E-02  0.7223770E-01
         52   -1    0    0    0    0  0.00000000000E+00  0.00000000000E+00  0.64930732323E+04  0.65000000000E+04  0.30000000000E+03 0.  1.
        -52   -1    0    0    0    0 -0.00000000000E+00 -0.00000000000E+00 -0.64930732323E+04  0.65000000000E+04  0.30000000000E+03 0. -1.
     100001    1    1    2    0    0 -0.38679444834E+04 -0.22714792371E+04  0.47017802266E+04  0.65000000000E+04  0.15050000000E+03 0.  1.
     100001    1    1    2    0    0  0.38679444834E+04  0.22714792371E+04 -0.47017802266E+04  0.65000000000E+04  0.15050000000E+03 0. -1.
</event>
<event>
 4    1  0.4521369E-004  0.6500000E+04  0.7818608E-02  0.7223770E-01
         52   -1    0    0    0    0  0.00000000000E+00  0.00000000000E+00  0.64930732323E+04  0.65000000000E+04  0.30000000000E+03 0.  1.
        -52   -1    0    0    0    0 -0.00000000000E+00 -0.00000000000E+00 -0.64930732323E+04  0.65000000000E+04  0.30000000000E+03 0. -1.
     100001    1    1    2    0    0  0.11486306221E+04 -0.16994923888E+03 -0.63936777132E+04  0.65000000000E+04  0.15050000000E+03 0. -1.
     100001    1    1    2    0    0 -0.11486306221E+04  0.16994923888E+03  0.63936777132E+04  0.65000000000E+04  0.15050000000E+03 0.  1.
</event>
<event>
 4    1  0.4521369E-004  0.6500000E+04  0.7818608E-02  0.7223770E-01
         52   -1    0    0    0    0  0.00000000000E+00  0.00000000000E+00  0.64930732323E+04  0.65000000000E+04  0.30000000000E+03 0. -1.
        -52   -1    0    0    0    0 -0.00000000000E+00 -0.00000000000E+00 -0.64930732323E+04  0.65000000000E+04  0.30000000000E+03 0.  1.
     100001    1    1    2    0    0  0.31648737467E+04  0.32545289327E+03 -0.56661278076E+04  0.65000000000E+04  0.15050000000E+03 0.  1.
     100001    1    1    2    0    0 -0.31648737467E+04 -0.32545289327E+03  0.56661278076E+04  0.65000000000E+04  0.15050000000E+03 0. -1.
</event>
<event>
 4    1  0.4521369E-004  0.6500000E+04  0.7818608E-02  0.7223770E-01
         52   -1    0    0    0    0  0.00000000000E+00  0.00000000000E+00  0.64930732323E+04  0.65000000000E+04  0.30000000000E+03 0. -1.
        -52   -1    0    0    0    0 -0.00000000000E+00 -0.00000000000E+00 -0.64930732323E+04  0.65000000000E+04  0.30000000000E+03 0.  1.
     100001    1    1    2    0    0 -0.84121780343E+03 -0.75328410544E+03  0.63993957069E+04  0.65000000000E+04  0.15050000000E+03 0. -1.
     100001    1    1    2    0    0  0.84121780343E+03  0.75328410544E+03 -0.63993957069E+04  0.65000000000E+04  0.15050000000E+03 0.  1.
</event>
<event>
 4    1  0.4521369E-004  0.6500000E+04  0.7818608E-02  0.7223770E-01
         52   -1    0    0    0    0  0.00000000000E+00  0.00000000000E+00  0.64930732323E+04  0.65000000000E+04  0.30000000000E+03 0.  1.
        -52   -1    0    0    0    0 -0.00000000000E+00 -0.00000000000E+00 -0.64930732323E+04  0.65000000000E+04  0.30000000000E+03 0. -1.
     100001    1    1    2    0    0  0.22681452218E+03  0.22604456426E+04  0.60882091307E+04  0.65000000000E+04  0.15050000000E+03 0.  1.
     100001    1    1    2    0    0 -0.22681452218E+03 -0.22604456426E+04 -0.60882091307E+04  0.65000000000E+04  0.15050000000E+03 0. -1.
</event>
<event>
 4    1  0.4521369E-004  0.6500000E+04  0.7818608E-02  0.7223770E-01
         52   -1    0    0    0    0  0.00000000000E+00  0.00000000000E+00  0.64930732323E+04  0.65000000000E+04  0.30000000000E+03 0. -1.
        -52   -1    0    0    0    0 -0.00000000000E+00 -0.00000000000E+00 -0.64930732323E+04  0.65000000000E+04  0.30000000000E+03 0.  1.
     100001    1    1    2    0    0 -0.34759519760E+04  0.29168195357E+04 -0.46515880521E+04  0.65000000000E+04  0.15050000000E+03 0.  1.
     100001    1    1    2    0    0  0.34759519760E+04 -0.29168195357E+04  0.46515880521E+04  0.65000000000E+04  0.15050000000E+03 0. -1.
</event>
<event>
 4    1  0.4521369E-004  0.6500000E+04  0.7818608E-02  0.7223770E-01
         52   -1    0    0    0    0  0.00000000000E+00  0.00000000000E+00  0.64930732323E+04  0.65000000000E+04  0.30000000000E+03 0.  1.
        -52   -1    0    0    0    0 -0.00000000000E+00 -0.00000000000E+00 -0.64930732323E+04  0.65000000000E+04  0.30000000000E+03 0. -1.
     100001    1    1    2    0    0  0.23272639105E+04 -0.59496430177E+03 -0.60379806161E+04  0.65000000000E+04  0.15050000000E+03 0. -1.
     100001    1    1    2    0    0 -0.23272639105E+04  0.59496430177E+03  0.60379806161E+04  0.65000000000E+04  0.15050000000E+03 0.  1.
</event>
<event>
 4    1  0.4521369E-004  0.6500000E+04  0.7818608E-02  0.7223770E-01
         52   -1    0    0    0    0  0.00000000000E+00  0.00000000000E+00  0.64930732323E+04  0.65000000000E+04  0.30000000000E+03 0.  1.
        -52   -1    0    0    0    0 -0.00000000000E+00 -0.00000000000E+00 -0.64930732323E+04  0.65000000000E+04  0.30000000000E+03 0. -1.
     100001    1    1    2    0    0  0.10739928455E+04 -0.10951062660E+03  0.64079557224E+04  0.65000000000E+04  0.15050000000E+03 0.  1.
     100001    1    1    2    0    0 -0.10739928455E+04  0.10951062660E+03 -0.64079557224E+04  0.65000000000E+04  0.15050000000E+03 0. -1.
</event>
<event>
 4    1  0.4521369E-004  0.6500000E+04  0.7818608E-02  0.7223770E-01
         52   -1    0    0    0    0  0.00000000000E+00  0.00000000000E+00  0.64930732323E+04  0.65000000000E+04  0.30000000000E+03 0.  1.
        -52   -1    0    0    0    0 -0.00000000000E+00 -0.00000000000E+00 -0.64930732323E+04  0.65000000000E+04  0.30000000000E+03 0. -1.
     100001    1    1    2    0    0 -0.57221797917E+03  0.18263460011E+04 -0.62100222720E+04  0.65000000000E+04  0.15050000000E+03 0. -1.
     100001    1    1    2    0    0  0.57221797917E+03 -0.18263460011E+04  0.62100222720E+04  0.65000000000E+04  0.15050000000E+03 0.  1.
</event>
<event>
 4    1  0.4521369E-004  0.6500000E+04  0.7818608E-02  0.7223770E-01
         52   -1    0    0    0    0  0.00000000000E+00  0.00000000000E+00  0.64930732323E+04  0.65000000000E+04  0.30000000000E+03 0.  1.
        -52   -1    0    0    0    0 -0.00000000000E+00 -0.00000000000E+00 -0.64930732323E+04  0.65000000000E+04  0.30000000000E+03 0. -1.
     100001    1    1    2    0    0 -0.49621126787E+03  0.15371052614E+04  0.62943174009E+04  0.65000000000E+04  0.15050000000E+03 0.  1.
     100001    1    1    2    0    0  0.49621126787E+03 -0.15371052614E+04 -0.62943174009E+04  0.65000000000E+04  0.15050000000E+03 0. -1.
</event>
<event>
 4    1  0.4521369E-004  0.6500000E+04  0.7818608E-02  0.7223770E-01
         52   -1    0    0    0    0  0.00000000000E+00  0.00000000000E+00  0.64930732323E+04  0.65000000000E+04  0.30000000000E+03 0.  1.
        -52   -1    0    0    0    0 -0.00000000000E+00 -0.00000000000E+00 -0.64930732323E+04  0.65000000000E+04  0.30000000000E+03 0. -1.
     100001    1    1    2    0    0  0.47278155361E+03 -0.18571681401E+03  0.64783745351E+04  0.65000000000E+04  0.15050000000E+03 0.  1.
     100001    1    1    2    0    0 -0.47278155361E+03  0.18571681401E+03 -0.64783745351E+04  0.65000000000E+04  0.15050000000E+03 0. -1.
</event>
<event>
 4    1  0.4521369E-004  0.6500000E+04  0.7818608E-02  0.7223770E-01
         52   -1    0    0    0    0  0.00000000000E+00  0.00000000000E+00  0.64930732323E+04  0.65000000000E+04  0.30000000000E+03 0.  1.
        -52   -1    0    0    0    0 -0.00000000000E+00 -0.00000000000E+00 -0.64930732323E+04  0.65000000000E+04  0.30000000000E+03 0. -1.
     100001    1    1    2    0    0 -0.73204084024E+03 -0.15993717216E+03 -0.64549117778E+04  0.65000000000E+04  0.15050000000E+03 0. -1.
     100001    1    1    2    0    0  0.73204084024E+03  0.15993717216E+03  0.64549117778E+04  0.65000000000E+04  0.15050000000E+03 0.  1.
</event>
<event>
 4    1  0.4521369E-004  0.6500000E+04  0.7818608E-02  0.7223770E-01
         52   -1    0    0    0    0  0.00000000000E+00  0.00000000000E+00  0.64930732323E+04  0.65000000000E+04  0.30000000000E+03 0. -1.
        -52   -1    0    0    0    0 -0.00000000000E+00 -0.00000000000E+00 -0.64930732323E+04  0.65000000000E+04  0.30000000000E+03 0.  1.
     100001    1    1    2    0    0  0.16795564655E+03 -0.41556591383E+03  0.64827807014E+04  0.65000000000E+04  0.15050000000E+03 0. -1.
     100001    1    1    2    0    0 -0.16795564655E+03  0.41556591383E+03 -0.64827807014E+04  0.65000000000E+04  0.15050000000E+03 0.  1.
</event>
<event>
 4    1  0.4521369E-004  0.6500000E+04  0.7818608E-02  0.7223770E-01
         52   -1    0    0    0    0  0.00000000000E+00  0.00000000000E+00  0.64930732323E+04  0.65000000000E+04  0.30000000000E+03 0. -1.
        -52   -1    0    0    0    0 -0.00000000000E+00 -0.00000000000E+00 -0.64930732323E+04  0.65000000000E+04  0.30000000000E+03 0.  1.
     100001    1    1    2    0    0  0.33346846135E+04  0.84169254296E+03  0.55135090407E+04  0.65000000000E+04  0.15050000000E+03 0. -1.
     100001    1    1    2    0    0 -0.33346846135E+04 -0.84169254296E+03 -0.55135090407E+04  0.65000000000E+04  0.15050000000E+03 0.  1.
</event>
<event>
 4    1  0.4521369E-004  0.6500000E+04  0.7818608E-02  0.7223770E-01
         52   -1    0    0    0    0  0.00000000000E+00  0.00000000000E+00  0.64930732323E+04  0.65000000000E+04  0.30000000000E+03 0. -1.
        -52   -1    0    0    0    0 -0.00000000000E+00 -0.00000000000E+00 -0.64930732323E+04  0.65000000000E+04  0.30000000000E+03 0.  1.
     100001    1    1    2    0    0 -0.35214007665E+03 -0.30960277052E+02  0.64886353402E+04  0.65000000000E+04  0.15050000000E+03 0. -1.
     100001    1    1    2    0    0  0.35214007665E+03  0.30960277052E+02 -0.64886353402E+04  0.65000000000E+04  0.15050000000E+03 0.  1.
</event>
<event>
 4    1  0.4521369E-004  0.6500000E+04  0.7818608E-02  0.7223770E-01
         52   -1    0    0    0    0  0.00000000000E+00  0.00000000000E+00  0.64930732323E+04  0.65000000000E+04  0.30000000000E+03 0. -1.
        -52   -1    0    0    0    0 -0.00000000000E+00 -0.00000000000E+00 -0.64930732323E+04  0.65000000000E+04  0.30000000000E+03 0.  1.
     100001    1    1    2    0    0 -0.11181965688E+04  0.12212931752E+03  0.64001617646E+04  0.65000000000E+04  0.15050000000E+03 0. -1.
     100001    1    1    2    0    0  0.11181965688E+04 -0.12212931752E+03 -0.64001617646E+04  0.65000000000E+04  0.15050000000E+03 0.  1.
</event>
<event>
 4    1  0.4521369E-004  0.6500000E+04  0.7818608E-02  0.7223770E-01
         52   -1    0    0    0    0  0.00000000000E+00  0.00000000000E+00  0.64930732323E+04  0.65000000000E+04  0.30000000000E+03 0. -1.
        -52   -1    0    0    0    0 -0.00000000000E+00 -0.00000000000E+00 -0.64930732323E+04  0.65000000000E+04  0.30000000000E+03 0.  1.
     100001    1    1    2    0    0  0.16996624742E+04  0.19291455474E+04  0.59679891656E+04  0.65000000000E+04  0.15050000000E+03 0. -1.
     100001    1    1    2    0    0 -0.16996624742E+04 -0.19291455474E+04 -0.59679891656E+04  0.65000000000E+04  0.15050000000E+03 0.  1.
</event>
<event>
 4    1  0.4521369E-004  0.6500000E+04  0.7818608E-02  0.7223770E-01
         52   -1    0    0    0    0  0.00000000000E+00  0.00000000000E+00  0.64930732323E+04  0.65000000000E+04  0.30000000000E+03 0.  1.
        -52   -1    0    0    0    0 -0.00000000000E+00 -0.00000000000E+00 -0.64930732323E+04  0.65000000000E+04  0.30000000000E+03 0. -1.
     100001    1    1    2    0    0 -0.84150058988E+03 -0.62296723334E+03  0.64133562456E+04  0.65000000000E+04  0.15050000000E+03 0.  1.
     100001    1    1    2    0    0  0.84150058988E+03  0.62296723334E+03 -0.64133562456E+04  0.65000000000E+04  0.15050000000E+03 0. -1.
</event>
<event>
 4    1  0.4521369E-004  0.6500000E+04  0.7818608E-02  0.7223770E-01
         52   -1    0    0    0    0  0.00000000000E+00  0.00000000000E+00  0.64930732323E+04  0.65000000000E+04  0.30000000000E+03 0. -1.
        -52   -1    0    0    0    0 -0.00000000000E+00 -0.00000000000E+00 -0.64930732323E+04  0.65000000000E+04  0.30000000000E+03 0.  1.
     100001    1    1    2    0    0  0.58293801083E+04 -0.10429831201E+04 -0.26754183811E+04  0.65000000000E+04  0.15050000000E+03 0.  1.
     100001    1    1    2    0    0 -0.58293801083E+04  0.10429831201E+04  0.26754183811E+04  0.65000000000E+04  0.15050000000E+03 0. -1.
</event>
<event>
 4    1  0.4521369E-004  0.6500000E+04  0.7818608E-02  0.7223770E-01
         52   -1    0    0    0    0  0.00000000000E+00  0.00000000000E+00  0.64930732323E+04  0.65000000000E+04  0.30000000000E+03 0.  1.
        -52   -1    0    0    0    0 -0.00000000000E+00 -0.00000000000E+00 -0.64930732323E+04  0.65000000000E+04  0.30000000000E+03 0. -1.
     100001    1    1    2    0    0  0.42825653959E+04  0.66994175840E+03 -0.48412974935E+04  0.65000000000E+04  0.15050000000E+03 0. -1.
     100001    1    1    2    0    0 -0.42825653959E+04 -0.66994175840E+03  0.48412974935E+04  0.65000000000E+04  0.15050000000E+03 0.  1.
</event>
<event>
 4    1  0.4521369E-004  0.6500000E+04  0.7818608E-02  0.7223770E-01
         52   -1    0    0    0    0  0.00000000000E+00  0.00000000000E+00  0.64930732323E+04  0.65000000000E+04  0.30000000000E+03 0.  1.
        -52   -1    0    0    0    0 -0.00000000000E+00 -0.00000000000E+00 -0.64930732323E+04  0.65000000000E+04  0.30000000000E+03 0. -1.
     100001    1    1    2    0    0 -0.37747639633E+04 -0.34826025707E+04  0.39812041025E+04  0.65000000000E+04  0.15050000000E+03 0.  1.
     100001    1    1    2    0    0  0.37747639633E+04  0.34826025707E+04 -0.39812041025E+04  0.65000000000E+04  0.15050000000E+03 0. -1.
</event>
<event>
 4    1  0.4521369E-004  0.6500000E+04  0.7818608E-02  0.7223770E-01
         52   -1    0    0    0    0  0.00000000000E+00  0.00000000000E+00  0.64930732323E+04  0.65000000000E+04  0.30000000000E+03 0.  1.
        -52   -1    0    0    0    0 -0.00000000000E+00 -0.00000000000E+00 -0.64930732323E+04  0.65000000000E+04  0.30000000000E+03 0. -1.
     100001    1    1    2    0    0  0.18889038139E+04  0.19033573485E+04 -0.59191741768E+04  0.65000000000E+04  0.15050000000E+03 0. -1.
     100001    1    1    2    0    0 -0.18889038139E+04 -0.19033573485E+04  0.59191741768E+04  0.65000000000E+04  0.15050000000E+03 0.  1.
</event>
<event>
 4    1  0.4521369E-004  0.6500000E+04  0.7818608E-02  0.7223770E-01
         52   -1    0    0    0    0  0.00000000000E+00  0.00000000000E+00  0.64930732323E+04  0.65000000000E+04  0.30000000000E+03 0. -1.
        -52   -1    0    0    0    0 -0.00000000000E+00 -0.00000000000E+00 -0.64930732323E+04  0.65000000000E+04  0.30000000000E+03 0.  1.
     100001    1    1    2    0    0  0.47178904834E+04  0.39899607572E+04  0.20122306757E+04  0.65000000000E+04  0.15050000000E+03 0. -1.
     100001    1    1    2    0    0 -0.47178904834E+04 -0.39899607572E+04 -0.20122306757E+04  0.65000000000E+04  0.15050000000E+03 0.  1.
</event>
<event>
 4    1  0.4521369E-004  0.6500000E+04  0.7818608E-02  0.7223770E-01
         52   -1    0    0    0    0  0.00000000000E+00  0.00000000000E+00  0.64930732323E+04  0.65000000000E+04  0.30000000000E+03 0.  1.
        -52   -1    0    0    0    0 -0.00000000000E+00 -0.00000000000E+00 -0.64930732323E+04  0.65000000000E+04  0.30000000000E+03 0. -1.
     100001    1    1    2    0    0  0.29666527139E+04  0.25856881573E+04 -0.51711254267E+04  0.65000000000E+04  0.15050000000E+03 0. -1.
     100001    1    1    2    0    0 -0.29666527139E+04 -0.25856881573E+04  0.51711254267E+04  0.65000000000E+04  0.15050000000E+03 0.  1.
</event>
<event>
 4    1  0.4521369E-004  0.6500000E+04  0.7818608E-02  0.7223770E-01
         52   -1    0    0    0    0  0.00000000000E+00  0.00000000000E+00  0.64930732323E+04  0.65000000000E+04  0.30000000000E+03 0.  1.
        -52   -1    0    0    0    0 -0.00000000000E+00 -0.00000000000E+00 -0.64930732323E+04  0.65000000000E+04  0.30000000000E+03 0. -1.
     100001    1    1    2    0    0 -0.10189459411E+04  0.15068573724E+04 -0.62384677428E+04  0.65000000000E+04  0.15050000000E+03 0. -1.
     100001    1    1    2    0    0  0.10189459411E+04 -0.15068573724E+04  0.62384677428E+04  0.65000000000E+04  0.15050000000E+03 0.  1.
</event>
<event>
 4    1  0.4521369E-004  0.6500000E+04  0.7818608E-02  0.7223770E-01
         52   -1    0    0    0    0  0.00000000000E+00  0.00000000000E+00  0.64930732323E+04  0.65000000000E+04  0.30000000000E+03 0. -1.
        -52   -1    0    0    0    0 -0.00000000000E+00 -0.00000000000E+00 -0.64930732323E+04  0.65000000000E+04  0.30000000000E+03 0.  1.
     100001    1    1    2    0    0  0.17903573443E+04 -0.20642301465E+04 -0.58958395697E+04  0.65000000000E+04  0.15050000000E+03 0.  1.
     100001    1    1    2    0    0 -0.17903573443E+04  0.20642301465E+04  0.58958395697E+04  0.65000000000E+04  0.15050000000E+03 0. -1.
</event>
<event>
 4    1  0.4521369E-004  0.6500000E+04  0.7818608E-02  0.7223770E-01
         52   -1    0    0    0    0  0.00000000000E+00  0.00000000000E+00  0.64930732323E+04  0.65000000000E+04  0.30000000000E+03 0. -1.
        -52   -1    0    0    0    0 -0.00000000000E+00 -0.00000000000E+00 -0.64930732323E+04  0.65000000000E+04  0.30000000000E+03 0.  1.
     100001    1    1    2    0    0  0.93930243472E+03  0.16661170598E+03 -0.64278535473E+04  0.65000000000E+04  0.15050000000E+03 0.  1.
     100001    1    1    2    0    0 -0.93930243472E+03 -0.16661170598E+03  0.64278535473E+04  0.65000000000E+04  0.15050000000E+03 0. -1.
</event>
<event>
 4    1  0.4521369E-004  0.6500000E+04  0.7818608E-02  0.7223770E-01
         52   -1    0    0    0    0  0.00000000000E+00  0.00000000000E+00  0.64930732323E+04  0.65000000000E+04  0.30000000000E+03 0. -1.
        -52   -1    0    0    0    0 -0.00000000000E+00 -0.00000000000E+00 -0.64930732323E+04  0.65000000000E+04  0.30000000000E+03 0.  1.
     100001    1    1    2    0    0 -0.40273902249E+03  0.52883528299E+02  0.64855496577E+04  0.65000000000E+04  0.15050000000E+03 0. -1.
     100001    1    1    2    0    0  0.40273902249E+03 -0.52883528299E+02 -0.64855496577E+04  0.65000000000E+04  0.15050000000E+03 0.  1.
</event>
<event>
 4    1  0.4521369E-004  0.6500000E+04  0.7818608E-02  0.7223770E-01
         52   -1    0    0    0    0  0.00000000000E+00  0.00000000000E+00  0.64930732323E+04  0.65000000000E+04  0.30000000000E+03 0.  1.
        -52   -1    0    0    0    0 -0.00000000000E+00 -0.00000000000E+00 -0.64930732323E+04  0.65000000000E+04  0.30000000000E+03 0. -1.
     100001    1    1    2    0    0 -0.84209307987E+03  0.77269377173E+03  0.63969659472E+04  0.65000000000E+04  0.15050000000E+03 0.  1.
     100001    1    1    2    0    0  0.84209307987E+03 -0.77269377173E+03 -0.63969659472E+04  0.65000000000E+04  0.15050000000E+03 0. -1.
</event>
<event>
 4    1  0.4521369E-004  0.6500000E+04  0.7818608E-02  0.7223770E-01
         52   -1    0    0    0    0  0.00000000000E+00  0.00000000000E+00  0.64930732323E+04  0.65000000000E+04  0.30000000000E+03 0.  1.
        -52   -1    0    0    0    0 -0.00000000000E+00 -0.00000000000E+00 -0.64930732323E+04  0.65000000000E+04  0.30000000000E+03 0. -1.
     100001    1    1    2    0    0  0.65878964551E+02 -0.12942095588E+04 -0.63677336102E+04  0.65000000000E+04  0.15050000000E+03 0. -1.
     100001    1    1    2    0    0 -0.65878964551E+02  0.12942095588E+04  0.63677336102E+04  0.65000000000E+04  0.15050000000E+03 0.  1.
</event>
<event>
 4    1  0.4521369E-004  0.6500000E+04  0.7818608E-02  0.7223770E-01
         52   -1    0    0    0    0  0.00000000000E+00  0.00000000000E+00  0.64930732323E+04  0.65000000000E+04  0.30000000000E+03 0.  1.
        -52   -1    0    0    0    0 -0.00000000000E+00 -0.00000000000E+00 -0.64930732323E+04  0.65000000000E+04  0.30000000000E+03 0. -1.
     100001    1    1    2    0    0  0.23069961709E+04  0.22484019545E+04  0.56435633308E+04  0.65000000000E+04  0.15050000000E+03 0.  1.
     100001    1    1    2    0    0 -0.23069961709E+04 -0.22484019545E+04 -0.56435633308E+04  0.65000000000E+04  0.15050000000E+03 0. -1.
</event>
<event>
 4    1  0.4521369E-004  0.6500000E+04  0.7818608E-02  0.7223770E-01
         52   -1    0    0    0    0  0.00000000000E+00  0.00000000000E+00  0.64930732323E+04  0.65000000000E+04  0.30000000000E+03 0.  1.
        -52   -1    0    0    0    0 -0.00000000000E+00 -0.00000000000E+00 -0.64930732323E+04  0.65000000000E+04  0.30000000000E+03 0. -1.
     100001    1    1    2    0    0 -0.26710379706E+04  0.52231279419E+04 -0.27949669787E+04  0.65000000000E+04  0.15050000000E+03 0. -1.
     100001    1    1    2    0    0  0.26710379706E+04 -0.52231279419E+04  0.27949669787E+04  0.65000000000E+04  0.15050000000E+03 0.  1.
</event>
<event>
 4    1  0.4521369E-004  0.6500000E+04  0.7818608E-02  0.7223770E-01
         52   -1    0    0    0    0  0.00000000000E+00  0.00000000000E+00  0.64930732323E+04  0.65000000000E+04  0.30000000000E+03 0. -1.
        -52   -1    0    0    0    0 -0.00000000000E+00 -0.00000000000E+00 -0.64930732323E+04  0.65000000000E+04  0.30000000000E+03 0.  1.
     100001    1    1    2    0    0  0.10572155427E+04 -0.26950147906E+03 -0.64060138931E+04  0.65000000000E+04  0.15050000000E+03 0.  1.
     100001    1    1    2    0    0 -0.10572155427E+04  0.26950147906E+03  0.64060138931E+04  0.65000000000E+04  0.15050000000E+03 0. -1.
</event>
<event>
 4    1  0.4521369E-004  0.6500000E+04  0.7818608E-02  0.7223770E-01
         52   -1    0    0    0    0  0.00000000000E+00  0.00000000000E+00  0.64930732323E+04  0.65000000000E+04  0.30000000000E+03 0. -1.
        -52   -1    0    0    0    0 -0.00000000000E+00 -0.00000000000E+00 -0.64930732323E+04  0.65000000000E+04  0.30000000000E+03 0.  1.
     100001    1    1    2    0    0 -0.21168251351E+04  0.52048116443E+04 -0.32644045161E+04  0.65000000000E+04  0.15050000000E+03 0.  1.
     100001    1    1    2    0    0  0.21168251351E+04 -0.52048116443E+04  0.32644045161E+04  0.65000000000E+04  0.15050000000E+03 0. -1.
</event>
<event>
 4    1  0.4521369E-004  0.6500000E+04  0.7818608E-02  0.7223770E-01
         52   -1    0    0    0    0  0.00000000000E+00  0.00000000000E+00  0.64930732323E+04  0.65000000000E+04  0.30000000000E+03 0. -1.
        -52   -1    0    0    0    0 -0.00000000000E+00 -0.00000000000E+00 -0.64930732323E+04  0.65000000000E+04  0.30000000000E+03 0.  1.
     100001    1    1    2    0    0  0.21977079550E+04  0.82940146356E+02 -0.61147813065E+04  0.65000000000E+04  0.15050000000E+03 0.  1.
     100001    1    1    2    0    0 -0.21977079550E+04 -0.82940146356E+02  0.61147813065E+04  0.65000000000E+04  0.15050000000E+03 0. -1.
</event>
<event>
 4    1  0.4521369E-004  0.6500000E+04  0.7818608E-02  0.7223770E-01
         52   -1    0    0    0    0  0.00000000000E+00  0.00000000000E+00  0.64930732323E+04  0.65000000000E+04  0.30000000000E+03 0.  1.
        -52   -1    0    0    0    0 -0.00000000000E+00 -0.00000000000E+00 -0.64930732323E+04  0.65000000000E+04  0.30000000000E+03 0. -1.
     100001    1    1    2    0    0 -0.63456700493E+03  0.96497339422E+03 -0.63948026408E+04  0.65000000000E+04  0.15050000000E+03 0. -1.
     100001    1    1    2    0    0  0.63456700493E+03 -0.96497339422E+03  0.63948026408E+04  0.65000000000E+04  0.15050000000E+03 0.  1.
</event>
<event>
 4    1  0.4521369E-004  0.6500000E+04  0.7818608E-02  0.7223770E-01
         52   -1    0    0    0    0  0.00000000000E+00  0.00000000000E+00  0.64930732323E+04  0.65000000000E+04  0.30000000000E+03 0. -1.
        -52   -1    0    0    0    0 -0.00000000000E+00 -0.00000000000E+00 -0.64930732323E+04  0.65000000000E+04  0.30000000000E+03 0.  1.
     100001    1    1    2    0    0  0.44189128536E+04  0.18620007139E+04 -0.43856028415E+04  0.65000000000E+04  0.15050000000E+03 0.  1.
     100001    1    1    2    0    0 -0.44189128536E+04 -0.18620007139E+04  0.43856028415E+04  0.65000000000E+04  0.15050000000E+03 0. -1.
</event>
<event>
 4    1  0.4521369E-004  0.6500000E+04  0.7818608E-02  0.7223770E-01
         52   -1    0    0    0    0  0.00000000000E+00  0.00000000000E+00  0.64930732323E+04  0.65000000000E+04  0.30000000000E+03 0.  1.
        -52   -1    0    0    0    0 -0.00000000000E+00 -0.00000000000E+00 -0.64930732323E+04  0.65000000000E+04  0.30000000000E+03 0. -1.
     100001    1    1    2    0    0  0.34942286986E+03  0.44993199554E+03  0.64732383401E+04  0.65000000000E+04  0.15050000000E+03 0.  1.
     100001    1    1    2    0    0 -0.34942286986E+03 -0.44993199554E+03 -0.64732383401E+04  0.65000000000E+04  0.15050000000E+03 0. -1.
</event>
<event>
 4    1  0.4521369E-004  0.6500000E+04  0.7818608E-02  0.7223770E-01
         52   -1    0    0    0    0  0.00000000000E+00  0.00000000000E+00  0.64930732323E+04  0.65000000000E+04  0.30000000000E+03 0.  1.
        -52   -1    0    0    0    0 -0.00000000000E+00 -0.00000000000E+00 -0.64930732323E+04  0.65000000000E+04  0.30000000000E+03 0. -1.
     100001    1    1    2    0    0  0.32846364594E+04 -0.13103786912E+04  0.54517355737E+04  0.65000000000E+04  0.15050000000E+03 0.  1.
     100001    1    1    2    0    0 -0.32846364594E+04  0.13103786912E+04 -0.54517355737E+04  0.65000000000E+04  0.15050000000E+03 0. -1.
</event>
<event>
 4    1  0.4521369E-004  0.6500000E+04  0.7818608E-02  0.7223770E-01
         52   -1    0    0    0    0  0.00000000000E+00  0.00000000000E+00  0.64930732323E+04  0.65000000000E+04  0.30000000000E+03 0. -1.
        -52   -1    0    0    0    0 -0.00000000000E+00 -0.00000000000E+00 -0.64930732323E+04  0.65000000000E+04  0.30000000000E+03 0.  1.
     100001    1    1    2    0    0  0.26619763175E+04 -0.16815016381E+04  0.56845214465E+04  0.65000000000E+04  0.15050000000E+03 0. -1.
     100001    1    1    2    0    0 -0.26619763175E+04  0.16815016381E+04 -0.56845214465E+04  0.65000000000E+04  0.15050000000E+03 0.  1.
</event>
<event>
 4    1  0.4521369E-004  0.6500000E+04  0.7818608E-02  0.7223770E-01
         52   -1    0    0    0    0  0.00000000000E+00  0.00000000000E+00  0.64930732323E+04  0.65000000000E+04  0.30000000000E+03 0. -1.
        -52   -1    0    0    0    0 -0.00000000000E+00 -0.00000000000E+00 -0.64930732323E+04  0.65000000000E+04  0.30000000000E+03 0. -1.
     100001    1    1    2    0    0 -0.42753654438E+03  0.56641044905E+03 -0.64593917250E+04  0.65000000000E+04  0.15050000000E+03 0. -1.
     100001    1    1    2    0    0  0.42753654438E+03 -0.56641044905E+03  0.64593917250E+04  0.65000000000E+04  0.15050000000E+03 0. -1.
</event>
<event>
 4    1  0.4521369E-004  0.6500000E+04  0.7818608E-02  0.7223770E-01
         52   -1    0    0    0    0  0.00000000000E+00  0.00000000000E+00  0.64930732323E+04  0.65000000000E+04  0.30000000000E+03 0.  1.
        -52   -1    0    0    0    0 -0.00000000000E+00 -0.00000000000E+00 -0.64930732323E+04  0.65000000000E+04  0.30000000000E+03 0. -1.
     100001    1    1    2    0    0 -0.10904711084E+04 -0.40822474503E+04 -0.49369503002E+04  0.65000000000E+04  0.15050000000E+03 0. -1.
     100001    1    1    2    0    0  0.10904711084E+04  0.40822474503E+04  0.49369503002E+04  0.65000000000E+04  0.15050000000E+03 0.  1.
</event>
<event>
 4    1  0.4521369E-004  0.6500000E+04  0.7818608E-02  0.7223770E-01
         52   -1    0    0    0    0  0.00000000000E+00  0.00000000000E+00  0.64930732323E+04  0.65000000000E+04  0.30000000000E+03 0.  1.
        -52   -1    0    0    0    0 -0.00000000000E+00 -0.00000000000E+00 -0.64930732323E+04  0.65000000000E+04  0.30000000000E+03 0.  1.
     100001    1    1    2    0    0 -0.29402894965E+03  0.69799627771E+02  0.64912267514E+04  0.65000000000E+04  0.15050000000E+03 0.  1.
     100001    1    1    2    0    0  0.29402894965E+03 -0.69799627771E+02 -0.64912267514E+04  0.65000000000E+04  0.15050000000E+03 0.  1.
</event>
<event>
 4    1  0.4521369E-004  0.6500000E+04  0.7818608E-02  0.7223770E-01
         52   -1    0    0    0    0  0.00000000000E+00  0.00000000000E+00  0.64930732323E+04  0.65000000000E+04  0.30000000000E+03 0.  1.
        -52   -1    0    0    0    0 -0.00000000000E+00 -0.00000000000E+00 -0.64930732323E+04  0.65000000000E+04  0.30000000000E+03 0. -1.
     100001    1    1    2    0    0 -0.16366926436E+04 -0.10043481989E+04 -0.62080489395E+04  0.65000000000E+04  0.15050000000E+03 0. -1.
     100001    1    1    2    0    0  0.16366926436E+04  0.10043481989E+04  0.62080489395E+04  0.65000000000E+04  0.15050000000E+03 0.  1.
</event>
<event>
 4    1  0.4521369E-004  0.6500000E+04  0.7818608E-02  0.7223770E-01
         52   -1    0    0    0    0  0.00000000000E+00  0.00000000000E+00  0.64930732323E+04  0.65000000000E+04  0.30000000000E+03 0. -1.
        -52   -1    0    0    0    0 -0.00000000000E+00 -0.00000000000E+00 -0.64930732323E+04  0.65000000000E+04  0.30000000000E+03 0.  1.
     100001    1    1    2    0    0  0.38308542979E+02  0.22150821960E+04 -0.61089518799E+04  0.65000000000E+04  0.15050000000E+03 0.  1.
     100001    1    1    2    0    0 -0.38308542979E+02 -0.22150821960E+04  0.61089518799E+04  0.65000000000E+04  0.15050000000E+03 0. -1.
</event>
<event>
 4    1  0.4521369E-004  0.6500000E+04  0.7818608E-02  0.7223770E-01
         52   -1    0    0    0    0  0.00000000000E+00  0.00000000000E+00  0.64930732323E+04  0.65000000000E+04  0.30000000000E+03 0.  1.
        -52   -1    0    0    0    0 -0.00000000000E+00 -0.00000000000E+00 -0.64930732323E+04  0.65000000000E+04  0.30000000000E+03 0. -1.
     100001    1    1    2    0    0  0.44552643997E+04  0.46758569328E+04 -0.71716861533E+03  0.65000000000E+04  0.15050000000E+03 0. -1.
     100001    1    1    2    0    0 -0.44552643997E+04 -0.46758569328E+04  0.71716861533E+03  0.65000000000E+04  0.15050000000E+03 0.  1.
</event>
<event>
 4    1  0.4521369E-004  0.6500000E+04  0.7818608E-02  0.7223770E-01
         52   -1    0    0    0    0  0.00000000000E+00  0.00000000000E+00  0.64930732323E+04  0.65000000000E+04  0.30000000000E+03 0.  1.
        -52   -1    0    0    0    0 -0.00000000000E+00 -0.00000000000E+00 -0.64930732323E+04  0.65000000000E+04  0.30000000000E+03 0. -1.
     100001    1    1    2    0    0  0.14022392970E+04  0.96021476755E+03  0.62720859612E+04  0.65000000000E+04  0.15050000000E+03 0.  1.
     100001    1    1    2    0    0 -0.14022392970E+04 -0.96021476755E+03 -0.62720859612E+04  0.65000000000E+04  0.15050000000E+03 0. -1.
</event>
<event>
 4    1  0.4521369E-004  0.6500000E+04  0.7818608E-02  0.7223770E-01
         52   -1    0    0    0    0  0.00000000000E+00  0.00000000000E+00  0.64930732323E+04  0.65000000000E+04  0.30000000000E+03 0. -1.
        -52   -1    0    0    0    0 -0.00000000000E+00 -0.00000000000E+00 -0.64930732323E+04  0.65000000000E+04  0.30000000000E+03 0.  1.
     100001    1    1    2    0    0 -0.24034803656E+04 -0.44389810159E+04  0.40921973832E+04  0.65000000000E+04  0.15050000000E+03 0. -1.
     100001    1    1    2    0    0  0.24034803656E+04  0.44389810159E+04 -0.40921973832E+04  0.65000000000E+04  0.15050000000E+03 0.  1.
</event>
<event>
 4    1  0.4521369E-004  0.6500000E+04  0.7818608E-02  0.7223770E-01
         52   -1    0    0    0    0  0.00000000000E+00  0.00000000000E+00  0.64930732323E+04  0.65000000000E+04  0.30000000000E+03 0.  1.
        -52   -1    0    0    0    0 -0.00000000000E+00 -0.00000000000E+00 -0.64930732323E+04  0.65000000000E+04  0.30000000000E+03 0. -1.
     100001    1    1    2    0    0 -0.23524134137E+03 -0.42767579559E+03  0.64799000513E+04  0.65000000000E+04  0.15050000000E+03 0.  1.
     100001    1    1    2    0    0  0.23524134137E+03  0.42767579559E+03 -0.64799000513E+04  0.65000000000E+04  0.15050000000E+03 0. -1.
</event>
<event>
 4    1  0.4521369E-004  0.6500000E+04  0.7818608E-02  0.7223770E-01
         52   -1    0    0    0    0  0.00000000000E+00  0.00000000000E+00  0.64930732323E+04  0.65000000000E+04  0.30000000000E+03 0. -1.
        -52   -1    0    0    0    0 -0.00000000000E+00 -0.00000000000E+00 -0.64930732323E+04  0.65000000000E+04  0.30000000000E+03 0. -1.
     100001    1    1    2    0    0  0.31835149418E+03 -0.35547642703E+03  0.64807128147E+04  0.65000000000E+04  0.15050000000E+03 0. -1.
     100001    1    1    2    0    0 -0.31835149418E+03  0.35547642703E+03 -0.64807128147E+04  0.65000000000E+04  0.15050000000E+03 0. -1.
</event>
<event>
 4    1  0.4521369E-004  0.6500000E+04  0.7818608E-02  0.7223770E-01
         52   -1    0    0    0    0  0.00000000000E+00  0.00000000000E+00  0.64930732323E+04  0.65000000000E+04  0.30000000000E+03 0.  1.
        -52   -1    0    0    0    0 -0.00000000000E+00 -0.00000000000E+00 -0.64930732323E+04  0.65000000000E+04  0.30000000000E+03 0.  1.
     100001    1    1    2    0    0 -0.14203054423E+03 -0.27764439112E+03 -0.64907696513E+04  0.65000000000E+04  0.15050000000E+03 0.  1.
     100001    1    1    2    0    0  0.14203054423E+03  0.27764439112E+03  0.64907696513E+04  0.65000000000E+04  0.15050000000E+03 0.  1.
</event>
<event>
 4    1  0.4521369E-004  0.6500000E+04  0.7818608E-02  0.7223770E-01
         52   -1    0    0    0    0  0.00000000000E+00  0.00000000000E+00  0.64930732323E+04  0.65000000000E+04  0.30000000000E+03 0. -1.
        -52   -1    0    0    0    0 -0.00000000000E+00 -0.00000000000E+00 -0.64930732323E+04  0.65000000000E+04  0.30000000000E+03 0. -1.
     100001    1    1    2    0    0  0.23733364631E+03 -0.15981311620E+03  0.64919551953E+04  0.65000000000E+04  0.15050000000E+03 0. -1.
     100001    1    1    2    0    0 -0.23733364631E+03  0.15981311620E+03 -0.64919551953E+04  0.65000000000E+04  0.15050000000E+03 0. -1.
</event>
<event>
 4    1  0.4521369E-004  0.6500000E+04  0.7818608E-02  0.7223770E-01
         52   -1    0    0    0    0  0.00000000000E+00  0.00000000000E+00  0.64930732323E+04  0.65000000000E+04  0.30000000000E+03 0. -1.
        -52   -1    0    0    0    0 -0.00000000000E+00 -0.00000000000E+00 -0.64930732323E+04  0.65000000000E+04  0.30000000000E+03 0.  1.
     100001    1    1    2    0    0 -0.17512506139E+03 -0.72550723926E+03  0.64552552396E+04  0.65000000000E+04  0.15050000000E+03 0. -1.
     100001    1    1    2    0    0  0.17512506139E+03  0.72550723926E+03 -0.64552552396E+04  0.65000000000E+04  0.15050000000E+03 0.  1.
</event>
<event>
 4    1  0.5863121E-004  0.6500000E+04  0.7818608E-02  0.7223770E-01
         52   -1    0    0    0    0  0.00000000000E+00  0.00000000000E+00  0.64930732323E+04  0.65000000000E+04  0.30000000000E+03 0.  1.
        -52   -1    0    0    0    0 -0.00000000000E+00 -0.00000000000E+00 -0.64930732323E+04  0.65000000000E+04  0.30000000000E+03 0.  1.
     100001    1    1    2    0    0 -0.14374738066E+03 -0.13189710620E+03 -0.64953282899E+04  0.65000000000E+04  0.15050000000E+03 0.  1.
     100001    1    1    2    0    0  0.14374738066E+03  0.13189710620E+03  0.64953282899E+04  0.65000000000E+04  0.15050000000E+03 0.  1.
</event>
<event>
 4    1  0.4521369E-004  0.6500000E+04  0.7818608E-02  0.7223770E-01
         52   -1    0    0    0    0  0.00000000000E+00  0.00000000000E+00  0.64930732323E+04  0.65000000000E+04  0.30000000000E+03 0. -1.
        -52   -1    0    0    0    0 -0.00000000000E+00 -0.00000000000E+00 -0.64930732323E+04  0.65000000000E+04  0.30000000000E+03 0.  1.
     100001    1    1    2    0    0 -0.56882293374E+03  0.20692594107E+02  0.64732806240E+04  0.65000000000E+04  0.15050000000E+03 0. -1.
     100001    1    1    2    0    0  0.56882293374E+03 -0.20692594107E+02 -0.64732806240E+04  0.65000000000E+04  0.15050000000E+03 0.  1.
</event>
<event>
 4    1  0.4521369E-004  0.6500000E+04  0.7818608E-02  0.7223770E-01
         52   -1    0    0    0    0  0.00000000000E+00  0.00000000000E+00  0.64930732323E+04  0.65000000000E+04  0.30000000000E+03 0.  1.
        -52   -1    0    0    0    0 -0.00000000000E+00 -0.00000000000E+00 -0.64930732323E+04  0.65000000000E+04  0.30000000000E+03 0. -1.
     100001    1    1    2    0    0  0.26642791243E+03 -0.50015441040E+02 -0.64926007403E+04  0.65000000000E+04  0.15050000000E+03 0. -1.
     100001    1    1    2    0    0 -0.26642791243E+03  0.50015441040E+02  0.64926007403E+04  0.65000000000E+04  0.15050000000E+03 0.  1.
</event>
<event>
 4    1  0.4521369E-004  0.6500000E+04  0.7818608E-02  0.7223770E-01
         52   -1    0    0    0    0  0.00000000000E+00  0.00000000000E+00  0.64930732323E+04  0.65000000000E+04  0.30000000000E+03 0. -1.
        -52   -1    0    0    0    0 -0.00000000000E+00 -0.00000000000E+00 -0.64930732323E+04  0.65000000000E+04  0.30000000000E+03 0.  1.
     100001    1    1    2    0    0 -0.16606912897E+03  0.91916927124E+03 -0.64307774526E+04  0.65000000000E+04  0.15050000000E+03 0.  1.
     100001    1    1    2    0    0  0.16606912897E+03 -0.91916927124E+03  0.64307774526E+04  0.65000000000E+04  0.15050000000E+03 0. -1.
</event>
<event>
 4    1  0.4521369E-004  0.6500000E+04  0.7818608E-02  0.7223770E-01
         52   -1    0    0    0    0  0.00000000000E+00  0.00000000000E+00  0.64930732323E+04  0.65000000000E+04  0.30000000000E+03 0.  1.
        -52   -1    0    0    0    0 -0.00000000000E+00 -0.00000000000E+00 -0.64930732323E+04  0.65000000000E+04  0.30000000000E+03 0. -1.
     100001    1    1    2    0    0  0.61154645313E+04  0.14738768874E+03  0.21924233592E+04  0.65000000000E+04  0.15050000000E+03 0. -1.
     100001    1    1    2    0    0 -0.61154645313E+04 -0.14738768874E+03 -0.21924233592E+04  0.65000000000E+04  0.15050000000E+03 0.  1.
</event>
<event>
 4    1  0.5524822E-004  0.6500000E+04  0.7818608E-02  0.7223770E-01
         52   -1    0    0    0    0  0.00000000000E+00  0.00000000000E+00  0.64930732323E+04  0.65000000000E+04  0.30000000000E+03 0.  1.
        -52   -1    0    0    0    0 -0.00000000000E+00 -0.00000000000E+00 -0.64930732323E+04  0.65000000000E+04  0.30000000000E+03 0. -1.
     100001    1    1    2    0    0 -0.13304014657E+03 -0.16475577257E+03 -0.64948060483E+04  0.65000000000E+04  0.15050000000E+03 0. -1.
     100001    1    1    2    0    0  0.13304014657E+03  0.16475577257E+03  0.64948060483E+04  0.65000000000E+04  0.15050000000E+03 0.  1.
</event>
<event>
 4    1  0.4521369E-004  0.6500000E+04  0.7818608E-02  0.7223770E-01
         52   -1    0    0    0    0  0.00000000000E+00  0.00000000000E+00  0.64930732323E+04  0.65000000000E+04  0.30000000000E+03 0. -1.
        -52   -1    0    0    0    0 -0.00000000000E+00 -0.00000000000E+00 -0.64930732323E+04  0.65000000000E+04  0.30000000000E+03 0.  1.
     100001    1    1    2    0    0  0.10761096116E+04  0.38741842636E+04 -0.51049029516E+04  0.65000000000E+04  0.15050000000E+03 0.  1.
     100001    1    1    2    0    0 -0.10761096116E+04 -0.38741842636E+04  0.51049029516E+04  0.65000000000E+04  0.15050000000E+03 0. -1.
</event>
<event>
 4    1  0.4521369E-004  0.6500000E+04  0.7818608E-02  0.7223770E-01
         52   -1    0    0    0    0  0.00000000000E+00  0.00000000000E+00  0.64930732323E+04  0.65000000000E+04  0.30000000000E+03 0.  1.
        -52   -1    0    0    0    0 -0.00000000000E+00 -0.00000000000E+00 -0.64930732323E+04  0.65000000000E+04  0.30000000000E+03 0. -1.
     100001    1    1    2    0    0 -0.58289116376E+02 -0.61884142033E+03 -0.64684609781E+04  0.65000000000E+04  0.15050000000E+03 0. -1.
     100001    1    1    2    0    0  0.58289116376E+02  0.61884142033E+03  0.64684609781E+04  0.65000000000E+04  0.15050000000E+03 0.  1.
</event>
<event>
 4    1  0.4521369E-004  0.6500000E+04  0.7818608E-02  0.7223770E-01
         52   -1    0    0    0    0  0.00000000000E+00  0.00000000000E+00  0.64930732323E+04  0.65000000000E+04  0.30000000000E+03 0. -1.
        -52   -1    0    0    0    0 -0.00000000000E+00 -0.00000000000E+00 -0.64930732323E+04  0.65000000000E+04  0.30000000000E+03 0.  1.
     100001    1    1    2    0    0 -0.13085353180E+04  0.13813889521E+04  0.62134410462E+04  0.65000000000E+04  0.15050000000E+03 0. -1.
     100001    1    1    2    0    0  0.13085353180E+04 -0.13813889521E+04 -0.62134410462E+04  0.65000000000E+04  0.15050000000E+03 0.  1.
</event>
<event>
 4    1  0.4521369E-004  0.6500000E+04  0.7818608E-02  0.7223770E-01
         52   -1    0    0    0    0  0.00000000000E+00  0.00000000000E+00  0.64930732323E+04  0.65000000000E+04  0.30000000000E+03 0.  1.
        -52   -1    0    0    0    0 -0.00000000000E+00 -0.00000000000E+00 -0.64930732323E+04  0.65000000000E+04  0.30000000000E+03 0. -1.
     100001    1    1    2    0    0  0.13775771285E+04 -0.14571549654E+04  0.61811269532E+04  0.65000000000E+04  0.15050000000E+03 0.  1.
     100001    1    1    2    0    0 -0.13775771285E+04  0.14571549654E+04 -0.61811269532E+04  0.65000000000E+04  0.15050000000E+03 0. -1.
</event>
<event>
 4    1  0.4521369E-004  0.6500000E+04  0.7818608E-02  0.7223770E-01
         52   -1    0    0    0    0  0.00000000000E+00  0.00000000000E+00  0.64930732323E+04  0.65000000000E+04  0.30000000000E+03 0.  1.
        -52   -1    0    0    0    0 -0.00000000000E+00 -0.00000000000E+00 -0.64930732323E+04  0.65000000000E+04  0.30000000000E+03 0. -1.
     100001    1    1    2    0    0  0.53395243348E+04 -0.27516912370E+04  0.24789160867E+04  0.65000000000E+04  0.15050000000E+03 0.  1.
     100001    1    1    2    0    0 -0.53395243348E+04  0.27516912370E+04 -0.24789160867E+04  0.65000000000E+04  0.15050000000E+03 0. -1.
</event>
<event>
 4    1  0.4521369E-004  0.6500000E+04  0.7818608E-02  0.7223770E-01
         52   -1    0    0    0    0  0.00000000000E+00  0.00000000000E+00  0.64930732323E+04  0.65000000000E+04  0.30000000000E+03 0. -1.
        -52   -1    0    0    0    0 -0.00000000000E+00 -0.00000000000E+00 -0.64930732323E+04  0.65000000000E+04  0.30000000000E+03 0.  1.
     100001    1    1    2    0    0  0.18388850722E+04  0.37063590423E+04 -0.50108636073E+04  0.65000000000E+04  0.15050000000E+03 0.  1.
     100001    1    1    2    0    0 -0.18388850722E+04 -0.37063590423E+04  0.50108636073E+04  0.65000000000E+04  0.15050000000E+03 0. -1.
</event>
<event>
 4    1  0.4521369E-004  0.6500000E+04  0.7818608E-02  0.7223770E-01
         52   -1    0    0    0    0  0.00000000000E+00  0.00000000000E+00  0.64930732323E+04  0.65000000000E+04  0.30000000000E+03 0.  1.
        -52   -1    0    0    0    0 -0.00000000000E+00 -0.00000000000E+00 -0.64930732323E+04  0.65000000000E+04  0.30000000000E+03 0. -1.
     100001    1    1    2    0    0 -0.10967707683E+04 -0.73367718245E+03  0.63628736765E+04  0.65000000000E+04  0.15050000000E+03 0.  1.
     100001    1    1    2    0    0  0.10967707683E+04  0.73367718245E+03 -0.63628736765E+04  0.65000000000E+04  0.15050000000E+03 0. -1.
</event>
<event>
 4    1  0.4521369E-004  0.6500000E+04  0.7818608E-02  0.7223770E-01
         52   -1    0    0    0    0  0.00000000000E+00  0.00000000000E+00  0.64930732323E+04  0.65000000000E+04  0.30000000000E+03 0.  1.
        -52   -1    0    0    0    0 -0.00000000000E+00 -0.00000000000E+00 -0.64930732323E+04  0.65000000000E+04  0.30000000000E+03 0. -1.
     100001    1    1    2    0    0 -0.53652058303E+04 -0.10826202266E+04 -0.35028345085E+04  0.65000000000E+04  0.15050000000E+03 0. -1.
     100001    1    1    2    0    0  0.53652058303E+04  0.10826202266E+04  0.35028345085E+04  0.65000000000E+04  0.15050000000E+03 0.  1.
</event>
<event>
 4    1  0.4521369E-004  0.6500000E+04  0.7818608E-02  0.7223770E-01
         52   -1    0    0    0    0  0.00000000000E+00  0.00000000000E+00  0.64930732323E+04  0.65000000000E+04  0.30000000000E+03 0.  1.
        -52   -1    0    0    0    0 -0.00000000000E+00 -0.00000000000E+00 -0.64930732323E+04  0.65000000000E+04  0.30000000000E+03 0. -1.
     100001    1    1    2    0    0 -0.56475652548E+03 -0.39564311169E+02 -0.64735488321E+04  0.65000000000E+04  0.15050000000E+03 0. -1.
     100001    1    1    2    0    0  0.56475652548E+03  0.39564311169E+02  0.64735488321E+04  0.65000000000E+04  0.15050000000E+03 0.  1.
</event>
<event>
 4    1  0.4521369E-004  0.6500000E+04  0.7818608E-02  0.7223770E-01
         52   -1    0    0    0    0  0.00000000000E+00  0.00000000000E+00  0.64930732323E+04  0.65000000000E+04  0.30000000000E+03 0.  1.
        -52   -1    0    0    0    0 -0.00000000000E+00 -0.00000000000E+00 -0.64930732323E+04  0.65000000000E+04  0.30000000000E+03 0. -1.
     100001    1    1    2    0    0  0.14219865465E+04 -0.46484437492E+03 -0.63237033231E+04  0.65000000000E+04  0.15050000000E+03 0. -1.
     100001    1    1    2    0    0 -0.14219865465E+04  0.46484437492E+03  0.63237033231E+04  0.65000000000E+04  0.15050000000E+03 0.  1.
</event>
<event>
 4    1  0.4521369E-004  0.6500000E+04  0.7818608E-02  0.7223770E-01
         52   -1    0    0    0    0  0.00000000000E+00  0.00000000000E+00  0.64930732323E+04  0.65000000000E+04  0.30000000000E+03 0. -1.
        -52   -1    0    0    0    0 -0.00000000000E+00 -0.00000000000E+00 -0.64930732323E+04  0.65000000000E+04  0.30000000000E+03 0.  1.
     100001    1    1    2    0    0 -0.45454676257E+04 -0.46275909718E+04 -0.38919867828E+03  0.65000000000E+04  0.15050000000E+03 0.  1.
     100001    1    1    2    0    0  0.45454676257E+04  0.46275909718E+04  0.38919867828E+03  0.65000000000E+04  0.15050000000E+03 0. -1.
</event>
<event>
 4    1  0.4521369E-004  0.6500000E+04  0.7818608E-02  0.7223770E-01
         52   -1    0    0    0    0  0.00000000000E+00  0.00000000000E+00  0.64930732323E+04  0.65000000000E+04  0.30000000000E+03 0. -1.
        -52   -1    0    0    0    0 -0.00000000000E+00 -0.00000000000E+00 -0.64930732323E+04  0.65000000000E+04  0.30000000000E+03 0. -1.
     100001    1    1    2    0    0 -0.92835184041E+02  0.12740509337E+03  0.64963450740E+04  0.65000000000E+04  0.15050000000E+03 0. -1.
     100001    1    1    2    0    0  0.92835184041E+02 -0.12740509337E+03 -0.64963450740E+04  0.65000000000E+04  0.15050000000E+03 0. -1.
</event>
<event>
 4    1  0.4521369E-004  0.6500000E+04  0.7818608E-02  0.7223770E-01
         52   -1    0    0    0    0  0.00000000000E+00  0.00000000000E+00  0.64930732323E+04  0.65000000000E+04  0.30000000000E+03 0.  1.
        -52   -1    0    0    0    0 -0.00000000000E+00 -0.00000000000E+00 -0.64930732323E+04  0.65000000000E+04  0.30000000000E+03 0. -1.
     100001    1    1    2    0    0  0.16459540213E+04  0.26289214876E+04 -0.57102501628E+04  0.65000000000E+04  0.15050000000E+03 0. -1.
     100001    1    1    2    0    0 -0.16459540213E+04 -0.26289214876E+04  0.57102501628E+04  0.65000000000E+04  0.15050000000E+03 0.  1.
</event>
<event>
 4    1  0.4521369E-004  0.6500000E+04  0.7818608E-02  0.7223770E-01
         52   -1    0    0    0    0  0.00000000000E+00  0.00000000000E+00  0.64930732323E+04  0.65000000000E+04  0.30000000000E+03 0. -1.
        -52   -1    0    0    0    0 -0.00000000000E+00 -0.00000000000E+00 -0.64930732323E+04  0.65000000000E+04  0.30000000000E+03 0. -1.
     100001    1    1    2    0    0 -0.88048150347E+02  0.22463586553E+03 -0.64937767132E+04  0.65000000000E+04  0.15050000000E+03 0. -1.
     100001    1    1    2    0    0  0.88048150347E+02 -0.22463586553E+03  0.64937767132E+04  0.65000000000E+04  0.15050000000E+03 0. -1.
</event>
<event>
 4    1  0.4521369E-004  0.6500000E+04  0.7818608E-02  0.7223770E-01
         52   -1    0    0    0    0  0.00000000000E+00  0.00000000000E+00  0.64930732323E+04  0.65000000000E+04  0.30000000000E+03 0. -1.
        -52   -1    0    0    0    0 -0.00000000000E+00 -0.00000000000E+00 -0.64930732323E+04  0.65000000000E+04  0.30000000000E+03 0.  1.
     100001    1    1    2    0    0 -0.48456173344E+04 -0.18435338955E+03  0.43258936911E+04  0.65000000000E+04  0.15050000000E+03 0. -1.
     100001    1    1    2    0    0  0.48456173344E+04  0.18435338955E+03 -0.43258936911E+04  0.65000000000E+04  0.15050000000E+03 0.  1.
</event>
<event>
 4    1  0.4521369E-004  0.6500000E+04  0.7818608E-02  0.7223770E-01
         52   -1    0    0    0    0  0.00000000000E+00  0.00000000000E+00  0.64930732323E+04  0.65000000000E+04  0.30000000000E+03 0.  1.
        -52   -1    0    0    0    0 -0.00000000000E+00 -0.00000000000E+00 -0.64930732323E+04  0.65000000000E+04  0.30000000000E+03 0. -1.
     100001    1    1    2    0    0  0.20272053404E+04  0.26954098237E+04  0.55545075515E+04  0.65000000000E+04  0.15050000000E+03 0.  1.
     100001    1    1    2    0    0 -0.20272053404E+04 -0.26954098237E+04 -0.55545075515E+04  0.65000000000E+04  0.15050000000E+03 0. -1.
</event>
<event>
 4    1  0.4521369E-004  0.6500000E+04  0.7818608E-02  0.7223770E-01
         52   -1    0    0    0    0  0.00000000000E+00  0.00000000000E+00  0.64930732323E+04  0.65000000000E+04  0.30000000000E+03 0.  1.
        -52   -1    0    0    0    0 -0.00000000000E+00 -0.00000000000E+00 -0.64930732323E+04  0.65000000000E+04  0.30000000000E+03 0. -1.
     100001    1    1    2    0    0  0.26356086446E+04 -0.27567995746E+03 -0.59333731876E+04  0.65000000000E+04  0.15050000000E+03 0. -1.
     100001    1    1    2    0    0 -0.26356086446E+04  0.27567995746E+03  0.59333731876E+04  0.65000000000E+04  0.15050000000E+03 0.  1.
</event>
<event>
 4    1  0.4521369E-004  0.6500000E+04  0.7818608E-02  0.7223770E-01
         52   -1    0    0    0    0  0.00000000000E+00  0.00000000000E+00  0.64930732323E+04  0.65000000000E+04  0.30000000000E+03 0.  1.
        -52   -1    0    0    0    0 -0.00000000000E+00 -0.00000000000E+00 -0.64930732323E+04  0.65000000000E+04  0.30000000000E+03 0. -1.
     100001    1    1    2    0    0  0.20399949851E+03 -0.84517906474E+01 -0.64950490777E+04  0.65000000000E+04  0.15050000000E+03 0. -1.
     100001    1    1    2    0    0 -0.20399949851E+03  0.84517906474E+01  0.64950490777E+04  0.65000000000E+04  0.15050000000E+03 0.  1.
</event>
<event>
 4    1  0.4521369E-004  0.6500000E+04  0.7818608E-02  0.7223770E-01
         52   -1    0    0    0    0  0.00000000000E+00  0.00000000000E+00  0.64930732323E+04  0.65000000000E+04  0.30000000000E+03 0.  1.
        -52   -1    0    0    0    0 -0.00000000000E+00 -0.00000000000E+00 -0.64930732323E+04  0.65000000000E+04  0.30000000000E+03 0. -1.
     100001    1    1    2    0    0 -0.10205342069E+04 -0.31268097947E+03  0.64099992424E+04  0.65000000000E+04  0.15050000000E+03 0.  1.
     100001    1    1    2    0    0  0.10205342069E+04  0.31268097947E+03 -0.64099992424E+04  0.65000000000E+04  0.15050000000E+03 0. -1.
</event>
<event>
 4    1  0.4521369E-004  0.6500000E+04  0.7818608E-02  0.7223770E-01
         52   -1    0    0    0    0  0.00000000000E+00  0.00000000000E+00  0.64930732323E+04  0.65000000000E+04  0.30000000000E+03 0.  1.
        -52   -1    0    0    0    0 -0.00000000000E+00 -0.00000000000E+00 -0.64930732323E+04  0.65000000000E+04  0.30000000000E+03 0. -1.
     100001    1    1    2    0    0  0.65863636552E+03 -0.35051155034E+03 -0.64552838467E+04  0.65000000000E+04  0.15050000000E+03 0. -1.
     100001    1    1    2    0    0 -0.65863636552E+03  0.35051155034E+03  0.64552838467E+04  0.65000000000E+04  0.15050000000E+03 0.  1.
</event>
<event>
 4    1  0.4521369E-004  0.6500000E+04  0.7818608E-02  0.7223770E-01
         52   -1    0    0    0    0  0.00000000000E+00  0.00000000000E+00  0.64930732323E+04  0.65000000000E+04  0.30000000000E+03 0.  1.
        -52   -1    0    0    0    0 -0.00000000000E+00 -0.00000000000E+00 -0.64930732323E+04  0.65000000000E+04  0.30000000000E+03 0. -1.
     100001    1    1    2    0    0  0.17545246465E+04 -0.58881861248E+04  0.21161893050E+04  0.65000000000E+04  0.15050000000E+03 0.  1.
     100001    1    1    2    0    0 -0.17545246465E+04  0.58881861248E+04 -0.21161893050E+04  0.65000000000E+04  0.15050000000E+03 0. -1.
</event>
<event>
 4    1  0.4521369E-004  0.6500000E+04  0.7818608E-02  0.7223770E-01
         52   -1    0    0    0    0  0.00000000000E+00  0.00000000000E+00  0.64930732323E+04  0.65000000000E+04  0.30000000000E+03 0.  1.
        -52   -1    0    0    0    0 -0.00000000000E+00 -0.00000000000E+00 -0.64930732323E+04  0.65000000000E+04  0.30000000000E+03 0. -1.
     100001    1    1    2    0    0 -0.31883990321E+04  0.43385889225E+04 -0.36384210207E+04  0.65000000000E+04  0.15050000000E+03 0. -1.
     100001    1    1    2    0    0  0.31883990321E+04 -0.43385889225E+04  0.36384210207E+04  0.65000000000E+04  0.15050000000E+03 0.  1.
</event>
<event>
 4    1  0.4521369E-004  0.6500000E+04  0.7818608E-02  0.7223770E-01
         52   -1    0    0    0    0  0.00000000000E+00  0.00000000000E+00  0.64930732323E+04  0.65000000000E+04  0.30000000000E+03 0. -1.
        -52   -1    0    0    0    0 -0.00000000000E+00 -0.00000000000E+00 -0.64930732323E+04  0.65000000000E+04  0.30000000000E+03 0.  1.
     100001    1    1    2    0    0  0.53234275443E+03  0.22238848105E+04  0.60826225669E+04  0.65000000000E+04  0.15050000000E+03 0. -1.
     100001    1    1    2    0    0 -0.53234275443E+03 -0.22238848105E+04 -0.60826225669E+04  0.65000000000E+04  0.15050000000E+03 0.  1.
</event>
<event>
 4    1  0.4521369E-004  0.6500000E+04  0.7818608E-02  0.7223770E-01
         52   -1    0    0    0    0  0.00000000000E+00  0.00000000000E+00  0.64930732323E+04  0.65000000000E+04  0.30000000000E+03 0.  1.
        -52   -1    0    0    0    0 -0.00000000000E+00 -0.00000000000E+00 -0.64930732323E+04  0.65000000000E+04  0.30000000000E+03 0. -1.
     100001    1    1    2    0    0  0.94838348545E+02  0.27767958186E+04  0.58743306359E+04  0.65000000000E+04  0.15050000000E+03 0.  1.
     100001    1    1    2    0    0 -0.94838348545E+02 -0.27767958186E+04 -0.58743306359E+04  0.65000000000E+04  0.15050000000E+03 0. -1.
</event>
<event>
 4    1  0.4521369E-004  0.6500000E+04  0.7818608E-02  0.7223770E-01
         52   -1    0    0    0    0  0.00000000000E+00  0.00000000000E+00  0.64930732323E+04  0.65000000000E+04  0.30000000000E+03 0.  1.
        -52   -1    0    0    0    0 -0.00000000000E+00 -0.00000000000E+00 -0.64930732323E+04  0.65000000000E+04  0.30000000000E+03 0. -1.
     100001    1    1    2    0    0 -0.61062007923E+04  0.60803927262E+03  0.21382118409E+04  0.65000000000E+04  0.15050000000E+03 0. -1.
     100001    1    1    2    0    0  0.61062007923E+04 -0.60803927262E+03 -0.21382118409E+04  0.65000000000E+04  0.15050000000E+03 0.  1.
</event>
<event>
 4    1  0.6759364E-004  0.6500000E+04  0.7818608E-02  0.7223770E-01
         52   -1    0    0    0    0  0.00000000000E+00  0.00000000000E+00  0.64930732323E+04  0.65000000000E+04  0.30000000000E+03 0. -1.
        -52   -1    0    0    0    0 -0.00000000000E+00 -0.00000000000E+00 -0.64930732323E+04  0.65000000000E+04  0.30000000000E+03 0. -1.
     100001    1    1    2    0    0 -0.46193316413E+02 -0.14344133405E+03  0.64965098716E+04  0.65000000000E+04  0.15050000000E+03 0. -1.
     100001    1    1    2    0    0  0.46193316413E+02  0.14344133405E+03 -0.64965098716E+04  0.65000000000E+04  0.15050000000E+03 0. -1.
</event>
<event>
 4    1  0.4521369E-004  0.6500000E+04  0.7818608E-02  0.7223770E-01
         52   -1    0    0    0    0  0.00000000000E+00  0.00000000000E+00  0.64930732323E+04  0.65000000000E+04  0.30000000000E+03 0.  1.
        -52   -1    0    0    0    0 -0.00000000000E+00 -0.00000000000E+00 -0.64930732323E+04  0.65000000000E+04  0.30000000000E+03 0. -1.
     100001    1    1    2    0    0  0.25360862214E+04 -0.79052795129E+03  0.59304874998E+04  0.65000000000E+04  0.15050000000E+03 0.  1.
     100001    1    1    2    0    0 -0.25360862214E+04  0.79052795129E+03 -0.59304874998E+04  0.65000000000E+04  0.15050000000E+03 0. -1.
</event>
<event>
 4    1  0.4521369E-004  0.6500000E+04  0.7818608E-02  0.7223770E-01
         52   -1    0    0    0    0  0.00000000000E+00  0.00000000000E+00  0.64930732323E+04  0.65000000000E+04  0.30000000000E+03 0.  1.
        -52   -1    0    0    0    0 -0.00000000000E+00 -0.00000000000E+00 -0.64930732323E+04  0.65000000000E+04  0.30000000000E+03 0. -1.
     100001    1    1    2    0    0  0.39665789905E+03  0.15207098913E+04 -0.63053511946E+04  0.65000000000E+04  0.15050000000E+03 0. -1.
     100001    1    1    2    0    0 -0.39665789905E+03 -0.15207098913E+04  0.63053511946E+04  0.65000000000E+04  0.15050000000E+03 0.  1.
</event>
<event>
 4    1  0.4521369E-004  0.6500000E+04  0.7818608E-02  0.7223770E-01
         52   -1    0    0    0    0  0.00000000000E+00  0.00000000000E+00  0.64930732323E+04  0.65000000000E+04  0.30000000000E+03 0. -1.
        -52   -1    0    0    0    0 -0.00000000000E+00 -0.00000000000E+00 -0.64930732323E+04  0.65000000000E+04  0.30000000000E+03 0.  1.
     100001    1    1    2    0    0  0.13686103552E+04 -0.15434269218E+04 -0.61621496884E+04  0.65000000000E+04  0.15050000000E+03 0.  1.
     100001    1    1    2    0    0 -0.13686103552E+04  0.15434269218E+04  0.61621496884E+04  0.65000000000E+04  0.15050000000E+03 0. -1.
</event>
<event>
 4    1  0.4521369E-004  0.6500000E+04  0.7818608E-02  0.7223770E-01
         52   -1    0    0    0    0  0.00000000000E+00  0.00000000000E+00  0.64930732323E+04  0.65000000000E+04  0.30000000000E+03 0.  1.
        -52   -1    0    0    0    0 -0.00000000000E+00 -0.00000000000E+00 -0.64930732323E+04  0.65000000000E+04  0.30000000000E+03 0.  1.
     100001    1    1    2    0    0  0.31023354159E+03 -0.87905134893E+03  0.64310476305E+04  0.65000000000E+04  0.15050000000E+03 0.  1.
     100001    1    1    2    0    0 -0.31023354159E+03  0.87905134893E+03 -0.64310476305E+04  0.65000000000E+04  0.15050000000E+03 0.  1.
</event>
<event>
 4    1  0.4521369E-004  0.6500000E+04  0.7818608E-02  0.7223770E-01
         52   -1    0    0    0    0  0.00000000000E+00  0.00000000000E+00  0.64930732323E+04  0.65000000000E+04  0.30000000000E+03 0. -1.
        -52   -1    0    0    0    0 -0.00000000000E+00 -0.00000000000E+00 -0.64930732323E+04  0.65000000000E+04  0.30000000000E+03 0.  1.
     100001    1    1    2    0    0 -0.88266768719E+03 -0.45181760944E+04  0.45863201244E+04  0.65000000000E+04  0.15050000000E+03 0. -1.
     100001    1    1    2    0    0  0.88266768719E+03  0.45181760944E+04 -0.45863201244E+04  0.65000000000E+04  0.15050000000E+03 0.  1.
</event>
<event>
 4    1  0.4521369E-004  0.6500000E+04  0.7818608E-02  0.7223770E-01
         52   -1    0    0    0    0  0.00000000000E+00  0.00000000000E+00  0.64930732323E+04  0.65000000000E+04  0.30000000000E+03 0. -1.
        -52   -1    0    0    0    0 -0.00000000000E+00 -0.00000000000E+00 -0.64930732323E+04  0.65000000000E+04  0.30000000000E+03 0.  1.
     100001    1    1    2    0    0 -0.58403532069E+03  0.39220132312E+04 -0.51482098547E+04  0.65000000000E+04  0.15050000000E+03 0.  1.
     100001    1    1    2    0    0  0.58403532069E+03 -0.39220132312E+04  0.51482098547E+04  0.65000000000E+04  0.15050000000E+03 0. -1.
</event>
<event>
 4    1  0.4521369E-004  0.6500000E+04  0.7818608E-02  0.7223770E-01
         52   -1    0    0    0    0  0.00000000000E+00  0.00000000000E+00  0.64930732323E+04  0.65000000000E+04  0.30000000000E+03 0.  1.
        -52   -1    0    0    0    0 -0.00000000000E+00 -0.00000000000E+00 -0.64930732323E+04  0.65000000000E+04  0.30000000000E+03 0. -1.
     100001    1    1    2    0    0 -0.16661240490E+04 -0.62748873439E+04  0.27779349362E+03  0.65000000000E+04  0.15050000000E+03 0. -1.
     100001    1    1    2    0    0  0.16661240490E+04  0.62748873439E+04 -0.27779349362E+03  0.65000000000E+04  0.15050000000E+03 0.  1.
</event>
<event>
 4    1  0.4521369E-004  0.6500000E+04  0.7818608E-02  0.7223770E-01
         52   -1    0    0    0    0  0.00000000000E+00  0.00000000000E+00  0.64930732323E+04  0.65000000000E+04  0.30000000000E+03 0.  1.
        -52   -1    0    0    0    0 -0.00000000000E+00 -0.00000000000E+00 -0.64930732323E+04  0.65000000000E+04  0.30000000000E+03 0. -1.
     100001    1    1    2    0    0  0.40758682219E+04 -0.48445617580E+04  0.14645372515E+04  0.65000000000E+04  0.15050000000E+03 0.  1.
     100001    1    1    2    0    0 -0.40758682219E+04  0.48445617580E+04 -0.14645372515E+04  0.65000000000E+04  0.15050000000E+03 0. -1.
</event>
<event>
 4    1  0.4521369E-004  0.6500000E+04  0.7818608E-02  0.7223770E-01
         52   -1    0    0    0    0  0.00000000000E+00  0.00000000000E+00  0.64930732323E+04  0.65000000000E+04  0.30000000000E+03 0.  1.
        -52   -1    0    0    0    0 -0.00000000000E+00 -0.00000000000E+00 -0.64930732323E+04  0.65000000000E+04  0.30000000000E+03 0. -1.
     100001    1    1    2    0    0  0.27573157947E+04  0.56006378866E+03 -0.58575496507E+04  0.65000000000E+04  0.15050000000E+03 0. -1.
     100001    1    1    2    0    0 -0.27573157947E+04 -0.56006378866E+03  0.58575496507E+04  0.65000000000E+04  0.15050000000E+03 0.  1.
</event>
<event>
 4    1  0.4521369E-004  0.6500000E+04  0.7818608E-02  0.7223770E-01
         52   -1    0    0    0    0  0.00000000000E+00  0.00000000000E+00  0.64930732323E+04  0.65000000000E+04  0.30000000000E+03 0. -1.
        -52   -1    0    0    0    0 -0.00000000000E+00 -0.00000000000E+00 -0.64930732323E+04  0.65000000000E+04  0.30000000000E+03 0.  1.
     100001    1    1    2    0    0  0.36369898666E+03 -0.36697546298E+04 -0.53505115413E+04  0.65000000000E+04  0.15050000000E+03 0.  1.
     100001    1    1    2    0    0 -0.36369898666E+03  0.36697546298E+04  0.53505115413E+04  0.65000000000E+04  0.15050000000E+03 0. -1.
</event>
<event>
 4    1  0.4521369E-004  0.6500000E+04  0.7818608E-02  0.7223770E-01
         52   -1    0    0    0    0  0.00000000000E+00  0.00000000000E+00  0.64930732323E+04  0.65000000000E+04  0.30000000000E+03 0. -1.
        -52   -1    0    0    0    0 -0.00000000000E+00 -0.00000000000E+00 -0.64930732323E+04  0.65000000000E+04  0.30000000000E+03 0.  1.
     100001    1    1    2    0    0  0.35798758476E+03 -0.14443405090E+04 -0.63255889159E+04  0.65000000000E+04  0.15050000000E+03 0.  1.
     100001    1    1    2    0    0 -0.35798758476E+03  0.14443405090E+04  0.63255889159E+04  0.65000000000E+04  0.15050000000E+03 0. -1.
</event>
<event>
 4    1  0.4521369E-004  0.6500000E+04  0.7818608E-02  0.7223770E-01
         52   -1    0    0    0    0  0.00000000000E+00  0.00000000000E+00  0.64930732323E+04  0.65000000000E+04  0.30000000000E+03 0.  1.
        -52   -1    0    0    0    0 -0.00000000000E+00 -0.00000000000E+00 -0.64930732323E+04  0.65000000000E+04  0.30000000000E+03 0. -1.
     100001    1    1    2    0    0 -0.25217570997E+04  0.25837509721E+04  0.54029919299E+04  0.65000000000E+04  0.15050000000E+03 0.  1.
     100001    1    1    2    0    0  0.25217570997E+04 -0.25837509721E+04 -0.54029919299E+04  0.65000000000E+04  0.15050000000E+03 0. -1.
</event>
<event>
 4    1  0.4521369E-004  0.6500000E+04  0.7818608E-02  0.7223770E-01
         52   -1    0    0    0    0  0.00000000000E+00  0.00000000000E+00  0.64930732323E+04  0.65000000000E+04  0.30000000000E+03 0. -1.
        -52   -1    0    0    0    0 -0.00000000000E+00 -0.00000000000E+00 -0.64930732323E+04  0.65000000000E+04  0.30000000000E+03 0.  1.
     100001    1    1    2    0    0 -0.58241084661E+04 -0.77425036025E+03 -0.27762648838E+04  0.65000000000E+04  0.15050000000E+03 0.  1.
     100001    1    1    2    0    0  0.58241084661E+04  0.77425036025E+03  0.27762648838E+04  0.65000000000E+04  0.15050000000E+03 0. -1.
</event>
<event>
 4    1  0.4521369E-004  0.6500000E+04  0.7818608E-02  0.7223770E-01
         52   -1    0    0    0    0  0.00000000000E+00  0.00000000000E+00  0.64930732323E+04  0.65000000000E+04  0.30000000000E+03 0.  1.
        -52   -1    0    0    0    0 -0.00000000000E+00 -0.00000000000E+00 -0.64930732323E+04  0.65000000000E+04  0.30000000000E+03 0. -1.
     100001    1    1    2    0    0  0.55543701400E+03 -0.26898055146E+03 -0.64688862207E+04  0.65000000000E+04  0.15050000000E+03 0. -1.
     100001    1    1    2    0    0 -0.55543701400E+03  0.26898055146E+03  0.64688862207E+04  0.65000000000E+04  0.15050000000E+03 0.  1.
</event>
<event>
 4    1  0.4521369E-004  0.6500000E+04  0.7818608E-02  0.7223770E-01
         52   -1    0    0    0    0  0.00000000000E+00  0.00000000000E+00  0.64930732323E+04  0.65000000000E+04  0.30000000000E+03 0.  1.
        -52   -1    0    0    0    0 -0.00000000000E+00 -0.00000000000E+00 -0.64930732323E+04  0.65000000000E+04  0.30000000000E+03 0. -1.
     100001    1    1    2    0    0  0.28477447482E+03  0.89161916675E+03  0.64304951994E+04  0.65000000000E+04  0.15050000000E+03 0.  1.
     100001    1    1    2    0    0 -0.28477447482E+03 -0.89161916675E+03 -0.64304951994E+04  0.65000000000E+04  0.15050000000E+03 0. -1.
</event>
<event>
 4    1  0.4521369E-004  0.6500000E+04  0.7818608E-02  0.7223770E-01
         52   -1    0    0    0    0  0.00000000000E+00  0.00000000000E+00  0.64930732323E+04  0.65000000000E+04  0.30000000000E+03 0.  1.
        -52   -1    0    0    0    0 -0.00000000000E+00 -0.00000000000E+00 -0.64930732323E+04  0.65000000000E+04  0.30000000000E+03 0. -1.
     100001    1    1    2    0    0 -0.64800247879E+03  0.28427797037E+03  0.64596152032E+04  0.65000000000E+04  0.15050000000E+03 0.  1.
     100001    1    1    2    0    0  0.64800247879E+03 -0.28427797037E+03 -0.64596152032E+04  0.65000000000E+04  0.15050000000E+03 0. -1.
</event>
<event>
 4    1  0.4521369E-004  0.6500000E+04  0.7818608E-02  0.7223770E-01
         52   -1    0    0    0    0  0.00000000000E+00  0.00000000000E+00  0.64930732323E+04  0.65000000000E+04  0.30000000000E+03 0.  1.
        -52   -1    0    0    0    0 -0.00000000000E+00 -0.00000000000E+00 -0.64930732323E+04  0.65000000000E+04  0.30000000000E+03 0. -1.
     100001    1    1    2    0    0 -0.11025448993E+04  0.66919572887E+03 -0.63689812036E+04  0.65000000000E+04  0.15050000000E+03 0. -1.
     100001    1    1    2    0    0  0.11025448993E+04 -0.66919572887E+03  0.63689812036E+04  0.65000000000E+04  0.15050000000E+03 0.  1.
</event>
<event>
 4    1  0.4521369E-004  0.6500000E+04  0.7818608E-02  0.7223770E-01
         52   -1    0    0    0    0  0.00000000000E+00  0.00000000000E+00  0.64930732323E+04  0.65000000000E+04  0.30000000000E+03 0.  1.
        -52   -1    0    0    0    0 -0.00000000000E+00 -0.00000000000E+00 -0.64930732323E+04  0.65000000000E+04  0.30000000000E+03 0. -1.
     100001    1    1    2    0    0 -0.31755277035E+03 -0.82438880787E+03  0.64379261476E+04  0.65000000000E+04  0.15050000000E+03 0.  1.
     100001    1    1    2    0    0  0.31755277035E+03  0.82438880787E+03 -0.64379261476E+04  0.65000000000E+04  0.15050000000E+03 0. -1.
</event>
<event>
 4    1  0.4521369E-004  0.6500000E+04  0.7818608E-02  0.7223770E-01
         52   -1    0    0    0    0  0.00000000000E+00  0.00000000000E+00  0.64930732323E+04  0.65000000000E+04  0.30000000000E+03 0.  1.
        -52   -1    0    0    0    0 -0.00000000000E+00 -0.00000000000E+00 -0.64930732323E+04  0.65000000000E+04  0.30000000000E+03 0. -1.
     100001    1    1    2    0    0 -0.16595661827E+03 -0.23777065581E+04 -0.60453552149E+04  0.65000000000E+04  0.15050000000E+03 0. -1.
     100001    1    1    2    0    0  0.16595661827E+03  0.23777065581E+04  0.60453552149E+04  0.65000000000E+04  0.15050000000E+03 0.  1.
</event>
<event>
 4    1  0.4521369E-004  0.6500000E+04  0.7818608E-02  0.7223770E-01
         52   -1    0    0    0    0  0.00000000000E+00  0.00000000000E+00  0.64930732323E+04  0.65000000000E+04  0.30000000000E+03 0. -1.
        -52   -1    0    0    0    0 -0.00000000000E+00 -0.00000000000E+00 -0.64930732323E+04  0.65000000000E+04  0.30000000000E+03 0.  1.
     100001    1    1    2    0    0 -0.56051338737E+03  0.17452133894E+04 -0.62343728408E+04  0.65000000000E+04  0.15050000000E+03 0.  1.
     100001    1    1    2    0    0  0.56051338737E+03 -0.17452133894E+04  0.62343728408E+04  0.65000000000E+04  0.15050000000E+03 0. -1.
</event>
<event>
 4    1  0.4521369E-004  0.6500000E+04  0.7818608E-02  0.7223770E-01
         52   -1    0    0    0    0  0.00000000000E+00  0.00000000000E+00  0.64930732323E+04  0.65000000000E+04  0.30000000000E+03 0. -1.
        -52   -1    0    0    0    0 -0.00000000000E+00 -0.00000000000E+00 -0.64930732323E+04  0.65000000000E+04  0.30000000000E+03 0.  1.
     100001    1    1    2    0    0 -0.23924045559E+04  0.11215216032E+04  0.59368290766E+04  0.65000000000E+04  0.15050000000E+03 0. -1.
     100001    1    1    2    0    0  0.23924045559E+04 -0.11215216032E+04 -0.59368290766E+04  0.65000000000E+04  0.15050000000E+03 0.  1.
</event>
<event>
 4    1  0.4521369E-004  0.6500000E+04  0.7818608E-02  0.7223770E-01
         52   -1    0    0    0    0  0.00000000000E+00  0.00000000000E+00  0.64930732323E+04  0.65000000000E+04  0.30000000000E+03 0. -1.
        -52   -1    0    0    0    0 -0.00000000000E+00 -0.00000000000E+00 -0.64930732323E+04  0.65000000000E+04  0.30000000000E+03 0.  1.
     100001    1    1    2    0    0 -0.16604929698E+04 -0.40892665195E+04 -0.47694876224E+04  0.65000000000E+04  0.15050000000E+03 0.  1.
     100001    1    1    2    0    0  0.16604929698E+04  0.40892665195E+04  0.47694876224E+04  0.65000000000E+04  0.15050000000E+03 0. -1.
</event>
<event>
 4    1  0.4521369E-004  0.6500000E+04  0.7818608E-02  0.7223770E-01
         52   -1    0    0    0    0  0.00000000000E+00  0.00000000000E+00  0.64930732323E+04  0.65000000000E+04  0.30000000000E+03 0. -1.
        -52   -1    0    0    0    0 -0.00000000000E+00 -0.00000000000E+00 -0.64930732323E+04  0.65000000000E+04  0.30000000000E+03 0.  1.
     100001    1    1    2    0    0 -0.53349142844E+03 -0.20839517878E+04 -0.61318742316E+04  0.65000000000E+04  0.15050000000E+03 0.  1.
     100001    1    1    2    0    0  0.53349142844E+03  0.20839517878E+04  0.61318742316E+04  0.65000000000E+04  0.15050000000E+03 0. -1.
</event>
<event>
 4    1  0.4521369E-004  0.6500000E+04  0.7818608E-02  0.7223770E-01
         52   -1    0    0    0    0  0.00000000000E+00  0.00000000000E+00  0.64930732323E+04  0.65000000000E+04  0.30000000000E+03 0.  1.
        -52   -1    0    0    0    0 -0.00000000000E+00 -0.00000000000E+00 -0.64930732323E+04  0.65000000000E+04  0.30000000000E+03 0. -1.
     100001    1    1    2    0    0 -0.35138192183E+04  0.34989353401E+04 -0.41997471039E+04  0.65000000000E+04  0.15050000000E+03 0. -1.
     100001    1    1    2    0    0  0.35138192183E+04 -0.34989353401E+04  0.41997471039E+04  0.65000000000E+04  0.15050000000E+03 0.  1.
</event>
<event>
 4    1  0.4521369E-004  0.6500000E+04  0.7818608E-02  0.7223770E-01
         52   -1    0    0    0    0  0.00000000000E+00  0.00000000000E+00  0.64930732323E+04  0.65000000000E+04  0.30000000000E+03 0. -1.
        -52   -1    0    0    0    0 -0.00000000000E+00 -0.00000000000E+00 -0.64930732323E+04  0.65000000000E+04  0.30000000000E+03 0.  1.
     100001    1    1    2    0    0  0.24940717306E+04  0.55945281554E+04 -0.21698411626E+04  0.65000000000E+04  0.15050000000E+03 0. -1.
     100001    1    1    2    0    0 -0.24940717306E+04 -0.55945281554E+04  0.21698411626E+04  0.65000000000E+04  0.15050000000E+03 0.  1.
</event>
<event>
 4    1  0.4521369E-004  0.6500000E+04  0.7818608E-02  0.7223770E-01
         52   -1    0    0    0    0  0.00000000000E+00  0.00000000000E+00  0.64930732323E+04  0.65000000000E+04  0.30000000000E+03 0.  1.
        -52   -1    0    0    0    0 -0.00000000000E+00 -0.00000000000E+00 -0.64930732323E+04  0.65000000000E+04  0.30000000000E+03 0.  1.
     100001    1    1    2    0    0 -0.36450827750E+03  0.23009720174E+03 -0.64839446900E+04  0.65000000000E+04  0.15050000000E+03 0.  1.
     100001    1    1    2    0    0  0.36450827750E+03 -0.23009720174E+03  0.64839446900E+04  0.65000000000E+04  0.15050000000E+03 0.  1.
</event>
<event>
 4    1  0.4521369E-004  0.6500000E+04  0.7818608E-02  0.7223770E-01
         52   -1    0    0    0    0  0.00000000000E+00  0.00000000000E+00  0.64930732323E+04  0.65000000000E+04  0.30000000000E+03 0.  1.
        -52   -1    0    0    0    0 -0.00000000000E+00 -0.00000000000E+00 -0.64930732323E+04  0.65000000000E+04  0.30000000000E+03 0. -1.
     100001    1    1    2    0    0 -0.31835542755E+03 -0.22834756246E+03  0.64864363839E+04  0.65000000000E+04  0.15050000000E+03 0.  1.
     100001    1    1    2    0    0  0.31835542755E+03  0.22834756246E+03 -0.64864363839E+04  0.65000000000E+04  0.15050000000E+03 0. -1.
</event>
<event>
 4    1  0.4521369E-004  0.6500000E+04  0.7818608E-02  0.7223770E-01
         52   -1    0    0    0    0  0.00000000000E+00  0.00000000000E+00  0.64930732323E+04  0.65000000000E+04  0.30000000000E+03 0.  1.
        -52   -1    0    0    0    0 -0.00000000000E+00 -0.00000000000E+00 -0.64930732323E+04  0.65000000000E+04  0.30000000000E+03 0. -1.
     100001    1    1    2    0    0  0.28682875198E+03 -0.17656481253E+04  0.62472046320E+04  0.65000000000E+04  0.15050000000E+03 0.  1.
     100001    1    1    2    0    0 -0.28682875198E+03  0.17656481253E+04 -0.62472046320E+04  0.65000000000E+04  0.15050000000E+03 0. -1.
</event>
<event>
 4    1  0.4521369E-004  0.6500000E+04  0.7818608E-02  0.7223770E-01
         52   -1    0    0    0    0  0.00000000000E+00  0.00000000000E+00  0.64930732323E+04  0.65000000000E+04  0.30000000000E+03 0.  1.
        -52   -1    0    0    0    0 -0.00000000000E+00 -0.00000000000E+00 -0.64930732323E+04  0.65000000000E+04  0.30000000000E+03 0. -1.
     100001    1    1    2    0    0 -0.43496331473E+04 -0.25951632672E+04  0.40710157025E+04  0.65000000000E+04  0.15050000000E+03 0.  1.
     100001    1    1    2    0    0  0.43496331473E+04  0.25951632672E+04 -0.40710157025E+04  0.65000000000E+04  0.15050000000E+03 0. -1.
</event>
<event>
 4    1  0.4521369E-004  0.6500000E+04  0.7818608E-02  0.7223770E-01
         52   -1    0    0    0    0  0.00000000000E+00  0.00000000000E+00  0.64930732323E+04  0.65000000000E+04  0.30000000000E+03 0. -1.
        -52   -1    0    0    0    0 -0.00000000000E+00 -0.00000000000E+00 -0.64930732323E+04  0.65000000000E+04  0.30000000000E+03 0.  1.
     100001    1    1    2    0    0  0.38649408451E+03 -0.46247066319E+03 -0.64702467463E+04  0.65000000000E+04  0.15050000000E+03 0.  1.
     100001    1    1    2    0    0 -0.38649408451E+03  0.46247066319E+03  0.64702467463E+04  0.65000000000E+04  0.15050000000E+03 0. -1.
</event>
<event>
 4    1  0.4521369E-004  0.6500000E+04  0.7818608E-02  0.7223770E-01
         52   -1    0    0    0    0  0.00000000000E+00  0.00000000000E+00  0.64930732323E+04  0.65000000000E+04  0.30000000000E+03 0.  1.
        -52   -1    0    0    0    0 -0.00000000000E+00 -0.00000000000E+00 -0.64930732323E+04  0.65000000000E+04  0.30000000000E+03 0. -1.
     100001    1    1    2    0    0  0.45423795046E+03  0.16082329256E+03 -0.64803667723E+04  0.65000000000E+04  0.15050000000E+03 0. -1.
     100001    1    1    2    0    0 -0.45423795046E+03 -0.16082329256E+03  0.64803667723E+04  0.65000000000E+04  0.15050000000E+03 0.  1.
</event>
<event>
 4    1  0.4521369E-004  0.6500000E+04  0.7818608E-02  0.7223770E-01
         52   -1    0    0    0    0  0.00000000000E+00  0.00000000000E+00  0.64930732323E+04  0.65000000000E+04  0.30000000000E+03 0.  1.
        -52   -1    0    0    0    0 -0.00000000000E+00 -0.00000000000E+00 -0.64930732323E+04  0.65000000000E+04  0.30000000000E+03 0. -1.
     100001    1    1    2    0    0 -0.16028222103E+04  0.25354248762E+04 -0.57645408672E+04  0.65000000000E+04  0.15050000000E+03 0. -1.
     100001    1    1    2    0    0  0.16028222103E+04 -0.25354248762E+04  0.57645408672E+04  0.65000000000E+04  0.15050000000E+03 0.  1.
</event>
<event>
 4    1  0.4521369E-004  0.6500000E+04  0.7818608E-02  0.7223770E-01
         52   -1    0    0    0    0  0.00000000000E+00  0.00000000000E+00  0.64930732323E+04  0.65000000000E+04  0.30000000000E+03 0. -1.
        -52   -1    0    0    0    0 -0.00000000000E+00 -0.00000000000E+00 -0.64930732323E+04  0.65000000000E+04  0.30000000000E+03 0.  1.
     100001    1    1    2    0    0 -0.65734611975E+03  0.27918401802E+03  0.64588932576E+04  0.65000000000E+04  0.15050000000E+03 0. -1.
     100001    1    1    2    0    0  0.65734611975E+03 -0.27918401802E+03 -0.64588932576E+04  0.65000000000E+04  0.15050000000E+03 0.  1.
</event>
<event>
 4    1  0.4521369E-004  0.6500000E+04  0.7818608E-02  0.7223770E-01
         52   -1    0    0    0    0  0.00000000000E+00  0.00000000000E+00  0.64930732323E+04  0.65000000000E+04  0.30000000000E+03 0. -1.
        -52   -1    0    0    0    0 -0.00000000000E+00 -0.00000000000E+00 -0.64930732323E+04  0.65000000000E+04  0.30000000000E+03 0.  1.
     100001    1    1    2    0    0 -0.20664539838E+03 -0.15151925045E+04 -0.63157611658E+04  0.65000000000E+04  0.15050000000E+03 0.  1.
     100001    1    1    2    0    0  0.20664539838E+03  0.15151925045E+04  0.63157611658E+04  0.65000000000E+04  0.15050000000E+03 0. -1.
</event>
<event>
 4    1  0.4521369E-004  0.6500000E+04  0.7818608E-02  0.7223770E-01
         52   -1    0    0    0    0  0.00000000000E+00  0.00000000000E+00  0.64930732323E+04  0.65000000000E+04  0.30000000000E+03 0. -1.
        -52   -1    0    0    0    0 -0.00000000000E+00 -0.00000000000E+00 -0.64930732323E+04  0.65000000000E+04  0.30000000000E+03 0.  1.
     100001    1    1    2    0    0 -0.23048294220E+04 -0.32135347530E+04 -0.51563849232E+04  0.65000000000E+04  0.15050000000E+03 0.  1.
     100001    1    1    2    0    0  0.23048294220E+04  0.32135347530E+04  0.51563849232E+04  0.65000000000E+04  0.15050000000E+03 0. -1.
</event>
<event>
 4    1  0.4521369E-004  0.6500000E+04  0.7818608E-02  0.7223770E-01
         52   -1    0    0    0    0  0.00000000000E+00  0.00000000000E+00  0.64930732323E+04  0.65000000000E+04  0.30000000000E+03 0. -1.
        -52   -1    0    0    0    0 -0.00000000000E+00 -0.00000000000E+00 -0.64930732323E+04  0.65000000000E+04  0.30000000000E+03 0. -1.
     100001    1    1    2    0    0  0.55108209447E+02 -0.48696738310E+02  0.64978412925E+04  0.65000000000E+04  0.15050000000E+03 0. -1.
     100001    1    1    2    0    0 -0.55108209447E+02  0.48696738310E+02 -0.64978412925E+04  0.65000000000E+04  0.15050000000E+03 0. -1.
</event>
<event>
 4    1  0.4521369E-004  0.6500000E+04  0.7818608E-02  0.7223770E-01
         52   -1    0    0    0    0  0.00000000000E+00  0.00000000000E+00  0.64930732323E+04  0.65000000000E+04  0.30000000000E+03 0. -1.
        -52   -1    0    0    0    0 -0.00000000000E+00 -0.00000000000E+00 -0.64930732323E+04  0.65000000000E+04  0.30000000000E+03 0.  1.
     100001    1    1    2    0    0 -0.18615471468E+04  0.58863493425E+04 -0.20280245040E+04  0.65000000000E+04  0.15050000000E+03 0. -1.
     100001    1    1    2    0    0  0.18615471468E+04 -0.58863493425E+04  0.20280245040E+04  0.65000000000E+04  0.15050000000E+03 0.  1.
</event>
<event>
 4    1  0.4521369E-004  0.6500000E+04  0.7818608E-02  0.7223770E-01
         52   -1    0    0    0    0  0.00000000000E+00  0.00000000000E+00  0.64930732323E+04  0.65000000000E+04  0.30000000000E+03 0. -1.
        -52   -1    0    0    0    0 -0.00000000000E+00 -0.00000000000E+00 -0.64930732323E+04  0.65000000000E+04  0.30000000000E+03 0.  1.
     100001    1    1    2    0    0  0.41218311813E+04  0.94561699347E+01 -0.50237205380E+04  0.65000000000E+04  0.15050000000E+03 0.  1.
     100001    1    1    2    0    0 -0.41218311813E+04 -0.94561699347E+01  0.50237205380E+04  0.65000000000E+04  0.15050000000E+03 0. -1.
</event>
<event>
 4    1  0.4521369E-004  0.6500000E+04  0.7818608E-02  0.7223770E-01
         52   -1    0    0    0    0  0.00000000000E+00  0.00000000000E+00  0.64930732323E+04  0.65000000000E+04  0.30000000000E+03 0.  1.
        -52   -1    0    0    0    0 -0.00000000000E+00 -0.00000000000E+00 -0.64930732323E+04  0.65000000000E+04  0.30000000000E+03 0. -1.
     100001    1    1    2    0    0 -0.30150013399E+04  0.42397782252E+04  0.38937638951E+04  0.65000000000E+04  0.15050000000E+03 0.  1.
     100001    1    1    2    0    0  0.30150013399E+04 -0.42397782252E+04 -0.38937638951E+04  0.65000000000E+04  0.15050000000E+03 0. -1.
</event>
<event>
 4    1  0.4521369E-004  0.6500000E+04  0.7818608E-02  0.7223770E-01
         52   -1    0    0    0    0  0.00000000000E+00  0.00000000000E+00  0.64930732323E+04  0.65000000000E+04  0.30000000000E+03 0.  1.
        -52   -1    0    0    0    0 -0.00000000000E+00 -0.00000000000E+00 -0.64930732323E+04  0.65000000000E+04  0.30000000000E+03 0. -1.
     100001    1    1    2    0    0 -0.26448662533E+04  0.31730982130E+02  0.59355728786E+04  0.65000000000E+04  0.15050000000E+03 0.  1.
     100001    1    1    2    0    0  0.26448662533E+04 -0.31730982130E+02 -0.59355728786E+04  0.65000000000E+04  0.15050000000E+03 0. -1.
</event>
<event>
 4    1  0.4521369E-004  0.6500000E+04  0.7818608E-02  0.7223770E-01
         52   -1    0    0    0    0  0.00000000000E+00  0.00000000000E+00  0.64930732323E+04  0.65000000000E+04  0.30000000000E+03 0. -1.
        -52   -1    0    0    0    0 -0.00000000000E+00 -0.00000000000E+00 -0.64930732323E+04  0.65000000000E+04  0.30000000000E+03 0. -1.
     100001    1    1    2    0    0 -0.68309595034E+02  0.52443993301E+02  0.64976867558E+04  0.65000000000E+04  0.15050000000E+03 0. -1.
     100001    1    1    2    0    0  0.68309595034E+02 -0.52443993301E+02 -0.64976867558E+04  0.65000000000E+04  0.15050000000E+03 0. -1.
</event>
<event>
 4    1  0.4521369E-004  0.6500000E+04  0.7818608E-02  0.7223770E-01
         52   -1    0    0    0    0  0.00000000000E+00  0.00000000000E+00  0.64930732323E+04  0.65000000000E+04  0.30000000000E+03 0.  1.
        -52   -1    0    0    0    0 -0.00000000000E+00 -0.00000000000E+00 -0.64930732323E+04  0.65000000000E+04  0.30000000000E+03 0. -1.
     100001    1    1    2    0    0  0.16801826915E+04 -0.15504735058E+04 -0.60827927616E+04  0.65000000000E+04  0.15050000000E+03 0. -1.
     100001    1    1    2    0    0 -0.16801826915E+04  0.15504735058E+04  0.60827927616E+04  0.65000000000E+04  0.15050000000E+03 0.  1.
</event>
<event>
 4    1  0.4521369E-004  0.6500000E+04  0.7818608E-02  0.7223770E-01
         52   -1    0    0    0    0  0.00000000000E+00  0.00000000000E+00  0.64930732323E+04  0.65000000000E+04  0.30000000000E+03 0. -1.
        -52   -1    0    0    0    0 -0.00000000000E+00 -0.00000000000E+00 -0.64930732323E+04  0.65000000000E+04  0.30000000000E+03 0.  1.
     100001    1    1    2    0    0  0.39707072353E+03 -0.13036978485E+02  0.64861016510E+04  0.65000000000E+04  0.15050000000E+03 0. -1.
     100001    1    1    2    0    0 -0.39707072353E+03  0.13036978485E+02 -0.64861016510E+04  0.65000000000E+04  0.15050000000E+03 0.  1.
</event>
<event>
 4    1  0.4521369E-004  0.6500000E+04  0.7818608E-02  0.7223770E-01
         52   -1    0    0    0    0  0.00000000000E+00  0.00000000000E+00  0.64930732323E+04  0.65000000000E+04  0.30000000000E+03 0. -1.
        -52   -1    0    0    0    0 -0.00000000000E+00 -0.00000000000E+00 -0.64930732323E+04  0.65000000000E+04  0.30000000000E+03 0.  1.
     100001    1    1    2    0    0 -0.31382428512E+04  0.46661314217E+04  0.32566852952E+04  0.65000000000E+04  0.15050000000E+03 0. -1.
     100001    1    1    2    0    0  0.31382428512E+04 -0.46661314217E+04 -0.32566852952E+04  0.65000000000E+04  0.15050000000E+03 0.  1.
</event>
<event>
 4    1  0.4521369E-004  0.6500000E+04  0.7818608E-02  0.7223770E-01
         52   -1    0    0    0    0  0.00000000000E+00  0.00000000000E+00  0.64930732323E+04  0.65000000000E+04  0.30000000000E+03 0.  1.
        -52   -1    0    0    0    0 -0.00000000000E+00 -0.00000000000E+00 -0.64930732323E+04  0.65000000000E+04  0.30000000000E+03 0. -1.
     100001    1    1    2    0    0  0.29285680996E+03 -0.11664517842E+04  0.63859983459E+04  0.65000000000E+04  0.15050000000E+03 0.  1.
     100001    1    1    2    0    0 -0.29285680996E+03  0.11664517842E+04 -0.63859983459E+04  0.65000000000E+04  0.15050000000E+03 0. -1.
</event>
<event>
 4    1  0.4521369E-004  0.6500000E+04  0.7818608E-02  0.7223770E-01
         52   -1    0    0    0    0  0.00000000000E+00  0.00000000000E+00  0.64930732323E+04  0.65000000000E+04  0.30000000000E+03 0.  1.
        -52   -1    0    0    0    0 -0.00000000000E+00 -0.00000000000E+00 -0.64930732323E+04  0.65000000000E+04  0.30000000000E+03 0. -1.
     100001    1    1    2    0    0 -0.23284444295E+04  0.57251606214E+04  0.20070456269E+04  0.65000000000E+04  0.15050000000E+03 0. -1.
     100001    1    1    2    0    0  0.23284444295E+04 -0.57251606214E+04 -0.20070456269E+04  0.65000000000E+04  0.15050000000E+03 0.  1.
</event>
<event>
 4    1  0.4521369E-004  0.6500000E+04  0.7818608E-02  0.7223770E-01
         52   -1    0    0    0    0  0.00000000000E+00  0.00000000000E+00  0.64930732323E+04  0.65000000000E+04  0.30000000000E+03 0.  1.
        -52   -1    0    0    0    0 -0.00000000000E+00 -0.00000000000E+00 -0.64930732323E+04  0.65000000000E+04  0.30000000000E+03 0. -1.
     100001    1    1    2    0    0 -0.17543259167E+04  0.77988988590E+03  0.62081770347E+04  0.65000000000E+04  0.15050000000E+03 0.  1.
     100001    1    1    2    0    0  0.17543259167E+04 -0.77988988590E+03 -0.62081770347E+04  0.65000000000E+04  0.15050000000E+03 0. -1.
</event>
<event>
 4    1  0.4521369E-004  0.6500000E+04  0.7818608E-02  0.7223770E-01
         52   -1    0    0    0    0  0.00000000000E+00  0.00000000000E+00  0.64930732323E+04  0.65000000000E+04  0.30000000000E+03 0. -1.
        -52   -1    0    0    0    0 -0.00000000000E+00 -0.00000000000E+00 -0.64930732323E+04  0.65000000000E+04  0.30000000000E+03 0.  1.
     100001    1    1    2    0    0 -0.46028659633E+03  0.10978760026E+04  0.63882825769E+04  0.65000000000E+04  0.15050000000E+03 0. -1.
     100001    1    1    2    0    0  0.46028659633E+03 -0.10978760026E+04 -0.63882825769E+04  0.65000000000E+04  0.15050000000E+03 0.  1.
</event>
<event>
 4    1  0.4521369E-004  0.6500000E+04  0.7818608E-02  0.7223770E-01
         52   -1    0    0    0    0  0.00000000000E+00  0.00000000000E+00  0.64930732323E+04  0.65000000000E+04  0.30000000000E+03 0. -1.
        -52   -1    0    0    0    0 -0.00000000000E+00 -0.00000000000E+00 -0.64930732323E+04  0.65000000000E+04  0.30000000000E+03 0. -1.
     100001    1    1    2    0    0  0.39375074213E+03  0.86290733962E+02  0.64857431349E+04  0.65000000000E+04  0.15050000000E+03 0. -1.
     100001    1    1    2    0    0 -0.39375074213E+03 -0.86290733962E+02 -0.64857431349E+04  0.65000000000E+04  0.15050000000E+03 0. -1.
</event>
<event>
 4    1  0.4521369E-004  0.6500000E+04  0.7818608E-02  0.7223770E-01
         52   -1    0    0    0    0  0.00000000000E+00  0.00000000000E+00  0.64930732323E+04  0.65000000000E+04  0.30000000000E+03 0.  1.
        -52   -1    0    0    0    0 -0.00000000000E+00 -0.00000000000E+00 -0.64930732323E+04  0.65000000000E+04  0.30000000000E+03 0. -1.
     100001    1    1    2    0    0  0.52647318810E+03 -0.14838491380E+04 -0.63046306369E+04  0.65000000000E+04  0.15050000000E+03 0. -1.
     100001    1    1    2    0    0 -0.52647318810E+03  0.14838491380E+04  0.63046306369E+04  0.65000000000E+04  0.15050000000E+03 0.  1.
</event>
<event>
 4    1  0.4521369E-004  0.6500000E+04  0.7818608E-02  0.7223770E-01
         52   -1    0    0    0    0  0.00000000000E+00  0.00000000000E+00  0.64930732323E+04  0.65000000000E+04  0.30000000000E+03 0.  1.
        -52   -1    0    0    0    0 -0.00000000000E+00 -0.00000000000E+00 -0.64930732323E+04  0.65000000000E+04  0.30000000000E+03 0. -1.
     100001    1    1    2    0    0  0.31707987149E+03  0.12897100487E+04  0.63610893796E+04  0.65000000000E+04  0.15050000000E+03 0.  1.
     100001    1    1    2    0    0 -0.31707987149E+03 -0.12897100487E+04 -0.63610893796E+04  0.65000000000E+04  0.15050000000E+03 0. -1.
</event>
<event>
 4    1  0.4521369E-004  0.6500000E+04  0.7818608E-02  0.7223770E-01
         52   -1    0    0    0    0  0.00000000000E+00  0.00000000000E+00  0.64930732323E+04  0.65000000000E+04  0.30000000000E+03 0.  1.
        -52   -1    0    0    0    0 -0.00000000000E+00 -0.00000000000E+00 -0.64930732323E+04  0.65000000000E+04  0.30000000000E+03 0. -1.
     100001    1    1    2    0    0  0.33662751123E+03 -0.34730910594E+03 -0.64802320987E+04  0.65000000000E+04  0.15050000000E+03 0. -1.
     100001    1    1    2    0    0 -0.33662751123E+03  0.34730910594E+03  0.64802320987E+04  0.65000000000E+04  0.15050000000E+03 0.  1.
</event>
<event>
 4    1  0.4521369E-004  0.6500000E+04  0.7818608E-02  0.7223770E-01
         52   -1    0    0    0    0  0.00000000000E+00  0.00000000000E+00  0.64930732323E+04  0.65000000000E+04  0.30000000000E+03 0. -1.
        -52   -1    0    0    0    0 -0.00000000000E+00 -0.00000000000E+00 -0.64930732323E+04  0.65000000000E+04  0.30000000000E+03 0.  1.
     100001    1    1    2    0    0 -0.51284661703E+04  0.35716493680E+04 -0.17803104455E+04  0.65000000000E+04  0.15050000000E+03 0.  1.
     100001    1    1    2    0    0  0.51284661703E+04 -0.35716493680E+04  0.17803104455E+04  0.65000000000E+04  0.15050000000E+03 0. -1.
</event>
<event>
 4    1  0.4521369E-004  0.6500000E+04  0.7818608E-02  0.7223770E-01
         52   -1    0    0    0    0  0.00000000000E+00  0.00000000000E+00  0.64930732323E+04  0.65000000000E+04  0.30000000000E+03 0. -1.
        -52   -1    0    0    0    0 -0.00000000000E+00 -0.00000000000E+00 -0.64930732323E+04  0.65000000000E+04  0.30000000000E+03 0.  1.
     100001    1    1    2    0    0 -0.81195729103E+02 -0.23129522056E+04  0.60721502862E+04  0.65000000000E+04  0.15050000000E+03 0. -1.
     100001    1    1    2    0    0  0.81195729103E+02  0.23129522056E+04 -0.60721502862E+04  0.65000000000E+04  0.15050000000E+03 0.  1.
</event>
<event>
 4    1  0.4521369E-004  0.6500000E+04  0.7818608E-02  0.7223770E-01
         52   -1    0    0    0    0  0.00000000000E+00  0.00000000000E+00  0.64930732323E+04  0.65000000000E+04  0.30000000000E+03 0. -1.
        -52   -1    0    0    0    0 -0.00000000000E+00 -0.00000000000E+00 -0.64930732323E+04  0.65000000000E+04  0.30000000000E+03 0.  1.
     100001    1    1    2    0    0  0.19431020403E+03 -0.13999915654E+04  0.63426821544E+04  0.65000000000E+04  0.15050000000E+03 0. -1.
     100001    1    1    2    0    0 -0.19431020403E+03  0.13999915654E+04 -0.63426821544E+04  0.65000000000E+04  0.15050000000E+03 0.  1.
</event>
<event>
 4    1  0.4521369E-004  0.6500000E+04  0.7818608E-02  0.7223770E-01
         52   -1    0    0    0    0  0.00000000000E+00  0.00000000000E+00  0.64930732323E+04  0.65000000000E+04  0.30000000000E+03 0.  1.
        -52   -1    0    0    0    0 -0.00000000000E+00 -0.00000000000E+00 -0.64930732323E+04  0.65000000000E+04  0.30000000000E+03 0. -1.
     100001    1    1    2    0    0 -0.11320901904E+04 -0.29352781934E+04  0.56859355851E+04  0.65000000000E+04  0.15050000000E+03 0.  1.
     100001    1    1    2    0    0  0.11320901904E+04  0.29352781934E+04 -0.56859355851E+04  0.65000000000E+04  0.15050000000E+03 0. -1.
</event>
<event>
 4    1  0.4521369E-004  0.6500000E+04  0.7818608E-02  0.7223770E-01
         52   -1    0    0    0    0  0.00000000000E+00  0.00000000000E+00  0.64930732323E+04  0.65000000000E+04  0.30000000000E+03 0. -1.
        -52   -1    0    0    0    0 -0.00000000000E+00 -0.00000000000E+00 -0.64930732323E+04  0.65000000000E+04  0.30000000000E+03 0.  1.
     100001    1    1    2    0    0 -0.33407356463E+02  0.11485116674E+04  0.63958701244E+04  0.65000000000E+04  0.15050000000E+03 0. -1.
     100001    1    1    2    0    0  0.33407356463E+02 -0.11485116674E+04 -0.63958701244E+04  0.65000000000E+04  0.15050000000E+03 0.  1.
</event>
<event>
 4    1  0.4521369E-004  0.6500000E+04  0.7818608E-02  0.7223770E-01
         52   -1    0    0    0    0  0.00000000000E+00  0.00000000000E+00  0.64930732323E+04  0.65000000000E+04  0.30000000000E+03 0.  1.
        -52   -1    0    0    0    0 -0.00000000000E+00 -0.00000000000E+00 -0.64930732323E+04  0.65000000000E+04  0.30000000000E+03 0. -1.
     100001    1    1    2    0    0  0.16601626129E+04 -0.24769809072E+03 -0.62777269377E+04  0.65000000000E+04  0.15050000000E+03 0. -1.
     100001    1    1    2    0    0 -0.16601626129E+04  0.24769809072E+03  0.62777269377E+04  0.65000000000E+04  0.15050000000E+03 0.  1.
</event>
<event>
 4    1  0.4521369E-004  0.6500000E+04  0.7818608E-02  0.7223770E-01
         52   -1    0    0    0    0  0.00000000000E+00  0.00000000000E+00  0.64930732323E+04  0.65000000000E+04  0.30000000000E+03 0. -1.
        -52   -1    0    0    0    0 -0.00000000000E+00 -0.00000000000E+00 -0.64930732323E+04  0.65000000000E+04  0.30000000000E+03 0.  1.
     100001    1    1    2    0    0 -0.74113009251E+03  0.16969275888E+04  0.62288452135E+04  0.65000000000E+04  0.15050000000E+03 0. -1.
     100001    1    1    2    0    0  0.74113009251E+03 -0.16969275888E+04 -0.62288452135E+04  0.65000000000E+04  0.15050000000E+03 0.  1.
</event>
<event>
 4    1  0.4521369E-004  0.6500000E+04  0.7818608E-02  0.7223770E-01
         52   -1    0    0    0    0  0.00000000000E+00  0.00000000000E+00  0.64930732323E+04  0.65000000000E+04  0.30000000000E+03 0.  1.
        -52   -1    0    0    0    0 -0.00000000000E+00 -0.00000000000E+00 -0.64930732323E+04  0.65000000000E+04  0.30000000000E+03 0. -1.
     100001    1    1    2    0    0  0.16150597066E+04 -0.13472113834E+04  0.61484919600E+04  0.65000000000E+04  0.15050000000E+03 0.  1.
     100001    1    1    2    0    0 -0.16150597066E+04  0.13472113834E+04 -0.61484919600E+04  0.65000000000E+04  0.15050000000E+03 0. -1.
</event>
<event>
 4    1  0.4521369E-004  0.6500000E+04  0.7818608E-02  0.7223770E-01
         52   -1    0    0    0    0  0.00000000000E+00  0.00000000000E+00  0.64930732323E+04  0.65000000000E+04  0.30000000000E+03 0. -1.
        -52   -1    0    0    0    0 -0.00000000000E+00 -0.00000000000E+00 -0.64930732323E+04  0.65000000000E+04  0.30000000000E+03 0.  1.
     100001    1    1    2    0    0 -0.26113776720E+04 -0.38423569749E+04  0.45436053176E+04  0.65000000000E+04  0.15050000000E+03 0. -1.
     100001    1    1    2    0    0  0.26113776720E+04  0.38423569749E+04 -0.45436053176E+04  0.65000000000E+04  0.15050000000E+03 0.  1.
</event>
<event>
 4    1  0.4521369E-004  0.6500000E+04  0.7818608E-02  0.7223770E-01
         52   -1    0    0    0    0  0.00000000000E+00  0.00000000000E+00  0.64930732323E+04  0.65000000000E+04  0.30000000000E+03 0.  1.
        -52   -1    0    0    0    0 -0.00000000000E+00 -0.00000000000E+00 -0.64930732323E+04  0.65000000000E+04  0.30000000000E+03 0. -1.
     100001    1    1    2    0    0 -0.15068677836E+04  0.92626166012E+02 -0.63204524859E+04  0.65000000000E+04  0.15050000000E+03 0. -1.
     100001    1    1    2    0    0  0.15068677836E+04 -0.92626166012E+02  0.63204524859E+04  0.65000000000E+04  0.15050000000E+03 0.  1.
</event>
<event>
 4    1  0.4521369E-004  0.6500000E+04  0.7818608E-02  0.7223770E-01
         52   -1    0    0    0    0  0.00000000000E+00  0.00000000000E+00  0.64930732323E+04  0.65000000000E+04  0.30000000000E+03 0.  1.
        -52   -1    0    0    0    0 -0.00000000000E+00 -0.00000000000E+00 -0.64930732323E+04  0.65000000000E+04  0.30000000000E+03 0. -1.
     100001    1    1    2    0    0  0.22336311176E+04  0.73344362121E+03 -0.60580774372E+04  0.65000000000E+04  0.15050000000E+03 0. -1.
     100001    1    1    2    0    0 -0.22336311176E+04 -0.73344362121E+03  0.60580774372E+04  0.65000000000E+04  0.15050000000E+03 0.  1.
</event>
<event>
 4    1  0.4521369E-004  0.6500000E+04  0.7818608E-02  0.7223770E-01
         52   -1    0    0    0    0  0.00000000000E+00  0.00000000000E+00  0.64930732323E+04  0.65000000000E+04  0.30000000000E+03 0.  1.
        -52   -1    0    0    0    0 -0.00000000000E+00 -0.00000000000E+00 -0.64930732323E+04  0.65000000000E+04  0.30000000000E+03 0.  1.
     100001    1    1    2    0    0  0.33486639113E+03 -0.24497448480E+03 -0.64849982075E+04  0.65000000000E+04  0.15050000000E+03 0.  1.
     100001    1    1    2    0    0 -0.33486639113E+03  0.24497448480E+03  0.64849982075E+04  0.65000000000E+04  0.15050000000E+03 0.  1.
</event>
<event>
 4    1  0.4521369E-004  0.6500000E+04  0.7818608E-02  0.7223770E-01
         52   -1    0    0    0    0  0.00000000000E+00  0.00000000000E+00  0.64930732323E+04  0.65000000000E+04  0.30000000000E+03 0.  1.
        -52   -1    0    0    0    0 -0.00000000000E+00 -0.00000000000E+00 -0.64930732323E+04  0.65000000000E+04  0.30000000000E+03 0. -1.
     100001    1    1    2    0    0 -0.59651867283E+03 -0.18453855924E+03 -0.64681883664E+04  0.65000000000E+04  0.15050000000E+03 0. -1.
     100001    1    1    2    0    0  0.59651867283E+03  0.18453855924E+03  0.64681883664E+04  0.65000000000E+04  0.15050000000E+03 0.  1.
</event>
<event>
 4    1  0.4521369E-004  0.6500000E+04  0.7818608E-02  0.7223770E-01
         52   -1    0    0    0    0  0.00000000000E+00  0.00000000000E+00  0.64930732323E+04  0.65000000000E+04  0.30000000000E+03 0. -1.
        -52   -1    0    0    0    0 -0.00000000000E+00 -0.00000000000E+00 -0.64930732323E+04  0.65000000000E+04  0.30000000000E+03 0.  1.
     100001    1    1    2    0    0 -0.33581226296E+04  0.77476930693E+03  0.55090920010E+04  0.65000000000E+04  0.15050000000E+03 0. -1.
     100001    1    1    2    0    0  0.33581226296E+04 -0.77476930693E+03 -0.55090920010E+04  0.65000000000E+04  0.15050000000E+03 0.  1.
</event>
<event>
 4    1  0.4521369E-004  0.6500000E+04  0.7818608E-02  0.7223770E-01
         52   -1    0    0    0    0  0.00000000000E+00  0.00000000000E+00  0.64930732323E+04  0.65000000000E+04  0.30000000000E+03 0.  1.
        -52   -1    0    0    0    0 -0.00000000000E+00 -0.00000000000E+00 -0.64930732323E+04  0.65000000000E+04  0.30000000000E+03 0.  1.
     100001    1    1    2    0    0  0.11045775574E+03 -0.37674577648E+03  0.64863866254E+04  0.65000000000E+04  0.15050000000E+03 0.  1.
     100001    1    1    2    0    0 -0.11045775574E+03  0.37674577648E+03 -0.64863866254E+04  0.65000000000E+04  0.15050000000E+03 0.  1.
</event>
<event>
 4    1  0.4521369E-004  0.6500000E+04  0.7818608E-02  0.7223770E-01
         52   -1    0    0    0    0  0.00000000000E+00  0.00000000000E+00  0.64930732323E+04  0.65000000000E+04  0.30000000000E+03 0.  1.
        -52   -1    0    0    0    0 -0.00000000000E+00 -0.00000000000E+00 -0.64930732323E+04  0.65000000000E+04  0.30000000000E+03 0.  1.
     100001    1    1    2    0    0 -0.53100610420E+03 -0.93633390358E+02 -0.64758485973E+04  0.65000000000E+04  0.15050000000E+03 0.  1.
     100001    1    1    2    0    0  0.53100610420E+03  0.93633390358E+02  0.64758485973E+04  0.65000000000E+04  0.15050000000E+03 0.  1.
</event>
<event>
 4    1  0.4521369E-004  0.6500000E+04  0.7818608E-02  0.7223770E-01
         52   -1    0    0    0    0  0.00000000000E+00  0.00000000000E+00  0.64930732323E+04  0.65000000000E+04  0.30000000000E+03 0. -1.
        -52   -1    0    0    0    0 -0.00000000000E+00 -0.00000000000E+00 -0.64930732323E+04  0.65000000000E+04  0.30000000000E+03 0.  1.
     100001    1    1    2    0    0 -0.25474901076E+04  0.12914191804E+04 -0.58369410141E+04  0.65000000000E+04  0.15050000000E+03 0.  1.
     100001    1    1    2    0    0  0.25474901076E+04 -0.12914191804E+04  0.58369410141E+04  0.65000000000E+04  0.15050000000E+03 0. -1.
</event>
<event>
 4    1  0.4521369E-004  0.6500000E+04  0.7818608E-02  0.7223770E-01
         52   -1    0    0    0    0  0.00000000000E+00  0.00000000000E+00  0.64930732323E+04  0.65000000000E+04  0.30000000000E+03 0. -1.
        -52   -1    0    0    0    0 -0.00000000000E+00 -0.00000000000E+00 -0.64930732323E+04  0.65000000000E+04  0.30000000000E+03 0. -1.
     100001    1    1    2    0    0  0.20731026210E+03  0.89723361382E+03  0.64326778287E+04  0.65000000000E+04  0.15050000000E+03 0. -1.
     100001    1    1    2    0    0 -0.20731026210E+03 -0.89723361382E+03 -0.64326778287E+04  0.65000000000E+04  0.15050000000E+03 0. -1.
</event>
<event>
 4    1  0.4521369E-004  0.6500000E+04  0.7818608E-02  0.7223770E-01
         52   -1    0    0    0    0  0.00000000000E+00  0.00000000000E+00  0.64930732323E+04  0.65000000000E+04  0.30000000000E+03 0. -1.
        -52   -1    0    0    0    0 -0.00000000000E+00 -0.00000000000E+00 -0.64930732323E+04  0.65000000000E+04  0.30000000000E+03 0.  1.
     100001    1    1    2    0    0  0.10967246468E+04 -0.39577654643E+03 -0.63928010859E+04  0.65000000000E+04  0.15050000000E+03 0.  1.
     100001    1    1    2    0    0 -0.10967246468E+04  0.39577654643E+03  0.63928010859E+04  0.65000000000E+04  0.15050000000E+03 0. -1.
</event>
<event>
 4    1  0.5781702E-004  0.6500000E+04  0.7818608E-02  0.7223770E-01
         52   -1    0    0    0    0  0.00000000000E+00  0.00000000000E+00  0.64930732323E+04  0.65000000000E+04  0.30000000000E+03 0. -1.
        -52   -1    0    0    0    0 -0.00000000000E+00 -0.00000000000E+00 -0.64930732323E+04  0.65000000000E+04  0.30000000000E+03 0. -1.
     100001    1    1    2    0    0  0.11664065032E+03 -0.15794683899E+03 -0.64952904096E+04  0.65000000000E+04  0.15050000000E+03 0. -1.
     100001    1    1    2    0    0 -0.11664065032E+03  0.15794683899E+03  0.64952904096E+04  0.65000000000E+04  0.15050000000E+03 0. -1.
</event>
<event>
 4    1  0.4521369E-004  0.6500000E+04  0.7818608E-02  0.7223770E-01
         52   -1    0    0    0    0  0.00000000000E+00  0.00000000000E+00  0.64930732323E+04  0.65000000000E+04  0.30000000000E+03 0.  1.
        -52   -1    0    0    0    0 -0.00000000000E+00 -0.00000000000E+00 -0.64930732323E+04  0.65000000000E+04  0.30000000000E+03 0. -1.
     100001    1    1    2    0    0 -0.25512092049E+04 -0.21259188617E+04 -0.55856199599E+04  0.65000000000E+04  0.15050000000E+03 0. -1.
     100001    1    1    2    0    0  0.25512092049E+04  0.21259188617E+04  0.55856199599E+04  0.65000000000E+04  0.15050000000E+03 0.  1.
</event>
<event>
 4    1  0.4521369E-004  0.6500000E+04  0.7818608E-02  0.7223770E-01
         52   -1    0    0    0    0  0.00000000000E+00  0.00000000000E+00  0.64930732323E+04  0.65000000000E+04  0.30000000000E+03 0. -1.
        -52   -1    0    0    0    0 -0.00000000000E+00 -0.00000000000E+00 -0.64930732323E+04  0.65000000000E+04  0.30000000000E+03 0.  1.
     100001    1    1    2    0    0 -0.42260844116E+04 -0.48773710147E+04  0.76079713489E+03  0.65000000000E+04  0.15050000000E+03 0.  1.
     100001    1    1    2    0    0  0.42260844116E+04  0.48773710147E+04 -0.76079713489E+03  0.65000000000E+04  0.15050000000E+03 0. -1.
</event>
<event>
 4    1  0.4521369E-004  0.6500000E+04  0.7818608E-02  0.7223770E-01
         52   -1    0    0    0    0  0.00000000000E+00  0.00000000000E+00  0.64930732323E+04  0.65000000000E+04  0.30000000000E+03 0.  1.
        -52   -1    0    0    0    0 -0.00000000000E+00 -0.00000000000E+00 -0.64930732323E+04  0.65000000000E+04  0.30000000000E+03 0.  1.
     100001    1    1    2    0    0 -0.28907167862E+03 -0.13865443384E+03  0.64903437708E+04  0.65000000000E+04  0.15050000000E+03 0.  1.
     100001    1    1    2    0    0  0.28907167862E+03  0.13865443384E+03 -0.64903437708E+04  0.65000000000E+04  0.15050000000E+03 0.  1.
</event>
<event>
 4    1  0.4521369E-004  0.6500000E+04  0.7818608E-02  0.7223770E-01
         52   -1    0    0    0    0  0.00000000000E+00  0.00000000000E+00  0.64930732323E+04  0.65000000000E+04  0.30000000000E+03 0.  1.
        -52   -1    0    0    0    0 -0.00000000000E+00 -0.00000000000E+00 -0.64930732323E+04  0.65000000000E+04  0.30000000000E+03 0.  1.
     100001    1    1    2    0    0  0.91893222956E+03  0.26009930406E+03 -0.64276948947E+04  0.65000000000E+04  0.15050000000E+03 0.  1.
     100001    1    1    2    0    0 -0.91893222956E+03 -0.26009930406E+03  0.64276948947E+04  0.65000000000E+04  0.15050000000E+03 0.  1.
</event>
<event>
 4    1  0.4521369E-004  0.6500000E+04  0.7818608E-02  0.7223770E-01
         52   -1    0    0    0    0  0.00000000000E+00  0.00000000000E+00  0.64930732323E+04  0.65000000000E+04  0.30000000000E+03 0. -1.
        -52   -1    0    0    0    0 -0.00000000000E+00 -0.00000000000E+00 -0.64930732323E+04  0.65000000000E+04  0.30000000000E+03 0.  1.
     100001    1    1    2    0    0 -0.70885858574E+03  0.14212354636E+04 -0.63011871114E+04  0.65000000000E+04  0.15050000000E+03 0.  1.
     100001    1    1    2    0    0  0.70885858574E+03 -0.14212354636E+04  0.63011871114E+04  0.65000000000E+04  0.15050000000E+03 0. -1.
</event>
<event>
 4    1  0.4521369E-004  0.6500000E+04  0.7818608E-02  0.7223770E-01
         52   -1    0    0    0    0  0.00000000000E+00  0.00000000000E+00  0.64930732323E+04  0.65000000000E+04  0.30000000000E+03 0. -1.
        -52   -1    0    0    0    0 -0.00000000000E+00 -0.00000000000E+00 -0.64930732323E+04  0.65000000000E+04  0.30000000000E+03 0.  1.
     100001    1    1    2    0    0  0.29379587347E+04 -0.27356964435E+04 -0.51099621517E+04  0.65000000000E+04  0.15050000000E+03 0.  1.
     100001    1    1    2    0    0 -0.29379587347E+04  0.27356964435E+04  0.51099621517E+04  0.65000000000E+04  0.15050000000E+03 0. -1.
</event>
<event>
 4    1  0.4521369E-004  0.6500000E+04  0.7818608E-02  0.7223770E-01
         52   -1    0    0    0    0  0.00000000000E+00  0.00000000000E+00  0.64930732323E+04  0.65000000000E+04  0.30000000000E+03 0.  1.
        -52   -1    0    0    0    0 -0.00000000000E+00 -0.00000000000E+00 -0.64930732323E+04  0.65000000000E+04  0.30000000000E+03 0. -1.
     100001    1    1    2    0    0 -0.39436633220E+03  0.25058639929E+03  0.64814374488E+04  0.65000000000E+04  0.15050000000E+03 0.  1.
     100001    1    1    2    0    0  0.39436633220E+03 -0.25058639929E+03 -0.64814374488E+04  0.65000000000E+04  0.15050000000E+03 0. -1.
</event>
<event>
 4    1  0.4521369E-004  0.6500000E+04  0.7818608E-02  0.7223770E-01
         52   -1    0    0    0    0  0.00000000000E+00  0.00000000000E+00  0.64930732323E+04  0.65000000000E+04  0.30000000000E+03 0.  1.
        -52   -1    0    0    0    0 -0.00000000000E+00 -0.00000000000E+00 -0.64930732323E+04  0.65000000000E+04  0.30000000000E+03 0. -1.
     100001    1    1    2    0    0 -0.32581340995E+03  0.10231195284E+04 -0.64089329691E+04  0.65000000000E+04  0.15050000000E+03 0. -1.
     100001    1    1    2    0    0  0.32581340995E+03 -0.10231195284E+04  0.64089329691E+04  0.65000000000E+04  0.15050000000E+03 0.  1.
</event>
<event>
 4    1  0.4521369E-004  0.6500000E+04  0.7818608E-02  0.7223770E-01
         52   -1    0    0    0    0  0.00000000000E+00  0.00000000000E+00  0.64930732323E+04  0.65000000000E+04  0.30000000000E+03 0.  1.
        -52   -1    0    0    0    0 -0.00000000000E+00 -0.00000000000E+00 -0.64930732323E+04  0.65000000000E+04  0.30000000000E+03 0. -1.
     100001    1    1    2    0    0  0.18027777511E+04 -0.61253407818E+03 -0.62130623796E+04  0.65000000000E+04  0.15050000000E+03 0. -1.
     100001    1    1    2    0    0 -0.18027777511E+04  0.61253407818E+03  0.62130623796E+04  0.65000000000E+04  0.15050000000E+03 0.  1.
</event>
<event>
 4    1  0.4521369E-004  0.6500000E+04  0.7818608E-02  0.7223770E-01
         52   -1    0    0    0    0  0.00000000000E+00  0.00000000000E+00  0.64930732323E+04  0.65000000000E+04  0.30000000000E+03 0. -1.
        -52   -1    0    0    0    0 -0.00000000000E+00 -0.00000000000E+00 -0.64930732323E+04  0.65000000000E+04  0.30000000000E+03 0.  1.
     100001    1    1    2    0    0  0.14036317732E+04  0.24016204857E+03  0.63403067580E+04  0.65000000000E+04  0.15050000000E+03 0. -1.
     100001    1    1    2    0    0 -0.14036317732E+04 -0.24016204857E+03 -0.63403067580E+04  0.65000000000E+04  0.15050000000E+03 0.  1.
</event>
<event>
 4    1  0.4521369E-004  0.6500000E+04  0.7818608E-02  0.7223770E-01
         52   -1    0    0    0    0  0.00000000000E+00  0.00000000000E+00  0.64930732323E+04  0.65000000000E+04  0.30000000000E+03 0.  1.
        -52   -1    0    0    0    0 -0.00000000000E+00 -0.00000000000E+00 -0.64930732323E+04  0.65000000000E+04  0.30000000000E+03 0. -1.
     100001    1    1    2    0    0  0.60357057319E+04 -0.43786264315E+03 -0.23676744653E+04  0.65000000000E+04  0.15050000000E+03 0. -1.
     100001    1    1    2    0    0 -0.60357057319E+04  0.43786264315E+03  0.23676744653E+04  0.65000000000E+04  0.15050000000E+03 0.  1.
</event>
<event>
 4    1  0.4521369E-004  0.6500000E+04  0.7818608E-02  0.7223770E-01
         52   -1    0    0    0    0  0.00000000000E+00  0.00000000000E+00  0.64930732323E+04  0.65000000000E+04  0.30000000000E+03 0. -1.
        -52   -1    0    0    0    0 -0.00000000000E+00 -0.00000000000E+00 -0.64930732323E+04  0.65000000000E+04  0.30000000000E+03 0.  1.
     100001    1    1    2    0    0  0.25060681059E+04 -0.46260709868E+02  0.59954009328E+04  0.65000000000E+04  0.15050000000E+03 0. -1.
     100001    1    1    2    0    0 -0.25060681059E+04  0.46260709868E+02 -0.59954009328E+04  0.65000000000E+04  0.15050000000E+03 0.  1.
</event>
<event>
 4    1  0.4521369E-004  0.6500000E+04  0.7818608E-02  0.7223770E-01
         52   -1    0    0    0    0  0.00000000000E+00  0.00000000000E+00  0.64930732323E+04  0.65000000000E+04  0.30000000000E+03 0. -1.
        -52   -1    0    0    0    0 -0.00000000000E+00 -0.00000000000E+00 -0.64930732323E+04  0.65000000000E+04  0.30000000000E+03 0. -1.
     100001    1    1    2    0    0  0.60728067352E+01 -0.31030949700E+03  0.64908413081E+04  0.65000000000E+04  0.15050000000E+03 0. -1.
     100001    1    1    2    0    0 -0.60728067352E+01  0.31030949700E+03 -0.64908413081E+04  0.65000000000E+04  0.15050000000E+03 0. -1.
</event>
<event>
 4    1  0.4521369E-004  0.6500000E+04  0.7818608E-02  0.7223770E-01
         52   -1    0    0    0    0  0.00000000000E+00  0.00000000000E+00  0.64930732323E+04  0.65000000000E+04  0.30000000000E+03 0. -1.
        -52   -1    0    0    0    0 -0.00000000000E+00 -0.00000000000E+00 -0.64930732323E+04  0.65000000000E+04  0.30000000000E+03 0.  1.
     100001    1    1    2    0    0 -0.15084534230E+04  0.17751123283E+04 -0.60663740605E+04  0.65000000000E+04  0.15050000000E+03 0.  1.
     100001    1    1    2    0    0  0.15084534230E+04 -0.17751123283E+04  0.60663740605E+04  0.65000000000E+04  0.15050000000E+03 0. -1.
</event>
<event>
 4    1  0.4521369E-004  0.6500000E+04  0.7818608E-02  0.7223770E-01
         52   -1    0    0    0    0  0.00000000000E+00  0.00000000000E+00  0.64930732323E+04  0.65000000000E+04  0.30000000000E+03 0.  1.
        -52   -1    0    0    0    0 -0.00000000000E+00 -0.00000000000E+00 -0.64930732323E+04  0.65000000000E+04  0.30000000000E+03 0. -1.
     100001    1    1    2    0    0 -0.36821646787E+03 -0.28048681188E+04 -0.58501693325E+04  0.65000000000E+04  0.15050000000E+03 0. -1.
     100001    1    1    2    0    0  0.36821646787E+03  0.28048681188E+04  0.58501693325E+04  0.65000000000E+04  0.15050000000E+03 0.  1.
</event>
<event>
 4    1  0.4521369E-004  0.6500000E+04  0.7818608E-02  0.7223770E-01
         52   -1    0    0    0    0  0.00000000000E+00  0.00000000000E+00  0.64930732323E+04  0.65000000000E+04  0.30000000000E+03 0.  1.
        -52   -1    0    0    0    0 -0.00000000000E+00 -0.00000000000E+00 -0.64930732323E+04  0.65000000000E+04  0.30000000000E+03 0. -1.
     100001    1    1    2    0    0  0.28926072687E+04 -0.60884444851E+03  0.57870097094E+04  0.65000000000E+04  0.15050000000E+03 0.  1.
     100001    1    1    2    0    0 -0.28926072687E+04  0.60884444851E+03 -0.57870097094E+04  0.65000000000E+04  0.15050000000E+03 0. -1.
</event>
<event>
 4    1  0.4521369E-004  0.6500000E+04  0.7818608E-02  0.7223770E-01
         52   -1    0    0    0    0  0.00000000000E+00  0.00000000000E+00  0.64930732323E+04  0.65000000000E+04  0.30000000000E+03 0.  1.
        -52   -1    0    0    0    0 -0.00000000000E+00 -0.00000000000E+00 -0.64930732323E+04  0.65000000000E+04  0.30000000000E+03 0. -1.
     100001    1    1    2    0    0  0.53186969160E+03  0.12614975456E+04 -0.63524080728E+04  0.65000000000E+04  0.15050000000E+03 0. -1.
     100001    1    1    2    0    0 -0.53186969160E+03 -0.12614975456E+04  0.63524080728E+04  0.65000000000E+04  0.15050000000E+03 0.  1.
</event>
<event>
 4    1  0.4521369E-004  0.6500000E+04  0.7818608E-02  0.7223770E-01
         52   -1    0    0    0    0  0.00000000000E+00  0.00000000000E+00  0.64930732323E+04  0.65000000000E+04  0.30000000000E+03 0.  1.
        -52   -1    0    0    0    0 -0.00000000000E+00 -0.00000000000E+00 -0.64930732323E+04  0.65000000000E+04  0.30000000000E+03 0. -1.
     100001    1    1    2    0    0 -0.20293520972E+04  0.20066704962E+03  0.61699929133E+04  0.65000000000E+04  0.15050000000E+03 0.  1.
     100001    1    1    2    0    0  0.20293520972E+04 -0.20066704962E+03 -0.61699929133E+04  0.65000000000E+04  0.15050000000E+03 0. -1.
</event>
<event>
 4    1  0.4521369E-004  0.6500000E+04  0.7818608E-02  0.7223770E-01
         52   -1    0    0    0    0  0.00000000000E+00  0.00000000000E+00  0.64930732323E+04  0.65000000000E+04  0.30000000000E+03 0.  1.
        -52   -1    0    0    0    0 -0.00000000000E+00 -0.00000000000E+00 -0.64930732323E+04  0.65000000000E+04  0.30000000000E+03 0. -1.
     100001    1    1    2    0    0  0.90046302416E+03 -0.11877263351E+04 -0.63250155925E+04  0.65000000000E+04  0.15050000000E+03 0. -1.
     100001    1    1    2    0    0 -0.90046302416E+03  0.11877263351E+04  0.63250155925E+04  0.65000000000E+04  0.15050000000E+03 0.  1.
</event>
<event>
 4    1  0.4521369E-004  0.6500000E+04  0.7818608E-02  0.7223770E-01
         52   -1    0    0    0    0  0.00000000000E+00  0.00000000000E+00  0.64930732323E+04  0.65000000000E+04  0.30000000000E+03 0.  1.
        -52   -1    0    0    0    0 -0.00000000000E+00 -0.00000000000E+00 -0.64930732323E+04  0.65000000000E+04  0.30000000000E+03 0.  1.
     100001    1    1    2    0    0  0.19527124910E+03  0.36429065092E+03 -0.64850991674E+04  0.65000000000E+04  0.15050000000E+03 0.  1.
     100001    1    1    2    0    0 -0.19527124910E+03 -0.36429065092E+03  0.64850991674E+04  0.65000000000E+04  0.15050000000E+03 0.  1.
</event>
<event>
 4    1  0.4521369E-004  0.6500000E+04  0.7818608E-02  0.7223770E-01
         52   -1    0    0    0    0  0.00000000000E+00  0.00000000000E+00  0.64930732323E+04  0.65000000000E+04  0.30000000000E+03 0. -1.
        -52   -1    0    0    0    0 -0.00000000000E+00 -0.00000000000E+00 -0.64930732323E+04  0.65000000000E+04  0.30000000000E+03 0.  1.
     100001    1    1    2    0    0  0.59216493746E+03  0.60387764939E+03 -0.64429824011E+04  0.65000000000E+04  0.15050000000E+03 0.  1.
     100001    1    1    2    0    0 -0.59216493746E+03 -0.60387764939E+03  0.64429824011E+04  0.65000000000E+04  0.15050000000E+03 0. -1.
</event>
<event>
 4    1  0.4521369E-004  0.6500000E+04  0.7818608E-02  0.7223770E-01
         52   -1    0    0    0    0  0.00000000000E+00  0.00000000000E+00  0.64930732323E+04  0.65000000000E+04  0.30000000000E+03 0.  1.
        -52   -1    0    0    0    0 -0.00000000000E+00 -0.00000000000E+00 -0.64930732323E+04  0.65000000000E+04  0.30000000000E+03 0. -1.
     100001    1    1    2    0    0  0.42576814234E+03 -0.60659502603E+03 -0.64558588672E+04  0.65000000000E+04  0.15050000000E+03 0. -1.
     100001    1    1    2    0    0 -0.42576814234E+03  0.60659502603E+03  0.64558588672E+04  0.65000000000E+04  0.15050000000E+03 0.  1.
</event>
<event>
 4    1  0.4521369E-004  0.6500000E+04  0.7818608E-02  0.7223770E-01
         52   -1    0    0    0    0  0.00000000000E+00  0.00000000000E+00  0.64930732323E+04  0.65000000000E+04  0.30000000000E+03 0. -1.
        -52   -1    0    0    0    0 -0.00000000000E+00 -0.00000000000E+00 -0.64930732323E+04  0.65000000000E+04  0.30000000000E+03 0.  1.
     100001    1    1    2    0    0  0.16430010532E+04 -0.13857831548E+04 -0.61324956043E+04  0.65000000000E+04  0.15050000000E+03 0.  1.
     100001    1    1    2    0    0 -0.16430010532E+04  0.13857831548E+04  0.61324956043E+04  0.65000000000E+04  0.15050000000E+03 0. -1.
</event>
<event>
 4    1  0.4521369E-004  0.6500000E+04  0.7818608E-02  0.7223770E-01
         52   -1    0    0    0    0  0.00000000000E+00  0.00000000000E+00  0.64930732323E+04  0.65000000000E+04  0.30000000000E+03 0.  1.
        -52   -1    0    0    0    0 -0.00000000000E+00 -0.00000000000E+00 -0.64930732323E+04  0.65000000000E+04  0.30000000000E+03 0. -1.
     100001    1    1    2    0    0  0.38938394316E+04  0.50761710246E+03 -0.51776142294E+04  0.65000000000E+04  0.15050000000E+03 0. -1.
     100001    1    1    2    0    0 -0.38938394316E+04 -0.50761710246E+03  0.51776142294E+04  0.65000000000E+04  0.15050000000E+03 0.  1.
</event>
<event>
 4    1  0.4521369E-004  0.6500000E+04  0.7818608E-02  0.7223770E-01
         52   -1    0    0    0    0  0.00000000000E+00  0.00000000000E+00  0.64930732323E+04  0.65000000000E+04  0.30000000000E+03 0. -1.
        -52   -1    0    0    0    0 -0.00000000000E+00 -0.00000000000E+00 -0.64930732323E+04  0.65000000000E+04  0.30000000000E+03 0. -1.
     100001    1    1    2    0    0 -0.15470617838E+03 -0.31953296872E+03 -0.64885525682E+04  0.65000000000E+04  0.15050000000E+03 0. -1.
     100001    1    1    2    0    0  0.15470617838E+03  0.31953296872E+03  0.64885525682E+04  0.65000000000E+04  0.15050000000E+03 0. -1.
</event>
<event>
 4    1  0.4521369E-004  0.6500000E+04  0.7818608E-02  0.7223770E-01
         52   -1    0    0    0    0  0.00000000000E+00  0.00000000000E+00  0.64930732323E+04  0.65000000000E+04  0.30000000000E+03 0. -1.
        -52   -1    0    0    0    0 -0.00000000000E+00 -0.00000000000E+00 -0.64930732323E+04  0.65000000000E+04  0.30000000000E+03 0.  1.
     100001    1    1    2    0    0 -0.57426468623E+03  0.27488006046E+04 -0.58601761967E+04  0.65000000000E+04  0.15050000000E+03 0.  1.
     100001    1    1    2    0    0  0.57426468623E+03 -0.27488006046E+04  0.58601761967E+04  0.65000000000E+04  0.15050000000E+03 0. -1.
</event>
<event>
 4    1  0.4521369E-004  0.6500000E+04  0.7818608E-02  0.7223770E-01
         52   -1    0    0    0    0  0.00000000000E+00  0.00000000000E+00  0.64930732323E+04  0.65000000000E+04  0.30000000000E+03 0.  1.
        -52   -1    0    0    0    0 -0.00000000000E+00 -0.00000000000E+00 -0.64930732323E+04  0.65000000000E+04  0.30000000000E+03 0. -1.
     100001    1    1    2    0    0 -0.11908049418E+04 -0.11958381159E+04 -0.62752931837E+04  0.65000000000E+04  0.15050000000E+03 0. -1.
     100001    1    1    2    0    0  0.11908049418E+04  0.11958381159E+04  0.62752931837E+04  0.65000000000E+04  0.15050000000E+03 0.  1.
</event>
<event>
 4    1  0.4521369E-004  0.6500000E+04  0.7818608E-02  0.7223770E-01
         52   -1    0    0    0    0  0.00000000000E+00  0.00000000000E+00  0.64930732323E+04  0.65000000000E+04  0.30000000000E+03 0. -1.
        -52   -1    0    0    0    0 -0.00000000000E+00 -0.00000000000E+00 -0.64930732323E+04  0.65000000000E+04  0.30000000000E+03 0.  1.
     100001    1    1    2    0    0  0.63597585366E+03 -0.29882259141E+03  0.64601539860E+04  0.65000000000E+04  0.15050000000E+03 0. -1.
     100001    1    1    2    0    0 -0.63597585366E+03  0.29882259141E+03 -0.64601539860E+04  0.65000000000E+04  0.15050000000E+03 0.  1.
</event>
<event>
 4    1  0.4521369E-004  0.6500000E+04  0.7818608E-02  0.7223770E-01
         52   -1    0    0    0    0  0.00000000000E+00  0.00000000000E+00  0.64930732323E+04  0.65000000000E+04  0.30000000000E+03 0.  1.
        -52   -1    0    0    0    0 -0.00000000000E+00 -0.00000000000E+00 -0.64930732323E+04  0.65000000000E+04  0.30000000000E+03 0. -1.
     100001    1    1    2    0    0 -0.11288974443E+03  0.13035014934E+04 -0.63651778854E+04  0.65000000000E+04  0.15050000000E+03 0. -1.
     100001    1    1    2    0    0  0.11288974443E+03 -0.13035014934E+04  0.63651778854E+04  0.65000000000E+04  0.15050000000E+03 0.  1.
</event>
<event>
 4    1  0.4521369E-004  0.6500000E+04  0.7818608E-02  0.7223770E-01
         52   -1    0    0    0    0  0.00000000000E+00  0.00000000000E+00  0.64930732323E+04  0.65000000000E+04  0.30000000000E+03 0.  1.
        -52   -1    0    0    0    0 -0.00000000000E+00 -0.00000000000E+00 -0.64930732323E+04  0.65000000000E+04  0.30000000000E+03 0. -1.
     100001    1    1    2    0    0 -0.61490334224E+04 -0.18062944258E+04  0.10742616847E+04  0.65000000000E+04  0.15050000000E+03 0.  1.
     100001    1    1    2    0    0  0.61490334224E+04  0.18062944258E+04 -0.10742616847E+04  0.65000000000E+04  0.15050000000E+03 0. -1.
</event>
<event>
 4    1  0.4521369E-004  0.6500000E+04  0.7818608E-02  0.7223770E-01
         52   -1    0    0    0    0  0.00000000000E+00  0.00000000000E+00  0.64930732323E+04  0.65000000000E+04  0.30000000000E+03 0.  1.
        -52   -1    0    0    0    0 -0.00000000000E+00 -0.00000000000E+00 -0.64930732323E+04  0.65000000000E+04  0.30000000000E+03 0. -1.
     100001    1    1    2    0    0  0.72426082007E+03  0.21446101843E+03 -0.64542081223E+04  0.65000000000E+04  0.15050000000E+03 0. -1.
     100001    1    1    2    0    0 -0.72426082007E+03 -0.21446101843E+03  0.64542081223E+04  0.65000000000E+04  0.15050000000E+03 0.  1.
</event>
<event>
 4    1  0.4521369E-004  0.6500000E+04  0.7818608E-02  0.7223770E-01
         52   -1    0    0    0    0  0.00000000000E+00  0.00000000000E+00  0.64930732323E+04  0.65000000000E+04  0.30000000000E+03 0. -1.
        -52   -1    0    0    0    0 -0.00000000000E+00 -0.00000000000E+00 -0.64930732323E+04  0.65000000000E+04  0.30000000000E+03 0.  1.
     100001    1    1    2    0    0  0.18821841795E+04  0.19527754385E+04 -0.59052011440E+04  0.65000000000E+04  0.15050000000E+03 0.  1.
     100001    1    1    2    0    0 -0.18821841795E+04 -0.19527754385E+04  0.59052011440E+04  0.65000000000E+04  0.15050000000E+03 0. -1.
</event>
<event>
 4    1  0.4521369E-004  0.6500000E+04  0.7818608E-02  0.7223770E-01
         52   -1    0    0    0    0  0.00000000000E+00  0.00000000000E+00  0.64930732323E+04  0.65000000000E+04  0.30000000000E+03 0.  1.
        -52   -1    0    0    0    0 -0.00000000000E+00 -0.00000000000E+00 -0.64930732323E+04  0.65000000000E+04  0.30000000000E+03 0. -1.
     100001    1    1    2    0    0 -0.67884962626E+03 -0.22196462194E+03  0.64588888086E+04  0.65000000000E+04  0.15050000000E+03 0.  1.
     100001    1    1    2    0    0  0.67884962626E+03  0.22196462194E+03 -0.64588888086E+04  0.65000000000E+04  0.15050000000E+03 0. -1.
</event>
<event>
 4    1  0.4521369E-004  0.6500000E+04  0.7818608E-02  0.7223770E-01
         52   -1    0    0    0    0  0.00000000000E+00  0.00000000000E+00  0.64930732323E+04  0.65000000000E+04  0.30000000000E+03 0. -1.
        -52   -1    0    0    0    0 -0.00000000000E+00 -0.00000000000E+00 -0.64930732323E+04  0.65000000000E+04  0.30000000000E+03 0.  1.
     100001    1    1    2    0    0 -0.11742316894E+04  0.16613899014E+04 -0.61715729993E+04  0.65000000000E+04  0.15050000000E+03 0.  1.
     100001    1    1    2    0    0  0.11742316894E+04 -0.16613899014E+04  0.61715729993E+04  0.65000000000E+04  0.15050000000E+03 0. -1.
</event>
<event>
 4    1  0.4521369E-004  0.6500000E+04  0.7818608E-02  0.7223770E-01
         52   -1    0    0    0    0  0.00000000000E+00  0.00000000000E+00  0.64930732323E+04  0.65000000000E+04  0.30000000000E+03 0. -1.
        -52   -1    0    0    0    0 -0.00000000000E+00 -0.00000000000E+00 -0.64930732323E+04  0.65000000000E+04  0.30000000000E+03 0.  1.
     100001    1    1    2    0    0  0.17513878040E+04  0.74602743750E+03 -0.62131661472E+04  0.65000000000E+04  0.15050000000E+03 0.  1.
     100001    1    1    2    0    0 -0.17513878040E+04 -0.74602743750E+03  0.62131661472E+04  0.65000000000E+04  0.15050000000E+03 0. -1.
</event>
<event>
 4    1  0.4521369E-004  0.6500000E+04  0.7818608E-02  0.7223770E-01
         52   -1    0    0    0    0  0.00000000000E+00  0.00000000000E+00  0.64930732323E+04  0.65000000000E+04  0.30000000000E+03 0.  1.
        -52   -1    0    0    0    0 -0.00000000000E+00 -0.00000000000E+00 -0.64930732323E+04  0.65000000000E+04  0.30000000000E+03 0. -1.
     100001    1    1    2    0    0 -0.83583367817E+03 -0.13212656212E+04 -0.63073757594E+04  0.65000000000E+04  0.15050000000E+03 0. -1.
     100001    1    1    2    0    0  0.83583367817E+03  0.13212656212E+04  0.63073757594E+04  0.65000000000E+04  0.15050000000E+03 0.  1.
</event>
<event>
 4    1  0.4521369E-004  0.6500000E+04  0.7818608E-02  0.7223770E-01
         52   -1    0    0    0    0  0.00000000000E+00  0.00000000000E+00  0.64930732323E+04  0.65000000000E+04  0.30000000000E+03 0.  1.
        -52   -1    0    0    0    0 -0.00000000000E+00 -0.00000000000E+00 -0.64930732323E+04  0.65000000000E+04  0.30000000000E+03 0. -1.
     100001    1    1    2    0    0 -0.10888594836E+04 -0.23388086952E+03 -0.64021117230E+04  0.65000000000E+04  0.15050000000E+03 0. -1.
     100001    1    1    2    0    0  0.10888594836E+04  0.23388086952E+03  0.64021117230E+04  0.65000000000E+04  0.15050000000E+03 0.  1.
</event>
<event>
 4    1  0.4521369E-004  0.6500000E+04  0.7818608E-02  0.7223770E-01
         52   -1    0    0    0    0  0.00000000000E+00  0.00000000000E+00  0.64930732323E+04  0.65000000000E+04  0.30000000000E+03 0. -1.
        -52   -1    0    0    0    0 -0.00000000000E+00 -0.00000000000E+00 -0.64930732323E+04  0.65000000000E+04  0.30000000000E+03 0.  1.
     100001    1    1    2    0    0 -0.11520056787E+04 -0.16514399241E+03  0.63931963937E+04  0.65000000000E+04  0.15050000000E+03 0. -1.
     100001    1    1    2    0    0  0.11520056787E+04  0.16514399241E+03 -0.63931963937E+04  0.65000000000E+04  0.15050000000E+03 0.  1.
</event>
<event>
 4    1  0.4521369E-004  0.6500000E+04  0.7818608E-02  0.7223770E-01
         52   -1    0    0    0    0  0.00000000000E+00  0.00000000000E+00  0.64930732323E+04  0.65000000000E+04  0.30000000000E+03 0. -1.
        -52   -1    0    0    0    0 -0.00000000000E+00 -0.00000000000E+00 -0.64930732323E+04  0.65000000000E+04  0.30000000000E+03 0.  1.
     100001    1    1    2    0    0  0.24858658608E+04  0.32353812963E+04 -0.50576801540E+04  0.65000000000E+04  0.15050000000E+03 0.  1.
     100001    1    1    2    0    0 -0.24858658608E+04 -0.32353812963E+04  0.50576801540E+04  0.65000000000E+04  0.15050000000E+03 0. -1.
</event>
<event>
 4    1  0.4521369E-004  0.6500000E+04  0.7818608E-02  0.7223770E-01
         52   -1    0    0    0    0  0.00000000000E+00  0.00000000000E+00  0.64930732323E+04  0.65000000000E+04  0.30000000000E+03 0.  1.
        -52   -1    0    0    0    0 -0.00000000000E+00 -0.00000000000E+00 -0.64930732323E+04  0.65000000000E+04  0.30000000000E+03 0. -1.
     100001    1    1    2    0    0 -0.15764137224E+04  0.77784013105E+03 -0.62559758836E+04  0.65000000000E+04  0.15050000000E+03 0. -1.
     100001    1    1    2    0    0  0.15764137224E+04 -0.77784013105E+03  0.62559758836E+04  0.65000000000E+04  0.15050000000E+03 0.  1.
</event>
<event>
 4    1  0.4521369E-004  0.6500000E+04  0.7818608E-02  0.7223770E-01
         52   -1    0    0    0    0  0.00000000000E+00  0.00000000000E+00  0.64930732323E+04  0.65000000000E+04  0.30000000000E+03 0. -1.
        -52   -1    0    0    0    0 -0.00000000000E+00 -0.00000000000E+00 -0.64930732323E+04  0.65000000000E+04  0.30000000000E+03 0.  1.
     100001    1    1    2    0    0  0.10605216527E+04 -0.13974726947E+03 -0.64096110861E+04  0.65000000000E+04  0.15050000000E+03 0.  1.
     100001    1    1    2    0    0 -0.10605216527E+04  0.13974726947E+03  0.64096110861E+04  0.65000000000E+04  0.15050000000E+03 0. -1.
</event>
<event>
 4    1  0.4521369E-004  0.6500000E+04  0.7818608E-02  0.7223770E-01
         52   -1    0    0    0    0  0.00000000000E+00  0.00000000000E+00  0.64930732323E+04  0.65000000000E+04  0.30000000000E+03 0. -1.
        -52   -1    0    0    0    0 -0.00000000000E+00 -0.00000000000E+00 -0.64930732323E+04  0.65000000000E+04  0.30000000000E+03 0.  1.
     100001    1    1    2    0    0 -0.21178078384E+04  0.11961017707E+04 -0.60259090819E+04  0.65000000000E+04  0.15050000000E+03 0.  1.
     100001    1    1    2    0    0  0.21178078384E+04 -0.11961017707E+04  0.60259090819E+04  0.65000000000E+04  0.15050000000E+03 0. -1.
</event>
<event>
 4    1  0.4521369E-004  0.6500000E+04  0.7818608E-02  0.7223770E-01
         52   -1    0    0    0    0  0.00000000000E+00  0.00000000000E+00  0.64930732323E+04  0.65000000000E+04  0.30000000000E+03 0. -1.
        -52   -1    0    0    0    0 -0.00000000000E+00 -0.00000000000E+00 -0.64930732323E+04  0.65000000000E+04  0.30000000000E+03 0. -1.
     100001    1    1    2    0    0 -0.34907218524E+02  0.10951024559E+03 -0.64972408561E+04  0.65000000000E+04  0.15050000000E+03 0. -1.
     100001    1    1    2    0    0  0.34907218524E+02 -0.10951024559E+03  0.64972408561E+04  0.65000000000E+04  0.15050000000E+03 0. -1.
</event>
<event>
 4    1  0.4521369E-004  0.6500000E+04  0.7818608E-02  0.7223770E-01
         52   -1    0    0    0    0  0.00000000000E+00  0.00000000000E+00  0.64930732323E+04  0.65000000000E+04  0.30000000000E+03 0.  1.
        -52   -1    0    0    0    0 -0.00000000000E+00 -0.00000000000E+00 -0.64930732323E+04  0.65000000000E+04  0.30000000000E+03 0. -1.
     100001    1    1    2    0    0  0.31790487754E+04 -0.42937616727E+04  0.36992714596E+04  0.65000000000E+04  0.15050000000E+03 0.  1.
     100001    1    1    2    0    0 -0.31790487754E+04  0.42937616727E+04 -0.36992714596E+04  0.65000000000E+04  0.15050000000E+03 0. -1.
</event>
<event>
 4    1  0.4521369E-004  0.6500000E+04  0.7818608E-02  0.7223770E-01
         52   -1    0    0    0    0  0.00000000000E+00  0.00000000000E+00  0.64930732323E+04  0.65000000000E+04  0.30000000000E+03 0.  1.
        -52   -1    0    0    0    0 -0.00000000000E+00 -0.00000000000E+00 -0.64930732323E+04  0.65000000000E+04  0.30000000000E+03 0. -1.
     100001    1    1    2    0    0 -0.40745199441E+04 -0.37067444420E+04 -0.34475618365E+04  0.65000000000E+04  0.15050000000E+03 0. -1.
     100001    1    1    2    0    0  0.40745199441E+04  0.37067444420E+04  0.34475618365E+04  0.65000000000E+04  0.15050000000E+03 0.  1.
</event>
<event>
 4    1  0.4925919E-004  0.6500000E+04  0.7818608E-02  0.7223770E-01
         52   -1    0    0    0    0  0.00000000000E+00  0.00000000000E+00  0.64930732323E+04  0.65000000000E+04  0.30000000000E+03 0.  1.
        -52   -1    0    0    0    0 -0.00000000000E+00 -0.00000000000E+00 -0.64930732323E+04  0.65000000000E+04  0.30000000000E+03 0. -1.
     100001    1    1    2    0    0  0.26056589209E+03  0.17117848642E+02  0.64930087128E+04  0.65000000000E+04  0.15050000000E+03 0.  1.
     100001    1    1    2    0    0 -0.26056589209E+03 -0.17117848642E+02 -0.64930087128E+04  0.65000000000E+04  0.15050000000E+03 0. -1.
</event>
<event>
 4    1  0.4521369E-004  0.6500000E+04  0.7818608E-02  0.7223770E-01
         52   -1    0    0    0    0  0.00000000000E+00  0.00000000000E+00  0.64930732323E+04  0.65000000000E+04  0.30000000000E+03 0.  1.
        -52   -1    0    0    0    0 -0.00000000000E+00 -0.00000000000E+00 -0.64930732323E+04  0.65000000000E+04  0.30000000000E+03 0. -1.
     100001    1    1    2    0    0 -0.13633124858E+04  0.39301220286E+04 -0.49922810074E+04  0.65000000000E+04  0.15050000000E+03 0. -1.
     100001    1    1    2    0    0  0.13633124858E+04 -0.39301220286E+04  0.49922810074E+04  0.65000000000E+04  0.15050000000E+03 0.  1.
</event>
<event>
 4    1  0.4521369E-004  0.6500000E+04  0.7818608E-02  0.7223770E-01
         52   -1    0    0    0    0  0.00000000000E+00  0.00000000000E+00  0.64930732323E+04  0.65000000000E+04  0.30000000000E+03 0. -1.
        -52   -1    0    0    0    0 -0.00000000000E+00 -0.00000000000E+00 -0.64930732323E+04  0.65000000000E+04  0.30000000000E+03 0.  1.
     100001    1    1    2    0    0  0.81566521763E+03 -0.73970977997E+01 -0.64468585595E+04  0.65000000000E+04  0.15050000000E+03 0.  1.
     100001    1    1    2    0    0 -0.81566521763E+03  0.73970977997E+01  0.64468585595E+04  0.65000000000E+04  0.15050000000E+03 0. -1.
</event>
<event>
 4    1  0.4521369E-004  0.6500000E+04  0.7818608E-02  0.7223770E-01
         52   -1    0    0    0    0  0.00000000000E+00  0.00000000000E+00  0.64930732323E+04  0.65000000000E+04  0.30000000000E+03 0. -1.
        -52   -1    0    0    0    0 -0.00000000000E+00 -0.00000000000E+00 -0.64930732323E+04  0.65000000000E+04  0.30000000000E+03 0.  1.
     100001    1    1    2    0    0 -0.16730462849E+03 -0.18507444108E+04 -0.62268855809E+04  0.65000000000E+04  0.15050000000E+03 0.  1.
     100001    1    1    2    0    0  0.16730462849E+03  0.18507444108E+04  0.62268855809E+04  0.65000000000E+04  0.15050000000E+03 0. -1.
</event>
<event>
 4    1  0.4521369E-004  0.6500000E+04  0.7818608E-02  0.7223770E-01
         52   -1    0    0    0    0  0.00000000000E+00  0.00000000000E+00  0.64930732323E+04  0.65000000000E+04  0.30000000000E+03 0. -1.
        -52   -1    0    0    0    0 -0.00000000000E+00 -0.00000000000E+00 -0.64930732323E+04  0.65000000000E+04  0.30000000000E+03 0. -1.
     100001    1    1    2    0    0  0.62444912497E+02 -0.34507512047E+03  0.64887882955E+04  0.65000000000E+04  0.15050000000E+03 0. -1.
     100001    1    1    2    0    0 -0.62444912497E+02  0.34507512047E+03 -0.64887882955E+04  0.65000000000E+04  0.15050000000E+03 0. -1.
</event>
<event>
 4    1  0.4521369E-004  0.6500000E+04  0.7818608E-02  0.7223770E-01
         52   -1    0    0    0    0  0.00000000000E+00  0.00000000000E+00  0.64930732323E+04  0.65000000000E+04  0.30000000000E+03 0.  1.
        -52   -1    0    0    0    0 -0.00000000000E+00 -0.00000000000E+00 -0.64930732323E+04  0.65000000000E+04  0.30000000000E+03 0. -1.
     100001    1    1    2    0    0 -0.37188520628E+02 -0.31561836079E+03 -0.64904816319E+04  0.65000000000E+04  0.15050000000E+03 0. -1.
     100001    1    1    2    0    0  0.37188520628E+02  0.31561836079E+03  0.64904816319E+04  0.65000000000E+04  0.15050000000E+03 0.  1.
</event>
<event>
 4    1  0.4521369E-004  0.6500000E+04  0.7818608E-02  0.7223770E-01
         52   -1    0    0    0    0  0.00000000000E+00  0.00000000000E+00  0.64930732323E+04  0.65000000000E+04  0.30000000000E+03 0. -1.
        -52   -1    0    0    0    0 -0.00000000000E+00 -0.00000000000E+00 -0.64930732323E+04  0.65000000000E+04  0.30000000000E+03 0.  1.
     100001    1    1    2    0    0  0.93001129091E+03 -0.73630678032E+03  0.63890751345E+04  0.65000000000E+04  0.15050000000E+03 0. -1.
     100001    1    1    2    0    0 -0.93001129091E+03  0.73630678032E+03 -0.63890751345E+04  0.65000000000E+04  0.15050000000E+03 0.  1.
</event>
<event>
 4    1  0.4521369E-004  0.6500000E+04  0.7818608E-02  0.7223770E-01
         52   -1    0    0    0    0  0.00000000000E+00  0.00000000000E+00  0.64930732323E+04  0.65000000000E+04  0.30000000000E+03 0.  1.
        -52   -1    0    0    0    0 -0.00000000000E+00 -0.00000000000E+00 -0.64930732323E+04  0.65000000000E+04  0.30000000000E+03 0. -1.
     100001    1    1    2    0    0 -0.26576086123E+04 -0.11640231595E+04  0.58145951104E+04  0.65000000000E+04  0.15050000000E+03 0.  1.
     100001    1    1    2    0    0  0.26576086123E+04  0.11640231595E+04 -0.58145951104E+04  0.65000000000E+04  0.15050000000E+03 0. -1.
</event>
<event>
 4    1  0.4521369E-004  0.6500000E+04  0.7818608E-02  0.7223770E-01
         52   -1    0    0    0    0  0.00000000000E+00  0.00000000000E+00  0.64930732323E+04  0.65000000000E+04  0.30000000000E+03 0. -1.
        -52   -1    0    0    0    0 -0.00000000000E+00 -0.00000000000E+00 -0.64930732323E+04  0.65000000000E+04  0.30000000000E+03 0.  1.
     100001    1    1    2    0    0  0.68123308172E+03  0.75231459097E+03 -0.64185118209E+04  0.65000000000E+04  0.15050000000E+03 0.  1.
     100001    1    1    2    0    0 -0.68123308172E+03 -0.75231459097E+03  0.64185118209E+04  0.65000000000E+04  0.15050000000E+03 0. -1.
</event>
<event>
 4    1  0.4521369E-004  0.6500000E+04  0.7818608E-02  0.7223770E-01
         52   -1    0    0    0    0  0.00000000000E+00  0.00000000000E+00  0.64930732323E+04  0.65000000000E+04  0.30000000000E+03 0. -1.
        -52   -1    0    0    0    0 -0.00000000000E+00 -0.00000000000E+00 -0.64930732323E+04  0.65000000000E+04  0.30000000000E+03 0.  1.
     100001    1    1    2    0    0 -0.89285238429E+03 -0.91207786786E+03 -0.63716778271E+04  0.65000000000E+04  0.15050000000E+03 0.  1.
     100001    1    1    2    0    0  0.89285238429E+03  0.91207786786E+03  0.63716778271E+04  0.65000000000E+04  0.15050000000E+03 0. -1.
</event>
<event>
 4    1  0.4521369E-004  0.6500000E+04  0.7818608E-02  0.7223770E-01
         52   -1    0    0    0    0  0.00000000000E+00  0.00000000000E+00  0.64930732323E+04  0.65000000000E+04  0.30000000000E+03 0. -1.
        -52   -1    0    0    0    0 -0.00000000000E+00 -0.00000000000E+00 -0.64930732323E+04  0.65000000000E+04  0.30000000000E+03 0.  1.
     100001    1    1    2    0    0  0.43211148870E+03 -0.10835305083E+03  0.64829691521E+04  0.65000000000E+04  0.15050000000E+03 0. -1.
     100001    1    1    2    0    0 -0.43211148870E+03  0.10835305083E+03 -0.64829691521E+04  0.65000000000E+04  0.15050000000E+03 0.  1.
</event>
<event>
 4    1  0.4521369E-004  0.6500000E+04  0.7818608E-02  0.7223770E-01
         52   -1    0    0    0    0  0.00000000000E+00  0.00000000000E+00  0.64930732323E+04  0.65000000000E+04  0.30000000000E+03 0.  1.
        -52   -1    0    0    0    0 -0.00000000000E+00 -0.00000000000E+00 -0.64930732323E+04  0.65000000000E+04  0.30000000000E+03 0. -1.
     100001    1    1    2    0    0 -0.27982813535E+04 -0.69963891112E+03  0.58230126748E+04  0.65000000000E+04  0.15050000000E+03 0.  1.
     100001    1    1    2    0    0  0.27982813535E+04  0.69963891112E+03 -0.58230126748E+04  0.65000000000E+04  0.15050000000E+03 0. -1.
</event>
<event>
 4    1  0.5316756E-004  0.6500000E+04  0.7818608E-02  0.7223770E-01
         52   -1    0    0    0    0  0.00000000000E+00  0.00000000000E+00  0.64930732323E+04  0.65000000000E+04  0.30000000000E+03 0. -1.
        -52   -1    0    0    0    0 -0.00000000000E+00 -0.00000000000E+00 -0.64930732323E+04  0.65000000000E+04  0.30000000000E+03 0.  1.
     100001    1    1    2    0    0  0.45130325865E+02  0.23094012342E+03 -0.64939956624E+04  0.65000000000E+04  0.15050000000E+03 0.  1.
     100001    1    1    2    0    0 -0.45130325865E+02 -0.23094012342E+03  0.64939956624E+04  0.65000000000E+04  0.15050000000E+03 0. -1.
</event>
<event>
 4    1  0.4521369E-004  0.6500000E+04  0.7818608E-02  0.7223770E-01
         52   -1    0    0    0    0  0.00000000000E+00  0.00000000000E+00  0.64930732323E+04  0.65000000000E+04  0.30000000000E+03 0. -1.
        -52   -1    0    0    0    0 -0.00000000000E+00 -0.00000000000E+00 -0.64930732323E+04  0.65000000000E+04  0.30000000000E+03 0.  1.
     100001    1    1    2    0    0 -0.20126825130E+04 -0.13247703057E+04  0.60350180189E+04  0.65000000000E+04  0.15050000000E+03 0. -1.
     100001    1    1    2    0    0  0.20126825130E+04  0.13247703057E+04 -0.60350180189E+04  0.65000000000E+04  0.15050000000E+03 0.  1.
</event>
<event>
 4    1  0.4521369E-004  0.6500000E+04  0.7818608E-02  0.7223770E-01
         52   -1    0    0    0    0  0.00000000000E+00  0.00000000000E+00  0.64930732323E+04  0.65000000000E+04  0.30000000000E+03 0. -1.
        -52   -1    0    0    0    0 -0.00000000000E+00 -0.00000000000E+00 -0.64930732323E+04  0.65000000000E+04  0.30000000000E+03 0.  1.
     100001    1    1    2    0    0 -0.14049147495E+04 -0.12945575866E+04 -0.62110937001E+04  0.65000000000E+04  0.15050000000E+03 0.  1.
     100001    1    1    2    0    0  0.14049147495E+04  0.12945575866E+04  0.62110937001E+04  0.65000000000E+04  0.15050000000E+03 0. -1.
</event>
<event>
 4    1  0.4521369E-004  0.6500000E+04  0.7818608E-02  0.7223770E-01
         52   -1    0    0    0    0  0.00000000000E+00  0.00000000000E+00  0.64930732323E+04  0.65000000000E+04  0.30000000000E+03 0.  1.
        -52   -1    0    0    0    0 -0.00000000000E+00 -0.00000000000E+00 -0.64930732323E+04  0.65000000000E+04  0.30000000000E+03 0. -1.
     100001    1    1    2    0    0  0.11071611908E+04 -0.13188971849E+03  0.64018863587E+04  0.65000000000E+04  0.15050000000E+03 0.  1.
     100001    1    1    2    0    0 -0.11071611908E+04  0.13188971849E+03 -0.64018863587E+04  0.65000000000E+04  0.15050000000E+03 0. -1.
</event>
<event>
 4    1  0.4521369E-004  0.6500000E+04  0.7818608E-02  0.7223770E-01
         52   -1    0    0    0    0  0.00000000000E+00  0.00000000000E+00  0.64930732323E+04  0.65000000000E+04  0.30000000000E+03 0.  1.
        -52   -1    0    0    0    0 -0.00000000000E+00 -0.00000000000E+00 -0.64930732323E+04  0.65000000000E+04  0.30000000000E+03 0. -1.
     100001    1    1    2    0    0 -0.38690306091E+03  0.13159349285E+04  0.63518478442E+04  0.65000000000E+04  0.15050000000E+03 0.  1.
     100001    1    1    2    0    0  0.38690306091E+03 -0.13159349285E+04 -0.63518478442E+04  0.65000000000E+04  0.15050000000E+03 0. -1.
</event>
<event>
 4    1  0.4521369E-004  0.6500000E+04  0.7818608E-02  0.7223770E-01
         52   -1    0    0    0    0  0.00000000000E+00  0.00000000000E+00  0.64930732323E+04  0.65000000000E+04  0.30000000000E+03 0.  1.
        -52   -1    0    0    0    0 -0.00000000000E+00 -0.00000000000E+00 -0.64930732323E+04  0.65000000000E+04  0.30000000000E+03 0. -1.
     100001    1    1    2    0    0  0.28797122886E+03  0.56584195043E+03 -0.64671667064E+04  0.65000000000E+04  0.15050000000E+03 0. -1.
     100001    1    1    2    0    0 -0.28797122886E+03 -0.56584195043E+03  0.64671667064E+04  0.65000000000E+04  0.15050000000E+03 0.  1.
</event>
<event>
 4    1  0.4521369E-004  0.6500000E+04  0.7818608E-02  0.7223770E-01
         52   -1    0    0    0    0  0.00000000000E+00  0.00000000000E+00  0.64930732323E+04  0.65000000000E+04  0.30000000000E+03 0.  1.
        -52   -1    0    0    0    0 -0.00000000000E+00 -0.00000000000E+00 -0.64930732323E+04  0.65000000000E+04  0.30000000000E+03 0. -1.
     100001    1    1    2    0    0 -0.19292205103E+03  0.18279444689E+03 -0.64928204212E+04  0.65000000000E+04  0.15050000000E+03 0. -1.
     100001    1    1    2    0    0  0.19292205103E+03 -0.18279444689E+03  0.64928204212E+04  0.65000000000E+04  0.15050000000E+03 0.  1.
</event>
<event>
 4    1  0.4521369E-004  0.6500000E+04  0.7818608E-02  0.7223770E-01
         52   -1    0    0    0    0  0.00000000000E+00  0.00000000000E+00  0.64930732323E+04  0.65000000000E+04  0.30000000000E+03 0.  1.
        -52   -1    0    0    0    0 -0.00000000000E+00 -0.00000000000E+00 -0.64930732323E+04  0.65000000000E+04  0.30000000000E+03 0. -1.
     100001    1    1    2    0    0  0.44832621794E+03  0.47569827315E+03  0.64652969387E+04  0.65000000000E+04  0.15050000000E+03 0.  1.
     100001    1    1    2    0    0 -0.44832621794E+03 -0.47569827315E+03 -0.64652969387E+04  0.65000000000E+04  0.15050000000E+03 0. -1.
</event>
<event>
 4    1  0.4521369E-004  0.6500000E+04  0.7818608E-02  0.7223770E-01
         52   -1    0    0    0    0  0.00000000000E+00  0.00000000000E+00  0.64930732323E+04  0.65000000000E+04  0.30000000000E+03 0.  1.
        -52   -1    0    0    0    0 -0.00000000000E+00 -0.00000000000E+00 -0.64930732323E+04  0.65000000000E+04  0.30000000000E+03 0. -1.
     100001    1    1    2    0    0  0.72314573368E+03 -0.36101085117E+04 -0.53545799585E+04  0.65000000000E+04  0.15050000000E+03 0. -1.
     100001    1    1    2    0    0 -0.72314573368E+03  0.36101085117E+04  0.53545799585E+04  0.65000000000E+04  0.15050000000E+03 0.  1.
</event>
<event>
 4    1  0.4521369E-004  0.6500000E+04  0.7818608E-02  0.7223770E-01
         52   -1    0    0    0    0  0.00000000000E+00  0.00000000000E+00  0.64930732323E+04  0.65000000000E+04  0.30000000000E+03 0.  1.
        -52   -1    0    0    0    0 -0.00000000000E+00 -0.00000000000E+00 -0.64930732323E+04  0.65000000000E+04  0.30000000000E+03 0. -1.
     100001    1    1    2    0    0 -0.19850172140E+04  0.38881979405E+03 -0.61754251334E+04  0.65000000000E+04  0.15050000000E+03 0. -1.
     100001    1    1    2    0    0  0.19850172140E+04 -0.38881979405E+03  0.61754251334E+04  0.65000000000E+04  0.15050000000E+03 0.  1.
</event>
<event>
 4    1  0.4521369E-004  0.6500000E+04  0.7818608E-02  0.7223770E-01
         52   -1    0    0    0    0  0.00000000000E+00  0.00000000000E+00  0.64930732323E+04  0.65000000000E+04  0.30000000000E+03 0. -1.
        -52   -1    0    0    0    0 -0.00000000000E+00 -0.00000000000E+00 -0.64930732323E+04  0.65000000000E+04  0.30000000000E+03 0.  1.
     100001    1    1    2    0    0  0.14879398984E+03  0.35129459595E+04  0.54648349274E+04  0.65000000000E+04  0.15050000000E+03 0. -1.
     100001    1    1    2    0    0 -0.14879398984E+03 -0.35129459595E+04 -0.54648349274E+04  0.65000000000E+04  0.15050000000E+03 0.  1.
</event>
<event>
 4    1  0.4521369E-004  0.6500000E+04  0.7818608E-02  0.7223770E-01
         52   -1    0    0    0    0  0.00000000000E+00  0.00000000000E+00  0.64930732323E+04  0.65000000000E+04  0.30000000000E+03 0. -1.
        -52   -1    0    0    0    0 -0.00000000000E+00 -0.00000000000E+00 -0.64930732323E+04  0.65000000000E+04  0.30000000000E+03 0. -1.
     100001    1    1    2    0    0 -0.41460912855E+02  0.33968528365E+03 -0.64892406837E+04  0.65000000000E+04  0.15050000000E+03 0. -1.
     100001    1    1    2    0    0  0.41460912855E+02 -0.33968528365E+03  0.64892406837E+04  0.65000000000E+04  0.15050000000E+03 0. -1.
</event>
<event>
 4    1  0.4521369E-004  0.6500000E+04  0.7818608E-02  0.7223770E-01
         52   -1    0    0    0    0  0.00000000000E+00  0.00000000000E+00  0.64930732323E+04  0.65000000000E+04  0.30000000000E+03 0.  1.
        -52   -1    0    0    0    0 -0.00000000000E+00 -0.00000000000E+00 -0.64930732323E+04  0.65000000000E+04  0.30000000000E+03 0.  1.
     100001    1    1    2    0    0  0.57742422754E+03  0.12242924002E+03 -0.64713941383E+04  0.65000000000E+04  0.15050000000E+03 0.  1.
     100001    1    1    2    0    0 -0.57742422754E+03 -0.12242924002E+03  0.64713941383E+04  0.65000000000E+04  0.15050000000E+03 0.  1.
</event>
<event>
 4    1  0.4521369E-004  0.6500000E+04  0.7818608E-02  0.7223770E-01
         52   -1    0    0    0    0  0.00000000000E+00  0.00000000000E+00  0.64930732323E+04  0.65000000000E+04  0.30000000000E+03 0.  1.
        -52   -1    0    0    0    0 -0.00000000000E+00 -0.00000000000E+00 -0.64930732323E+04  0.65000000000E+04  0.30000000000E+03 0. -1.
     100001    1    1    2    0    0 -0.48572461834E+03 -0.44538945666E+03  0.64647544096E+04  0.65000000000E+04  0.15050000000E+03 0.  1.
     100001    1    1    2    0    0  0.48572461834E+03  0.44538945666E+03 -0.64647544096E+04  0.65000000000E+04  0.15050000000E+03 0. -1.
</event>
<event>
 4    1  0.4521369E-004  0.6500000E+04  0.7818608E-02  0.7223770E-01
         52   -1    0    0    0    0  0.00000000000E+00  0.00000000000E+00  0.64930732323E+04  0.65000000000E+04  0.30000000000E+03 0.  1.
        -52   -1    0    0    0    0 -0.00000000000E+00 -0.00000000000E+00 -0.64930732323E+04  0.65000000000E+04  0.30000000000E+03 0. -1.
     100001    1    1    2    0    0 -0.43933362035E+03 -0.26365661124E+03 -0.64780260042E+04  0.65000000000E+04  0.15050000000E+03 0. -1.
     100001    1    1    2    0    0  0.43933362035E+03  0.26365661124E+03  0.64780260042E+04  0.65000000000E+04  0.15050000000E+03 0.  1.
</event>
<event>
 4    1  0.4521369E-004  0.6500000E+04  0.7818608E-02  0.7223770E-01
         52   -1    0    0    0    0  0.00000000000E+00  0.00000000000E+00  0.64930732323E+04  0.65000000000E+04  0.30000000000E+03 0. -1.
        -52   -1    0    0    0    0 -0.00000000000E+00 -0.00000000000E+00 -0.64930732323E+04  0.65000000000E+04  0.30000000000E+03 0. -1.
     100001    1    1    2    0    0  0.25205511243E+02  0.42996924553E+03 -0.64839679888E+04  0.65000000000E+04  0.15050000000E+03 0. -1.
     100001    1    1    2    0    0 -0.25205511243E+02 -0.42996924553E+03  0.64839679888E+04  0.65000000000E+04  0.15050000000E+03 0. -1.
</event>
<event>
 4    1  0.4836233E-004  0.6500000E+04  0.7818608E-02  0.7223770E-01
         52   -1    0    0    0    0  0.00000000000E+00  0.00000000000E+00  0.64930732323E+04  0.65000000000E+04  0.30000000000E+03 0. -1.
        -52   -1    0    0    0    0 -0.00000000000E+00 -0.00000000000E+00 -0.64930732323E+04  0.65000000000E+04  0.30000000000E+03 0.  1.
     100001    1    1    2    0    0 -0.24621254975E+03 -0.13162236753E+03 -0.64922572872E+04  0.65000000000E+04  0.15050000000E+03 0.  1.
     100001    1    1    2    0    0  0.24621254975E+03  0.13162236753E+03  0.64922572872E+04  0.65000000000E+04  0.15050000000E+03 0. -1.
</event>
<event>
 4    1  0.4521369E-004  0.6500000E+04  0.7818608E-02  0.7223770E-01
         52   -1    0    0    0    0  0.00000000000E+00  0.00000000000E+00  0.64930732323E+04  0.65000000000E+04  0.30000000000E+03 0.  1.
        -52   -1    0    0    0    0 -0.00000000000E+00 -0.00000000000E+00 -0.64930732323E+04  0.65000000000E+04  0.30000000000E+03 0.  1.
     100001    1    1    2    0    0  0.61240713446E+03 -0.33111278690E+02  0.64692511850E+04  0.65000000000E+04  0.15050000000E+03 0.  1.
     100001    1    1    2    0    0 -0.61240713446E+03  0.33111278690E+02 -0.64692511850E+04  0.65000000000E+04  0.15050000000E+03 0.  1.
</event>
<event>
 4    1  0.4521369E-004  0.6500000E+04  0.7818608E-02  0.7223770E-01
         52   -1    0    0    0    0  0.00000000000E+00  0.00000000000E+00  0.64930732323E+04  0.65000000000E+04  0.30000000000E+03 0.  1.
        -52   -1    0    0    0    0 -0.00000000000E+00 -0.00000000000E+00 -0.64930732323E+04  0.65000000000E+04  0.30000000000E+03 0. -1.
     100001    1    1    2    0    0 -0.17126471827E+04  0.33538923882E+04 -0.52958092135E+04  0.65000000000E+04  0.15050000000E+03 0. -1.
     100001    1    1    2    0    0  0.17126471827E+04 -0.33538923882E+04  0.52958092135E+04  0.65000000000E+04  0.15050000000E+03 0.  1.
</event>
<event>
 4    1  0.6848978E-004  0.6500000E+04  0.7818608E-02  0.7223770E-01
         52   -1    0    0    0    0  0.00000000000E+00  0.00000000000E+00  0.64930732323E+04  0.65000000000E+04  0.30000000000E+03 0. -1.
        -52   -1    0    0    0    0 -0.00000000000E+00 -0.00000000000E+00 -0.64930732323E+04  0.65000000000E+04  0.30000000000E+03 0. -1.
     100001    1    1    2    0    0 -0.46931497633E+02  0.32275241300E+02 -0.64980078096E+04  0.65000000000E+04  0.15050000000E+03 0. -1.
     100001    1    1    2    0    0  0.46931497633E+02 -0.32275241300E+02  0.64980078096E+04  0.65000000000E+04  0.15050000000E+03 0. -1.
</event>
<event>
 4    1  0.4521369E-004  0.6500000E+04  0.7818608E-02  0.7223770E-01
         52   -1    0    0    0    0  0.00000000000E+00  0.00000000000E+00  0.64930732323E+04  0.65000000000E+04  0.30000000000E+03 0.  1.
        -52   -1    0    0    0    0 -0.00000000000E+00 -0.00000000000E+00 -0.64930732323E+04  0.65000000000E+04  0.30000000000E+03 0. -1.
     100001    1    1    2    0    0 -0.31755006813E+04  0.70643134734E+02  0.56690876444E+04  0.65000000000E+04  0.15050000000E+03 0.  1.
     100001    1    1    2    0    0  0.31755006813E+04 -0.70643134734E+02 -0.56690876444E+04  0.65000000000E+04  0.15050000000E+03 0. -1.
</event>
<event>
 4    1  0.4521369E-004  0.6500000E+04  0.7818608E-02  0.7223770E-01
         52   -1    0    0    0    0  0.00000000000E+00  0.00000000000E+00  0.64930732323E+04  0.65000000000E+04  0.30000000000E+03 0.  1.
        -52   -1    0    0    0    0 -0.00000000000E+00 -0.00000000000E+00 -0.64930732323E+04  0.65000000000E+04  0.30000000000E+03 0. -1.
     100001    1    1    2    0    0 -0.24607358739E+04 -0.42323418681E+04  0.42731032073E+04  0.65000000000E+04  0.15050000000E+03 0.  1.
     100001    1    1    2    0    0  0.24607358739E+04  0.42323418681E+04 -0.42731032073E+04  0.65000000000E+04  0.15050000000E+03 0. -1.
</event>
<event>
 4    1  0.4521369E-004  0.6500000E+04  0.7818608E-02  0.7223770E-01
         52   -1    0    0    0    0  0.00000000000E+00  0.00000000000E+00  0.64930732323E+04  0.65000000000E+04  0.30000000000E+03 0.  1.
        -52   -1    0    0    0    0 -0.00000000000E+00 -0.00000000000E+00 -0.64930732323E+04  0.65000000000E+04  0.30000000000E+03 0. -1.
     100001    1    1    2    0    0  0.21168281710E+04 -0.74981354184E+02 -0.61433513689E+04  0.65000000000E+04  0.15050000000E+03 0. -1.
     100001    1    1    2    0    0 -0.21168281710E+04  0.74981354184E+02  0.61433513689E+04  0.65000000000E+04  0.15050000000E+03 0.  1.
</event>
<event>
 4    1  0.4521369E-004  0.6500000E+04  0.7818608E-02  0.7223770E-01
         52   -1    0    0    0    0  0.00000000000E+00  0.00000000000E+00  0.64930732323E+04  0.65000000000E+04  0.30000000000E+03 0.  1.
        -52   -1    0    0    0    0 -0.00000000000E+00 -0.00000000000E+00 -0.64930732323E+04  0.65000000000E+04  0.30000000000E+03 0.  1.
     100001    1    1    2    0    0  0.33390894319E+03 -0.12412375255E+03  0.64884857911E+04  0.65000000000E+04  0.15050000000E+03 0.  1.
     100001    1    1    2    0    0 -0.33390894319E+03  0.12412375255E+03 -0.64884857911E+04  0.65000000000E+04  0.15050000000E+03 0.  1.
</event>
<event>
 4    1  0.4521369E-004  0.6500000E+04  0.7818608E-02  0.7223770E-01
         52   -1    0    0    0    0  0.00000000000E+00  0.00000000000E+00  0.64930732323E+04  0.65000000000E+04  0.30000000000E+03 0. -1.
        -52   -1    0    0    0    0 -0.00000000000E+00 -0.00000000000E+00 -0.64930732323E+04  0.65000000000E+04  0.30000000000E+03 0.  1.
     100001    1    1    2    0    0 -0.98515701728E+03  0.23329987798E+04 -0.59844742538E+04  0.65000000000E+04  0.15050000000E+03 0.  1.
     100001    1    1    2    0    0  0.98515701728E+03 -0.23329987798E+04  0.59844742538E+04  0.65000000000E+04  0.15050000000E+03 0. -1.
</event>
<event>
 4    1  0.4521369E-004  0.6500000E+04  0.7818608E-02  0.7223770E-01
         52   -1    0    0    0    0  0.00000000000E+00  0.00000000000E+00  0.64930732323E+04  0.65000000000E+04  0.30000000000E+03 0.  1.
        -52   -1    0    0    0    0 -0.00000000000E+00 -0.00000000000E+00 -0.64930732323E+04  0.65000000000E+04  0.30000000000E+03 0. -1.
     100001    1    1    2    0    0 -0.16913080143E+04  0.30290618381E+04 -0.54946893754E+04  0.65000000000E+04  0.15050000000E+03 0. -1.
     100001    1    1    2    0    0  0.16913080143E+04 -0.30290618381E+04  0.54946893754E+04  0.65000000000E+04  0.15050000000E+03 0.  1.
</event>
<event>
 4    1  0.4521369E-004  0.6500000E+04  0.7818608E-02  0.7223770E-01
         52   -1    0    0    0    0  0.00000000000E+00  0.00000000000E+00  0.64930732323E+04  0.65000000000E+04  0.30000000000E+03 0. -1.
        -52   -1    0    0    0    0 -0.00000000000E+00 -0.00000000000E+00 -0.64930732323E+04  0.65000000000E+04  0.30000000000E+03 0.  1.
     100001    1    1    2    0    0  0.59299788153E+03 -0.19834589372E+01 -0.64711435874E+04  0.65000000000E+04  0.15050000000E+03 0.  1.
     100001    1    1    2    0    0 -0.59299788153E+03  0.19834589372E+01  0.64711435874E+04  0.65000000000E+04  0.15050000000E+03 0. -1.
</event>
<event>
 4    1  0.4521369E-004  0.6500000E+04  0.7818608E-02  0.7223770E-01
         52   -1    0    0    0    0  0.00000000000E+00  0.00000000000E+00  0.64930732323E+04  0.65000000000E+04  0.30000000000E+03 0. -1.
        -52   -1    0    0    0    0 -0.00000000000E+00 -0.00000000000E+00 -0.64930732323E+04  0.65000000000E+04  0.30000000000E+03 0.  1.
     100001    1    1    2    0    0  0.11533555938E+04  0.15854843539E+04  0.61954305732E+04  0.65000000000E+04  0.15050000000E+03 0. -1.
     100001    1    1    2    0    0 -0.11533555938E+04 -0.15854843539E+04 -0.61954305732E+04  0.65000000000E+04  0.15050000000E+03 0.  1.
</event>
<event>
 4    1  0.4521369E-004  0.6500000E+04  0.7818608E-02  0.7223770E-01
         52   -1    0    0    0    0  0.00000000000E+00  0.00000000000E+00  0.64930732323E+04  0.65000000000E+04  0.30000000000E+03 0.  1.
        -52   -1    0    0    0    0 -0.00000000000E+00 -0.00000000000E+00 -0.64930732323E+04  0.65000000000E+04  0.30000000000E+03 0. -1.
     100001    1    1    2    0    0 -0.22520700599E+04  0.42833437247E+02  0.60953831292E+04  0.65000000000E+04  0.15050000000E+03 0.  1.
     100001    1    1    2    0    0  0.22520700599E+04 -0.42833437247E+02 -0.60953831292E+04  0.65000000000E+04  0.15050000000E+03 0. -1.
</event>
<event>
 4    1  0.4521369E-004  0.6500000E+04  0.7818608E-02  0.7223770E-01
         52   -1    0    0    0    0  0.00000000000E+00  0.00000000000E+00  0.64930732323E+04  0.65000000000E+04  0.30000000000E+03 0. -1.
        -52   -1    0    0    0    0 -0.00000000000E+00 -0.00000000000E+00 -0.64930732323E+04  0.65000000000E+04  0.30000000000E+03 0.  1.
     100001    1    1    2    0    0 -0.19081003156E+04 -0.32337227379E+04  0.53037288949E+04  0.65000000000E+04  0.15050000000E+03 0. -1.
     100001    1    1    2    0    0  0.19081003156E+04  0.32337227379E+04 -0.53037288949E+04  0.65000000000E+04  0.15050000000E+03 0.  1.
</event>
<event>
 4    1  0.4521369E-004  0.6500000E+04  0.7818608E-02  0.7223770E-01
         52   -1    0    0    0    0  0.00000000000E+00  0.00000000000E+00  0.64930732323E+04  0.65000000000E+04  0.30000000000E+03 0.  1.
        -52   -1    0    0    0    0 -0.00000000000E+00 -0.00000000000E+00 -0.64930732323E+04  0.65000000000E+04  0.30000000000E+03 0. -1.
     100001    1    1    2    0    0  0.45382521370E+04 -0.12687151721E+04 -0.44745926187E+04  0.65000000000E+04  0.15050000000E+03 0. -1.
     100001    1    1    2    0    0 -0.45382521370E+04  0.12687151721E+04  0.44745926187E+04  0.65000000000E+04  0.15050000000E+03 0.  1.
</event>
<event>
 4    1  0.4521369E-004  0.6500000E+04  0.7818608E-02  0.7223770E-01
         52   -1    0    0    0    0  0.00000000000E+00  0.00000000000E+00  0.64930732323E+04  0.65000000000E+04  0.30000000000E+03 0.  1.
        -52   -1    0    0    0    0 -0.00000000000E+00 -0.00000000000E+00 -0.64930732323E+04  0.65000000000E+04  0.30000000000E+03 0. -1.
     100001    1    1    2    0    0  0.22240307536E+04  0.85030855947E+03 -0.60463222136E+04  0.65000000000E+04  0.15050000000E+03 0. -1.
     100001    1    1    2    0    0 -0.22240307536E+04 -0.85030855947E+03  0.60463222136E+04  0.65000000000E+04  0.15050000000E+03 0.  1.
</event>
<event>
 4    1  0.4521369E-004  0.6500000E+04  0.7818608E-02  0.7223770E-01
         52   -1    0    0    0    0  0.00000000000E+00  0.00000000000E+00  0.64930732323E+04  0.65000000000E+04  0.30000000000E+03 0.  1.
        -52   -1    0    0    0    0 -0.00000000000E+00 -0.00000000000E+00 -0.64930732323E+04  0.65000000000E+04  0.30000000000E+03 0. -1.
     100001    1    1    2    0    0  0.63606011194E+03 -0.13819994150E+04  0.63176621389E+04  0.65000000000E+04  0.15050000000E+03 0.  1.
     100001    1    1    2    0    0 -0.63606011194E+03  0.13819994150E+04 -0.63176621389E+04  0.65000000000E+04  0.15050000000E+03 0. -1.
</event>
<event>
 4    1  0.4521369E-004  0.6500000E+04  0.7818608E-02  0.7223770E-01
         52   -1    0    0    0    0  0.00000000000E+00  0.00000000000E+00  0.64930732323E+04  0.65000000000E+04  0.30000000000E+03 0. -1.
        -52   -1    0    0    0    0 -0.00000000000E+00 -0.00000000000E+00 -0.64930732323E+04  0.65000000000E+04  0.30000000000E+03 0.  1.
     100001    1    1    2    0    0  0.84790993882E+03  0.37053107788E+03 -0.64320374071E+04  0.65000000000E+04  0.15050000000E+03 0.  1.
     100001    1    1    2    0    0 -0.84790993882E+03 -0.37053107788E+03  0.64320374071E+04  0.65000000000E+04  0.15050000000E+03 0. -1.
</event>
<event>
 4    1  0.4521369E-004  0.6500000E+04  0.7818608E-02  0.7223770E-01
         52   -1    0    0    0    0  0.00000000000E+00  0.00000000000E+00  0.64930732323E+04  0.65000000000E+04  0.30000000000E+03 0.  1.
        -52   -1    0    0    0    0 -0.00000000000E+00 -0.00000000000E+00 -0.64930732323E+04  0.65000000000E+04  0.30000000000E+03 0. -1.
     100001    1    1    2    0    0 -0.24812305572E+04 -0.38217300095E+04  0.46330577815E+04  0.65000000000E+04  0.15050000000E+03 0.  1.
     100001    1    1    2    0    0  0.24812305572E+04  0.38217300095E+04 -0.46330577815E+04  0.65000000000E+04  0.15050000000E+03 0. -1.
</event>
<event>
 4    1  0.4521369E-004  0.6500000E+04  0.7818608E-02  0.7223770E-01
         52   -1    0    0    0    0  0.00000000000E+00  0.00000000000E+00  0.64930732323E+04  0.65000000000E+04  0.30000000000E+03 0.  1.
        -52   -1    0    0    0    0 -0.00000000000E+00 -0.00000000000E+00 -0.64930732323E+04  0.65000000000E+04  0.30000000000E+03 0. -1.
     100001    1    1    2    0    0  0.11726398107E+04  0.68531413065E+03  0.63547313214E+04  0.65000000000E+04  0.15050000000E+03 0.  1.
     100001    1    1    2    0    0 -0.11726398107E+04 -0.68531413065E+03 -0.63547313214E+04  0.65000000000E+04  0.15050000000E+03 0. -1.
</event>
<event>
 4    1  0.4521369E-004  0.6500000E+04  0.7818608E-02  0.7223770E-01
         52   -1    0    0    0    0  0.00000000000E+00  0.00000000000E+00  0.64930732323E+04  0.65000000000E+04  0.30000000000E+03 0. -1.
        -52   -1    0    0    0    0 -0.00000000000E+00 -0.00000000000E+00 -0.64930732323E+04  0.65000000000E+04  0.30000000000E+03 0.  1.
     100001    1    1    2    0    0  0.11944505712E+04 -0.52562946386E+03 -0.63658739580E+04  0.65000000000E+04  0.15050000000E+03 0.  1.
     100001    1    1    2    0    0 -0.11944505712E+04  0.52562946386E+03  0.63658739580E+04  0.65000000000E+04  0.15050000000E+03 0. -1.
</event>
<event>
 4    1  0.4521369E-004  0.6500000E+04  0.7818608E-02  0.7223770E-01
         52   -1    0    0    0    0  0.00000000000E+00  0.00000000000E+00  0.64930732323E+04  0.65000000000E+04  0.30000000000E+03 0. -1.
        -52   -1    0    0    0    0 -0.00000000000E+00 -0.00000000000E+00 -0.64930732323E+04  0.65000000000E+04  0.30000000000E+03 0.  1.
     100001    1    1    2    0    0  0.31682431535E+03 -0.24290857977E+04  0.60188465914E+04  0.65000000000E+04  0.15050000000E+03 0. -1.
     100001    1    1    2    0    0 -0.31682431535E+03  0.24290857977E+04 -0.60188465914E+04  0.65000000000E+04  0.15050000000E+03 0.  1.
</event>
<event>
 4    1  0.4521369E-004  0.6500000E+04  0.7818608E-02  0.7223770E-01
         52   -1    0    0    0    0  0.00000000000E+00  0.00000000000E+00  0.64930732323E+04  0.65000000000E+04  0.30000000000E+03 0.  1.
        -52   -1    0    0    0    0 -0.00000000000E+00 -0.00000000000E+00 -0.64930732323E+04  0.65000000000E+04  0.30000000000E+03 0. -1.
     100001    1    1    2    0    0 -0.13836211661E+04 -0.47187493520E+02  0.63490720235E+04  0.65000000000E+04  0.15050000000E+03 0.  1.
     100001    1    1    2    0    0  0.13836211661E+04  0.47187493520E+02 -0.63490720235E+04  0.65000000000E+04  0.15050000000E+03 0. -1.
</event>
<event>
 4    1  0.4521369E-004  0.6500000E+04  0.7818608E-02  0.7223770E-01
         52   -1    0    0    0    0  0.00000000000E+00  0.00000000000E+00  0.64930732323E+04  0.65000000000E+04  0.30000000000E+03 0. -1.
        -52   -1    0    0    0    0 -0.00000000000E+00 -0.00000000000E+00 -0.64930732323E+04  0.65000000000E+04  0.30000000000E+03 0.  1.
     100001    1    1    2    0    0  0.13100166821E+04 -0.20328637575E+04 -0.60314733678E+04  0.65000000000E+04  0.15050000000E+03 0.  1.
     100001    1    1    2    0    0 -0.13100166821E+04  0.20328637575E+04  0.60314733678E+04  0.65000000000E+04  0.15050000000E+03 0. -1.
</event>
<event>
 4    1  0.4521369E-004  0.6500000E+04  0.7818608E-02  0.7223770E-01
         52   -1    0    0    0    0  0.00000000000E+00  0.00000000000E+00  0.64930732323E+04  0.65000000000E+04  0.30000000000E+03 0. -1.
        -52   -1    0    0    0    0 -0.00000000000E+00 -0.00000000000E+00 -0.64930732323E+04  0.65000000000E+04  0.30000000000E+03 0.  1.
     100001    1    1    2    0    0 -0.73797301292E+03  0.29984484837E+02  0.64561479624E+04  0.65000000000E+04  0.15050000000E+03 0. -1.
     100001    1    1    2    0    0  0.73797301292E+03 -0.29984484837E+02 -0.64561479624E+04  0.65000000000E+04  0.15050000000E+03 0.  1.
</event>
<event>
 4    1  0.4521369E-004  0.6500000E+04  0.7818608E-02  0.7223770E-01
         52   -1    0    0    0    0  0.00000000000E+00  0.00000000000E+00  0.64930732323E+04  0.65000000000E+04  0.30000000000E+03 0.  1.
        -52   -1    0    0    0    0 -0.00000000000E+00 -0.00000000000E+00 -0.64930732323E+04  0.65000000000E+04  0.30000000000E+03 0. -1.
     100001    1    1    2    0    0 -0.74769623737E+03 -0.65361861704E+03 -0.64219220480E+04  0.65000000000E+04  0.15050000000E+03 0. -1.
     100001    1    1    2    0    0  0.74769623737E+03  0.65361861704E+03  0.64219220480E+04  0.65000000000E+04  0.15050000000E+03 0.  1.
</event>
<event>
 4    1  0.4521369E-004  0.6500000E+04  0.7818608E-02  0.7223770E-01
         52   -1    0    0    0    0  0.00000000000E+00  0.00000000000E+00  0.64930732323E+04  0.65000000000E+04  0.30000000000E+03 0. -1.
        -52   -1    0    0    0    0 -0.00000000000E+00 -0.00000000000E+00 -0.64930732323E+04  0.65000000000E+04  0.30000000000E+03 0.  1.
     100001    1    1    2    0    0  0.41010686335E+04 -0.49740059902E+04 -0.81722103672E+03  0.65000000000E+04  0.15050000000E+03 0. -1.
     100001    1    1    2    0    0 -0.41010686335E+04  0.49740059902E+04  0.81722103672E+03  0.65000000000E+04  0.15050000000E+03 0.  1.
</event>
<event>
 4    1  0.4521369E-004  0.6500000E+04  0.7818608E-02  0.7223770E-01
         52   -1    0    0    0    0  0.00000000000E+00  0.00000000000E+00  0.64930732323E+04  0.65000000000E+04  0.30000000000E+03 0. -1.
        -52   -1    0    0    0    0 -0.00000000000E+00 -0.00000000000E+00 -0.64930732323E+04  0.65000000000E+04  0.30000000000E+03 0.  1.
     100001    1    1    2    0    0 -0.57293733542E+03  0.10674407009E+04 -0.63843294800E+04  0.65000000000E+04  0.15050000000E+03 0.  1.
     100001    1    1    2    0    0  0.57293733542E+03 -0.10674407009E+04  0.63843294800E+04  0.65000000000E+04  0.15050000000E+03 0. -1.
</event>
<event>
 4    1  0.4521369E-004  0.6500000E+04  0.7818608E-02  0.7223770E-01
         52   -1    0    0    0    0  0.00000000000E+00  0.00000000000E+00  0.64930732323E+04  0.65000000000E+04  0.30000000000E+03 0.  1.
        -52   -1    0    0    0    0 -0.00000000000E+00 -0.00000000000E+00 -0.64930732323E+04  0.65000000000E+04  0.30000000000E+03 0. -1.
     100001    1    1    2    0    0  0.22313189422E+04 -0.54665900283E+04 -0.27138457935E+04  0.65000000000E+04  0.15050000000E+03 0. -1.
     100001    1    1    2    0    0 -0.22313189422E+04  0.54665900283E+04  0.27138457935E+04  0.65000000000E+04  0.15050000000E+03 0.  1.
</event>
<event>
 4    1  0.4521369E-004  0.6500000E+04  0.7818608E-02  0.7223770E-01
         52   -1    0    0    0    0  0.00000000000E+00  0.00000000000E+00  0.64930732323E+04  0.65000000000E+04  0.30000000000E+03 0. -1.
        -52   -1    0    0    0    0 -0.00000000000E+00 -0.00000000000E+00 -0.64930732323E+04  0.65000000000E+04  0.30000000000E+03 0.  1.
     100001    1    1    2    0    0  0.49364736240E+03  0.50605818523E+03 -0.64596878520E+04  0.65000000000E+04  0.15050000000E+03 0.  1.
     100001    1    1    2    0    0 -0.49364736240E+03 -0.50605818523E+03  0.64596878520E+04  0.65000000000E+04  0.15050000000E+03 0. -1.
</event>
<event>
 4    1  0.4521369E-004  0.6500000E+04  0.7818608E-02  0.7223770E-01
         52   -1    0    0    0    0  0.00000000000E+00  0.00000000000E+00  0.64930732323E+04  0.65000000000E+04  0.30000000000E+03 0. -1.
        -52   -1    0    0    0    0 -0.00000000000E+00 -0.00000000000E+00 -0.64930732323E+04  0.65000000000E+04  0.30000000000E+03 0.  1.
     100001    1    1    2    0    0 -0.40557732287E+04  0.42101195597E+04  0.28377714074E+04  0.65000000000E+04  0.15050000000E+03 0. -1.
     100001    1    1    2    0    0  0.40557732287E+04 -0.42101195597E+04 -0.28377714074E+04  0.65000000000E+04  0.15050000000E+03 0.  1.
</event>
<event>
 4    1  0.4521369E-004  0.6500000E+04  0.7818608E-02  0.7223770E-01
         52   -1    0    0    0    0  0.00000000000E+00  0.00000000000E+00  0.64930732323E+04  0.65000000000E+04  0.30000000000E+03 0. -1.
        -52   -1    0    0    0    0 -0.00000000000E+00 -0.00000000000E+00 -0.64930732323E+04  0.65000000000E+04  0.30000000000E+03 0. -1.
     100001    1    1    2    0    0 -0.47672590870E+02 -0.63496709876E+03  0.64669849124E+04  0.65000000000E+04  0.15050000000E+03 0. -1.
     100001    1    1    2    0    0  0.47672590870E+02  0.63496709876E+03 -0.64669849124E+04  0.65000000000E+04  0.15050000000E+03 0. -1.
</event>
<event>
 4    1  0.4521369E-004  0.6500000E+04  0.7818608E-02  0.7223770E-01
         52   -1    0    0    0    0  0.00000000000E+00  0.00000000000E+00  0.64930732323E+04  0.65000000000E+04  0.30000000000E+03 0. -1.
        -52   -1    0    0    0    0 -0.00000000000E+00 -0.00000000000E+00 -0.64930732323E+04  0.65000000000E+04  0.30000000000E+03 0.  1.
     100001    1    1    2    0    0  0.57888395625E+01  0.11010619954E+04  0.64042937723E+04  0.65000000000E+04  0.15050000000E+03 0. -1.
     100001    1    1    2    0    0 -0.57888395625E+01 -0.11010619954E+04 -0.64042937723E+04  0.65000000000E+04  0.15050000000E+03 0.  1.
</event>
<event>
 4    1  0.4521369E-004  0.6500000E+04  0.7818608E-02  0.7223770E-01
         52   -1    0    0    0    0  0.00000000000E+00  0.00000000000E+00  0.64930732323E+04  0.65000000000E+04  0.30000000000E+03 0.  1.
        -52   -1    0    0    0    0 -0.00000000000E+00 -0.00000000000E+00 -0.64930732323E+04  0.65000000000E+04  0.30000000000E+03 0. -1.
     100001    1    1    2    0    0 -0.11806020716E+04 -0.10062864954E+03  0.63893193983E+04  0.65000000000E+04  0.15050000000E+03 0.  1.
     100001    1    1    2    0    0  0.11806020716E+04  0.10062864954E+03 -0.63893193983E+04  0.65000000000E+04  0.15050000000E+03 0. -1.
</event>
<event>
 4    1  0.4521369E-004  0.6500000E+04  0.7818608E-02  0.7223770E-01
         52   -1    0    0    0    0  0.00000000000E+00  0.00000000000E+00  0.64930732323E+04  0.65000000000E+04  0.30000000000E+03 0.  1.
        -52   -1    0    0    0    0 -0.00000000000E+00 -0.00000000000E+00 -0.64930732323E+04  0.65000000000E+04  0.30000000000E+03 0. -1.
     100001    1    1    2    0    0  0.10769372359E+04  0.73998219926E+02 -0.64079700533E+04  0.65000000000E+04  0.15050000000E+03 0. -1.
     100001    1    1    2    0    0 -0.10769372359E+04 -0.73998219926E+02  0.64079700533E+04  0.65000000000E+04  0.15050000000E+03 0.  1.
</event>
<event>
 4    1  0.4521369E-004  0.6500000E+04  0.7818608E-02  0.7223770E-01
         52   -1    0    0    0    0  0.00000000000E+00  0.00000000000E+00  0.64930732323E+04  0.65000000000E+04  0.30000000000E+03 0.  1.
        -52   -1    0    0    0    0 -0.00000000000E+00 -0.00000000000E+00 -0.64930732323E+04  0.65000000000E+04  0.30000000000E+03 0. -1.
     100001    1    1    2    0    0 -0.20665438140E+04  0.19290904927E+04 -0.58510987247E+04  0.65000000000E+04  0.15050000000E+03 0. -1.
     100001    1    1    2    0    0  0.20665438140E+04 -0.19290904927E+04  0.58510987247E+04  0.65000000000E+04  0.15050000000E+03 0.  1.
</event>
<event>
 4    1  0.4521369E-004  0.6500000E+04  0.7818608E-02  0.7223770E-01
         52   -1    0    0    0    0  0.00000000000E+00  0.00000000000E+00  0.64930732323E+04  0.65000000000E+04  0.30000000000E+03 0. -1.
        -52   -1    0    0    0    0 -0.00000000000E+00 -0.00000000000E+00 -0.64930732323E+04  0.65000000000E+04  0.30000000000E+03 0. -1.
     100001    1    1    2    0    0  0.22664410110E+03 -0.37065984439E+03  0.64837175664E+04  0.65000000000E+04  0.15050000000E+03 0. -1.
     100001    1    1    2    0    0 -0.22664410110E+03  0.37065984439E+03 -0.64837175664E+04  0.65000000000E+04  0.15050000000E+03 0. -1.
</event>
<event>
 4    1  0.4521369E-004  0.6500000E+04  0.7818608E-02  0.7223770E-01
         52   -1    0    0    0    0  0.00000000000E+00  0.00000000000E+00  0.64930732323E+04  0.65000000000E+04  0.30000000000E+03 0. -1.
        -52   -1    0    0    0    0 -0.00000000000E+00 -0.00000000000E+00 -0.64930732323E+04  0.65000000000E+04  0.30000000000E+03 0.  1.
     100001    1    1    2    0    0 -0.50507447008E+04  0.35939719439E+03  0.40728566602E+04  0.65000000000E+04  0.15050000000E+03 0. -1.
     100001    1    1    2    0    0  0.50507447008E+04 -0.35939719439E+03 -0.40728566602E+04  0.65000000000E+04  0.15050000000E+03 0.  1.
</event>
<event>
 4    1  0.4521369E-004  0.6500000E+04  0.7818608E-02  0.7223770E-01
         52   -1    0    0    0    0  0.00000000000E+00  0.00000000000E+00  0.64930732323E+04  0.65000000000E+04  0.30000000000E+03 0.  1.
        -52   -1    0    0    0    0 -0.00000000000E+00 -0.00000000000E+00 -0.64930732323E+04  0.65000000000E+04  0.30000000000E+03 0. -1.
     100001    1    1    2    0    0 -0.14837780056E+03 -0.14074799329E+04 -0.63422656848E+04  0.65000000000E+04  0.15050000000E+03 0. -1.
     100001    1    1    2    0    0  0.14837780056E+03  0.14074799329E+04  0.63422656848E+04  0.65000000000E+04  0.15050000000E+03 0.  1.
</event>
<event>
 4    1  0.4521369E-004  0.6500000E+04  0.7818608E-02  0.7223770E-01
         52   -1    0    0    0    0  0.00000000000E+00  0.00000000000E+00  0.64930732323E+04  0.65000000000E+04  0.30000000000E+03 0.  1.
        -52   -1    0    0    0    0 -0.00000000000E+00 -0.00000000000E+00 -0.64930732323E+04  0.65000000000E+04  0.30000000000E+03 0. -1.
     100001    1    1    2    0    0  0.42875945351E+03 -0.40559061681E+03 -0.64713994879E+04  0.65000000000E+04  0.15050000000E+03 0. -1.
     100001    1    1    2    0    0 -0.42875945351E+03  0.40559061681E+03  0.64713994879E+04  0.65000000000E+04  0.15050000000E+03 0.  1.
</event>
<event>
 4    1  0.4521369E-004  0.6500000E+04  0.7818608E-02  0.7223770E-01
         52   -1    0    0    0    0  0.00000000000E+00  0.00000000000E+00  0.64930732323E+04  0.65000000000E+04  0.30000000000E+03 0. -1.
        -52   -1    0    0    0    0 -0.00000000000E+00 -0.00000000000E+00 -0.64930732323E+04  0.65000000000E+04  0.30000000000E+03 0.  1.
     100001    1    1    2    0    0 -0.10937118453E+03  0.20004702711E+03 -0.64942566073E+04  0.65000000000E+04  0.15050000000E+03 0.  1.
     100001    1    1    2    0    0  0.10937118453E+03 -0.20004702711E+03  0.64942566073E+04  0.65000000000E+04  0.15050000000E+03 0. -1.
</event>
<event>
 4    1  0.4521369E-004  0.6500000E+04  0.7818608E-02  0.7223770E-01
         52   -1    0    0    0    0  0.00000000000E+00  0.00000000000E+00  0.64930732323E+04  0.65000000000E+04  0.30000000000E+03 0.  1.
        -52   -1    0    0    0    0 -0.00000000000E+00 -0.00000000000E+00 -0.64930732323E+04  0.65000000000E+04  0.30000000000E+03 0.  1.
     100001    1    1    2    0    0 -0.11580084894E+03 -0.44138213904E+02 -0.64970756292E+04  0.65000000000E+04  0.15050000000E+03 0.  1.
     100001    1    1    2    0    0  0.11580084894E+03  0.44138213904E+02  0.64970756292E+04  0.65000000000E+04  0.15050000000E+03 0.  1.
</event>
<event>
 4    1  0.4608000E-004  0.6500000E+04  0.7818608E-02  0.7223770E-01
         52   -1    0    0    0    0  0.00000000000E+00  0.00000000000E+00  0.64930732323E+04  0.65000000000E+04  0.30000000000E+03 0.  1.
        -52   -1    0    0    0    0 -0.00000000000E+00 -0.00000000000E+00 -0.64930732323E+04  0.65000000000E+04  0.30000000000E+03 0.  1.
     100001    1    1    2    0    0 -0.99731355312E+02  0.25140303717E+03  0.64926265810E+04  0.65000000000E+04  0.15050000000E+03 0.  1.
     100001    1    1    2    0    0  0.99731355312E+02 -0.25140303717E+03 -0.64926265810E+04  0.65000000000E+04  0.15050000000E+03 0.  1.
</event>
<event>
 4    1  0.4521369E-004  0.6500000E+04  0.7818608E-02  0.7223770E-01
         52   -1    0    0    0    0  0.00000000000E+00  0.00000000000E+00  0.64930732323E+04  0.65000000000E+04  0.30000000000E+03 0.  1.
        -52   -1    0    0    0    0 -0.00000000000E+00 -0.00000000000E+00 -0.64930732323E+04  0.65000000000E+04  0.30000000000E+03 0.  1.
     100001    1    1    2    0    0 -0.12612280242E+03 -0.35336792932E+03  0.64874165810E+04  0.65000000000E+04  0.15050000000E+03 0.  1.
     100001    1    1    2    0    0  0.12612280242E+03  0.35336792932E+03 -0.64874165810E+04  0.65000000000E+04  0.15050000000E+03 0.  1.
</event>
<event>
 4    1  0.4521369E-004  0.6500000E+04  0.7818608E-02  0.7223770E-01
         52   -1    0    0    0    0  0.00000000000E+00  0.00000000000E+00  0.64930732323E+04  0.65000000000E+04  0.30000000000E+03 0. -1.
        -52   -1    0    0    0    0 -0.00000000000E+00 -0.00000000000E+00 -0.64930732323E+04  0.65000000000E+04  0.30000000000E+03 0.  1.
     100001    1    1    2    0    0 -0.23661660494E+03  0.19456039197E+04 -0.61956426398E+04  0.65000000000E+04  0.15050000000E+03 0.  1.
     100001    1    1    2    0    0  0.23661660494E+03 -0.19456039197E+04  0.61956426398E+04  0.65000000000E+04  0.15050000000E+03 0. -1.
</event>
<event>
 4    1  0.4521369E-004  0.6500000E+04  0.7818608E-02  0.7223770E-01
         52   -1    0    0    0    0  0.00000000000E+00  0.00000000000E+00  0.64930732323E+04  0.65000000000E+04  0.30000000000E+03 0.  1.
        -52   -1    0    0    0    0 -0.00000000000E+00 -0.00000000000E+00 -0.64930732323E+04  0.65000000000E+04  0.30000000000E+03 0.  1.
     100001    1    1    2    0    0 -0.46933856143E+03 -0.13356225087E+03  0.64799098906E+04  0.65000000000E+04  0.15050000000E+03 0.  1.
     100001    1    1    2    0    0  0.46933856143E+03  0.13356225087E+03 -0.64799098906E+04  0.65000000000E+04  0.15050000000E+03 0.  1.
</event>
<event>
 4    1  0.5898936E-004  0.6500000E+04  0.7818608E-02  0.7223770E-01
         52   -1    0    0    0    0  0.00000000000E+00  0.00000000000E+00  0.64930732323E+04  0.65000000000E+04  0.30000000000E+03 0. -1.
        -52   -1    0    0    0    0 -0.00000000000E+00 -0.00000000000E+00 -0.64930732323E+04  0.65000000000E+04  0.30000000000E+03 0. -1.
     100001    1    1    2    0    0  0.33738503894E+01  0.20282803160E+03 -0.64950903886E+04  0.65000000000E+04  0.15050000000E+03 0. -1.
     100001    1    1    2    0    0 -0.33738503894E+01 -0.20282803160E+03  0.64950903886E+04  0.65000000000E+04  0.15050000000E+03 0. -1.
</event>
<event>
 4    1  0.4521369E-004  0.6500000E+04  0.7818608E-02  0.7223770E-01
         52   -1    0    0    0    0  0.00000000000E+00  0.00000000000E+00  0.64930732323E+04  0.65000000000E+04  0.30000000000E+03 0. -1.
        -52   -1    0    0    0    0 -0.00000000000E+00 -0.00000000000E+00 -0.64930732323E+04  0.65000000000E+04  0.30000000000E+03 0.  1.
     100001    1    1    2    0    0  0.22490787422E+04  0.17616567124E+04 -0.58365709273E+04  0.65000000000E+04  0.15050000000E+03 0.  1.
     100001    1    1    2    0    0 -0.22490787422E+04 -0.17616567124E+04  0.58365709273E+04  0.65000000000E+04  0.15050000000E+03 0. -1.
</event>
<event>
 4    1  0.4521369E-004  0.6500000E+04  0.7818608E-02  0.7223770E-01
         52   -1    0    0    0    0  0.00000000000E+00  0.00000000000E+00  0.64930732323E+04  0.65000000000E+04  0.30000000000E+03 0.  1.
        -52   -1    0    0    0    0 -0.00000000000E+00 -0.00000000000E+00 -0.64930732323E+04  0.65000000000E+04  0.30000000000E+03 0. -1.
     100001    1    1    2    0    0  0.40186185877E+04 -0.18525434357E+04  0.47587957737E+04  0.65000000000E+04  0.15050000000E+03 0.  1.
     100001    1    1    2    0    0 -0.40186185877E+04  0.18525434357E+04 -0.47587957737E+04  0.65000000000E+04  0.15050000000E+03 0. -1.
</event>
<event>
 4    1  0.4521369E-004  0.6500000E+04  0.7818608E-02  0.7223770E-01
         52   -1    0    0    0    0  0.00000000000E+00  0.00000000000E+00  0.64930732323E+04  0.65000000000E+04  0.30000000000E+03 0.  1.
        -52   -1    0    0    0    0 -0.00000000000E+00 -0.00000000000E+00 -0.64930732323E+04  0.65000000000E+04  0.30000000000E+03 0. -1.
     100001    1    1    2    0    0 -0.30200681290E+04  0.25851495536E+03  0.57480177682E+04  0.65000000000E+04  0.15050000000E+03 0.  1.
     100001    1    1    2    0    0  0.30200681290E+04 -0.25851495536E+03 -0.57480177682E+04  0.65000000000E+04  0.15050000000E+03 0. -1.
</event>
<event>
 4    1  0.4521369E-004  0.6500000E+04  0.7818608E-02  0.7223770E-01
         52   -1    0    0    0    0  0.00000000000E+00  0.00000000000E+00  0.64930732323E+04  0.65000000000E+04  0.30000000000E+03 0. -1.
        -52   -1    0    0    0    0 -0.00000000000E+00 -0.00000000000E+00 -0.64930732323E+04  0.65000000000E+04  0.30000000000E+03 0.  1.
     100001    1    1    2    0    0  0.65246764215E+03  0.44981677736E+04  0.46441492662E+04  0.65000000000E+04  0.15050000000E+03 0. -1.
     100001    1    1    2    0    0 -0.65246764215E+03 -0.44981677736E+04 -0.46441492662E+04  0.65000000000E+04  0.15050000000E+03 0.  1.
</event>
<event>
 4    1  0.4521369E-004  0.6500000E+04  0.7818608E-02  0.7223770E-01
         52   -1    0    0    0    0  0.00000000000E+00  0.00000000000E+00  0.64930732323E+04  0.65000000000E+04  0.30000000000E+03 0.  1.
        -52   -1    0    0    0    0 -0.00000000000E+00 -0.00000000000E+00 -0.64930732323E+04  0.65000000000E+04  0.30000000000E+03 0. -1.
     100001    1    1    2    0    0 -0.10154949277E+04 -0.88221295225E+03 -0.63575010899E+04  0.65000000000E+04  0.15050000000E+03 0. -1.
     100001    1    1    2    0    0  0.10154949277E+04  0.88221295225E+03  0.63575010899E+04  0.65000000000E+04  0.15050000000E+03 0.  1.
</event>
<event>
 4    1  0.4521369E-004  0.6500000E+04  0.7818608E-02  0.7223770E-01
         52   -1    0    0    0    0  0.00000000000E+00  0.00000000000E+00  0.64930732323E+04  0.65000000000E+04  0.30000000000E+03 0. -1.
        -52   -1    0    0    0    0 -0.00000000000E+00 -0.00000000000E+00 -0.64930732323E+04  0.65000000000E+04  0.30000000000E+03 0.  1.
     100001    1    1    2    0    0  0.95482395461E+03  0.89926875662E+03  0.63645091460E+04  0.65000000000E+04  0.15050000000E+03 0. -1.
     100001    1    1    2    0    0 -0.95482395461E+03 -0.89926875662E+03 -0.63645091460E+04  0.65000000000E+04  0.15050000000E+03 0.  1.
</event>
<event>
 4    1  0.4521369E-004  0.6500000E+04  0.7818608E-02  0.7223770E-01
         52   -1    0    0    0    0  0.00000000000E+00  0.00000000000E+00  0.64930732323E+04  0.65000000000E+04  0.30000000000E+03 0.  1.
        -52   -1    0    0    0    0 -0.00000000000E+00 -0.00000000000E+00 -0.64930732323E+04  0.65000000000E+04  0.30000000000E+03 0. -1.
     100001    1    1    2    0    0 -0.22555341855E+04  0.12205234148E+04  0.59707820159E+04  0.65000000000E+04  0.15050000000E+03 0.  1.
     100001    1    1    2    0    0  0.22555341855E+04 -0.12205234148E+04 -0.59707820159E+04  0.65000000000E+04  0.15050000000E+03 0. -1.
</event>
<event>
 4    1  0.4521369E-004  0.6500000E+04  0.7818608E-02  0.7223770E-01
         52   -1    0    0    0    0  0.00000000000E+00  0.00000000000E+00  0.64930732323E+04  0.65000000000E+04  0.30000000000E+03 0.  1.
        -52   -1    0    0    0    0 -0.00000000000E+00 -0.00000000000E+00 -0.64930732323E+04  0.65000000000E+04  0.30000000000E+03 0. -1.
     100001    1    1    2    0    0  0.14495359046E+04 -0.21005098249E+04 -0.59761236506E+04  0.65000000000E+04  0.15050000000E+03 0. -1.
     100001    1    1    2    0    0 -0.14495359046E+04  0.21005098249E+04  0.59761236506E+04  0.65000000000E+04  0.15050000000E+03 0.  1.
</event>
<event>
 4    1  0.4521369E-004  0.6500000E+04  0.7818608E-02  0.7223770E-01
         52   -1    0    0    0    0  0.00000000000E+00  0.00000000000E+00  0.64930732323E+04  0.65000000000E+04  0.30000000000E+03 0.  1.
        -52   -1    0    0    0    0 -0.00000000000E+00 -0.00000000000E+00 -0.64930732323E+04  0.65000000000E+04  0.30000000000E+03 0. -1.
     100001    1    1    2    0    0 -0.59848020367E+04 -0.24649712164E+04  0.57741772878E+03  0.65000000000E+04  0.15050000000E+03 0. -1.
     100001    1    1    2    0    0  0.59848020367E+04  0.24649712164E+04 -0.57741772878E+03  0.65000000000E+04  0.15050000000E+03 0.  1.
</event>
<event>
 4    1  0.4521369E-004  0.6500000E+04  0.7818608E-02  0.7223770E-01
         52   -1    0    0    0    0  0.00000000000E+00  0.00000000000E+00  0.64930732323E+04  0.65000000000E+04  0.30000000000E+03 0.  1.
        -52   -1    0    0    0    0 -0.00000000000E+00 -0.00000000000E+00 -0.64930732323E+04  0.65000000000E+04  0.30000000000E+03 0. -1.
     100001    1    1    2    0    0 -0.38276623996E+03  0.11303110214E+04  0.63877411305E+04  0.65000000000E+04  0.15050000000E+03 0.  1.
     100001    1    1    2    0    0  0.38276623996E+03 -0.11303110214E+04 -0.63877411305E+04  0.65000000000E+04  0.15050000000E+03 0. -1.
</event>
<event>
 4    1  0.4521369E-004  0.6500000E+04  0.7818608E-02  0.7223770E-01
         52   -1    0    0    0    0  0.00000000000E+00  0.00000000000E+00  0.64930732323E+04  0.65000000000E+04  0.30000000000E+03 0.  1.
        -52   -1    0    0    0    0 -0.00000000000E+00 -0.00000000000E+00 -0.64930732323E+04  0.65000000000E+04  0.30000000000E+03 0.  1.
     100001    1    1    2    0    0  0.75208107538E+02 -0.18025593225E+03 -0.64953214924E+04  0.65000000000E+04  0.15050000000E+03 0.  1.
     100001    1    1    2    0    0 -0.75208107538E+02  0.18025593225E+03  0.64953214924E+04  0.65000000000E+04  0.15050000000E+03 0.  1.
</event>
<event>
 4    1  0.4521369E-004  0.6500000E+04  0.7818608E-02  0.7223770E-01
         52   -1    0    0    0    0  0.00000000000E+00  0.00000000000E+00  0.64930732323E+04  0.65000000000E+04  0.30000000000E+03 0.  1.
        -52   -1    0    0    0    0 -0.00000000000E+00 -0.00000000000E+00 -0.64930732323E+04  0.65000000000E+04  0.30000000000E+03 0. -1.
     100001    1    1    2    0    0  0.15818365358E+04 -0.18711369789E+04  0.60186368332E+04  0.65000000000E+04  0.15050000000E+03 0.  1.
     100001    1    1    2    0    0 -0.15818365358E+04  0.18711369789E+04 -0.60186368332E+04  0.65000000000E+04  0.15050000000E+03 0. -1.
</event>
<event>
 4    1  0.4521369E-004  0.6500000E+04  0.7818608E-02  0.7223770E-01
         52   -1    0    0    0    0  0.00000000000E+00  0.00000000000E+00  0.64930732323E+04  0.65000000000E+04  0.30000000000E+03 0. -1.
        -52   -1    0    0    0    0 -0.00000000000E+00 -0.00000000000E+00 -0.64930732323E+04  0.65000000000E+04  0.30000000000E+03 0.  1.
     100001    1    1    2    0    0  0.32017474262E+04  0.54431381637E+04 -0.15324523158E+04  0.65000000000E+04  0.15050000000E+03 0.  1.
     100001    1    1    2    0    0 -0.32017474262E+04 -0.54431381637E+04  0.15324523158E+04  0.65000000000E+04  0.15050000000E+03 0. -1.
</event>
<event>
 4    1  0.4521369E-004  0.6500000E+04  0.7818608E-02  0.7223770E-01
         52   -1    0    0    0    0  0.00000000000E+00  0.00000000000E+00  0.64930732323E+04  0.65000000000E+04  0.30000000000E+03 0. -1.
        -52   -1    0    0    0    0 -0.00000000000E+00 -0.00000000000E+00 -0.64930732323E+04  0.65000000000E+04  0.30000000000E+03 0.  1.
     100001    1    1    2    0    0 -0.18567128222E+03 -0.38779647388E+03  0.64840180305E+04  0.65000000000E+04  0.15050000000E+03 0. -1.
     100001    1    1    2    0    0  0.18567128222E+03  0.38779647388E+03 -0.64840180305E+04  0.65000000000E+04  0.15050000000E+03 0.  1.
</event>
<event>
 4    1  0.4521369E-004  0.6500000E+04  0.7818608E-02  0.7223770E-01
         52   -1    0    0    0    0  0.00000000000E+00  0.00000000000E+00  0.64930732323E+04  0.65000000000E+04  0.30000000000E+03 0. -1.
        -52   -1    0    0    0    0 -0.00000000000E+00 -0.00000000000E+00 -0.64930732323E+04  0.65000000000E+04  0.30000000000E+03 0.  1.
     100001    1    1    2    0    0 -0.20913404804E+04 -0.53130817671E+04 -0.31023872875E+04  0.65000000000E+04  0.15050000000E+03 0.  1.
     100001    1    1    2    0    0  0.20913404804E+04  0.53130817671E+04  0.31023872875E+04  0.65000000000E+04  0.15050000000E+03 0. -1.
</event>
<event>
 4    1  0.4521369E-004  0.6500000E+04  0.7818608E-02  0.7223770E-01
         52   -1    0    0    0    0  0.00000000000E+00  0.00000000000E+00  0.64930732323E+04  0.65000000000E+04  0.30000000000E+03 0.  1.
        -52   -1    0    0    0    0 -0.00000000000E+00 -0.00000000000E+00 -0.64930732323E+04  0.65000000000E+04  0.30000000000E+03 0. -1.
     100001    1    1    2    0    0 -0.56217736788E+03  0.20698070531E+03 -0.64705846216E+04  0.65000000000E+04  0.15050000000E+03 0. -1.
     100001    1    1    2    0    0  0.56217736788E+03 -0.20698070531E+03  0.64705846216E+04  0.65000000000E+04  0.15050000000E+03 0.  1.
</event>
<event>
 4    1  0.4521369E-004  0.6500000E+04  0.7818608E-02  0.7223770E-01
         52   -1    0    0    0    0  0.00000000000E+00  0.00000000000E+00  0.64930732323E+04  0.65000000000E+04  0.30000000000E+03 0.  1.
        -52   -1    0    0    0    0 -0.00000000000E+00 -0.00000000000E+00 -0.64930732323E+04  0.65000000000E+04  0.30000000000E+03 0. -1.
     100001    1    1    2    0    0  0.11232965402E+04 -0.25724448630E+04  0.58607236805E+04  0.65000000000E+04  0.15050000000E+03 0.  1.
     100001    1    1    2    0    0 -0.11232965402E+04  0.25724448630E+04 -0.58607236805E+04  0.65000000000E+04  0.15050000000E+03 0. -1.
</event>
<event>
 4    1  0.4521369E-004  0.6500000E+04  0.7818608E-02  0.7223770E-01
         52   -1    0    0    0    0  0.00000000000E+00  0.00000000000E+00  0.64930732323E+04  0.65000000000E+04  0.30000000000E+03 0.  1.
        -52   -1    0    0    0    0 -0.00000000000E+00 -0.00000000000E+00 -0.64930732323E+04  0.65000000000E+04  0.30000000000E+03 0. -1.
     100001    1    1    2    0    0 -0.79499637682E+03 -0.26392922805E+04  0.58846806854E+04  0.65000000000E+04  0.15050000000E+03 0.  1.
     100001    1    1    2    0    0  0.79499637682E+03  0.26392922805E+04 -0.58846806854E+04  0.65000000000E+04  0.15050000000E+03 0. -1.
</event>
<event>
 4    1  0.4521369E-004  0.6500000E+04  0.7818608E-02  0.7223770E-01
         52   -1    0    0    0    0  0.00000000000E+00  0.00000000000E+00  0.64930732323E+04  0.65000000000E+04  0.30000000000E+03 0. -1.
        -52   -1    0    0    0    0 -0.00000000000E+00 -0.00000000000E+00 -0.64930732323E+04  0.65000000000E+04  0.30000000000E+03 0.  1.
     100001    1    1    2    0    0  0.10066762979E+04  0.29852639343E+03  0.64128647712E+04  0.65000000000E+04  0.15050000000E+03 0. -1.
     100001    1    1    2    0    0 -0.10066762979E+04 -0.29852639343E+03 -0.64128647712E+04  0.65000000000E+04  0.15050000000E+03 0.  1.
</event>
<event>
 4    1  0.4521369E-004  0.6500000E+04  0.7818608E-02  0.7223770E-01
         52   -1    0    0    0    0  0.00000000000E+00  0.00000000000E+00  0.64930732323E+04  0.65000000000E+04  0.30000000000E+03 0. -1.
        -52   -1    0    0    0    0 -0.00000000000E+00 -0.00000000000E+00 -0.64930732323E+04  0.65000000000E+04  0.30000000000E+03 0.  1.
     100001    1    1    2    0    0  0.73918531115E+03  0.80300466191E+03  0.64059455460E+04  0.65000000000E+04  0.15050000000E+03 0. -1.
     100001    1    1    2    0    0 -0.73918531115E+03 -0.80300466191E+03 -0.64059455460E+04  0.65000000000E+04  0.15050000000E+03 0.  1.
</event>
<event>
 4    1  0.4521369E-004  0.6500000E+04  0.7818608E-02  0.7223770E-01
         52   -1    0    0    0    0  0.00000000000E+00  0.00000000000E+00  0.64930732323E+04  0.65000000000E+04  0.30000000000E+03 0. -1.
        -52   -1    0    0    0    0 -0.00000000000E+00 -0.00000000000E+00 -0.64930732323E+04  0.65000000000E+04  0.30000000000E+03 0.  1.
     100001    1    1    2    0    0  0.44856937806E+03 -0.37091572188E+03  0.64721369570E+04  0.65000000000E+04  0.15050000000E+03 0. -1.
     100001    1    1    2    0    0 -0.44856937806E+03  0.37091572188E+03 -0.64721369570E+04  0.65000000000E+04  0.15050000000E+03 0.  1.
</event>
<event>
 4    1  0.4521369E-004  0.6500000E+04  0.7818608E-02  0.7223770E-01
         52   -1    0    0    0    0  0.00000000000E+00  0.00000000000E+00  0.64930732323E+04  0.65000000000E+04  0.30000000000E+03 0. -1.
        -52   -1    0    0    0    0 -0.00000000000E+00 -0.00000000000E+00 -0.64930732323E+04  0.65000000000E+04  0.30000000000E+03 0.  1.
     100001    1    1    2    0    0  0.62149546227E+04 -0.17522157160E+04  0.72899168164E+03  0.65000000000E+04  0.15050000000E+03 0. -1.
     100001    1    1    2    0    0 -0.62149546227E+04  0.17522157160E+04 -0.72899168164E+03  0.65000000000E+04  0.15050000000E+03 0.  1.
</event>
<event>
 4    1  0.4521369E-004  0.6500000E+04  0.7818608E-02  0.7223770E-01
         52   -1    0    0    0    0  0.00000000000E+00  0.00000000000E+00  0.64930732323E+04  0.65000000000E+04  0.30000000000E+03 0.  1.
        -52   -1    0    0    0    0 -0.00000000000E+00 -0.00000000000E+00 -0.64930732323E+04  0.65000000000E+04  0.30000000000E+03 0. -1.
     100001    1    1    2    0    0  0.31888678379E+04 -0.32187128883E+03  0.56528639233E+04  0.65000000000E+04  0.15050000000E+03 0.  1.
     100001    1    1    2    0    0 -0.31888678379E+04  0.32187128883E+03 -0.56528639233E+04  0.65000000000E+04  0.15050000000E+03 0. -1.
</event>
<event>
 4    1  0.4521369E-004  0.6500000E+04  0.7818608E-02  0.7223770E-01
         52   -1    0    0    0    0  0.00000000000E+00  0.00000000000E+00  0.64930732323E+04  0.65000000000E+04  0.30000000000E+03 0.  1.
        -52   -1    0    0    0    0 -0.00000000000E+00 -0.00000000000E+00 -0.64930732323E+04  0.65000000000E+04  0.30000000000E+03 0. -1.
     100001    1    1    2    0    0  0.13723007220E+04 -0.31598946629E+04 -0.55099188921E+04  0.65000000000E+04  0.15050000000E+03 0. -1.
     100001    1    1    2    0    0 -0.13723007220E+04  0.31598946629E+04  0.55099188921E+04  0.65000000000E+04  0.15050000000E+03 0.  1.
</event>
<event>
 4    1  0.4521369E-004  0.6500000E+04  0.7818608E-02  0.7223770E-01
         52   -1    0    0    0    0  0.00000000000E+00  0.00000000000E+00  0.64930732323E+04  0.65000000000E+04  0.30000000000E+03 0. -1.
        -52   -1    0    0    0    0 -0.00000000000E+00 -0.00000000000E+00 -0.64930732323E+04  0.65000000000E+04  0.30000000000E+03 0.  1.
     100001    1    1    2    0    0 -0.22979607278E+04 -0.84388844637E+03 -0.60195164701E+04  0.65000000000E+04  0.15050000000E+03 0.  1.
     100001    1    1    2    0    0  0.22979607278E+04  0.84388844637E+03  0.60195164701E+04  0.65000000000E+04  0.15050000000E+03 0. -1.
</event>
<event>
 4    1  0.4521369E-004  0.6500000E+04  0.7818608E-02  0.7223770E-01
         52   -1    0    0    0    0  0.00000000000E+00  0.00000000000E+00  0.64930732323E+04  0.65000000000E+04  0.30000000000E+03 0.  1.
        -52   -1    0    0    0    0 -0.00000000000E+00 -0.00000000000E+00 -0.64930732323E+04  0.65000000000E+04  0.30000000000E+03 0.  1.
     100001    1    1    2    0    0 -0.22898162159E+03  0.10413926507E+03  0.64933868035E+04  0.65000000000E+04  0.15050000000E+03 0.  1.
     100001    1    1    2    0    0  0.22898162159E+03 -0.10413926507E+03 -0.64933868035E+04  0.65000000000E+04  0.15050000000E+03 0.  1.
</event>
<event>
 4    1  0.4521369E-004  0.6500000E+04  0.7818608E-02  0.7223770E-01
         52   -1    0    0    0    0  0.00000000000E+00  0.00000000000E+00  0.64930732323E+04  0.65000000000E+04  0.30000000000E+03 0.  1.
        -52   -1    0    0    0    0 -0.00000000000E+00 -0.00000000000E+00 -0.64930732323E+04  0.65000000000E+04  0.30000000000E+03 0. -1.
     100001    1    1    2    0    0  0.10843103456E+03  0.15042652447E+04  0.63208210333E+04  0.65000000000E+04  0.15050000000E+03 0.  1.
     100001    1    1    2    0    0 -0.10843103456E+03 -0.15042652447E+04 -0.63208210333E+04  0.65000000000E+04  0.15050000000E+03 0. -1.
</event>
<event>
 4    1  0.4521369E-004  0.6500000E+04  0.7818608E-02  0.7223770E-01
         52   -1    0    0    0    0  0.00000000000E+00  0.00000000000E+00  0.64930732323E+04  0.65000000000E+04  0.30000000000E+03 0. -1.
        -52   -1    0    0    0    0 -0.00000000000E+00 -0.00000000000E+00 -0.64930732323E+04  0.65000000000E+04  0.30000000000E+03 0. -1.
     100001    1    1    2    0    0  0.29547377804E+03 -0.29137389725E+03  0.64849939282E+04  0.65000000000E+04  0.15050000000E+03 0. -1.
     100001    1    1    2    0    0 -0.29547377804E+03  0.29137389725E+03 -0.64849939282E+04  0.65000000000E+04  0.15050000000E+03 0. -1.
</event>
<event>
 4    1  0.4521369E-004  0.6500000E+04  0.7818608E-02  0.7223770E-01
         52   -1    0    0    0    0  0.00000000000E+00  0.00000000000E+00  0.64930732323E+04  0.65000000000E+04  0.30000000000E+03 0. -1.
        -52   -1    0    0    0    0 -0.00000000000E+00 -0.00000000000E+00 -0.64930732323E+04  0.65000000000E+04  0.30000000000E+03 0.  1.
     100001    1    1    2    0    0 -0.61443180185E+04 -0.11880672054E+04  0.17502006036E+04  0.65000000000E+04  0.15050000000E+03 0. -1.
     100001    1    1    2    0    0  0.61443180185E+04  0.11880672054E+04 -0.17502006036E+04  0.65000000000E+04  0.15050000000E+03 0.  1.
</event>
<event>
 4    1  0.4521369E-004  0.6500000E+04  0.7818608E-02  0.7223770E-01
         52   -1    0    0    0    0  0.00000000000E+00  0.00000000000E+00  0.64930732323E+04  0.65000000000E+04  0.30000000000E+03 0.  1.
        -52   -1    0    0    0    0 -0.00000000000E+00 -0.00000000000E+00 -0.64930732323E+04  0.65000000000E+04  0.30000000000E+03 0. -1.
     100001    1    1    2    0    0  0.29588345931E+04  0.32899516624E+04  0.47590824388E+04  0.65000000000E+04  0.15050000000E+03 0.  1.
     100001    1    1    2    0    0 -0.29588345931E+04 -0.32899516624E+04 -0.47590824388E+04  0.65000000000E+04  0.15050000000E+03 0. -1.
</event>
<event>
 4    1  0.4521369E-004  0.6500000E+04  0.7818608E-02  0.7223770E-01
         52   -1    0    0    0    0  0.00000000000E+00  0.00000000000E+00  0.64930732323E+04  0.65000000000E+04  0.30000000000E+03 0. -1.
        -52   -1    0    0    0    0 -0.00000000000E+00 -0.00000000000E+00 -0.64930732323E+04  0.65000000000E+04  0.30000000000E+03 0. -1.
     100001    1    1    2    0    0 -0.26376399215E+03 -0.56141007318E+03  0.64685853968E+04  0.65000000000E+04  0.15050000000E+03 0. -1.
     100001    1    1    2    0    0  0.26376399215E+03  0.56141007318E+03 -0.64685853968E+04  0.65000000000E+04  0.15050000000E+03 0. -1.
</event>
<event>
 4    1  0.4521369E-004  0.6500000E+04  0.7818608E-02  0.7223770E-01
         52   -1    0    0    0    0  0.00000000000E+00  0.00000000000E+00  0.64930732323E+04  0.65000000000E+04  0.30000000000E+03 0.  1.
        -52   -1    0    0    0    0 -0.00000000000E+00 -0.00000000000E+00 -0.64930732323E+04  0.65000000000E+04  0.30000000000E+03 0. -1.
     100001    1    1    2    0    0  0.69094682768E+03  0.50053488142E+03 -0.64420033424E+04  0.65000000000E+04  0.15050000000E+03 0. -1.
     100001    1    1    2    0    0 -0.69094682768E+03 -0.50053488142E+03  0.64420033424E+04  0.65000000000E+04  0.15050000000E+03 0.  1.
</event>
<event>
 4    1  0.4521369E-004  0.6500000E+04  0.7818608E-02  0.7223770E-01
         52   -1    0    0    0    0  0.00000000000E+00  0.00000000000E+00  0.64930732323E+04  0.65000000000E+04  0.30000000000E+03 0. -1.
        -52   -1    0    0    0    0 -0.00000000000E+00 -0.00000000000E+00 -0.64930732323E+04  0.65000000000E+04  0.30000000000E+03 0.  1.
     100001    1    1    2    0    0 -0.26812346893E+04  0.56474883668E+04 -0.17731907505E+04  0.65000000000E+04  0.15050000000E+03 0.  1.
     100001    1    1    2    0    0  0.26812346893E+04 -0.56474883668E+04  0.17731907505E+04  0.65000000000E+04  0.15050000000E+03 0. -1.
</event>
<event>
 4    1  0.4521369E-004  0.6500000E+04  0.7818608E-02  0.7223770E-01
         52   -1    0    0    0    0  0.00000000000E+00  0.00000000000E+00  0.64930732323E+04  0.65000000000E+04  0.30000000000E+03 0.  1.
        -52   -1    0    0    0    0 -0.00000000000E+00 -0.00000000000E+00 -0.64930732323E+04  0.65000000000E+04  0.30000000000E+03 0. -1.
     100001    1    1    2    0    0 -0.17096225160E+03  0.25067033173E+03  0.64911698517E+04  0.65000000000E+04  0.15050000000E+03 0.  1.
     100001    1    1    2    0    0  0.17096225160E+03 -0.25067033173E+03 -0.64911698517E+04  0.65000000000E+04  0.15050000000E+03 0. -1.
</event>
<event>
 4    1  0.4521369E-004  0.6500000E+04  0.7818608E-02  0.7223770E-01
         52   -1    0    0    0    0  0.00000000000E+00  0.00000000000E+00  0.64930732323E+04  0.65000000000E+04  0.30000000000E+03 0.  1.
        -52   -1    0    0    0    0 -0.00000000000E+00 -0.00000000000E+00 -0.64930732323E+04  0.65000000000E+04  0.30000000000E+03 0. -1.
     100001    1    1    2    0    0 -0.29003862035E+03 -0.31072557787E+03 -0.64843409044E+04  0.65000000000E+04  0.15050000000E+03 0. -1.
     100001    1    1    2    0    0  0.29003862035E+03  0.31072557787E+03  0.64843409044E+04  0.65000000000E+04  0.15050000000E+03 0.  1.
</event>
<event>
 4    1  0.4521369E-004  0.6500000E+04  0.7818608E-02  0.7223770E-01
         52   -1    0    0    0    0  0.00000000000E+00  0.00000000000E+00  0.64930732323E+04  0.65000000000E+04  0.30000000000E+03 0.  1.
        -52   -1    0    0    0    0 -0.00000000000E+00 -0.00000000000E+00 -0.64930732323E+04  0.65000000000E+04  0.30000000000E+03 0. -1.
     100001    1    1    2    0    0 -0.20748154891E+04  0.29101998252E+04  0.54270827719E+04  0.65000000000E+04  0.15050000000E+03 0.  1.
     100001    1    1    2    0    0  0.20748154891E+04 -0.29101998252E+04 -0.54270827719E+04  0.65000000000E+04  0.15050000000E+03 0. -1.
</event>
<event>
 4    1  0.4521369E-004  0.6500000E+04  0.7818608E-02  0.7223770E-01
         52   -1    0    0    0    0  0.00000000000E+00  0.00000000000E+00  0.64930732323E+04  0.65000000000E+04  0.30000000000E+03 0. -1.
        -52   -1    0    0    0    0 -0.00000000000E+00 -0.00000000000E+00 -0.64930732323E+04  0.65000000000E+04  0.30000000000E+03 0.  1.
     100001    1    1    2    0    0  0.25050549527E+04  0.87509268195E+03  0.59318009265E+04  0.65000000000E+04  0.15050000000E+03 0. -1.
     100001    1    1    2    0    0 -0.25050549527E+04 -0.87509268195E+03 -0.59318009265E+04  0.65000000000E+04  0.15050000000E+03 0.  1.
</event>
<event>
 4    1  0.4521369E-004  0.6500000E+04  0.7818608E-02  0.7223770E-01
         52   -1    0    0    0    0  0.00000000000E+00  0.00000000000E+00  0.64930732323E+04  0.65000000000E+04  0.30000000000E+03 0. -1.
        -52   -1    0    0    0    0 -0.00000000000E+00 -0.00000000000E+00 -0.64930732323E+04  0.65000000000E+04  0.30000000000E+03 0.  1.
     100001    1    1    2    0    0  0.33350987140E+04 -0.12530024248E+04 -0.54345608140E+04  0.65000000000E+04  0.15050000000E+03 0.  1.
     100001    1    1    2    0    0 -0.33350987140E+04  0.12530024248E+04  0.54345608140E+04  0.65000000000E+04  0.15050000000E+03 0. -1.
</event>
<event>
 4    1  0.4521369E-004  0.6500000E+04  0.7818608E-02  0.7223770E-01
         52   -1    0    0    0    0  0.00000000000E+00  0.00000000000E+00  0.64930732323E+04  0.65000000000E+04  0.30000000000E+03 0. -1.
        -52   -1    0    0    0    0 -0.00000000000E+00 -0.00000000000E+00 -0.64930732323E+04  0.65000000000E+04  0.30000000000E+03 0.  1.
     100001    1    1    2    0    0  0.23010523088E+04 -0.75110165033E+03 -0.60306180722E+04  0.65000000000E+04  0.15050000000E+03 0.  1.
     100001    1    1    2    0    0 -0.23010523088E+04  0.75110165033E+03  0.60306180722E+04  0.65000000000E+04  0.15050000000E+03 0. -1.
</event>
<event>
 4    1  0.4521369E-004  0.6500000E+04  0.7818608E-02  0.7223770E-01
         52   -1    0    0    0    0  0.00000000000E+00  0.00000000000E+00  0.64930732323E+04  0.65000000000E+04  0.30000000000E+03 0.  1.
        -52   -1    0    0    0    0 -0.00000000000E+00 -0.00000000000E+00 -0.64930732323E+04  0.65000000000E+04  0.30000000000E+03 0. -1.
     100001    1    1    2    0    0 -0.58353014642E+04 -0.43046554139E+03 -0.28268898085E+04  0.65000000000E+04  0.15050000000E+03 0. -1.
     100001    1    1    2    0    0  0.58353014642E+04  0.43046554139E+03  0.28268898085E+04  0.65000000000E+04  0.15050000000E+03 0.  1.
</event>
<event>
 4    1  0.4521369E-004  0.6500000E+04  0.7818608E-02  0.7223770E-01
         52   -1    0    0    0    0  0.00000000000E+00  0.00000000000E+00  0.64930732323E+04  0.65000000000E+04  0.30000000000E+03 0.  1.
        -52   -1    0    0    0    0 -0.00000000000E+00 -0.00000000000E+00 -0.64930732323E+04  0.65000000000E+04  0.30000000000E+03 0. -1.
     100001    1    1    2    0    0  0.14706417856E+03  0.15873006890E+04 -0.62996982785E+04  0.65000000000E+04  0.15050000000E+03 0. -1.
     100001    1    1    2    0    0 -0.14706417856E+03 -0.15873006890E+04  0.62996982785E+04  0.65000000000E+04  0.15050000000E+03 0.  1.
</event>
<event>
 4    1  0.4521369E-004  0.6500000E+04  0.7818608E-02  0.7223770E-01
         52   -1    0    0    0    0  0.00000000000E+00  0.00000000000E+00  0.64930732323E+04  0.65000000000E+04  0.30000000000E+03 0. -1.
        -52   -1    0    0    0    0 -0.00000000000E+00 -0.00000000000E+00 -0.64930732323E+04  0.65000000000E+04  0.30000000000E+03 0. -1.
     100001    1    1    2    0    0 -0.55381274364E+03 -0.37444083763E+03 -0.64637787133E+04  0.65000000000E+04  0.15050000000E+03 0. -1.
     100001    1    1    2    0    0  0.55381274364E+03  0.37444083763E+03  0.64637787133E+04  0.65000000000E+04  0.15050000000E+03 0. -1.
</event>
<event>
 4    1  0.4521369E-004  0.6500000E+04  0.7818608E-02  0.7223770E-01
         52   -1    0    0    0    0  0.00000000000E+00  0.00000000000E+00  0.64930732323E+04  0.65000000000E+04  0.30000000000E+03 0. -1.
        -52   -1    0    0    0    0 -0.00000000000E+00 -0.00000000000E+00 -0.64930732323E+04  0.65000000000E+04  0.30000000000E+03 0.  1.
     100001    1    1    2    0    0 -0.18544341140E+03  0.75652140057E+03  0.64514057276E+04  0.65000000000E+04  0.15050000000E+03 0. -1.
     100001    1    1    2    0    0  0.18544341140E+03 -0.75652140057E+03 -0.64514057276E+04  0.65000000000E+04  0.15050000000E+03 0.  1.
</event>
<event>
 4    1  0.4521369E-004  0.6500000E+04  0.7818608E-02  0.7223770E-01
         52   -1    0    0    0    0  0.00000000000E+00  0.00000000000E+00  0.64930732323E+04  0.65000000000E+04  0.30000000000E+03 0.  1.
        -52   -1    0    0    0    0 -0.00000000000E+00 -0.00000000000E+00 -0.64930732323E+04  0.65000000000E+04  0.30000000000E+03 0. -1.
     100001    1    1    2    0    0  0.13900576537E+04 -0.19407195637E+04 -0.60438975045E+04  0.65000000000E+04  0.15050000000E+03 0. -1.
     100001    1    1    2    0    0 -0.13900576537E+04  0.19407195637E+04  0.60438975045E+04  0.65000000000E+04  0.15050000000E+03 0.  1.
</event>
<event>
 4    1  0.4521369E-004  0.6500000E+04  0.7818608E-02  0.7223770E-01
         52   -1    0    0    0    0  0.00000000000E+00  0.00000000000E+00  0.64930732323E+04  0.65000000000E+04  0.30000000000E+03 0.  1.
        -52   -1    0    0    0    0 -0.00000000000E+00 -0.00000000000E+00 -0.64930732323E+04  0.65000000000E+04  0.30000000000E+03 0. -1.
     100001    1    1    2    0    0 -0.61323509745E+03 -0.53608547110E+03 -0.64470074324E+04  0.65000000000E+04  0.15050000000E+03 0. -1.
     100001    1    1    2    0    0  0.61323509745E+03  0.53608547110E+03  0.64470074324E+04  0.65000000000E+04  0.15050000000E+03 0.  1.
</event>
<event>
 4    1  0.4521369E-004  0.6500000E+04  0.7818608E-02  0.7223770E-01
         52   -1    0    0    0    0  0.00000000000E+00  0.00000000000E+00  0.64930732323E+04  0.65000000000E+04  0.30000000000E+03 0.  1.
        -52   -1    0    0    0    0 -0.00000000000E+00 -0.00000000000E+00 -0.64930732323E+04  0.65000000000E+04  0.30000000000E+03 0. -1.
     100001    1    1    2    0    0 -0.34611170126E+04 -0.20954137687E+04 -0.50850034329E+04  0.65000000000E+04  0.15050000000E+03 0. -1.
     100001    1    1    2    0    0  0.34611170126E+04  0.20954137687E+04  0.50850034329E+04  0.65000000000E+04  0.15050000000E+03 0.  1.
</event>
<event>
 4    1  0.4521369E-004  0.6500000E+04  0.7818608E-02  0.7223770E-01
         52   -1    0    0    0    0  0.00000000000E+00  0.00000000000E+00  0.64930732323E+04  0.65000000000E+04  0.30000000000E+03 0.  1.
        -52   -1    0    0    0    0 -0.00000000000E+00 -0.00000000000E+00 -0.64930732323E+04  0.65000000000E+04  0.30000000000E+03 0. -1.
     100001    1    1    2    0    0 -0.92445861020E+03 -0.12246003119E+04  0.63145134495E+04  0.65000000000E+04  0.15050000000E+03 0.  1.
     100001    1    1    2    0    0  0.92445861020E+03  0.12246003119E+04 -0.63145134495E+04  0.65000000000E+04  0.15050000000E+03 0. -1.
</event>
<event>
 4    1  0.4521369E-004  0.6500000E+04  0.7818608E-02  0.7223770E-01
         52   -1    0    0    0    0  0.00000000000E+00  0.00000000000E+00  0.64930732323E+04  0.65000000000E+04  0.30000000000E+03 0.  1.
        -52   -1    0    0    0    0 -0.00000000000E+00 -0.00000000000E+00 -0.64930732323E+04  0.65000000000E+04  0.30000000000E+03 0. -1.
     100001    1    1    2    0    0 -0.10612589352E+04  0.14147445521E+04  0.62529654625E+04  0.65000000000E+04  0.15050000000E+03 0.  1.
     100001    1    1    2    0    0  0.10612589352E+04 -0.14147445521E+04 -0.62529654625E+04  0.65000000000E+04  0.15050000000E+03 0. -1.
</event>
<event>
 4    1  0.4521369E-004  0.6500000E+04  0.7818608E-02  0.7223770E-01
         52   -1    0    0    0    0  0.00000000000E+00  0.00000000000E+00  0.64930732323E+04  0.65000000000E+04  0.30000000000E+03 0.  1.
        -52   -1    0    0    0    0 -0.00000000000E+00 -0.00000000000E+00 -0.64930732323E+04  0.65000000000E+04  0.30000000000E+03 0. -1.
     100001    1    1    2    0    0  0.59023066893E+02  0.39429419183E+04  0.51649854846E+04  0.65000000000E+04  0.15050000000E+03 0.  1.
     100001    1    1    2    0    0 -0.59023066893E+02 -0.39429419183E+04 -0.51649854846E+04  0.65000000000E+04  0.15050000000E+03 0. -1.
</event>
<event>
 4    1  0.4521369E-004  0.6500000E+04  0.7818608E-02  0.7223770E-01
         52   -1    0    0    0    0  0.00000000000E+00  0.00000000000E+00  0.64930732323E+04  0.65000000000E+04  0.30000000000E+03 0.  1.
        -52   -1    0    0    0    0 -0.00000000000E+00 -0.00000000000E+00 -0.64930732323E+04  0.65000000000E+04  0.30000000000E+03 0. -1.
     100001    1    1    2    0    0  0.54236232220E+04 -0.35067178678E+04 -0.71734976925E+03  0.65000000000E+04  0.15050000000E+03 0. -1.
     100001    1    1    2    0    0 -0.54236232220E+04  0.35067178678E+04  0.71734976925E+03  0.65000000000E+04  0.15050000000E+03 0.  1.
</event>
<event>
 4    1  0.4521369E-004  0.6500000E+04  0.7818608E-02  0.7223770E-01
         52   -1    0    0    0    0  0.00000000000E+00  0.00000000000E+00  0.64930732323E+04  0.65000000000E+04  0.30000000000E+03 0.  1.
        -52   -1    0    0    0    0 -0.00000000000E+00 -0.00000000000E+00 -0.64930732323E+04  0.65000000000E+04  0.30000000000E+03 0. -1.
     100001    1    1    2    0    0  0.16390385154E+04 -0.13367071059E+04 -0.61444378594E+04  0.65000000000E+04  0.15050000000E+03 0. -1.
     100001    1    1    2    0    0 -0.16390385154E+04  0.13367071059E+04  0.61444378594E+04  0.65000000000E+04  0.15050000000E+03 0.  1.
</event>
<event>
 4    1  0.4521369E-004  0.6500000E+04  0.7818608E-02  0.7223770E-01
         52   -1    0    0    0    0  0.00000000000E+00  0.00000000000E+00  0.64930732323E+04  0.65000000000E+04  0.30000000000E+03 0. -1.
        -52   -1    0    0    0    0 -0.00000000000E+00 -0.00000000000E+00 -0.64930732323E+04  0.65000000000E+04  0.30000000000E+03 0. -1.
     100001    1    1    2    0    0  0.27018478317E+04  0.14541551272E+03  0.59081488110E+04  0.65000000000E+04  0.15050000000E+03 0. -1.
     100001    1    1    2    0    0 -0.27018478317E+04 -0.14541551272E+03 -0.59081488110E+04  0.65000000000E+04  0.15050000000E+03 0. -1.
</event>
<event>
 4    1  0.4521369E-004  0.6500000E+04  0.7818608E-02  0.7223770E-01
         52   -1    0    0    0    0  0.00000000000E+00  0.00000000000E+00  0.64930732323E+04  0.65000000000E+04  0.30000000000E+03 0. -1.
        -52   -1    0    0    0    0 -0.00000000000E+00 -0.00000000000E+00 -0.64930732323E+04  0.65000000000E+04  0.30000000000E+03 0.  1.
     100001    1    1    2    0    0 -0.17473425418E+03 -0.69361243363E+03  0.64587707408E+04  0.65000000000E+04  0.15050000000E+03 0. -1.
     100001    1    1    2    0    0  0.17473425418E+03  0.69361243363E+03 -0.64587707408E+04  0.65000000000E+04  0.15050000000E+03 0.  1.
</event>
<event>
 4    1  0.4521369E-004  0.6500000E+04  0.7818608E-02  0.7223770E-01
         52   -1    0    0    0    0  0.00000000000E+00  0.00000000000E+00  0.64930732323E+04  0.65000000000E+04  0.30000000000E+03 0.  1.
        -52   -1    0    0    0    0 -0.00000000000E+00 -0.00000000000E+00 -0.64930732323E+04  0.65000000000E+04  0.30000000000E+03 0. -1.
     100001    1    1    2    0    0  0.39362841315E+04 -0.35003601842E+04 -0.38053246336E+04  0.65000000000E+04  0.15050000000E+03 0. -1.
     100001    1    1    2    0    0 -0.39362841315E+04  0.35003601842E+04  0.38053246336E+04  0.65000000000E+04  0.15050000000E+03 0.  1.
</event>
<event>
 4    1  0.4521369E-004  0.6500000E+04  0.7818608E-02  0.7223770E-01
         52   -1    0    0    0    0  0.00000000000E+00  0.00000000000E+00  0.64930732323E+04  0.65000000000E+04  0.30000000000E+03 0.  1.
        -52   -1    0    0    0    0 -0.00000000000E+00 -0.00000000000E+00 -0.64930732323E+04  0.65000000000E+04  0.30000000000E+03 0. -1.
     100001    1    1    2    0    0  0.64000021967E+04 -0.77714444508E+03  0.81447415171E+03  0.65000000000E+04  0.15050000000E+03 0.  1.
     100001    1    1    2    0    0 -0.64000021967E+04  0.77714444508E+03 -0.81447415171E+03  0.65000000000E+04  0.15050000000E+03 0. -1.
</event>
<event>
 4    1  0.4521369E-004  0.6500000E+04  0.7818608E-02  0.7223770E-01
         52   -1    0    0    0    0  0.00000000000E+00  0.00000000000E+00  0.64930732323E+04  0.65000000000E+04  0.30000000000E+03 0. -1.
        -52   -1    0    0    0    0 -0.00000000000E+00 -0.00000000000E+00 -0.64930732323E+04  0.65000000000E+04  0.30000000000E+03 0.  1.
     100001    1    1    2    0    0 -0.11513323946E+03 -0.90896081349E+03  0.64333416143E+04  0.65000000000E+04  0.15050000000E+03 0. -1.
     100001    1    1    2    0    0  0.11513323946E+03  0.90896081349E+03 -0.64333416143E+04  0.65000000000E+04  0.15050000000E+03 0.  1.
</event>
<event>
 4    1  0.4521369E-004  0.6500000E+04  0.7818608E-02  0.7223770E-01
         52   -1    0    0    0    0  0.00000000000E+00  0.00000000000E+00  0.64930732323E+04  0.65000000000E+04  0.30000000000E+03 0.  1.
        -52   -1    0    0    0    0 -0.00000000000E+00 -0.00000000000E+00 -0.64930732323E+04  0.65000000000E+04  0.30000000000E+03 0. -1.
     100001    1    1    2    0    0 -0.19378403043E+04 -0.94396589692E+03 -0.61303387419E+04  0.65000000000E+04  0.15050000000E+03 0. -1.
     100001    1    1    2    0    0  0.19378403043E+04  0.94396589692E+03  0.61303387419E+04  0.65000000000E+04  0.15050000000E+03 0.  1.
</event>
<event>
 4    1  0.4521369E-004  0.6500000E+04  0.7818608E-02  0.7223770E-01
         52   -1    0    0    0    0  0.00000000000E+00  0.00000000000E+00  0.64930732323E+04  0.65000000000E+04  0.30000000000E+03 0.  1.
        -52   -1    0    0    0    0 -0.00000000000E+00 -0.00000000000E+00 -0.64930732323E+04  0.65000000000E+04  0.30000000000E+03 0. -1.
     100001    1    1    2    0    0 -0.18216805392E+04 -0.23541165403E+03  0.62332504455E+04  0.65000000000E+04  0.15050000000E+03 0.  1.
     100001    1    1    2    0    0  0.18216805392E+04  0.23541165403E+03 -0.62332504455E+04  0.65000000000E+04  0.15050000000E+03 0. -1.
</event>
<event>
 4    1  0.4521369E-004  0.6500000E+04  0.7818608E-02  0.7223770E-01
         52   -1    0    0    0    0  0.00000000000E+00  0.00000000000E+00  0.64930732323E+04  0.65000000000E+04  0.30000000000E+03 0. -1.
        -52   -1    0    0    0    0 -0.00000000000E+00 -0.00000000000E+00 -0.64930732323E+04  0.65000000000E+04  0.30000000000E+03 0.  1.
     100001    1    1    2    0    0  0.30459232952E+03  0.18671915076E+04 -0.62167651666E+04  0.65000000000E+04  0.15050000000E+03 0.  1.
     100001    1    1    2    0    0 -0.30459232952E+03 -0.18671915076E+04  0.62167651666E+04  0.65000000000E+04  0.15050000000E+03 0. -1.
</event>
<event>
 4    1  0.4521369E-004  0.6500000E+04  0.7818608E-02  0.7223770E-01
         52   -1    0    0    0    0  0.00000000000E+00  0.00000000000E+00  0.64930732323E+04  0.65000000000E+04  0.30000000000E+03 0.  1.
        -52   -1    0    0    0    0 -0.00000000000E+00 -0.00000000000E+00 -0.64930732323E+04  0.65000000000E+04  0.30000000000E+03 0. -1.
     100001    1    1    2    0    0  0.10091557296E+04 -0.24014074675E+03 -0.64149268807E+04  0.65000000000E+04  0.15050000000E+03 0. -1.
     100001    1    1    2    0    0 -0.10091557296E+04  0.24014074675E+03  0.64149268807E+04  0.65000000000E+04  0.15050000000E+03 0.  1.
</event>
<event>
 4    1  0.4521369E-004  0.6500000E+04  0.7818608E-02  0.7223770E-01
         52   -1    0    0    0    0  0.00000000000E+00  0.00000000000E+00  0.64930732323E+04  0.65000000000E+04  0.30000000000E+03 0. -1.
        -52   -1    0    0    0    0 -0.00000000000E+00 -0.00000000000E+00 -0.64930732323E+04  0.65000000000E+04  0.30000000000E+03 0.  1.
     100001    1    1    2    0    0 -0.53650789270E+03 -0.20934000719E+03  0.64726876792E+04  0.65000000000E+04  0.15050000000E+03 0. -1.
     100001    1    1    2    0    0  0.53650789270E+03  0.20934000719E+03 -0.64726876792E+04  0.65000000000E+04  0.15050000000E+03 0.  1.
</event>
<event>
 4    1  0.4521369E-004  0.6500000E+04  0.7818608E-02  0.7223770E-01
         52   -1    0    0    0    0  0.00000000000E+00  0.00000000000E+00  0.64930732323E+04  0.65000000000E+04  0.30000000000E+03 0. -1.
        -52   -1    0    0    0    0 -0.00000000000E+00 -0.00000000000E+00 -0.64930732323E+04  0.65000000000E+04  0.30000000000E+03 0.  1.
     100001    1    1    2    0    0 -0.35267108083E+03 -0.67528228634E+01  0.64886768496E+04  0.65000000000E+04  0.15050000000E+03 0. -1.
     100001    1    1    2    0    0  0.35267108083E+03  0.67528228634E+01 -0.64886768496E+04  0.65000000000E+04  0.15050000000E+03 0.  1.
</event>
<event>
 4    1  0.4521369E-004  0.6500000E+04  0.7818608E-02  0.7223770E-01
         52   -1    0    0    0    0  0.00000000000E+00  0.00000000000E+00  0.64930732323E+04  0.65000000000E+04  0.30000000000E+03 0. -1.
        -52   -1    0    0    0    0 -0.00000000000E+00 -0.00000000000E+00 -0.64930732323E+04  0.65000000000E+04  0.30000000000E+03 0.  1.
     100001    1    1    2    0    0  0.19070892028E+04 -0.98908776097E+03  0.61328676754E+04  0.65000000000E+04  0.15050000000E+03 0. -1.
     100001    1    1    2    0    0 -0.19070892028E+04  0.98908776097E+03 -0.61328676754E+04  0.65000000000E+04  0.15050000000E+03 0.  1.
</event>
<event>
 4    1  0.4521369E-004  0.6500000E+04  0.7818608E-02  0.7223770E-01
         52   -1    0    0    0    0  0.00000000000E+00  0.00000000000E+00  0.64930732323E+04  0.65000000000E+04  0.30000000000E+03 0. -1.
        -52   -1    0    0    0    0 -0.00000000000E+00 -0.00000000000E+00 -0.64930732323E+04  0.65000000000E+04  0.30000000000E+03 0.  1.
     100001    1    1    2    0    0 -0.16163882428E+04 -0.59884339664E+04 -0.19373428782E+04  0.65000000000E+04  0.15050000000E+03 0.  1.
     100001    1    1    2    0    0  0.16163882428E+04  0.59884339664E+04  0.19373428782E+04  0.65000000000E+04  0.15050000000E+03 0. -1.
</event>
<event>
 4    1  0.4521369E-004  0.6500000E+04  0.7818608E-02  0.7223770E-01
         52   -1    0    0    0    0  0.00000000000E+00  0.00000000000E+00  0.64930732323E+04  0.65000000000E+04  0.30000000000E+03 0. -1.
        -52   -1    0    0    0    0 -0.00000000000E+00 -0.00000000000E+00 -0.64930732323E+04  0.65000000000E+04  0.30000000000E+03 0.  1.
     100001    1    1    2    0    0  0.11520682904E+03  0.53090976838E+03  0.64755086251E+04  0.65000000000E+04  0.15050000000E+03 0. -1.
     100001    1    1    2    0    0 -0.11520682904E+03 -0.53090976838E+03 -0.64755086251E+04  0.65000000000E+04  0.15050000000E+03 0.  1.
</event>
<event>
 4    1  0.4521369E-004  0.6500000E+04  0.7818608E-02  0.7223770E-01
         52   -1    0    0    0    0  0.00000000000E+00  0.00000000000E+00  0.64930732323E+04  0.65000000000E+04  0.30000000000E+03 0.  1.
        -52   -1    0    0    0    0 -0.00000000000E+00 -0.00000000000E+00 -0.64930732323E+04  0.65000000000E+04  0.30000000000E+03 0. -1.
     100001    1    1    2    0    0 -0.16951394126E+04  0.61427788740E+04  0.12728392776E+04  0.65000000000E+04  0.15050000000E+03 0.  1.
     100001    1    1    2    0    0  0.16951394126E+04 -0.61427788740E+04 -0.12728392776E+04  0.65000000000E+04  0.15050000000E+03 0. -1.
</event>
<event>
 4    1  0.4521369E-004  0.6500000E+04  0.7818608E-02  0.7223770E-01
         52   -1    0    0    0    0  0.00000000000E+00  0.00000000000E+00  0.64930732323E+04  0.65000000000E+04  0.30000000000E+03 0. -1.
        -52   -1    0    0    0    0 -0.00000000000E+00 -0.00000000000E+00 -0.64930732323E+04  0.65000000000E+04  0.30000000000E+03 0.  1.
     100001    1    1    2    0    0 -0.79420474059E+03 -0.63554462462E+04  0.10976755401E+04  0.65000000000E+04  0.15050000000E+03 0. -1.
     100001    1    1    2    0    0  0.79420474059E+03  0.63554462462E+04 -0.10976755401E+04  0.65000000000E+04  0.15050000000E+03 0.  1.
</event>
<event>
 4    1  0.4521369E-004  0.6500000E+04  0.7818608E-02  0.7223770E-01
         52   -1    0    0    0    0  0.00000000000E+00  0.00000000000E+00  0.64930732323E+04  0.65000000000E+04  0.30000000000E+03 0.  1.
        -52   -1    0    0    0    0 -0.00000000000E+00 -0.00000000000E+00 -0.64930732323E+04  0.65000000000E+04  0.30000000000E+03 0. -1.
     100001    1    1    2    0    0 -0.14059163495E+04  0.43863302228E+04 -0.45837600444E+04  0.65000000000E+04  0.15050000000E+03 0. -1.
     100001    1    1    2    0    0  0.14059163495E+04 -0.43863302228E+04  0.45837600444E+04  0.65000000000E+04  0.15050000000E+03 0.  1.
</event>
<event>
 4    1  0.4521369E-004  0.6500000E+04  0.7818608E-02  0.7223770E-01
         52   -1    0    0    0    0  0.00000000000E+00  0.00000000000E+00  0.64930732323E+04  0.65000000000E+04  0.30000000000E+03 0.  1.
        -52   -1    0    0    0    0 -0.00000000000E+00 -0.00000000000E+00 -0.64930732323E+04  0.65000000000E+04  0.30000000000E+03 0. -1.
     100001    1    1    2    0    0  0.10789870613E+03  0.88405472577E+03  0.64369367607E+04  0.65000000000E+04  0.15050000000E+03 0.  1.
     100001    1    1    2    0    0 -0.10789870613E+03 -0.88405472577E+03 -0.64369367607E+04  0.65000000000E+04  0.15050000000E+03 0. -1.
</event>
<event>
 4    1  0.4521369E-004  0.6500000E+04  0.7818608E-02  0.7223770E-01
         52   -1    0    0    0    0  0.00000000000E+00  0.00000000000E+00  0.64930732323E+04  0.65000000000E+04  0.30000000000E+03 0.  1.
        -52   -1    0    0    0    0 -0.00000000000E+00 -0.00000000000E+00 -0.64930732323E+04  0.65000000000E+04  0.30000000000E+03 0. -1.
     100001    1    1    2    0    0  0.12589991092E+04  0.20370889369E+03 -0.63718736397E+04  0.65000000000E+04  0.15050000000E+03 0. -1.
     100001    1    1    2    0    0 -0.12589991092E+04 -0.20370889369E+03  0.63718736397E+04  0.65000000000E+04  0.15050000000E+03 0.  1.
</event>
<event>
 4    1  0.4521369E-004  0.6500000E+04  0.7818608E-02  0.7223770E-01
         52   -1    0    0    0    0  0.00000000000E+00  0.00000000000E+00  0.64930732323E+04  0.65000000000E+04  0.30000000000E+03 0.  1.
        -52   -1    0    0    0    0 -0.00000000000E+00 -0.00000000000E+00 -0.64930732323E+04  0.65000000000E+04  0.30000000000E+03 0. -1.
     100001    1    1    2    0    0 -0.11977758673E+04 -0.79877913233E+03 -0.63367684682E+04  0.65000000000E+04  0.15050000000E+03 0. -1.
     100001    1    1    2    0    0  0.11977758673E+04  0.79877913233E+03  0.63367684682E+04  0.65000000000E+04  0.15050000000E+03 0.  1.
</event>
<event>
 4    1  0.4521369E-004  0.6500000E+04  0.7818608E-02  0.7223770E-01
         52   -1    0    0    0    0  0.00000000000E+00  0.00000000000E+00  0.64930732323E+04  0.65000000000E+04  0.30000000000E+03 0.  1.
        -52   -1    0    0    0    0 -0.00000000000E+00 -0.00000000000E+00 -0.64930732323E+04  0.65000000000E+04  0.30000000000E+03 0. -1.
     100001    1    1    2    0    0  0.21957613943E+04 -0.18479126139E+04 -0.58301973055E+04  0.65000000000E+04  0.15050000000E+03 0. -1.
     100001    1    1    2    0    0 -0.21957613943E+04  0.18479126139E+04  0.58301973055E+04  0.65000000000E+04  0.15050000000E+03 0.  1.
</event>
<event>
 4    1  0.4521369E-004  0.6500000E+04  0.7818608E-02  0.7223770E-01
         52   -1    0    0    0    0  0.00000000000E+00  0.00000000000E+00  0.64930732323E+04  0.65000000000E+04  0.30000000000E+03 0. -1.
        -52   -1    0    0    0    0 -0.00000000000E+00 -0.00000000000E+00 -0.64930732323E+04  0.65000000000E+04  0.30000000000E+03 0.  1.
     100001    1    1    2    0    0 -0.49279069928E+03 -0.17429260574E+03 -0.64772007198E+04  0.65000000000E+04  0.15050000000E+03 0.  1.
     100001    1    1    2    0    0  0.49279069928E+03  0.17429260574E+03  0.64772007198E+04  0.65000000000E+04  0.15050000000E+03 0. -1.
</event>
<event>
 4    1  0.6284050E-004  0.6500000E+04  0.7818608E-02  0.7223770E-01
         52   -1    0    0    0    0  0.00000000000E+00  0.00000000000E+00  0.64930732323E+04  0.65000000000E+04  0.30000000000E+03 0. -1.
        -52   -1    0    0    0    0 -0.00000000000E+00 -0.00000000000E+00 -0.64930732323E+04  0.65000000000E+04  0.30000000000E+03 0.  1.
     100001    1    1    2    0    0 -0.24009955068E+03 -0.60044402504E+01  0.64938175138E+04  0.65000000000E+04  0.15050000000E+03 0. -1.
     100001    1    1    2    0    0  0.24009955068E+03  0.60044402504E+01 -0.64938175138E+04  0.65000000000E+04  0.15050000000E+03 0.  1.
</event>
<event>
 4    1  0.4521369E-004  0.6500000E+04  0.7818608E-02  0.7223770E-01
         52   -1    0    0    0    0  0.00000000000E+00  0.00000000000E+00  0.64930732323E+04  0.65000000000E+04  0.30000000000E+03 0.  1.
        -52   -1    0    0    0    0 -0.00000000000E+00 -0.00000000000E+00 -0.64930732323E+04  0.65000000000E+04  0.30000000000E+03 0. -1.
     100001    1    1    2    0    0  0.11804385759E+04 -0.17806709263E+04 -0.61370290508E+04  0.65000000000E+04  0.15050000000E+03 0. -1.
     100001    1    1    2    0    0 -0.11804385759E+04  0.17806709263E+04  0.61370290508E+04  0.65000000000E+04  0.15050000000E+03 0.  1.
</event>
<event>
 4    1  0.4521369E-004  0.6500000E+04  0.7818608E-02  0.7223770E-01
         52   -1    0    0    0    0  0.00000000000E+00  0.00000000000E+00  0.64930732323E+04  0.65000000000E+04  0.30000000000E+03 0.  1.
        -52   -1    0    0    0    0 -0.00000000000E+00 -0.00000000000E+00 -0.64930732323E+04  0.65000000000E+04  0.30000000000E+03 0. -1.
     100001    1    1    2    0    0 -0.14501470929E+03 -0.57169147389E+03  0.64714364204E+04  0.65000000000E+04  0.15050000000E+03 0.  1.
     100001    1    1    2    0    0  0.14501470929E+03  0.57169147389E+03 -0.64714364204E+04  0.65000000000E+04  0.15050000000E+03 0. -1.
</event>
<event>
 4    1  0.4521369E-004  0.6500000E+04  0.7818608E-02  0.7223770E-01
         52   -1    0    0    0    0  0.00000000000E+00  0.00000000000E+00  0.64930732323E+04  0.65000000000E+04  0.30000000000E+03 0.  1.
        -52   -1    0    0    0    0 -0.00000000000E+00 -0.00000000000E+00 -0.64930732323E+04  0.65000000000E+04  0.30000000000E+03 0. -1.
     100001    1    1    2    0    0  0.98565497598E+03 -0.13508304417E+04  0.62794180571E+04  0.65000000000E+04  0.15050000000E+03 0.  1.
     100001    1    1    2    0    0 -0.98565497598E+03  0.13508304417E+04 -0.62794180571E+04  0.65000000000E+04  0.15050000000E+03 0. -1.
</event>
<event>
 4    1  0.4521369E-004  0.6500000E+04  0.7818608E-02  0.7223770E-01
         52   -1    0    0    0    0  0.00000000000E+00  0.00000000000E+00  0.64930732323E+04  0.65000000000E+04  0.30000000000E+03 0. -1.
        -52   -1    0    0    0    0 -0.00000000000E+00 -0.00000000000E+00 -0.64930732323E+04  0.65000000000E+04  0.30000000000E+03 0.  1.
     100001    1    1    2    0    0  0.19757814675E+04 -0.37289421913E+03 -0.61793678677E+04  0.65000000000E+04  0.15050000000E+03 0.  1.
     100001    1    1    2    0    0 -0.19757814675E+04  0.37289421913E+03  0.61793678677E+04  0.65000000000E+04  0.15050000000E+03 0. -1.
</event>
<event>
 4    1  0.4521369E-004  0.6500000E+04  0.7818608E-02  0.7223770E-01
         52   -1    0    0    0    0  0.00000000000E+00  0.00000000000E+00  0.64930732323E+04  0.65000000000E+04  0.30000000000E+03 0. -1.
        -52   -1    0    0    0    0 -0.00000000000E+00 -0.00000000000E+00 -0.64930732323E+04  0.65000000000E+04  0.30000000000E+03 0.  1.
     100001    1    1    2    0    0 -0.25568559060E+03 -0.18905368227E+04 -0.62119115537E+04  0.65000000000E+04  0.15050000000E+03 0.  1.
     100001    1    1    2    0    0  0.25568559060E+03  0.18905368227E+04  0.62119115537E+04  0.65000000000E+04  0.15050000000E+03 0. -1.
</event>
<event>
 4    1  0.4521369E-004  0.6500000E+04  0.7818608E-02  0.7223770E-01
         52   -1    0    0    0    0  0.00000000000E+00  0.00000000000E+00  0.64930732323E+04  0.65000000000E+04  0.30000000000E+03 0.  1.
        -52   -1    0    0    0    0 -0.00000000000E+00 -0.00000000000E+00 -0.64930732323E+04  0.65000000000E+04  0.30000000000E+03 0. -1.
     100001    1    1    2    0    0 -0.49880362191E+04 -0.35481546754E+04  0.21811563047E+04  0.65000000000E+04  0.15050000000E+03 0.  1.
     100001    1    1    2    0    0  0.49880362191E+04  0.35481546754E+04 -0.21811563047E+04  0.65000000000E+04  0.15050000000E+03 0. -1.
</event>
<event>
 4    1  0.4521369E-004  0.6500000E+04  0.7818608E-02  0.7223770E-01
         52   -1    0    0    0    0  0.00000000000E+00  0.00000000000E+00  0.64930732323E+04  0.65000000000E+04  0.30000000000E+03 0. -1.
        -52   -1    0    0    0    0 -0.00000000000E+00 -0.00000000000E+00 -0.64930732323E+04  0.65000000000E+04  0.30000000000E+03 0.  1.
     100001    1    1    2    0    0 -0.41124220481E+04 -0.22528227716E+04  0.44989025560E+04  0.65000000000E+04  0.15050000000E+03 0. -1.
     100001    1    1    2    0    0  0.41124220481E+04  0.22528227716E+04 -0.44989025560E+04  0.65000000000E+04  0.15050000000E+03 0.  1.
</event>
<event>
 4    1  0.4521369E-004  0.6500000E+04  0.7818608E-02  0.7223770E-01
         52   -1    0    0    0    0  0.00000000000E+00  0.00000000000E+00  0.64930732323E+04  0.65000000000E+04  0.30000000000E+03 0. -1.
        -52   -1    0    0    0    0 -0.00000000000E+00 -0.00000000000E+00 -0.64930732323E+04  0.65000000000E+04  0.30000000000E+03 0.  1.
     100001    1    1    2    0    0  0.45013611191E+03  0.19947583573E+04 -0.61681169190E+04  0.65000000000E+04  0.15050000000E+03 0.  1.
     100001    1    1    2    0    0 -0.45013611191E+03 -0.19947583573E+04  0.61681169190E+04  0.65000000000E+04  0.15050000000E+03 0. -1.
</event>
<event>
 4    1  0.4521369E-004  0.6500000E+04  0.7818608E-02  0.7223770E-01
         52   -1    0    0    0    0  0.00000000000E+00  0.00000000000E+00  0.64930732323E+04  0.65000000000E+04  0.30000000000E+03 0. -1.
        -52   -1    0    0    0    0 -0.00000000000E+00 -0.00000000000E+00 -0.64930732323E+04  0.65000000000E+04  0.30000000000E+03 0.  1.
     100001    1    1    2    0    0 -0.66527835005E+03  0.77070883363E+02 -0.64636533436E+04  0.65000000000E+04  0.15050000000E+03 0.  1.
     100001    1    1    2    0    0  0.66527835005E+03 -0.77070883363E+02  0.64636533436E+04  0.65000000000E+04  0.15050000000E+03 0. -1.
</event>
<event>
 4    1  0.4521369E-004  0.6500000E+04  0.7818608E-02  0.7223770E-01
         52   -1    0    0    0    0  0.00000000000E+00  0.00000000000E+00  0.64930732323E+04  0.65000000000E+04  0.30000000000E+03 0.  1.
        -52   -1    0    0    0    0 -0.00000000000E+00 -0.00000000000E+00 -0.64930732323E+04  0.65000000000E+04  0.30000000000E+03 0.  1.
     100001    1    1    2    0    0  0.14778917597E+04  0.35873063057E+03 -0.63177921801E+04  0.65000000000E+04  0.15050000000E+03 0.  1.
     100001    1    1    2    0    0 -0.14778917597E+04 -0.35873063057E+03  0.63177921801E+04  0.65000000000E+04  0.15050000000E+03 0.  1.
</event>
<event>
 4    1  0.4521369E-004  0.6500000E+04  0.7818608E-02  0.7223770E-01
         52   -1    0    0    0    0  0.00000000000E+00  0.00000000000E+00  0.64930732323E+04  0.65000000000E+04  0.30000000000E+03 0.  1.
        -52   -1    0    0    0    0 -0.00000000000E+00 -0.00000000000E+00 -0.64930732323E+04  0.65000000000E+04  0.30000000000E+03 0. -1.
     100001    1    1    2    0    0  0.11620405381E+04  0.67378089773E+03  0.63579108864E+04  0.65000000000E+04  0.15050000000E+03 0.  1.
     100001    1    1    2    0    0 -0.11620405381E+04 -0.67378089773E+03 -0.63579108864E+04  0.65000000000E+04  0.15050000000E+03 0. -1.
</event>
<event>
 4    1  0.4521369E-004  0.6500000E+04  0.7818608E-02  0.7223770E-01
         52   -1    0    0    0    0  0.00000000000E+00  0.00000000000E+00  0.64930732323E+04  0.65000000000E+04  0.30000000000E+03 0.  1.
        -52   -1    0    0    0    0 -0.00000000000E+00 -0.00000000000E+00 -0.64930732323E+04  0.65000000000E+04  0.30000000000E+03 0. -1.
     100001    1    1    2    0    0  0.14021707885E+04  0.37847751075E+04  0.50928129963E+04  0.65000000000E+04  0.15050000000E+03 0.  1.
     100001    1    1    2    0    0 -0.14021707885E+04 -0.37847751075E+04 -0.50928129963E+04  0.65000000000E+04  0.15050000000E+03 0. -1.
</event>
<event>
 4    1  0.4521369E-004  0.6500000E+04  0.7818608E-02  0.7223770E-01
         52   -1    0    0    0    0  0.00000000000E+00  0.00000000000E+00  0.64930732323E+04  0.65000000000E+04  0.30000000000E+03 0. -1.
        -52   -1    0    0    0    0 -0.00000000000E+00 -0.00000000000E+00 -0.64930732323E+04  0.65000000000E+04  0.30000000000E+03 0.  1.
     100001    1    1    2    0    0 -0.29447532568E+03 -0.19184503125E+04 -0.62016274018E+04  0.65000000000E+04  0.15050000000E+03 0.  1.
     100001    1    1    2    0    0  0.29447532568E+03  0.19184503125E+04  0.62016274018E+04  0.65000000000E+04  0.15050000000E+03 0. -1.
</event>
<event>
 4    1  0.4521369E-004  0.6500000E+04  0.7818608E-02  0.7223770E-01
         52   -1    0    0    0    0  0.00000000000E+00  0.00000000000E+00  0.64930732323E+04  0.65000000000E+04  0.30000000000E+03 0. -1.
        -52   -1    0    0    0    0 -0.00000000000E+00 -0.00000000000E+00 -0.64930732323E+04  0.65000000000E+04  0.30000000000E+03 0.  1.
     100001    1    1    2    0    0 -0.68590715577E+03  0.12397196453E+04 -0.63419221317E+04  0.65000000000E+04  0.15050000000E+03 0.  1.
     100001    1    1    2    0    0  0.68590715577E+03 -0.12397196453E+04  0.63419221317E+04  0.65000000000E+04  0.15050000000E+03 0. -1.
</event>
<event>
 4    1  0.4521369E-004  0.6500000E+04  0.7818608E-02  0.7223770E-01
         52   -1    0    0    0    0  0.00000000000E+00  0.00000000000E+00  0.64930732323E+04  0.65000000000E+04  0.30000000000E+03 0.  1.
        -52   -1    0    0    0    0 -0.00000000000E+00 -0.00000000000E+00 -0.64930732323E+04  0.65000000000E+04  0.30000000000E+03 0.  1.
     100001    1    1    2    0    0  0.42442069018E+02  0.92037241575E+02  0.64974670116E+04  0.65000000000E+04  0.15050000000E+03 0.  1.
     100001    1    1    2    0    0 -0.42442069018E+02 -0.92037241575E+02 -0.64974670116E+04  0.65000000000E+04  0.15050000000E+03 0.  1.
</event>
<event>
 4    1  0.4521369E-004  0.6500000E+04  0.7818608E-02  0.7223770E-01
         52   -1    0    0    0    0  0.00000000000E+00  0.00000000000E+00  0.64930732323E+04  0.65000000000E+04  0.30000000000E+03 0.  1.
        -52   -1    0    0    0    0 -0.00000000000E+00 -0.00000000000E+00 -0.64930732323E+04  0.65000000000E+04  0.30000000000E+03 0. -1.
     100001    1    1    2    0    0  0.24483411459E+04  0.61167892822E+03  0.59882237994E+04  0.65000000000E+04  0.15050000000E+03 0.  1.
     100001    1    1    2    0    0 -0.24483411459E+04 -0.61167892822E+03 -0.59882237994E+04  0.65000000000E+04  0.15050000000E+03 0. -1.
</event>
<event>
 4    1  0.4521369E-004  0.6500000E+04  0.7818608E-02  0.7223770E-01
         52   -1    0    0    0    0  0.00000000000E+00  0.00000000000E+00  0.64930732323E+04  0.65000000000E+04  0.30000000000E+03 0. -1.
        -52   -1    0    0    0    0 -0.00000000000E+00 -0.00000000000E+00 -0.64930732323E+04  0.65000000000E+04  0.30000000000E+03 0.  1.
     100001    1    1    2    0    0  0.32540061496E+03 -0.29450930090E+02 -0.64900382767E+04  0.65000000000E+04  0.15050000000E+03 0.  1.
     100001    1    1    2    0    0 -0.32540061496E+03  0.29450930090E+02  0.64900382767E+04  0.65000000000E+04  0.15050000000E+03 0. -1.
</event>
<event>
 4    1  0.4521369E-004  0.6500000E+04  0.7818608E-02  0.7223770E-01
         52   -1    0    0    0    0  0.00000000000E+00  0.00000000000E+00  0.64930732323E+04  0.65000000000E+04  0.30000000000E+03 0.  1.
        -52   -1    0    0    0    0 -0.00000000000E+00 -0.00000000000E+00 -0.64930732323E+04  0.65000000000E+04  0.30000000000E+03 0. -1.
     100001    1    1    2    0    0  0.91400777895E+03 -0.18189033882E+04  0.61711854610E+04  0.65000000000E+04  0.15050000000E+03 0.  1.
     100001    1    1    2    0    0 -0.91400777895E+03  0.18189033882E+04 -0.61711854610E+04  0.65000000000E+04  0.15050000000E+03 0. -1.
</event>
<event>
 4    1  0.4521369E-004  0.6500000E+04  0.7818608E-02  0.7223770E-01
         52   -1    0    0    0    0  0.00000000000E+00  0.00000000000E+00  0.64930732323E+04  0.65000000000E+04  0.30000000000E+03 0.  1.
        -52   -1    0    0    0    0 -0.00000000000E+00 -0.00000000000E+00 -0.64930732323E+04  0.65000000000E+04  0.30000000000E+03 0. -1.
     100001    1    1    2    0    0 -0.39983894256E+04 -0.23065077168E+04 -0.45738664064E+04  0.65000000000E+04  0.15050000000E+03 0. -1.
     100001    1    1    2    0    0  0.39983894256E+04  0.23065077168E+04  0.45738664064E+04  0.65000000000E+04  0.15050000000E+03 0.  1.
</event>
<event>
 4    1  0.4521369E-004  0.6500000E+04  0.7818608E-02  0.7223770E-01
         52   -1    0    0    0    0  0.00000000000E+00  0.00000000000E+00  0.64930732323E+04  0.65000000000E+04  0.30000000000E+03 0. -1.
        -52   -1    0    0    0    0 -0.00000000000E+00 -0.00000000000E+00 -0.64930732323E+04  0.65000000000E+04  0.30000000000E+03 0.  1.
     100001    1    1    2    0    0 -0.50142916744E+04  0.17698612797E+04 -0.37352134885E+04  0.65000000000E+04  0.15050000000E+03 0.  1.
     100001    1    1    2    0    0  0.50142916744E+04 -0.17698612797E+04  0.37352134885E+04  0.65000000000E+04  0.15050000000E+03 0. -1.
</event>
<event>
 4    1  0.4521369E-004  0.6500000E+04  0.7818608E-02  0.7223770E-01
         52   -1    0    0    0    0  0.00000000000E+00  0.00000000000E+00  0.64930732323E+04  0.65000000000E+04  0.30000000000E+03 0. -1.
        -52   -1    0    0    0    0 -0.00000000000E+00 -0.00000000000E+00 -0.64930732323E+04  0.65000000000E+04  0.30000000000E+03 0.  1.
     100001    1    1    2    0    0  0.31484007264E+04 -0.47876102040E+03  0.56644249930E+04  0.65000000000E+04  0.15050000000E+03 0. -1.
     100001    1    1    2    0    0 -0.31484007264E+04  0.47876102040E+03 -0.56644249930E+04  0.65000000000E+04  0.15050000000E+03 0.  1.
</event>
<event>
 4    1  0.4521369E-004  0.6500000E+04  0.7818608E-02  0.7223770E-01
         52   -1    0    0    0    0  0.00000000000E+00  0.00000000000E+00  0.64930732323E+04  0.65000000000E+04  0.30000000000E+03 0.  1.
        -52   -1    0    0    0    0 -0.00000000000E+00 -0.00000000000E+00 -0.64930732323E+04  0.65000000000E+04  0.30000000000E+03 0. -1.
     100001    1    1    2    0    0 -0.23356649691E+04  0.11785925566E+03  0.60628481837E+04  0.65000000000E+04  0.15050000000E+03 0.  1.
     100001    1    1    2    0    0  0.23356649691E+04 -0.11785925566E+03 -0.60628481837E+04  0.65000000000E+04  0.15050000000E+03 0. -1.
</event>
<event>
 4    1  0.4521369E-004  0.6500000E+04  0.7818608E-02  0.7223770E-01
         52   -1    0    0    0    0  0.00000000000E+00  0.00000000000E+00  0.64930732323E+04  0.65000000000E+04  0.30000000000E+03 0. -1.
        -52   -1    0    0    0    0 -0.00000000000E+00 -0.00000000000E+00 -0.64930732323E+04  0.65000000000E+04  0.30000000000E+03 0.  1.
     100001    1    1    2    0    0  0.22019190677E+03 -0.25226138968E+03 -0.64896247554E+04  0.65000000000E+04  0.15050000000E+03 0.  1.
     100001    1    1    2    0    0 -0.22019190677E+03  0.25226138968E+03  0.64896247554E+04  0.65000000000E+04  0.15050000000E+03 0. -1.
</event>
<event>
 4    1  0.4521369E-004  0.6500000E+04  0.7818608E-02  0.7223770E-01
         52   -1    0    0    0    0  0.00000000000E+00  0.00000000000E+00  0.64930732323E+04  0.65000000000E+04  0.30000000000E+03 0.  1.
        -52   -1    0    0    0    0 -0.00000000000E+00 -0.00000000000E+00 -0.64930732323E+04  0.65000000000E+04  0.30000000000E+03 0. -1.
     100001    1    1    2    0    0  0.97554551214E+03 -0.45693101309E+04  0.45163110645E+04  0.65000000000E+04  0.15050000000E+03 0.  1.
     100001    1    1    2    0    0 -0.97554551214E+03  0.45693101309E+04 -0.45163110645E+04  0.65000000000E+04  0.15050000000E+03 0. -1.
</event>
<event>
 4    1  0.4521369E-004  0.6500000E+04  0.7818608E-02  0.7223770E-01
         52   -1    0    0    0    0  0.00000000000E+00  0.00000000000E+00  0.64930732323E+04  0.65000000000E+04  0.30000000000E+03 0.  1.
        -52   -1    0    0    0    0 -0.00000000000E+00 -0.00000000000E+00 -0.64930732323E+04  0.65000000000E+04  0.30000000000E+03 0. -1.
     100001    1    1    2    0    0 -0.25273611337E+04  0.23619690941E+04  0.55009905879E+04  0.65000000000E+04  0.15050000000E+03 0.  1.
     100001    1    1    2    0    0  0.25273611337E+04 -0.23619690941E+04 -0.55009905879E+04  0.65000000000E+04  0.15050000000E+03 0. -1.
</event>
<event>
 4    1  0.4521369E-004  0.6500000E+04  0.7818608E-02  0.7223770E-01
         52   -1    0    0    0    0  0.00000000000E+00  0.00000000000E+00  0.64930732323E+04  0.65000000000E+04  0.30000000000E+03 0. -1.
        -52   -1    0    0    0    0 -0.00000000000E+00 -0.00000000000E+00 -0.64930732323E+04  0.65000000000E+04  0.30000000000E+03 0.  1.
     100001    1    1    2    0    0  0.10850600354E+03 -0.49107890885E+03 -0.64787666807E+04  0.65000000000E+04  0.15050000000E+03 0.  1.
     100001    1    1    2    0    0 -0.10850600354E+03  0.49107890885E+03  0.64787666807E+04  0.65000000000E+04  0.15050000000E+03 0. -1.
</event>
<event>
 4    1  0.4521369E-004  0.6500000E+04  0.7818608E-02  0.7223770E-01
         52   -1    0    0    0    0  0.00000000000E+00  0.00000000000E+00  0.64930732323E+04  0.65000000000E+04  0.30000000000E+03 0.  1.
        -52   -1    0    0    0    0 -0.00000000000E+00 -0.00000000000E+00 -0.64930732323E+04  0.65000000000E+04  0.30000000000E+03 0. -1.
     100001    1    1    2    0    0 -0.32575225479E+03 -0.78299367879E+03 -0.64426823697E+04  0.65000000000E+04  0.15050000000E+03 0. -1.
     100001    1    1    2    0    0  0.32575225479E+03  0.78299367879E+03  0.64426823697E+04  0.65000000000E+04  0.15050000000E+03 0.  1.
</event>
<event>
 4    1  0.4521369E-004  0.6500000E+04  0.7818608E-02  0.7223770E-01
         52   -1    0    0    0    0  0.00000000000E+00  0.00000000000E+00  0.64930732323E+04  0.65000000000E+04  0.30000000000E+03 0. -1.
        -52   -1    0    0    0    0 -0.00000000000E+00 -0.00000000000E+00 -0.64930732323E+04  0.65000000000E+04  0.30000000000E+03 0. -1.
     100001    1    1    2    0    0 -0.37034322175E+02  0.29110809797E+02  0.64980867007E+04  0.65000000000E+04  0.15050000000E+03 0. -1.
     100001    1    1    2    0    0  0.37034322175E+02 -0.29110809797E+02 -0.64980867007E+04  0.65000000000E+04  0.15050000000E+03 0. -1.
</event>
<event>
 4    1  0.4521369E-004  0.6500000E+04  0.7818608E-02  0.7223770E-01
         52   -1    0    0    0    0  0.00000000000E+00  0.00000000000E+00  0.64930732323E+04  0.65000000000E+04  0.30000000000E+03 0. -1.
        -52   -1    0    0    0    0 -0.00000000000E+00 -0.00000000000E+00 -0.64930732323E+04  0.65000000000E+04  0.30000000000E+03 0.  1.
     100001    1    1    2    0    0 -0.23879373598E+03  0.40410333532E+02 -0.64937427041E+04  0.65000000000E+04  0.15050000000E+03 0.  1.
     100001    1    1    2    0    0  0.23879373598E+03 -0.40410333532E+02  0.64937427041E+04  0.65000000000E+04  0.15050000000E+03 0. -1.
</event>
<event>
 4    1  0.4521369E-004  0.6500000E+04  0.7818608E-02  0.7223770E-01
         52   -1    0    0    0    0  0.00000000000E+00  0.00000000000E+00  0.64930732323E+04  0.65000000000E+04  0.30000000000E+03 0. -1.
        -52   -1    0    0    0    0 -0.00000000000E+00 -0.00000000000E+00 -0.64930732323E+04  0.65000000000E+04  0.30000000000E+03 0.  1.
     100001    1    1    2    0    0 -0.61797056410E+03 -0.17738783343E+03 -0.64663742305E+04  0.65000000000E+04  0.15050000000E+03 0.  1.
     100001    1    1    2    0    0  0.61797056410E+03  0.17738783343E+03  0.64663742305E+04  0.65000000000E+04  0.15050000000E+03 0. -1.
</event>
<event>
 4    1  0.4521369E-004  0.6500000E+04  0.7818608E-02  0.7223770E-01
         52   -1    0    0    0    0  0.00000000000E+00  0.00000000000E+00  0.64930732323E+04  0.65000000000E+04  0.30000000000E+03 0.  1.
        -52   -1    0    0    0    0 -0.00000000000E+00 -0.00000000000E+00 -0.64930732323E+04  0.65000000000E+04  0.30000000000E+03 0.  1.
     100001    1    1    2    0    0  0.68255076098E+03  0.15863491347E+03 -0.64603644768E+04  0.65000000000E+04  0.15050000000E+03 0.  1.
     100001    1    1    2    0    0 -0.68255076098E+03 -0.15863491347E+03  0.64603644768E+04  0.65000000000E+04  0.15050000000E+03 0.  1.
</event>
<event>
 4    1  0.4521369E-004  0.6500000E+04  0.7818608E-02  0.7223770E-01
         52   -1    0    0    0    0  0.00000000000E+00  0.00000000000E+00  0.64930732323E+04  0.65000000000E+04  0.30000000000E+03 0.  1.
        -52   -1    0    0    0    0 -0.00000000000E+00 -0.00000000000E+00 -0.64930732323E+04  0.65000000000E+04  0.30000000000E+03 0. -1.
     100001    1    1    2    0    0 -0.50585366478E+03 -0.11656245279E+04 -0.63728158046E+04  0.65000000000E+04  0.15050000000E+03 0. -1.
     100001    1    1    2    0    0  0.50585366478E+03  0.11656245279E+04  0.63728158046E+04  0.65000000000E+04  0.15050000000E+03 0.  1.
</event>
<event>
 4    1  0.4521369E-004  0.6500000E+04  0.7818608E-02  0.7223770E-01
         52   -1    0    0    0    0  0.00000000000E+00  0.00000000000E+00  0.64930732323E+04  0.65000000000E+04  0.30000000000E+03 0.  1.
        -52   -1    0    0    0    0 -0.00000000000E+00 -0.00000000000E+00 -0.64930732323E+04  0.65000000000E+04  0.30000000000E+03 0. -1.
     100001    1    1    2    0    0  0.41083695128E+04 -0.44084450682E+04  0.24319255286E+04  0.65000000000E+04  0.15050000000E+03 0. -1.
     100001    1    1    2    0    0 -0.41083695128E+04  0.44084450682E+04 -0.24319255286E+04  0.65000000000E+04  0.15050000000E+03 0.  1.
</event>
<event>
 4    1  0.4521369E-004  0.6500000E+04  0.7818608E-02  0.7223770E-01
         52   -1    0    0    0    0  0.00000000000E+00  0.00000000000E+00  0.64930732323E+04  0.65000000000E+04  0.30000000000E+03 0. -1.
        -52   -1    0    0    0    0 -0.00000000000E+00 -0.00000000000E+00 -0.64930732323E+04  0.65000000000E+04  0.30000000000E+03 0.  1.
     100001    1    1    2    0    0 -0.25249560117E+04  0.59095790284E+04 -0.96375442750E+03  0.65000000000E+04  0.15050000000E+03 0. -1.
     100001    1    1    2    0    0  0.25249560117E+04 -0.59095790284E+04  0.96375442750E+03  0.65000000000E+04  0.15050000000E+03 0.  1.
</event>
<event>
 4    1  0.4521369E-004  0.6500000E+04  0.7818608E-02  0.7223770E-01
         52   -1    0    0    0    0  0.00000000000E+00  0.00000000000E+00  0.64930732323E+04  0.65000000000E+04  0.30000000000E+03 0. -1.
        -52   -1    0    0    0    0 -0.00000000000E+00 -0.00000000000E+00 -0.64930732323E+04  0.65000000000E+04  0.30000000000E+03 0. -1.
     100001    1    1    2    0    0  0.20743567261E+03 -0.24926206486E+03 -0.64901609082E+04  0.65000000000E+04  0.15050000000E+03 0. -1.
     100001    1    1    2    0    0 -0.20743567261E+03  0.24926206486E+03  0.64901609082E+04  0.65000000000E+04  0.15050000000E+03 0. -1.
</event>
<event>
 4    1  0.4521369E-004  0.6500000E+04  0.7818608E-02  0.7223770E-01
         52   -1    0    0    0    0  0.00000000000E+00  0.00000000000E+00  0.64930732323E+04  0.65000000000E+04  0.30000000000E+03 0.  1.
        -52   -1    0    0    0    0 -0.00000000000E+00 -0.00000000000E+00 -0.64930732323E+04  0.65000000000E+04  0.30000000000E+03 0. -1.
     100001    1    1    2    0    0  0.35639804953E+03 -0.60181119713E+03 -0.64605072141E+04  0.65000000000E+04  0.15050000000E+03 0. -1.
     100001    1    1    2    0    0 -0.35639804953E+03  0.60181119713E+03  0.64605072141E+04  0.65000000000E+04  0.15050000000E+03 0.  1.
</event>
<event>
 4    1  0.4521369E-004  0.6500000E+04  0.7818608E-02  0.7223770E-01
         52   -1    0    0    0    0  0.00000000000E+00  0.00000000000E+00  0.64930732323E+04  0.65000000000E+04  0.30000000000E+03 0.  1.
        -52   -1    0    0    0    0 -0.00000000000E+00 -0.00000000000E+00 -0.64930732323E+04  0.65000000000E+04  0.30000000000E+03 0.  1.
     100001    1    1    2    0    0 -0.45922899917E+03  0.20118698546E+03 -0.64788874256E+04  0.65000000000E+04  0.15050000000E+03 0.  1.
     100001    1    1    2    0    0  0.45922899917E+03 -0.20118698546E+03  0.64788874256E+04  0.65000000000E+04  0.15050000000E+03 0.  1.
</event>
<event>
 4    1  0.4521369E-004  0.6500000E+04  0.7818608E-02  0.7223770E-01
         52   -1    0    0    0    0  0.00000000000E+00  0.00000000000E+00  0.64930732323E+04  0.65000000000E+04  0.30000000000E+03 0. -1.
        -52   -1    0    0    0    0 -0.00000000000E+00 -0.00000000000E+00 -0.64930732323E+04  0.65000000000E+04  0.30000000000E+03 0. -1.
     100001    1    1    2    0    0  0.28308721091E+03 -0.42294812910E+03 -0.64782965555E+04  0.65000000000E+04  0.15050000000E+03 0. -1.
     100001    1    1    2    0    0 -0.28308721091E+03  0.42294812910E+03  0.64782965555E+04  0.65000000000E+04  0.15050000000E+03 0. -1.
</event>
<event>
 4    1  0.4521369E-004  0.6500000E+04  0.7818608E-02  0.7223770E-01
         52   -1    0    0    0    0  0.00000000000E+00  0.00000000000E+00  0.64930732323E+04  0.65000000000E+04  0.30000000000E+03 0.  1.
        -52   -1    0    0    0    0 -0.00000000000E+00 -0.00000000000E+00 -0.64930732323E+04  0.65000000000E+04  0.30000000000E+03 0. -1.
     100001    1    1    2    0    0 -0.29112809284E+04 -0.16781583202E+04  0.55619760660E+04  0.65000000000E+04  0.15050000000E+03 0.  1.
     100001    1    1    2    0    0  0.29112809284E+04  0.16781583202E+04 -0.55619760660E+04  0.65000000000E+04  0.15050000000E+03 0. -1.
</event>
<event>
 4    1  0.4521369E-004  0.6500000E+04  0.7818608E-02  0.7223770E-01
         52   -1    0    0    0    0  0.00000000000E+00  0.00000000000E+00  0.64930732323E+04  0.65000000000E+04  0.30000000000E+03 0. -1.
        -52   -1    0    0    0    0 -0.00000000000E+00 -0.00000000000E+00 -0.64930732323E+04  0.65000000000E+04  0.30000000000E+03 0. -1.
     100001    1    1    2    0    0 -0.51843973222E+03  0.53370754498E+03 -0.64555190535E+04  0.65000000000E+04  0.15050000000E+03 0. -1.
     100001    1    1    2    0    0  0.51843973222E+03 -0.53370754498E+03  0.64555190535E+04  0.65000000000E+04  0.15050000000E+03 0. -1.
</event>
<event>
 4    1  0.4521369E-004  0.6500000E+04  0.7818608E-02  0.7223770E-01
         52   -1    0    0    0    0  0.00000000000E+00  0.00000000000E+00  0.64930732323E+04  0.65000000000E+04  0.30000000000E+03 0. -1.
        -52   -1    0    0    0    0 -0.00000000000E+00 -0.00000000000E+00 -0.64930732323E+04  0.65000000000E+04  0.30000000000E+03 0.  1.
     100001    1    1    2    0    0 -0.31227339587E+04  0.11574893926E+04  0.55799731791E+04  0.65000000000E+04  0.15050000000E+03 0. -1.
     100001    1    1    2    0    0  0.31227339587E+04 -0.11574893926E+04 -0.55799731791E+04  0.65000000000E+04  0.15050000000E+03 0.  1.
</event>
<event>
 4    1  0.4521369E-004  0.6500000E+04  0.7818608E-02  0.7223770E-01
         52   -1    0    0    0    0  0.00000000000E+00  0.00000000000E+00  0.64930732323E+04  0.65000000000E+04  0.30000000000E+03 0. -1.
        -52   -1    0    0    0    0 -0.00000000000E+00 -0.00000000000E+00 -0.64930732323E+04  0.65000000000E+04  0.30000000000E+03 0.  1.
     100001    1    1    2    0    0  0.79013426773E+03 -0.74105643776E+03  0.64073296267E+04  0.65000000000E+04  0.15050000000E+03 0. -1.
     100001    1    1    2    0    0 -0.79013426773E+03  0.74105643776E+03 -0.64073296267E+04  0.65000000000E+04  0.15050000000E+03 0.  1.
</event>
<event>
 4    1  0.4521369E-004  0.6500000E+04  0.7818608E-02  0.7223770E-01
         52   -1    0    0    0    0  0.00000000000E+00  0.00000000000E+00  0.64930732323E+04  0.65000000000E+04  0.30000000000E+03 0. -1.
        -52   -1    0    0    0    0 -0.00000000000E+00 -0.00000000000E+00 -0.64930732323E+04  0.65000000000E+04  0.30000000000E+03 0.  1.
     100001    1    1    2    0    0  0.87822824618E+03 -0.13665335075E+04  0.62919512928E+04  0.65000000000E+04  0.15050000000E+03 0. -1.
     100001    1    1    2    0    0 -0.87822824618E+03  0.13665335075E+04 -0.62919512928E+04  0.65000000000E+04  0.15050000000E+03 0.  1.
</event>
<event>
 4    1  0.4521369E-004  0.6500000E+04  0.7818608E-02  0.7223770E-01
         52   -1    0    0    0    0  0.00000000000E+00  0.00000000000E+00  0.64930732323E+04  0.65000000000E+04  0.30000000000E+03 0. -1.
        -52   -1    0    0    0    0 -0.00000000000E+00 -0.00000000000E+00 -0.64930732323E+04  0.65000000000E+04  0.30000000000E+03 0.  1.
     100001    1    1    2    0    0 -0.60828526538E+03 -0.35072081405E+02 -0.64696297216E+04  0.65000000000E+04  0.15050000000E+03 0.  1.
     100001    1    1    2    0    0  0.60828526538E+03  0.35072081405E+02  0.64696297216E+04  0.65000000000E+04  0.15050000000E+03 0. -1.
</event>
<event>
 4    1  0.4521369E-004  0.6500000E+04  0.7818608E-02  0.7223770E-01
         52   -1    0    0    0    0  0.00000000000E+00  0.00000000000E+00  0.64930732323E+04  0.65000000000E+04  0.30000000000E+03 0.  1.
        -52   -1    0    0    0    0 -0.00000000000E+00 -0.00000000000E+00 -0.64930732323E+04  0.65000000000E+04  0.30000000000E+03 0. -1.
     100001    1    1    2    0    0  0.33344848107E+03 -0.54073686534E+03  0.64671296185E+04  0.65000000000E+04  0.15050000000E+03 0.  1.
     100001    1    1    2    0    0 -0.33344848107E+03  0.54073686534E+03 -0.64671296185E+04  0.65000000000E+04  0.15050000000E+03 0. -1.
</event>
<event>
 4    1  0.4521369E-004  0.6500000E+04  0.7818608E-02  0.7223770E-01
         52   -1    0    0    0    0  0.00000000000E+00  0.00000000000E+00  0.64930732323E+04  0.65000000000E+04  0.30000000000E+03 0. -1.
        -52   -1    0    0    0    0 -0.00000000000E+00 -0.00000000000E+00 -0.64930732323E+04  0.65000000000E+04  0.30000000000E+03 0.  1.
     100001    1    1    2    0    0 -0.19497935497E+04  0.33452517414E+04  0.52187111100E+04  0.65000000000E+04  0.15050000000E+03 0. -1.
     100001    1    1    2    0    0  0.19497935497E+04 -0.33452517414E+04 -0.52187111100E+04  0.65000000000E+04  0.15050000000E+03 0.  1.
</event>
<event>
 4    1  0.4521369E-004  0.6500000E+04  0.7818608E-02  0.7223770E-01
         52   -1    0    0    0    0  0.00000000000E+00  0.00000000000E+00  0.64930732323E+04  0.65000000000E+04  0.30000000000E+03 0. -1.
        -52   -1    0    0    0    0 -0.00000000000E+00 -0.00000000000E+00 -0.64930732323E+04  0.65000000000E+04  0.30000000000E+03 0.  1.
     100001    1    1    2    0    0  0.29988418374E+04 -0.14418369974E+04  0.55817025590E+04  0.65000000000E+04  0.15050000000E+03 0. -1.
     100001    1    1    2    0    0 -0.29988418374E+04  0.14418369974E+04 -0.55817025590E+04  0.65000000000E+04  0.15050000000E+03 0.  1.
</event>
<event>
 4    1  0.4521369E-004  0.6500000E+04  0.7818608E-02  0.7223770E-01
         52   -1    0    0    0    0  0.00000000000E+00  0.00000000000E+00  0.64930732323E+04  0.65000000000E+04  0.30000000000E+03 0. -1.
        -52   -1    0    0    0    0 -0.00000000000E+00 -0.00000000000E+00 -0.64930732323E+04  0.65000000000E+04  0.30000000000E+03 0.  1.
     100001    1    1    2    0    0  0.46034427119E+03  0.10155326722E+04  0.64018845892E+04  0.65000000000E+04  0.15050000000E+03 0. -1.
     100001    1    1    2    0    0 -0.46034427119E+03 -0.10155326722E+04 -0.64018845892E+04  0.65000000000E+04  0.15050000000E+03 0.  1.
</event>
<event>
 4    1  0.4521369E-004  0.6500000E+04  0.7818608E-02  0.7223770E-01
         52   -1    0    0    0    0  0.00000000000E+00  0.00000000000E+00  0.64930732323E+04  0.65000000000E+04  0.30000000000E+03 0. -1.
        -52   -1    0    0    0    0 -0.00000000000E+00 -0.00000000000E+00 -0.64930732323E+04  0.65000000000E+04  0.30000000000E+03 0.  1.
     100001    1    1    2    0    0  0.43193449666E+04  0.46911969668E+04  0.12503118923E+04  0.65000000000E+04  0.15050000000E+03 0.  1.
     100001    1    1    2    0    0 -0.43193449666E+04 -0.46911969668E+04 -0.12503118923E+04  0.65000000000E+04  0.15050000000E+03 0. -1.
</event>
<event>
 4    1  0.4521369E-004  0.6500000E+04  0.7818608E-02  0.7223770E-01
         52   -1    0    0    0    0  0.00000000000E+00  0.00000000000E+00  0.64930732323E+04  0.65000000000E+04  0.30000000000E+03 0.  1.
        -52   -1    0    0    0    0 -0.00000000000E+00 -0.00000000000E+00 -0.64930732323E+04  0.65000000000E+04  0.30000000000E+03 0. -1.
     100001    1    1    2    0    0  0.67616532328E+03 -0.57194797614E+03 -0.64376257827E+04  0.65000000000E+04  0.15050000000E+03 0. -1.
     100001    1    1    2    0    0 -0.67616532328E+03  0.57194797614E+03  0.64376257827E+04  0.65000000000E+04  0.15050000000E+03 0.  1.
</event>
<event>
 4    1  0.4521369E-004  0.6500000E+04  0.7818608E-02  0.7223770E-01
         52   -1    0    0    0    0  0.00000000000E+00  0.00000000000E+00  0.64930732323E+04  0.65000000000E+04  0.30000000000E+03 0.  1.
        -52   -1    0    0    0    0 -0.00000000000E+00 -0.00000000000E+00 -0.64930732323E+04  0.65000000000E+04  0.30000000000E+03 0. -1.
     100001    1    1    2    0    0 -0.41363324026E+03 -0.11807465436E+03  0.64840046012E+04  0.65000000000E+04  0.15050000000E+03 0.  1.
     100001    1    1    2    0    0  0.41363324026E+03  0.11807465436E+03 -0.64840046012E+04  0.65000000000E+04  0.15050000000E+03 0. -1.
</event>
<event>
 4    1  0.4521369E-004  0.6500000E+04  0.7818608E-02  0.7223770E-01
         52   -1    0    0    0    0  0.00000000000E+00  0.00000000000E+00  0.64930732323E+04  0.65000000000E+04  0.30000000000E+03 0. -1.
        -52   -1    0    0    0    0 -0.00000000000E+00 -0.00000000000E+00 -0.64930732323E+04  0.65000000000E+04  0.30000000000E+03 0.  1.
     100001    1    1    2    0    0  0.76436744487E+03 -0.22348149357E+03 -0.64492750121E+04  0.65000000000E+04  0.15050000000E+03 0.  1.
     100001    1    1    2    0    0 -0.76436744487E+03  0.22348149357E+03  0.64492750121E+04  0.65000000000E+04  0.15050000000E+03 0. -1.
</event>
<event>
 4    1  0.4521369E-004  0.6500000E+04  0.7818608E-02  0.7223770E-01
         52   -1    0    0    0    0  0.00000000000E+00  0.00000000000E+00  0.64930732323E+04  0.65000000000E+04  0.30000000000E+03 0.  1.
        -52   -1    0    0    0    0 -0.00000000000E+00 -0.00000000000E+00 -0.64930732323E+04  0.65000000000E+04  0.30000000000E+03 0. -1.
     100001    1    1    2    0    0  0.23290066762E+04 -0.29147329142E+04  0.53204708148E+04  0.65000000000E+04  0.15050000000E+03 0.  1.
     100001    1    1    2    0    0 -0.23290066762E+04  0.29147329142E+04 -0.53204708148E+04  0.65000000000E+04  0.15050000000E+03 0. -1.
</event>
<event>
 4    1  0.4521369E-004  0.6500000E+04  0.7818608E-02  0.7223770E-01
         52   -1    0    0    0    0  0.00000000000E+00  0.00000000000E+00  0.64930732323E+04  0.65000000000E+04  0.30000000000E+03 0.  1.
        -52   -1    0    0    0    0 -0.00000000000E+00 -0.00000000000E+00 -0.64930732323E+04  0.65000000000E+04  0.30000000000E+03 0. -1.
     100001    1    1    2    0    0 -0.66236281623E+03 -0.40151434718E+03 -0.64519308334E+04  0.65000000000E+04  0.15050000000E+03 0. -1.
     100001    1    1    2    0    0  0.66236281623E+03  0.40151434718E+03  0.64519308334E+04  0.65000000000E+04  0.15050000000E+03 0.  1.
</event>
<event>
 4    1  0.4521369E-004  0.6500000E+04  0.7818608E-02  0.7223770E-01
         52   -1    0    0    0    0  0.00000000000E+00  0.00000000000E+00  0.64930732323E+04  0.65000000000E+04  0.30000000000E+03 0. -1.
        -52   -1    0    0    0    0 -0.00000000000E+00 -0.00000000000E+00 -0.64930732323E+04  0.65000000000E+04  0.30000000000E+03 0.  1.
     100001    1    1    2    0    0 -0.31375947007E+04 -0.22088549089E+04 -0.52444074246E+04  0.65000000000E+04  0.15050000000E+03 0.  1.
     100001    1    1    2    0    0  0.31375947007E+04  0.22088549089E+04  0.52444074246E+04  0.65000000000E+04  0.15050000000E+03 0. -1.
</event>
<event>
 4    1  0.4521369E-004  0.6500000E+04  0.7818608E-02  0.7223770E-01
         52   -1    0    0    0    0  0.00000000000E+00  0.00000000000E+00  0.64930732323E+04  0.65000000000E+04  0.30000000000E+03 0. -1.
        -52   -1    0    0    0    0 -0.00000000000E+00 -0.00000000000E+00 -0.64930732323E+04  0.65000000000E+04  0.30000000000E+03 0.  1.
     100001    1    1    2    0    0 -0.14387084143E+04  0.39872503720E+03  0.63244356423E+04  0.65000000000E+04  0.15050000000E+03 0. -1.
     100001    1    1    2    0    0  0.14387084143E+04 -0.39872503720E+03 -0.63244356423E+04  0.65000000000E+04  0.15050000000E+03 0.  1.
</event>
<event>
 4    1  0.4521369E-004  0.6500000E+04  0.7818608E-02  0.7223770E-01
         52   -1    0    0    0    0  0.00000000000E+00  0.00000000000E+00  0.64930732323E+04  0.65000000000E+04  0.30000000000E+03 0.  1.
        -52   -1    0    0    0    0 -0.00000000000E+00 -0.00000000000E+00 -0.64930732323E+04  0.65000000000E+04  0.30000000000E+03 0. -1.
     100001    1    1    2    0    0  0.38459738971E+02  0.22090953840E+04  0.61111184069E+04  0.65000000000E+04  0.15050000000E+03 0.  1.
     100001    1    1    2    0    0 -0.38459738971E+02 -0.22090953840E+04 -0.61111184069E+04  0.65000000000E+04  0.15050000000E+03 0. -1.
</event>
<event>
 4    1  0.4521369E-004  0.6500000E+04  0.7818608E-02  0.7223770E-01
         52   -1    0    0    0    0  0.00000000000E+00  0.00000000000E+00  0.64930732323E+04  0.65000000000E+04  0.30000000000E+03 0. -1.
        -52   -1    0    0    0    0 -0.00000000000E+00 -0.00000000000E+00 -0.64930732323E+04  0.65000000000E+04  0.30000000000E+03 0.  1.
     100001    1    1    2    0    0 -0.19145729742E+04  0.23937481803E+04 -0.57298978809E+04  0.65000000000E+04  0.15050000000E+03 0.  1.
     100001    1    1    2    0    0  0.19145729742E+04 -0.23937481803E+04  0.57298978809E+04  0.65000000000E+04  0.15050000000E+03 0. -1.
</event>
<event>
 4    1  0.4521369E-004  0.6500000E+04  0.7818608E-02  0.7223770E-01
         52   -1    0    0    0    0  0.00000000000E+00  0.00000000000E+00  0.64930732323E+04  0.65000000000E+04  0.30000000000E+03 0.  1.
        -52   -1    0    0    0    0 -0.00000000000E+00 -0.00000000000E+00 -0.64930732323E+04  0.65000000000E+04  0.30000000000E+03 0. -1.
     100001    1    1    2    0    0  0.19797407606E+01 -0.20828329868E+04  0.61554165237E+04  0.65000000000E+04  0.15050000000E+03 0.  1.
     100001    1    1    2    0    0 -0.19797407606E+01  0.20828329868E+04 -0.61554165237E+04  0.65000000000E+04  0.15050000000E+03 0. -1.
</event>
<event>
 4    1  0.4521369E-004  0.6500000E+04  0.7818608E-02  0.7223770E-01
         52   -1    0    0    0    0  0.00000000000E+00  0.00000000000E+00  0.64930732323E+04  0.65000000000E+04  0.30000000000E+03 0.  1.
        -52   -1    0    0    0    0 -0.00000000000E+00 -0.00000000000E+00 -0.64930732323E+04  0.65000000000E+04  0.30000000000E+03 0. -1.
     100001    1    1    2    0    0  0.19404767862E+04 -0.18656694983E+04 -0.59144887281E+04  0.65000000000E+04  0.15050000000E+03 0. -1.
     100001    1    1    2    0    0 -0.19404767862E+04  0.18656694983E+04  0.59144887281E+04  0.65000000000E+04  0.15050000000E+03 0.  1.
</event>
<event>
 4    1  0.4521369E-004  0.6500000E+04  0.7818608E-02  0.7223770E-01
         52   -1    0    0    0    0  0.00000000000E+00  0.00000000000E+00  0.64930732323E+04  0.65000000000E+04  0.30000000000E+03 0.  1.
        -52   -1    0    0    0    0 -0.00000000000E+00 -0.00000000000E+00 -0.64930732323E+04  0.65000000000E+04  0.30000000000E+03 0. -1.
     100001    1    1    2    0    0  0.41930926460E+04 -0.18042135074E+04 -0.46249472896E+04  0.65000000000E+04  0.15050000000E+03 0. -1.
     100001    1    1    2    0    0 -0.41930926460E+04  0.18042135074E+04  0.46249472896E+04  0.65000000000E+04  0.15050000000E+03 0.  1.
</event>
<event>
 4    1  0.4521369E-004  0.6500000E+04  0.7818608E-02  0.7223770E-01
         52   -1    0    0    0    0  0.00000000000E+00  0.00000000000E+00  0.64930732323E+04  0.65000000000E+04  0.30000000000E+03 0.  1.
        -52   -1    0    0    0    0 -0.00000000000E+00 -0.00000000000E+00 -0.64930732323E+04  0.65000000000E+04  0.30000000000E+03 0. -1.
     100001    1    1    2    0    0  0.42550282323E+03  0.76638440472E+03 -0.64388626357E+04  0.65000000000E+04  0.15050000000E+03 0. -1.
     100001    1    1    2    0    0 -0.42550282323E+03 -0.76638440472E+03  0.64388626357E+04  0.65000000000E+04  0.15050000000E+03 0.  1.
</event>
<event>
 4    1  0.4521369E-004  0.6500000E+04  0.7818608E-02  0.7223770E-01
         52   -1    0    0    0    0  0.00000000000E+00  0.00000000000E+00  0.64930732323E+04  0.65000000000E+04  0.30000000000E+03 0. -1.
        -52   -1    0    0    0    0 -0.00000000000E+00 -0.00000000000E+00 -0.64930732323E+04  0.65000000000E+04  0.30000000000E+03 0.  1.
     100001    1    1    2    0    0  0.54000825195E+04  0.32210620599E+04 -0.16404931388E+04  0.65000000000E+04  0.15050000000E+03 0.  1.
     100001    1    1    2    0    0 -0.54000825195E+04 -0.32210620599E+04  0.16404931388E+04  0.65000000000E+04  0.15050000000E+03 0. -1.
</event>
<event>
 4    1  0.4521369E-004  0.6500000E+04  0.7818608E-02  0.7223770E-01
         52   -1    0    0    0    0  0.00000000000E+00  0.00000000000E+00  0.64930732323E+04  0.65000000000E+04  0.30000000000E+03 0. -1.
        -52   -1    0    0    0    0 -0.00000000000E+00 -0.00000000000E+00 -0.64930732323E+04  0.65000000000E+04  0.30000000000E+03 0.  1.
     100001    1    1    2    0    0 -0.32205954723E+03  0.49940153698E+03 -0.64710297096E+04  0.65000000000E+04  0.15050000000E+03 0.  1.
     100001    1    1    2    0    0  0.32205954723E+03 -0.49940153698E+03  0.64710297096E+04  0.65000000000E+04  0.15050000000E+03 0. -1.
</event>
<event>
 4    1  0.4521369E-004  0.6500000E+04  0.7818608E-02  0.7223770E-01
         52   -1    0    0    0    0  0.00000000000E+00  0.00000000000E+00  0.64930732323E+04  0.65000000000E+04  0.30000000000E+03 0.  1.
        -52   -1    0    0    0    0 -0.00000000000E+00 -0.00000000000E+00 -0.64930732323E+04  0.65000000000E+04  0.30000000000E+03 0. -1.
     100001    1    1    2    0    0 -0.59568511469E+03 -0.68776315366E+03 -0.64342436104E+04  0.65000000000E+04  0.15050000000E+03 0. -1.
     100001    1    1    2    0    0  0.59568511469E+03  0.68776315366E+03  0.64342436104E+04  0.65000000000E+04  0.15050000000E+03 0.  1.
</event>
<event>
 4    1  0.4521369E-004  0.6500000E+04  0.7818608E-02  0.7223770E-01
         52   -1    0    0    0    0  0.00000000000E+00  0.00000000000E+00  0.64930732323E+04  0.65000000000E+04  0.30000000000E+03 0.  1.
        -52   -1    0    0    0    0 -0.00000000000E+00 -0.00000000000E+00 -0.64930732323E+04  0.65000000000E+04  0.30000000000E+03 0. -1.
     100001    1    1    2    0    0  0.10173193297E+04 -0.40083744264E+04  0.50125188867E+04  0.65000000000E+04  0.15050000000E+03 0.  1.
     100001    1    1    2    0    0 -0.10173193297E+04  0.40083744264E+04 -0.50125188867E+04  0.65000000000E+04  0.15050000000E+03 0. -1.
</event>
<event>
 4    1  0.4521369E-004  0.6500000E+04  0.7818608E-02  0.7223770E-01
         52   -1    0    0    0    0  0.00000000000E+00  0.00000000000E+00  0.64930732323E+04  0.65000000000E+04  0.30000000000E+03 0.  1.
        -52   -1    0    0    0    0 -0.00000000000E+00 -0.00000000000E+00 -0.64930732323E+04  0.65000000000E+04  0.30000000000E+03 0. -1.
     100001    1    1    2    0    0 -0.17176511456E+04  0.59071920571E+03  0.62392367411E+04  0.65000000000E+04  0.15050000000E+03 0.  1.
     100001    1    1    2    0    0  0.17176511456E+04 -0.59071920571E+03 -0.62392367411E+04  0.65000000000E+04  0.15050000000E+03 0. -1.
</event>
<event>
 4    1  0.4521369E-004  0.6500000E+04  0.7818608E-02  0.7223770E-01
         52   -1    0    0    0    0  0.00000000000E+00  0.00000000000E+00  0.64930732323E+04  0.65000000000E+04  0.30000000000E+03 0.  1.
        -52   -1    0    0    0    0 -0.00000000000E+00 -0.00000000000E+00 -0.64930732323E+04  0.65000000000E+04  0.30000000000E+03 0. -1.
     100001    1    1    2    0    0 -0.17782732579E+03 -0.60962011363E+03  0.64671547460E+04  0.65000000000E+04  0.15050000000E+03 0.  1.
     100001    1    1    2    0    0  0.17782732579E+03  0.60962011363E+03 -0.64671547460E+04  0.65000000000E+04  0.15050000000E+03 0. -1.
</event>
<event>
 4    1  0.4521369E-004  0.6500000E+04  0.7818608E-02  0.7223770E-01
         52   -1    0    0    0    0  0.00000000000E+00  0.00000000000E+00  0.64930732323E+04  0.65000000000E+04  0.30000000000E+03 0. -1.
        -52   -1    0    0    0    0 -0.00000000000E+00 -0.00000000000E+00 -0.64930732323E+04  0.65000000000E+04  0.30000000000E+03 0.  1.
     100001    1    1    2    0    0 -0.91754171875E+03 -0.63884008941E+04  0.75749650855E+03  0.65000000000E+04  0.15050000000E+03 0.  1.
     100001    1    1    2    0    0  0.91754171875E+03  0.63884008941E+04 -0.75749650855E+03  0.65000000000E+04  0.15050000000E+03 0. -1.
</event>
<event>
 4    1  0.4521369E-004  0.6500000E+04  0.7818608E-02  0.7223770E-01
         52   -1    0    0    0    0  0.00000000000E+00  0.00000000000E+00  0.64930732323E+04  0.65000000000E+04  0.30000000000E+03 0. -1.
        -52   -1    0    0    0    0 -0.00000000000E+00 -0.00000000000E+00 -0.64930732323E+04  0.65000000000E+04  0.30000000000E+03 0.  1.
     100001    1    1    2    0    0  0.52474131364E+03  0.25880781392E+04 -0.59374950820E+04  0.65000000000E+04  0.15050000000E+03 0.  1.
     100001    1    1    2    0    0 -0.52474131364E+03 -0.25880781392E+04  0.59374950820E+04  0.65000000000E+04  0.15050000000E+03 0. -1.
</event>
<event>
 4    1  0.4521369E-004  0.6500000E+04  0.7818608E-02  0.7223770E-01
         52   -1    0    0    0    0  0.00000000000E+00  0.00000000000E+00  0.64930732323E+04  0.65000000000E+04  0.30000000000E+03 0. -1.
        -52   -1    0    0    0    0 -0.00000000000E+00 -0.00000000000E+00 -0.64930732323E+04  0.65000000000E+04  0.30000000000E+03 0.  1.
     100001    1    1    2    0    0  0.41763742228E+03 -0.41486725830E+03  0.64715387576E+04  0.65000000000E+04  0.15050000000E+03 0. -1.
     100001    1    1    2    0    0 -0.41763742228E+03  0.41486725830E+03 -0.64715387576E+04  0.65000000000E+04  0.15050000000E+03 0.  1.
</event>
<event>
 4    1  0.8241571E-004  0.6500000E+04  0.7818608E-02  0.7223770E-01
         52   -1    0    0    0    0  0.00000000000E+00  0.00000000000E+00  0.64930732323E+04  0.65000000000E+04  0.30000000000E+03 0. -1.
        -52   -1    0    0    0    0 -0.00000000000E+00 -0.00000000000E+00 -0.64930732323E+04  0.65000000000E+04  0.30000000000E+03 0. -1.
     100001    1    1    2    0    0 -0.14399344398E+03 -0.38237288816E+01  0.64966607590E+04  0.65000000000E+04  0.15050000000E+03 0. -1.
     100001    1    1    2    0    0  0.14399344398E+03  0.38237288816E+01 -0.64966607590E+04  0.65000000000E+04  0.15050000000E+03 0. -1.
</event>
<event>
 4    1  0.4521369E-004  0.6500000E+04  0.7818608E-02  0.7223770E-01
         52   -1    0    0    0    0  0.00000000000E+00  0.00000000000E+00  0.64930732323E+04  0.65000000000E+04  0.30000000000E+03 0.  1.
        -52   -1    0    0    0    0 -0.00000000000E+00 -0.00000000000E+00 -0.64930732323E+04  0.65000000000E+04  0.30000000000E+03 0. -1.
     100001    1    1    2    0    0 -0.87100708015E+03  0.36476294246E+04  0.53069290552E+04  0.65000000000E+04  0.15050000000E+03 0.  1.
     100001    1    1    2    0    0  0.87100708015E+03 -0.36476294246E+04 -0.53069290552E+04  0.65000000000E+04  0.15050000000E+03 0. -1.
</event>
<event>
 4    1  0.4521369E-004  0.6500000E+04  0.7818608E-02  0.7223770E-01
         52   -1    0    0    0    0  0.00000000000E+00  0.00000000000E+00  0.64930732323E+04  0.65000000000E+04  0.30000000000E+03 0.  1.
        -52   -1    0    0    0    0 -0.00000000000E+00 -0.00000000000E+00 -0.64930732323E+04  0.65000000000E+04  0.30000000000E+03 0. -1.
     100001    1    1    2    0    0  0.51283706594E+03  0.19812700580E+03 -0.64749589638E+04  0.65000000000E+04  0.15050000000E+03 0. -1.
     100001    1    1    2    0    0 -0.51283706594E+03 -0.19812700580E+03  0.64749589638E+04  0.65000000000E+04  0.15050000000E+03 0.  1.
</event>
<event>
 4    1  0.4521369E-004  0.6500000E+04  0.7818608E-02  0.7223770E-01
         52   -1    0    0    0    0  0.00000000000E+00  0.00000000000E+00  0.64930732323E+04  0.65000000000E+04  0.30000000000E+03 0.  1.
        -52   -1    0    0    0    0 -0.00000000000E+00 -0.00000000000E+00 -0.64930732323E+04  0.65000000000E+04  0.30000000000E+03 0.  1.
     100001    1    1    2    0    0 -0.19385654591E+03 -0.21395968862E+03 -0.64918403124E+04  0.65000000000E+04  0.15050000000E+03 0.  1.
     100001    1    1    2    0    0  0.19385654591E+03  0.21395968862E+03  0.64918403124E+04  0.65000000000E+04  0.15050000000E+03 0.  1.
</event>
<event>
 4    1  0.4521369E-004  0.6500000E+04  0.7818608E-02  0.7223770E-01
         52   -1    0    0    0    0  0.00000000000E+00  0.00000000000E+00  0.64930732323E+04  0.65000000000E+04  0.30000000000E+03 0. -1.
        -52   -1    0    0    0    0 -0.00000000000E+00 -0.00000000000E+00 -0.64930732323E+04  0.65000000000E+04  0.30000000000E+03 0. -1.
     100001    1    1    2    0    0 -0.20124631747E+03  0.11794729119E+03  0.64940694565E+04  0.65000000000E+04  0.15050000000E+03 0. -1.
     100001    1    1    2    0    0  0.20124631747E+03 -0.11794729119E+03 -0.64940694565E+04  0.65000000000E+04  0.15050000000E+03 0. -1.
</event>
<event>
 4    1  0.4521369E-004  0.6500000E+04  0.7818608E-02  0.7223770E-01
         52   -1    0    0    0    0  0.00000000000E+00  0.00000000000E+00  0.64930732323E+04  0.65000000000E+04  0.30000000000E+03 0. -1.
        -52   -1    0    0    0    0 -0.00000000000E+00 -0.00000000000E+00 -0.64930732323E+04  0.65000000000E+04  0.30000000000E+03 0.  1.
     100001    1    1    2    0    0 -0.12043992259E+04  0.39043758727E+04 -0.50529814268E+04  0.65000000000E+04  0.15050000000E+03 0.  1.
     100001    1    1    2    0    0  0.12043992259E+04 -0.39043758727E+04  0.50529814268E+04  0.65000000000E+04  0.15050000000E+03 0. -1.
</event>
<event>
 4    1  0.4521369E-004  0.6500000E+04  0.7818608E-02  0.7223770E-01
         52   -1    0    0    0    0  0.00000000000E+00  0.00000000000E+00  0.64930732323E+04  0.65000000000E+04  0.30000000000E+03 0. -1.
        -52   -1    0    0    0    0 -0.00000000000E+00 -0.00000000000E+00 -0.64930732323E+04  0.65000000000E+04  0.30000000000E+03 0.  1.
     100001    1    1    2    0    0 -0.24001754316E+04 -0.15834356811E+04  0.58274556276E+04  0.65000000000E+04  0.15050000000E+03 0. -1.
     100001    1    1    2    0    0  0.24001754316E+04  0.15834356811E+04 -0.58274556276E+04  0.65000000000E+04  0.15050000000E+03 0.  1.
</event>
<event>
 4    1  0.4521369E-004  0.6500000E+04  0.7818608E-02  0.7223770E-01
         52   -1    0    0    0    0  0.00000000000E+00  0.00000000000E+00  0.64930732323E+04  0.65000000000E+04  0.30000000000E+03 0.  1.
        -52   -1    0    0    0    0 -0.00000000000E+00 -0.00000000000E+00 -0.64930732323E+04  0.65000000000E+04  0.30000000000E+03 0. -1.
     100001    1    1    2    0    0 -0.62876789883E+04  0.13856924313E+04  0.87880553959E+03  0.65000000000E+04  0.15050000000E+03 0. -1.
     100001    1    1    2    0    0  0.62876789883E+04 -0.13856924313E+04 -0.87880553959E+03  0.65000000000E+04  0.15050000000E+03 0.  1.
</event>
<event>
 4    1  0.4521369E-004  0.6500000E+04  0.7818608E-02  0.7223770E-01
         52   -1    0    0    0    0  0.00000000000E+00  0.00000000000E+00  0.64930732323E+04  0.65000000000E+04  0.30000000000E+03 0. -1.
        -52   -1    0    0    0    0 -0.00000000000E+00 -0.00000000000E+00 -0.64930732323E+04  0.65000000000E+04  0.30000000000E+03 0.  1.
     100001    1    1    2    0    0  0.26396456071E+04 -0.27778789393E+04 -0.52481434258E+04  0.65000000000E+04  0.15050000000E+03 0.  1.
     100001    1    1    2    0    0 -0.26396456071E+04  0.27778789393E+04  0.52481434258E+04  0.65000000000E+04  0.15050000000E+03 0. -1.
</event>
<event>
 4    1  0.4521369E-004  0.6500000E+04  0.7818608E-02  0.7223770E-01
         52   -1    0    0    0    0  0.00000000000E+00  0.00000000000E+00  0.64930732323E+04  0.65000000000E+04  0.30000000000E+03 0.  1.
        -52   -1    0    0    0    0 -0.00000000000E+00 -0.00000000000E+00 -0.64930732323E+04  0.65000000000E+04  0.30000000000E+03 0. -1.
     100001    1    1    2    0    0  0.54736304280E+04  0.17437439201E+04  0.30374457738E+04  0.65000000000E+04  0.15050000000E+03 0.  1.
     100001    1    1    2    0    0 -0.54736304280E+04 -0.17437439201E+04 -0.30374457738E+04  0.65000000000E+04  0.15050000000E+03 0. -1.
</event>
<event>
 4    1  0.4521369E-004  0.6500000E+04  0.7818608E-02  0.7223770E-01
         52   -1    0    0    0    0  0.00000000000E+00  0.00000000000E+00  0.64930732323E+04  0.65000000000E+04  0.30000000000E+03 0.  1.
        -52   -1    0    0    0    0 -0.00000000000E+00 -0.00000000000E+00 -0.64930732323E+04  0.65000000000E+04  0.30000000000E+03 0. -1.
     100001    1    1    2    0    0 -0.13309372939E+04 -0.82815599491E+01  0.63604942485E+04  0.65000000000E+04  0.15050000000E+03 0.  1.
     100001    1    1    2    0    0  0.13309372939E+04  0.82815599491E+01 -0.63604942485E+04  0.65000000000E+04  0.15050000000E+03 0. -1.
</event>
<event>
 4    1  0.4521369E-004  0.6500000E+04  0.7818608E-02  0.7223770E-01
         52   -1    0    0    0    0  0.00000000000E+00  0.00000000000E+00  0.64930732323E+04  0.65000000000E+04  0.30000000000E+03 0.  1.
        -52   -1    0    0    0    0 -0.00000000000E+00 -0.00000000000E+00 -0.64930732323E+04  0.65000000000E+04  0.30000000000E+03 0. -1.
     100001    1    1    2    0    0 -0.23929120355E+04 -0.78234391734E+03  0.59907645368E+04  0.65000000000E+04  0.15050000000E+03 0.  1.
     100001    1    1    2    0    0  0.23929120355E+04  0.78234391734E+03 -0.59907645368E+04  0.65000000000E+04  0.15050000000E+03 0. -1.
</event>
<event>
 4    1  0.4521369E-004  0.6500000E+04  0.7818608E-02  0.7223770E-01
         52   -1    0    0    0    0  0.00000000000E+00  0.00000000000E+00  0.64930732323E+04  0.65000000000E+04  0.30000000000E+03 0.  1.
        -52   -1    0    0    0    0 -0.00000000000E+00 -0.00000000000E+00 -0.64930732323E+04  0.65000000000E+04  0.30000000000E+03 0. -1.
     100001    1    1    2    0    0  0.77855384351E+03 -0.29650060610E+04  0.57297419419E+04  0.65000000000E+04  0.15050000000E+03 0.  1.
     100001    1    1    2    0    0 -0.77855384351E+03  0.29650060610E+04 -0.57297419419E+04  0.65000000000E+04  0.15050000000E+03 0. -1.
</event>
<event>
 4    1  0.4521369E-004  0.6500000E+04  0.7818608E-02  0.7223770E-01
         52   -1    0    0    0    0  0.00000000000E+00  0.00000000000E+00  0.64930732323E+04  0.65000000000E+04  0.30000000000E+03 0. -1.
        -52   -1    0    0    0    0 -0.00000000000E+00 -0.00000000000E+00 -0.64930732323E+04  0.65000000000E+04  0.30000000000E+03 0.  1.
     100001    1    1    2    0    0 -0.22486536915E+03 -0.59027032663E+03  0.64674853117E+04  0.65000000000E+04  0.15050000000E+03 0. -1.
     100001    1    1    2    0    0  0.22486536915E+03  0.59027032663E+03 -0.64674853117E+04  0.65000000000E+04  0.15050000000E+03 0.  1.
</event>
<event>
 4    1  0.4521369E-004  0.6500000E+04  0.7818608E-02  0.7223770E-01
         52   -1    0    0    0    0  0.00000000000E+00  0.00000000000E+00  0.64930732323E+04  0.65000000000E+04  0.30000000000E+03 0.  1.
        -52   -1    0    0    0    0 -0.00000000000E+00 -0.00000000000E+00 -0.64930732323E+04  0.65000000000E+04  0.30000000000E+03 0. -1.
     100001    1    1    2    0    0 -0.74052566989E+03  0.44373203146E+02 -0.64557728043E+04  0.65000000000E+04  0.15050000000E+03 0. -1.
     100001    1    1    2    0    0  0.74052566989E+03 -0.44373203146E+02  0.64557728043E+04  0.65000000000E+04  0.15050000000E+03 0.  1.
</event>
<event>
 4    1  0.4521369E-004  0.6500000E+04  0.7818608E-02  0.7223770E-01
         52   -1    0    0    0    0  0.00000000000E+00  0.00000000000E+00  0.64930732323E+04  0.65000000000E+04  0.30000000000E+03 0.  1.
        -52   -1    0    0    0    0 -0.00000000000E+00 -0.00000000000E+00 -0.64930732323E+04  0.65000000000E+04  0.30000000000E+03 0. -1.
     100001    1    1    2    0    0  0.52528650979E+03  0.52123040301E+03 -0.64559850294E+04  0.65000000000E+04  0.15050000000E+03 0. -1.
     100001    1    1    2    0    0 -0.52528650979E+03 -0.52123040301E+03  0.64559850294E+04  0.65000000000E+04  0.15050000000E+03 0.  1.
</event>
<event>
 4    1  0.4521369E-004  0.6500000E+04  0.7818608E-02  0.7223770E-01
         52   -1    0    0    0    0  0.00000000000E+00  0.00000000000E+00  0.64930732323E+04  0.65000000000E+04  0.30000000000E+03 0. -1.
        -52   -1    0    0    0    0 -0.00000000000E+00 -0.00000000000E+00 -0.64930732323E+04  0.65000000000E+04  0.30000000000E+03 0.  1.
     100001    1    1    2    0    0  0.13916072203E+04 -0.16710291731E+04  0.61235970309E+04  0.65000000000E+04  0.15050000000E+03 0. -1.
     100001    1    1    2    0    0 -0.13916072203E+04  0.16710291731E+04 -0.61235970309E+04  0.65000000000E+04  0.15050000000E+03 0.  1.
</event>
<event>
 4    1  0.4521369E-004  0.6500000E+04  0.7818608E-02  0.7223770E-01
         52   -1    0    0    0    0  0.00000000000E+00  0.00000000000E+00  0.64930732323E+04  0.65000000000E+04  0.30000000000E+03 0. -1.
        -52   -1    0    0    0    0 -0.00000000000E+00 -0.00000000000E+00 -0.64930732323E+04  0.65000000000E+04  0.30000000000E+03 0. -1.
     100001    1    1    2    0    0  0.16085561632E+03  0.17511501127E+03 -0.64939056009E+04  0.65000000000E+04  0.15050000000E+03 0. -1.
     100001    1    1    2    0    0 -0.16085561632E+03 -0.17511501127E+03  0.64939056009E+04  0.65000000000E+04  0.15050000000E+03 0. -1.
</event>
<event>
 4    1  0.4521369E-004  0.6500000E+04  0.7818608E-02  0.7223770E-01
         52   -1    0    0    0    0  0.00000000000E+00  0.00000000000E+00  0.64930732323E+04  0.65000000000E+04  0.30000000000E+03 0. -1.
        -52   -1    0    0    0    0 -0.00000000000E+00 -0.00000000000E+00 -0.64930732323E+04  0.65000000000E+04  0.30000000000E+03 0.  1.
     100001    1    1    2    0    0 -0.24222223575E+03 -0.40805472097E+04  0.50515158723E+04  0.65000000000E+04  0.15050000000E+03 0. -1.
     100001    1    1    2    0    0  0.24222223575E+03  0.40805472097E+04 -0.50515158723E+04  0.65000000000E+04  0.15050000000E+03 0.  1.
</event>
<event>
 4    1  0.4521369E-004  0.6500000E+04  0.7818608E-02  0.7223770E-01
         52   -1    0    0    0    0  0.00000000000E+00  0.00000000000E+00  0.64930732323E+04  0.65000000000E+04  0.30000000000E+03 0. -1.
        -52   -1    0    0    0    0 -0.00000000000E+00 -0.00000000000E+00 -0.64930732323E+04  0.65000000000E+04  0.30000000000E+03 0.  1.
     100001    1    1    2    0    0  0.17170033584E+04  0.72730076504E+03  0.62249725151E+04  0.65000000000E+04  0.15050000000E+03 0. -1.
     100001    1    1    2    0    0 -0.17170033584E+04 -0.72730076504E+03 -0.62249725151E+04  0.65000000000E+04  0.15050000000E+03 0.  1.
</event>
<event>
 4    1  0.4521369E-004  0.6500000E+04  0.7818608E-02  0.7223770E-01
         52   -1    0    0    0    0  0.00000000000E+00  0.00000000000E+00  0.64930732323E+04  0.65000000000E+04  0.30000000000E+03 0.  1.
        -52   -1    0    0    0    0 -0.00000000000E+00 -0.00000000000E+00 -0.64930732323E+04  0.65000000000E+04  0.30000000000E+03 0. -1.
     100001    1    1    2    0    0 -0.42548178151E+04  0.39660106613E+04 -0.28973495723E+04  0.65000000000E+04  0.15050000000E+03 0. -1.
     100001    1    1    2    0    0  0.42548178151E+04 -0.39660106613E+04  0.28973495723E+04  0.65000000000E+04  0.15050000000E+03 0.  1.
</event>
<event>
 4    1  0.4521369E-004  0.6500000E+04  0.7818608E-02  0.7223770E-01
         52   -1    0    0    0    0  0.00000000000E+00  0.00000000000E+00  0.64930732323E+04  0.65000000000E+04  0.30000000000E+03 0. -1.
        -52   -1    0    0    0    0 -0.00000000000E+00 -0.00000000000E+00 -0.64930732323E+04  0.65000000000E+04  0.30000000000E+03 0.  1.
     100001    1    1    2    0    0 -0.46331315699E+04  0.43360885643E+04 -0.13999205580E+04  0.65000000000E+04  0.15050000000E+03 0.  1.
     100001    1    1    2    0    0  0.46331315699E+04 -0.43360885643E+04  0.13999205580E+04  0.65000000000E+04  0.15050000000E+03 0. -1.
</event>
<event>
 4    1  0.4521369E-004  0.6500000E+04  0.7818608E-02  0.7223770E-01
         52   -1    0    0    0    0  0.00000000000E+00  0.00000000000E+00  0.64930732323E+04  0.65000000000E+04  0.30000000000E+03 0.  1.
        -52   -1    0    0    0    0 -0.00000000000E+00 -0.00000000000E+00 -0.64930732323E+04  0.65000000000E+04  0.30000000000E+03 0. -1.
     100001    1    1    2    0    0  0.13204934652E+04 -0.73642606138E+03  0.63199148265E+04  0.65000000000E+04  0.15050000000E+03 0.  1.
     100001    1    1    2    0    0 -0.13204934652E+04  0.73642606138E+03 -0.63199148265E+04  0.65000000000E+04  0.15050000000E+03 0. -1.
</event>
<event>
 4    1  0.4521369E-004  0.6500000E+04  0.7818608E-02  0.7223770E-01
         52   -1    0    0    0    0  0.00000000000E+00  0.00000000000E+00  0.64930732323E+04  0.65000000000E+04  0.30000000000E+03 0. -1.
        -52   -1    0    0    0    0 -0.00000000000E+00 -0.00000000000E+00 -0.64930732323E+04  0.65000000000E+04  0.30000000000E+03 0.  1.
     100001    1    1    2    0    0  0.15589273163E+04  0.80889167925E+03  0.62564198727E+04  0.65000000000E+04  0.15050000000E+03 0. -1.
     100001    1    1    2    0    0 -0.15589273163E+04 -0.80889167925E+03 -0.62564198727E+04  0.65000000000E+04  0.15050000000E+03 0.  1.
</event>
<event>
 4    1  0.4521369E-004  0.6500000E+04  0.7818608E-02  0.7223770E-01
         52   -1    0    0    0    0  0.00000000000E+00  0.00000000000E+00  0.64930732323E+04  0.65000000000E+04  0.30000000000E+03 0. -1.
        -52   -1    0    0    0    0 -0.00000000000E+00 -0.00000000000E+00 -0.64930732323E+04  0.65000000000E+04  0.30000000000E+03 0.  1.
     100001    1    1    2    0    0 -0.39976380659E+03  0.29964377792E+02 -0.64858801087E+04  0.65000000000E+04  0.15050000000E+03 0.  1.
     100001    1    1    2    0    0  0.39976380659E+03 -0.29964377792E+02  0.64858801087E+04  0.65000000000E+04  0.15050000000E+03 0. -1.
</event>
<event>
 4    1  0.4521369E-004  0.6500000E+04  0.7818608E-02  0.7223770E-01
         52   -1    0    0    0    0  0.00000000000E+00  0.00000000000E+00  0.64930732323E+04  0.65000000000E+04  0.30000000000E+03 0. -1.
        -52   -1    0    0    0    0 -0.00000000000E+00 -0.00000000000E+00 -0.64930732323E+04  0.65000000000E+04  0.30000000000E+03 0.  1.
     100001    1    1    2    0    0  0.31066962936E+04 -0.70849209665E+03  0.56633759224E+04  0.65000000000E+04  0.15050000000E+03 0. -1.
     100001    1    1    2    0    0 -0.31066962936E+04  0.70849209665E+03 -0.56633759224E+04  0.65000000000E+04  0.15050000000E+03 0.  1.
</event>
<event>
 4    1  0.4521369E-004  0.6500000E+04  0.7818608E-02  0.7223770E-01
         52   -1    0    0    0    0  0.00000000000E+00  0.00000000000E+00  0.64930732323E+04  0.65000000000E+04  0.30000000000E+03 0. -1.
        -52   -1    0    0    0    0 -0.00000000000E+00 -0.00000000000E+00 -0.64930732323E+04  0.65000000000E+04  0.30000000000E+03 0.  1.
     100001    1    1    2    0    0  0.32957147135E+04  0.15550930998E+04  0.53802694847E+04  0.65000000000E+04  0.15050000000E+03 0. -1.
     100001    1    1    2    0    0 -0.32957147135E+04 -0.15550930998E+04 -0.53802694847E+04  0.65000000000E+04  0.15050000000E+03 0.  1.
</event>
<event>
 4    1  0.4521369E-004  0.6500000E+04  0.7818608E-02  0.7223770E-01
         52   -1    0    0    0    0  0.00000000000E+00  0.00000000000E+00  0.64930732323E+04  0.65000000000E+04  0.30000000000E+03 0. -1.
        -52   -1    0    0    0    0 -0.00000000000E+00 -0.00000000000E+00 -0.64930732323E+04  0.65000000000E+04  0.30000000000E+03 0.  1.
     100001    1    1    2    0    0 -0.82102527181E+03 -0.59416798859E+02 -0.64459085393E+04  0.65000000000E+04  0.15050000000E+03 0.  1.
     100001    1    1    2    0    0  0.82102527181E+03  0.59416798859E+02  0.64459085393E+04  0.65000000000E+04  0.15050000000E+03 0. -1.
</event>
<event>
 4    1  0.4521369E-004  0.6500000E+04  0.7818608E-02  0.7223770E-01
         52   -1    0    0    0    0  0.00000000000E+00  0.00000000000E+00  0.64930732323E+04  0.65000000000E+04  0.30000000000E+03 0.  1.
        -52   -1    0    0    0    0 -0.00000000000E+00 -0.00000000000E+00 -0.64930732323E+04  0.65000000000E+04  0.30000000000E+03 0. -1.
     100001    1    1    2    0    0  0.36195879699E+04 -0.36913919086E+04 -0.39369478603E+04  0.65000000000E+04  0.15050000000E+03 0. -1.
     100001    1    1    2    0    0 -0.36195879699E+04  0.36913919086E+04  0.39369478603E+04  0.65000000000E+04  0.15050000000E+03 0.  1.
</event>
<event>
 4    1  0.4521369E-004  0.6500000E+04  0.7818608E-02  0.7223770E-01
         52   -1    0    0    0    0  0.00000000000E+00  0.00000000000E+00  0.64930732323E+04  0.65000000000E+04  0.30000000000E+03 0. -1.
        -52   -1    0    0    0    0 -0.00000000000E+00 -0.00000000000E+00 -0.64930732323E+04  0.65000000000E+04  0.30000000000E+03 0. -1.
     100001    1    1    2    0    0 -0.13702739276E+03  0.71702029359E+03 -0.64571243710E+04  0.65000000000E+04  0.15050000000E+03 0. -1.
     100001    1    1    2    0    0  0.13702739276E+03 -0.71702029359E+03  0.64571243710E+04  0.65000000000E+04  0.15050000000E+03 0. -1.
</event>
<event>
 4    1  0.4521369E-004  0.6500000E+04  0.7818608E-02  0.7223770E-01
         52   -1    0    0    0    0  0.00000000000E+00  0.00000000000E+00  0.64930732323E+04  0.65000000000E+04  0.30000000000E+03 0.  1.
        -52   -1    0    0    0    0 -0.00000000000E+00 -0.00000000000E+00 -0.64930732323E+04  0.65000000000E+04  0.30000000000E+03 0. -1.
     100001    1    1    2    0    0  0.26551468572E+03  0.46855875973E+03 -0.64759018206E+04  0.65000000000E+04  0.15050000000E+03 0. -1.
     100001    1    1    2    0    0 -0.26551468572E+03 -0.46855875973E+03  0.64759018206E+04  0.65000000000E+04  0.15050000000E+03 0.  1.
</event>
<event>
 4    1  0.4521369E-004  0.6500000E+04  0.7818608E-02  0.7223770E-01
         52   -1    0    0    0    0  0.00000000000E+00  0.00000000000E+00  0.64930732323E+04  0.65000000000E+04  0.30000000000E+03 0.  1.
        -52   -1    0    0    0    0 -0.00000000000E+00 -0.00000000000E+00 -0.64930732323E+04  0.65000000000E+04  0.30000000000E+03 0.  1.
     100001    1    1    2    0    0 -0.12659434853E+04  0.16549307670E+04 -0.61551556437E+04  0.65000000000E+04  0.15050000000E+03 0.  1.
     100001    1    1    2    0    0  0.12659434853E+04 -0.16549307670E+04  0.61551556437E+04  0.65000000000E+04  0.15050000000E+03 0.  1.
</event>
<event>
 4    1  0.4521369E-004  0.6500000E+04  0.7818608E-02  0.7223770E-01
         52   -1    0    0    0    0  0.00000000000E+00  0.00000000000E+00  0.64930732323E+04  0.65000000000E+04  0.30000000000E+03 0.  1.
        -52   -1    0    0    0    0 -0.00000000000E+00 -0.00000000000E+00 -0.64930732323E+04  0.65000000000E+04  0.30000000000E+03 0. -1.
     100001    1    1    2    0    0 -0.27561282537E+04 -0.10924127792E+04  0.57825376021E+04  0.65000000000E+04  0.15050000000E+03 0.  1.
     100001    1    1    2    0    0  0.27561282537E+04  0.10924127792E+04 -0.57825376021E+04  0.65000000000E+04  0.15050000000E+03 0. -1.
</event>
<event>
 4    1  0.4521369E-004  0.6500000E+04  0.7818608E-02  0.7223770E-01
         52   -1    0    0    0    0  0.00000000000E+00  0.00000000000E+00  0.64930732323E+04  0.65000000000E+04  0.30000000000E+03 0.  1.
        -52   -1    0    0    0    0 -0.00000000000E+00 -0.00000000000E+00 -0.64930732323E+04  0.65000000000E+04  0.30000000000E+03 0.  1.
     100001    1    1    2    0    0  0.12067261650E+03  0.44148501537E+03  0.64821199349E+04  0.65000000000E+04  0.15050000000E+03 0.  1.
     100001    1    1    2    0    0 -0.12067261650E+03 -0.44148501537E+03 -0.64821199349E+04  0.65000000000E+04  0.15050000000E+03 0.  1.
</event>
<event>
 4    1  0.4521369E-004  0.6500000E+04  0.7818608E-02  0.7223770E-01
         52   -1    0    0    0    0  0.00000000000E+00  0.00000000000E+00  0.64930732323E+04  0.65000000000E+04  0.30000000000E+03 0.  1.
        -52   -1    0    0    0    0 -0.00000000000E+00 -0.00000000000E+00 -0.64930732323E+04  0.65000000000E+04  0.30000000000E+03 0.  1.
     100001    1    1    2    0    0  0.32194135249E+03 -0.32992306861E+03  0.64818866300E+04  0.65000000000E+04  0.15050000000E+03 0.  1.
     100001    1    1    2    0    0 -0.32194135249E+03  0.32992306861E+03 -0.64818866300E+04  0.65000000000E+04  0.15050000000E+03 0.  1.
</event>
<event>
 4    1  0.4521369E-004  0.6500000E+04  0.7818608E-02  0.7223770E-01
         52   -1    0    0    0    0  0.00000000000E+00  0.00000000000E+00  0.64930732323E+04  0.65000000000E+04  0.30000000000E+03 0.  1.
        -52   -1    0    0    0    0 -0.00000000000E+00 -0.00000000000E+00 -0.64930732323E+04  0.65000000000E+04  0.30000000000E+03 0. -1.
     100001    1    1    2    0    0 -0.10093180030E+04 -0.18490845185E+04  0.61473175745E+04  0.65000000000E+04  0.15050000000E+03 0.  1.
     100001    1    1    2    0    0  0.10093180030E+04  0.18490845185E+04 -0.61473175745E+04  0.65000000000E+04  0.15050000000E+03 0. -1.
</event>
<event>
 4    1  0.4521369E-004  0.6500000E+04  0.7818608E-02  0.7223770E-01
         52   -1    0    0    0    0  0.00000000000E+00  0.00000000000E+00  0.64930732323E+04  0.65000000000E+04  0.30000000000E+03 0.  1.
        -52   -1    0    0    0    0 -0.00000000000E+00 -0.00000000000E+00 -0.64930732323E+04  0.65000000000E+04  0.30000000000E+03 0. -1.
     100001    1    1    2    0    0  0.41657230008E+04  0.63889132702E+03 -0.49463036201E+04  0.65000000000E+04  0.15050000000E+03 0. -1.
     100001    1    1    2    0    0 -0.41657230008E+04 -0.63889132702E+03  0.49463036201E+04  0.65000000000E+04  0.15050000000E+03 0.  1.
</event>
<event>
 4    1  0.4521369E-004  0.6500000E+04  0.7818608E-02  0.7223770E-01
         52   -1    0    0    0    0  0.00000000000E+00  0.00000000000E+00  0.64930732323E+04  0.65000000000E+04  0.30000000000E+03 0. -1.
        -52   -1    0    0    0    0 -0.00000000000E+00 -0.00000000000E+00 -0.64930732323E+04  0.65000000000E+04  0.30000000000E+03 0.  1.
     100001    1    1    2    0    0  0.57942529967E+03  0.63131966812E+02  0.64720653911E+04  0.65000000000E+04  0.15050000000E+03 0. -1.
     100001    1    1    2    0    0 -0.57942529967E+03 -0.63131966812E+02 -0.64720653911E+04  0.65000000000E+04  0.15050000000E+03 0.  1.
</event>
<event>
 4    1  0.4521369E-004  0.6500000E+04  0.7818608E-02  0.7223770E-01
         52   -1    0    0    0    0  0.00000000000E+00  0.00000000000E+00  0.64930732323E+04  0.65000000000E+04  0.30000000000E+03 0. -1.
        -52   -1    0    0    0    0 -0.00000000000E+00 -0.00000000000E+00 -0.64930732323E+04  0.65000000000E+04  0.30000000000E+03 0.  1.
     100001    1    1    2    0    0 -0.20359886203E+04 -0.92903821990E+03 -0.61007366829E+04  0.65000000000E+04  0.15050000000E+03 0.  1.
     100001    1    1    2    0    0  0.20359886203E+04  0.92903821990E+03  0.61007366829E+04  0.65000000000E+04  0.15050000000E+03 0. -1.
</event>
<event>
 4    1  0.4521369E-004  0.6500000E+04  0.7818608E-02  0.7223770E-01
         52   -1    0    0    0    0  0.00000000000E+00  0.00000000000E+00  0.64930732323E+04  0.65000000000E+04  0.30000000000E+03 0.  1.
        -52   -1    0    0    0    0 -0.00000000000E+00 -0.00000000000E+00 -0.64930732323E+04  0.65000000000E+04  0.30000000000E+03 0.  1.
     100001    1    1    2    0    0 -0.34888212699E+02  0.24672344206E+03  0.64934782748E+04  0.65000000000E+04  0.15050000000E+03 0.  1.
     100001    1    1    2    0    0  0.34888212699E+02 -0.24672344206E+03 -0.64934782748E+04  0.65000000000E+04  0.15050000000E+03 0.  1.
</event>
<event>
 4    1  0.4521369E-004  0.6500000E+04  0.7818608E-02  0.7223770E-01
         52   -1    0    0    0    0  0.00000000000E+00  0.00000000000E+00  0.64930732323E+04  0.65000000000E+04  0.30000000000E+03 0. -1.
        -52   -1    0    0    0    0 -0.00000000000E+00 -0.00000000000E+00 -0.64930732323E+04  0.65000000000E+04  0.30000000000E+03 0.  1.
     100001    1    1    2    0    0  0.27676206714E+03 -0.21548069528E+04 -0.61243415568E+04  0.65000000000E+04  0.15050000000E+03 0.  1.
     100001    1    1    2    0    0 -0.27676206714E+03  0.21548069528E+04  0.61243415568E+04  0.65000000000E+04  0.15050000000E+03 0. -1.
</event>
<event>
 4    1  0.4521369E-004  0.6500000E+04  0.7818608E-02  0.7223770E-01
         52   -1    0    0    0    0  0.00000000000E+00  0.00000000000E+00  0.64930732323E+04  0.65000000000E+04  0.30000000000E+03 0.  1.
        -52   -1    0    0    0    0 -0.00000000000E+00 -0.00000000000E+00 -0.64930732323E+04  0.65000000000E+04  0.30000000000E+03 0. -1.
     100001    1    1    2    0    0  0.13077409125E+03  0.34774512736E+03  0.64876283196E+04  0.65000000000E+04  0.15050000000E+03 0.  1.
     100001    1    1    2    0    0 -0.13077409125E+03 -0.34774512736E+03 -0.64876283196E+04  0.65000000000E+04  0.15050000000E+03 0. -1.
</event>
<event>
 4    1  0.4521369E-004  0.6500000E+04  0.7818608E-02  0.7223770E-01
         52   -1    0    0    0    0  0.00000000000E+00  0.00000000000E+00  0.64930732323E+04  0.65000000000E+04  0.30000000000E+03 0.  1.
        -52   -1    0    0    0    0 -0.00000000000E+00 -0.00000000000E+00 -0.64930732323E+04  0.65000000000E+04  0.30000000000E+03 0.  1.
     100001    1    1    2    0    0 -0.51644085134E+03 -0.57030023987E+03 -0.64525495917E+04  0.65000000000E+04  0.15050000000E+03 0.  1.
     100001    1    1    2    0    0  0.51644085134E+03  0.57030023987E+03  0.64525495917E+04  0.65000000000E+04  0.15050000000E+03 0.  1.
</event>
<event>
 4    1  0.4521369E-004  0.6500000E+04  0.7818608E-02  0.7223770E-01
         52   -1    0    0    0    0  0.00000000000E+00  0.00000000000E+00  0.64930732323E+04  0.65000000000E+04  0.30000000000E+03 0. -1.
        -52   -1    0    0    0    0 -0.00000000000E+00 -0.00000000000E+00 -0.64930732323E+04  0.65000000000E+04  0.30000000000E+03 0.  1.
     100001    1    1    2    0    0  0.15663740855E+04 -0.22128664629E+03 -0.63027655989E+04  0.65000000000E+04  0.15050000000E+03 0.  1.
     100001    1    1    2    0    0 -0.15663740855E+04  0.22128664629E+03  0.63027655989E+04  0.65000000000E+04  0.15050000000E+03 0. -1.
</event>
<event>
 4    1  0.4521369E-004  0.6500000E+04  0.7818608E-02  0.7223770E-01
         52   -1    0    0    0    0  0.00000000000E+00  0.00000000000E+00  0.64930732323E+04  0.65000000000E+04  0.30000000000E+03 0. -1.
        -52   -1    0    0    0    0 -0.00000000000E+00 -0.00000000000E+00 -0.64930732323E+04  0.65000000000E+04  0.30000000000E+03 0.  1.
     100001    1    1    2    0    0 -0.44855969800E+03  0.30867416720E+04 -0.57007166038E+04  0.65000000000E+04  0.15050000000E+03 0.  1.
     100001    1    1    2    0    0  0.44855969800E+03 -0.30867416720E+04  0.57007166038E+04  0.65000000000E+04  0.15050000000E+03 0. -1.
</event>
<event>
 4    1  0.4521369E-004  0.6500000E+04  0.7818608E-02  0.7223770E-01
         52   -1    0    0    0    0  0.00000000000E+00  0.00000000000E+00  0.64930732323E+04  0.65000000000E+04  0.30000000000E+03 0. -1.
        -52   -1    0    0    0    0 -0.00000000000E+00 -0.00000000000E+00 -0.64930732323E+04  0.65000000000E+04  0.30000000000E+03 0.  1.
     100001    1    1    2    0    0 -0.12397175115E+04 -0.24001429300E+04 -0.59101407900E+04  0.65000000000E+04  0.15050000000E+03 0.  1.
     100001    1    1    2    0    0  0.12397175115E+04  0.24001429300E+04  0.59101407900E+04  0.65000000000E+04  0.15050000000E+03 0. -1.
</event>
<event>
 4    1  0.4521369E-004  0.6500000E+04  0.7818608E-02  0.7223770E-01
         52   -1    0    0    0    0  0.00000000000E+00  0.00000000000E+00  0.64930732323E+04  0.65000000000E+04  0.30000000000E+03 0.  1.
        -52   -1    0    0    0    0 -0.00000000000E+00 -0.00000000000E+00 -0.64930732323E+04  0.65000000000E+04  0.30000000000E+03 0. -1.
     100001    1    1    2    0    0 -0.62892607153E+04 -0.14834198550E+04  0.68703343350E+03  0.65000000000E+04  0.15050000000E+03 0.  1.
     100001    1    1    2    0    0  0.62892607153E+04  0.14834198550E+04 -0.68703343350E+03  0.65000000000E+04  0.15050000000E+03 0. -1.
</event>
<event>
 4    1  0.4521369E-004  0.6500000E+04  0.7818608E-02  0.7223770E-01
         52   -1    0    0    0    0  0.00000000000E+00  0.00000000000E+00  0.64930732323E+04  0.65000000000E+04  0.30000000000E+03 0. -1.
        -52   -1    0    0    0    0 -0.00000000000E+00 -0.00000000000E+00 -0.64930732323E+04  0.65000000000E+04  0.30000000000E+03 0.  1.
     100001    1    1    2    0    0 -0.10598887412E+04  0.66155202468E+03 -0.63770161145E+04  0.65000000000E+04  0.15050000000E+03 0.  1.
     100001    1    1    2    0    0  0.10598887412E+04 -0.66155202468E+03  0.63770161145E+04  0.65000000000E+04  0.15050000000E+03 0. -1.
</event>
<event>
 4    1  0.4521369E-004  0.6500000E+04  0.7818608E-02  0.7223770E-01
         52   -1    0    0    0    0  0.00000000000E+00  0.00000000000E+00  0.64930732323E+04  0.65000000000E+04  0.30000000000E+03 0.  1.
        -52   -1    0    0    0    0 -0.00000000000E+00 -0.00000000000E+00 -0.64930732323E+04  0.65000000000E+04  0.30000000000E+03 0. -1.
     100001    1    1    2    0    0  0.14706163561E+04 -0.55082257275E+03  0.63056507814E+04  0.65000000000E+04  0.15050000000E+03 0.  1.
     100001    1    1    2    0    0 -0.14706163561E+04  0.55082257275E+03 -0.63056507814E+04  0.65000000000E+04  0.15050000000E+03 0. -1.
</event>
<event>
 4    1  0.4521369E-004  0.6500000E+04  0.7818608E-02  0.7223770E-01
         52   -1    0    0    0    0  0.00000000000E+00  0.00000000000E+00  0.64930732323E+04  0.65000000000E+04  0.30000000000E+03 0.  1.
        -52   -1    0    0    0    0 -0.00000000000E+00 -0.00000000000E+00 -0.64930732323E+04  0.65000000000E+04  0.30000000000E+03 0. -1.
     100001    1    1    2    0    0  0.10078880477E+04  0.64162179860E+04  0.20894542258E+03  0.65000000000E+04  0.15050000000E+03 0.  1.
     100001    1    1    2    0    0 -0.10078880477E+04 -0.64162179860E+04 -0.20894542258E+03  0.65000000000E+04  0.15050000000E+03 0. -1.
</event>
<event>
 4    1  0.4521369E-004  0.6500000E+04  0.7818608E-02  0.7223770E-01
         52   -1    0    0    0    0  0.00000000000E+00  0.00000000000E+00  0.64930732323E+04  0.65000000000E+04  0.30000000000E+03 0.  1.
        -52   -1    0    0    0    0 -0.00000000000E+00 -0.00000000000E+00 -0.64930732323E+04  0.65000000000E+04  0.30000000000E+03 0. -1.
     100001    1    1    2    0    0 -0.23239774221E+04 -0.60670998949E+04 -0.12952820936E+03  0.65000000000E+04  0.15050000000E+03 0. -1.
     100001    1    1    2    0    0  0.23239774221E+04  0.60670998949E+04  0.12952820936E+03  0.65000000000E+04  0.15050000000E+03 0.  1.
</event>
<event>
 4    1  0.4521369E-004  0.6500000E+04  0.7818608E-02  0.7223770E-01
         52   -1    0    0    0    0  0.00000000000E+00  0.00000000000E+00  0.64930732323E+04  0.65000000000E+04  0.30000000000E+03 0.  1.
        -52   -1    0    0    0    0 -0.00000000000E+00 -0.00000000000E+00 -0.64930732323E+04  0.65000000000E+04  0.30000000000E+03 0. -1.
     100001    1    1    2    0    0 -0.25601988395E+04 -0.10645227141E+04 -0.58770335241E+04  0.65000000000E+04  0.15050000000E+03 0. -1.
     100001    1    1    2    0    0  0.25601988395E+04  0.10645227141E+04  0.58770335241E+04  0.65000000000E+04  0.15050000000E+03 0.  1.
</event>
<event>
 4    1  0.4521369E-004  0.6500000E+04  0.7818608E-02  0.7223770E-01
         52   -1    0    0    0    0  0.00000000000E+00  0.00000000000E+00  0.64930732323E+04  0.65000000000E+04  0.30000000000E+03 0.  1.
        -52   -1    0    0    0    0 -0.00000000000E+00 -0.00000000000E+00 -0.64930732323E+04  0.65000000000E+04  0.30000000000E+03 0. -1.
     100001    1    1    2    0    0 -0.71459153430E+03  0.12162419139E+04 -0.63433007414E+04  0.65000000000E+04  0.15050000000E+03 0. -1.
     100001    1    1    2    0    0  0.71459153430E+03 -0.12162419139E+04  0.63433007414E+04  0.65000000000E+04  0.15050000000E+03 0.  1.
</event>
<event>
 4    1  0.4521369E-004  0.6500000E+04  0.7818608E-02  0.7223770E-01
         52   -1    0    0    0    0  0.00000000000E+00  0.00000000000E+00  0.64930732323E+04  0.65000000000E+04  0.30000000000E+03 0. -1.
        -52   -1    0    0    0    0 -0.00000000000E+00 -0.00000000000E+00 -0.64930732323E+04  0.65000000000E+04  0.30000000000E+03 0.  1.
     100001    1    1    2    0    0  0.19421370418E+04  0.71551267628E+03 -0.61598291430E+04  0.65000000000E+04  0.15050000000E+03 0.  1.
     100001    1    1    2    0    0 -0.19421370418E+04 -0.71551267628E+03  0.61598291430E+04  0.65000000000E+04  0.15050000000E+03 0. -1.
</event>
<event>
 4    1  0.4521369E-004  0.6500000E+04  0.7818608E-02  0.7223770E-01
         52   -1    0    0    0    0  0.00000000000E+00  0.00000000000E+00  0.64930732323E+04  0.65000000000E+04  0.30000000000E+03 0.  1.
        -52   -1    0    0    0    0 -0.00000000000E+00 -0.00000000000E+00 -0.64930732323E+04  0.65000000000E+04  0.30000000000E+03 0. -1.
     100001    1    1    2    0    0  0.27838021647E+03  0.99979671600E+03 -0.64148468985E+04  0.65000000000E+04  0.15050000000E+03 0. -1.
     100001    1    1    2    0    0 -0.27838021647E+03 -0.99979671600E+03  0.64148468985E+04  0.65000000000E+04  0.15050000000E+03 0.  1.
</event>
<event>
 4    1  0.4521369E-004  0.6500000E+04  0.7818608E-02  0.7223770E-01
         52   -1    0    0    0    0  0.00000000000E+00  0.00000000000E+00  0.64930732323E+04  0.65000000000E+04  0.30000000000E+03 0.  1.
        -52   -1    0    0    0    0 -0.00000000000E+00 -0.00000000000E+00 -0.64930732323E+04  0.65000000000E+04  0.30000000000E+03 0. -1.
     100001    1    1    2    0    0  0.33637947338E+04  0.18708495149E+03 -0.55567287103E+04  0.65000000000E+04  0.15050000000E+03 0. -1.
     100001    1    1    2    0    0 -0.33637947338E+04 -0.18708495149E+03  0.55567287103E+04  0.65000000000E+04  0.15050000000E+03 0.  1.
</event>
<event>
 4    1  0.4521369E-004  0.6500000E+04  0.7818608E-02  0.7223770E-01
         52   -1    0    0    0    0  0.00000000000E+00  0.00000000000E+00  0.64930732323E+04  0.65000000000E+04  0.30000000000E+03 0.  1.
        -52   -1    0    0    0    0 -0.00000000000E+00 -0.00000000000E+00 -0.64930732323E+04  0.65000000000E+04  0.30000000000E+03 0. -1.
     100001    1    1    2    0    0  0.55311845696E+04  0.28367880050E+04 -0.18936686146E+04  0.65000000000E+04  0.15050000000E+03 0.  1.
     100001    1    1    2    0    0 -0.55311845696E+04 -0.28367880050E+04  0.18936686146E+04  0.65000000000E+04  0.15050000000E+03 0. -1.
</event>
<event>
 4    1  0.4521369E-004  0.6500000E+04  0.7818608E-02  0.7223770E-01
         52   -1    0    0    0    0  0.00000000000E+00  0.00000000000E+00  0.64930732323E+04  0.65000000000E+04  0.30000000000E+03 0.  1.
        -52   -1    0    0    0    0 -0.00000000000E+00 -0.00000000000E+00 -0.64930732323E+04  0.65000000000E+04  0.30000000000E+03 0. -1.
     100001    1    1    2    0    0  0.19040645772E+03  0.11615113958E+03  0.64944286926E+04  0.65000000000E+04  0.15050000000E+03 0.  1.
     100001    1    1    2    0    0 -0.19040645772E+03 -0.11615113958E+03 -0.64944286926E+04  0.65000000000E+04  0.15050000000E+03 0. -1.
</event>
<event>
 4    1  0.4521369E-004  0.6500000E+04  0.7818608E-02  0.7223770E-01
         52   -1    0    0    0    0  0.00000000000E+00  0.00000000000E+00  0.64930732323E+04  0.65000000000E+04  0.30000000000E+03 0.  1.
        -52   -1    0    0    0    0 -0.00000000000E+00 -0.00000000000E+00 -0.64930732323E+04  0.65000000000E+04  0.30000000000E+03 0.  1.
     100001    1    1    2    0    0 -0.19876042460E+03  0.40302581409E+02 -0.64950919736E+04  0.65000000000E+04  0.15050000000E+03 0.  1.
     100001    1    1    2    0    0  0.19876042460E+03 -0.40302581409E+02  0.64950919736E+04  0.65000000000E+04  0.15050000000E+03 0.  1.
</event>
<event>
 4    1  0.4521369E-004  0.6500000E+04  0.7818608E-02  0.7223770E-01
         52   -1    0    0    0    0  0.00000000000E+00  0.00000000000E+00  0.64930732323E+04  0.65000000000E+04  0.30000000000E+03 0. -1.
        -52   -1    0    0    0    0 -0.00000000000E+00 -0.00000000000E+00 -0.64930732323E+04  0.65000000000E+04  0.30000000000E+03 0.  1.
     100001    1    1    2    0    0 -0.58222361192E+04  0.28859531156E+04 -0.13817993043E+02  0.65000000000E+04  0.15050000000E+03 0. -1.
     100001    1    1    2    0    0  0.58222361192E+04 -0.28859531156E+04  0.13817993043E+02  0.65000000000E+04  0.15050000000E+03 0.  1.
</event>
<event>
 4    1  0.4521369E-004  0.6500000E+04  0.7818608E-02  0.7223770E-01
         52   -1    0    0    0    0  0.00000000000E+00  0.00000000000E+00  0.64930732323E+04  0.65000000000E+04  0.30000000000E+03 0. -1.
        -52   -1    0    0    0    0 -0.00000000000E+00 -0.00000000000E+00 -0.64930732323E+04  0.65000000000E+04  0.30000000000E+03 0.  1.
     100001    1    1    2    0    0 -0.13005008289E+04  0.19652835646E+03 -0.63637586338E+04  0.65000000000E+04  0.15050000000E+03 0.  1.
     100001    1    1    2    0    0  0.13005008289E+04 -0.19652835646E+03  0.63637586338E+04  0.65000000000E+04  0.15050000000E+03 0. -1.
</event>
<event>
 4    1  0.4521369E-004  0.6500000E+04  0.7818608E-02  0.7223770E-01
         52   -1    0    0    0    0  0.00000000000E+00  0.00000000000E+00  0.64930732323E+04  0.65000000000E+04  0.30000000000E+03 0.  1.
        -52   -1    0    0    0    0 -0.00000000000E+00 -0.00000000000E+00 -0.64930732323E+04  0.65000000000E+04  0.30000000000E+03 0. -1.
     100001    1    1    2    0    0  0.44124705830E+03  0.35890545958E+03 -0.64733173609E+04  0.65000000000E+04  0.15050000000E+03 0. -1.
     100001    1    1    2    0    0 -0.44124705830E+03 -0.35890545958E+03  0.64733173609E+04  0.65000000000E+04  0.15050000000E+03 0.  1.
</event>
<event>
 4    1  0.4521369E-004  0.6500000E+04  0.7818608E-02  0.7223770E-01
         52   -1    0    0    0    0  0.00000000000E+00  0.00000000000E+00  0.64930732323E+04  0.65000000000E+04  0.30000000000E+03 0. -1.
        -52   -1    0    0    0    0 -0.00000000000E+00 -0.00000000000E+00 -0.64930732323E+04  0.65000000000E+04  0.30000000000E+03 0.  1.
     100001    1    1    2    0    0  0.86982159161E+03 -0.71746909578E+03  0.63996873553E+04  0.65000000000E+04  0.15050000000E+03 0. -1.
     100001    1    1    2    0    0 -0.86982159161E+03  0.71746909578E+03 -0.63996873553E+04  0.65000000000E+04  0.15050000000E+03 0.  1.
</event>
<event>
 4    1  0.4521369E-004  0.6500000E+04  0.7818608E-02  0.7223770E-01
         52   -1    0    0    0    0  0.00000000000E+00  0.00000000000E+00  0.64930732323E+04  0.65000000000E+04  0.30000000000E+03 0.  1.
        -52   -1    0    0    0    0 -0.00000000000E+00 -0.00000000000E+00 -0.64930732323E+04  0.65000000000E+04  0.30000000000E+03 0. -1.
     100001    1    1    2    0    0  0.43265693126E+03  0.63146827253E+03 -0.64530152294E+04  0.65000000000E+04  0.15050000000E+03 0. -1.
     100001    1    1    2    0    0 -0.43265693126E+03 -0.63146827253E+03  0.64530152294E+04  0.65000000000E+04  0.15050000000E+03 0.  1.
</event>
<event>
 4    1  0.4521369E-004  0.6500000E+04  0.7818608E-02  0.7223770E-01
         52   -1    0    0    0    0  0.00000000000E+00  0.00000000000E+00  0.64930732323E+04  0.65000000000E+04  0.30000000000E+03 0.  1.
        -52   -1    0    0    0    0 -0.00000000000E+00 -0.00000000000E+00 -0.64930732323E+04  0.65000000000E+04  0.30000000000E+03 0. -1.
     100001    1    1    2    0    0  0.15171444065E+04 -0.18431113784E+04  0.60438864191E+04  0.65000000000E+04  0.15050000000E+03 0.  1.
     100001    1    1    2    0    0 -0.15171444065E+04  0.18431113784E+04 -0.60438864191E+04  0.65000000000E+04  0.15050000000E+03 0. -1.
</event>
<event>
 4    1  0.4521369E-004  0.6500000E+04  0.7818608E-02  0.7223770E-01
         52   -1    0    0    0    0  0.00000000000E+00  0.00000000000E+00  0.64930732323E+04  0.65000000000E+04  0.30000000000E+03 0.  1.
        -52   -1    0    0    0    0 -0.00000000000E+00 -0.00000000000E+00 -0.64930732323E+04  0.65000000000E+04  0.30000000000E+03 0. -1.
     100001    1    1    2    0    0 -0.46573593940E+04  0.16584168818E+04 -0.42173459274E+04  0.65000000000E+04  0.15050000000E+03 0. -1.
     100001    1    1    2    0    0  0.46573593940E+04 -0.16584168818E+04  0.42173459274E+04  0.65000000000E+04  0.15050000000E+03 0.  1.
</event>
<event>
 4    1  0.4521369E-004  0.6500000E+04  0.7818608E-02  0.7223770E-01
         52   -1    0    0    0    0  0.00000000000E+00  0.00000000000E+00  0.64930732323E+04  0.65000000000E+04  0.30000000000E+03 0. -1.
        -52   -1    0    0    0    0 -0.00000000000E+00 -0.00000000000E+00 -0.64930732323E+04  0.65000000000E+04  0.30000000000E+03 0. -1.
     100001    1    1    2    0    0  0.33449589242E+03 -0.93166314174E+02 -0.64889739008E+04  0.65000000000E+04  0.15050000000E+03 0. -1.
     100001    1    1    2    0    0 -0.33449589242E+03  0.93166314174E+02  0.64889739008E+04  0.65000000000E+04  0.15050000000E+03 0. -1.
</event>
<event>
 4    1  0.4521369E-004  0.6500000E+04  0.7818608E-02  0.7223770E-01
         52   -1    0    0    0    0  0.00000000000E+00  0.00000000000E+00  0.64930732323E+04  0.65000000000E+04  0.30000000000E+03 0.  1.
        -52   -1    0    0    0    0 -0.00000000000E+00 -0.00000000000E+00 -0.64930732323E+04  0.65000000000E+04  0.30000000000E+03 0.  1.
     100001    1    1    2    0    0 -0.11081134066E+03  0.36605486514E+03 -0.64869927110E+04  0.65000000000E+04  0.15050000000E+03 0.  1.
     100001    1    1    2    0    0  0.11081134066E+03 -0.36605486514E+03  0.64869927110E+04  0.65000000000E+04  0.15050000000E+03 0.  1.
</event>
<event>
 4    1  0.4521369E-004  0.6500000E+04  0.7818608E-02  0.7223770E-01
         52   -1    0    0    0    0  0.00000000000E+00  0.00000000000E+00  0.64930732323E+04  0.65000000000E+04  0.30000000000E+03 0.  1.
        -52   -1    0    0    0    0 -0.00000000000E+00 -0.00000000000E+00 -0.64930732323E+04  0.65000000000E+04  0.30000000000E+03 0. -1.
     100001    1    1    2    0    0 -0.19096507963E+04 -0.80260516053E+03 -0.61592538949E+04  0.65000000000E+04  0.15050000000E+03 0. -1.
     100001    1    1    2    0    0  0.19096507963E+04  0.80260516053E+03  0.61592538949E+04  0.65000000000E+04  0.15050000000E+03 0.  1.
</event>
<event>
 4    1  0.4521369E-004  0.6500000E+04  0.7818608E-02  0.7223770E-01
         52   -1    0    0    0    0  0.00000000000E+00  0.00000000000E+00  0.64930732323E+04  0.65000000000E+04  0.30000000000E+03 0.  1.
        -52   -1    0    0    0    0 -0.00000000000E+00 -0.00000000000E+00 -0.64930732323E+04  0.65000000000E+04  0.30000000000E+03 0. -1.
     100001    1    1    2    0    0 -0.44343104524E+03  0.26772672310E+04 -0.59044863309E+04  0.65000000000E+04  0.15050000000E+03 0. -1.
     100001    1    1    2    0    0  0.44343104524E+03 -0.26772672310E+04  0.59044863309E+04  0.65000000000E+04  0.15050000000E+03 0.  1.
</event>
<event>
 4    1  0.4521369E-004  0.6500000E+04  0.7818608E-02  0.7223770E-01
         52   -1    0    0    0    0  0.00000000000E+00  0.00000000000E+00  0.64930732323E+04  0.65000000000E+04  0.30000000000E+03 0.  1.
        -52   -1    0    0    0    0 -0.00000000000E+00 -0.00000000000E+00 -0.64930732323E+04  0.65000000000E+04  0.30000000000E+03 0. -1.
     100001    1    1    2    0    0 -0.53617225503E+03 -0.16016560872E+03  0.64741189393E+04  0.65000000000E+04  0.15050000000E+03 0.  1.
     100001    1    1    2    0    0  0.53617225503E+03  0.16016560872E+03 -0.64741189393E+04  0.65000000000E+04  0.15050000000E+03 0. -1.
</event>
<event>
 4    1  0.4521369E-004  0.6500000E+04  0.7818608E-02  0.7223770E-01
         52   -1    0    0    0    0  0.00000000000E+00  0.00000000000E+00  0.64930732323E+04  0.65000000000E+04  0.30000000000E+03 0.  1.
        -52   -1    0    0    0    0 -0.00000000000E+00 -0.00000000000E+00 -0.64930732323E+04  0.65000000000E+04  0.30000000000E+03 0. -1.
     100001    1    1    2    0    0 -0.41220571755E+03 -0.21258814090E+04 -0.61268315165E+04  0.65000000000E+04  0.15050000000E+03 0. -1.
     100001    1    1    2    0    0  0.41220571755E+03  0.21258814090E+04  0.61268315165E+04  0.65000000000E+04  0.15050000000E+03 0.  1.
</event>
<event>
 4    1  0.4521369E-004  0.6500000E+04  0.7818608E-02  0.7223770E-01
         52   -1    0    0    0    0  0.00000000000E+00  0.00000000000E+00  0.64930732323E+04  0.65000000000E+04  0.30000000000E+03 0. -1.
        -52   -1    0    0    0    0 -0.00000000000E+00 -0.00000000000E+00 -0.64930732323E+04  0.65000000000E+04  0.30000000000E+03 0.  1.
     100001    1    1    2    0    0  0.40050061580E+04 -0.28854080848E+04 -0.42263099281E+04  0.65000000000E+04  0.15050000000E+03 0.  1.
     100001    1    1    2    0    0 -0.40050061580E+04  0.28854080848E+04  0.42263099281E+04  0.65000000000E+04  0.15050000000E+03 0. -1.
</event>
<event>
 4    1  0.4521369E-004  0.6500000E+04  0.7818608E-02  0.7223770E-01
         52   -1    0    0    0    0  0.00000000000E+00  0.00000000000E+00  0.64930732323E+04  0.65000000000E+04  0.30000000000E+03 0.  1.
        -52   -1    0    0    0    0 -0.00000000000E+00 -0.00000000000E+00 -0.64930732323E+04  0.65000000000E+04  0.30000000000E+03 0. -1.
     100001    1    1    2    0    0 -0.10205212976E+04 -0.35317684917E+04 -0.53584043662E+04  0.65000000000E+04  0.15050000000E+03 0. -1.
     100001    1    1    2    0    0  0.10205212976E+04  0.35317684917E+04  0.53584043662E+04  0.65000000000E+04  0.15050000000E+03 0.  1.
</event>
<event>
 4    1  0.4521369E-004  0.6500000E+04  0.7818608E-02  0.7223770E-01
         52   -1    0    0    0    0  0.00000000000E+00  0.00000000000E+00  0.64930732323E+04  0.65000000000E+04  0.30000000000E+03 0.  1.
        -52   -1    0    0    0    0 -0.00000000000E+00 -0.00000000000E+00 -0.64930732323E+04  0.65000000000E+04  0.30000000000E+03 0. -1.
     100001    1    1    2    0    0  0.21493801316E+04 -0.11771753811E+04 -0.60184527016E+04  0.65000000000E+04  0.15050000000E+03 0. -1.
     100001    1    1    2    0    0 -0.21493801316E+04  0.11771753811E+04  0.60184527016E+04  0.65000000000E+04  0.15050000000E+03 0.  1.
</event>
<event>
 4    1  0.4521369E-004  0.6500000E+04  0.7818608E-02  0.7223770E-01
         52   -1    0    0    0    0  0.00000000000E+00  0.00000000000E+00  0.64930732323E+04  0.65000000000E+04  0.30000000000E+03 0. -1.
        -52   -1    0    0    0    0 -0.00000000000E+00 -0.00000000000E+00 -0.64930732323E+04  0.65000000000E+04  0.30000000000E+03 0.  1.
     100001    1    1    2    0    0 -0.35666376067E+04  0.52364479412E+04  0.14443195256E+04  0.65000000000E+04  0.15050000000E+03 0. -1.
     100001    1    1    2    0    0  0.35666376067E+04 -0.52364479412E+04 -0.14443195256E+04  0.65000000000E+04  0.15050000000E+03 0.  1.
</event>
<event>
 4    1  0.4521369E-004  0.6500000E+04  0.7818608E-02  0.7223770E-01
         52   -1    0    0    0    0  0.00000000000E+00  0.00000000000E+00  0.64930732323E+04  0.65000000000E+04  0.30000000000E+03 0. -1.
        -52   -1    0    0    0    0 -0.00000000000E+00 -0.00000000000E+00 -0.64930732323E+04  0.65000000000E+04  0.30000000000E+03 0. -1.
     100001    1    1    2    0    0  0.93719450815E+02  0.98351934937E+02 -0.64968371775E+04  0.65000000000E+04  0.15050000000E+03 0. -1.
     100001    1    1    2    0    0 -0.93719450815E+02 -0.98351934937E+02  0.64968371775E+04  0.65000000000E+04  0.15050000000E+03 0. -1.
</event>
<event>
 4    1  0.4521369E-004  0.6500000E+04  0.7818608E-02  0.7223770E-01
         52   -1    0    0    0    0  0.00000000000E+00  0.00000000000E+00  0.64930732323E+04  0.65000000000E+04  0.30000000000E+03 0.  1.
        -52   -1    0    0    0    0 -0.00000000000E+00 -0.00000000000E+00 -0.64930732323E+04  0.65000000000E+04  0.30000000000E+03 0. -1.
     100001    1    1    2    0    0  0.78990705418E+03 -0.12938265994E+04  0.63189721733E+04  0.65000000000E+04  0.15050000000E+03 0.  1.
     100001    1    1    2    0    0 -0.78990705418E+03  0.12938265994E+04 -0.63189721733E+04  0.65000000000E+04  0.15050000000E+03 0. -1.
</event>
<event>
 4    1  0.4521369E-004  0.6500000E+04  0.7818608E-02  0.7223770E-01
         52   -1    0    0    0    0  0.00000000000E+00  0.00000000000E+00  0.64930732323E+04  0.65000000000E+04  0.30000000000E+03 0. -1.
        -52   -1    0    0    0    0 -0.00000000000E+00 -0.00000000000E+00 -0.64930732323E+04  0.65000000000E+04  0.30000000000E+03 0. -1.
     100001    1    1    2    0    0 -0.68960165279E+02 -0.25124761544E+03  0.64930323333E+04  0.65000000000E+04  0.15050000000E+03 0. -1.
     100001    1    1    2    0    0  0.68960165279E+02  0.25124761544E+03 -0.64930323333E+04  0.65000000000E+04  0.15050000000E+03 0. -1.
</event>
<event>
 4    1  0.5883657E-004  0.6500000E+04  0.7818608E-02  0.7223770E-01
         52   -1    0    0    0    0  0.00000000000E+00  0.00000000000E+00  0.64930732323E+04  0.65000000000E+04  0.30000000000E+03 0.  1.
        -52   -1    0    0    0    0 -0.00000000000E+00 -0.00000000000E+00 -0.64930732323E+04  0.65000000000E+04  0.30000000000E+03 0.  1.
     100001    1    1    2    0    0 -0.98879553854E+02  0.13634888229E+02  0.64974907983E+04  0.65000000000E+04  0.15050000000E+03 0.  1.
     100001    1    1    2    0    0  0.98879553854E+02 -0.13634888229E+02 -0.64974907983E+04  0.65000000000E+04  0.15050000000E+03 0.  1.
</event>
<event>
 4    1  0.4521369E-004  0.6500000E+04  0.7818608E-02  0.7223770E-01
         52   -1    0    0    0    0  0.00000000000E+00  0.00000000000E+00  0.64930732323E+04  0.65000000000E+04  0.30000000000E+03 0.  1.
        -52   -1    0    0    0    0 -0.00000000000E+00 -0.00000000000E+00 -0.64930732323E+04  0.65000000000E+04  0.30000000000E+03 0. -1.
     100001    1    1    2    0    0  0.47105073979E+03  0.39515862576E+03  0.64691043129E+04  0.65000000000E+04  0.15050000000E+03 0.  1.
     100001    1    1    2    0    0 -0.47105073979E+03 -0.39515862576E+03 -0.64691043129E+04  0.65000000000E+04  0.15050000000E+03 0. -1.
</event>
<event>
 4    1  0.4521369E-004  0.6500000E+04  0.7818608E-02  0.7223770E-01
         52   -1    0    0    0    0  0.00000000000E+00  0.00000000000E+00  0.64930732323E+04  0.65000000000E+04  0.30000000000E+03 0.  1.
        -52   -1    0    0    0    0 -0.00000000000E+00 -0.00000000000E+00 -0.64930732323E+04  0.65000000000E+04  0.30000000000E+03 0. -1.
     100001    1    1    2    0    0  0.27072677396E+04 -0.15316870774E+04 -0.57054347629E+04  0.65000000000E+04  0.15050000000E+03 0. -1.
     100001    1    1    2    0    0 -0.27072677396E+04  0.15316870774E+04  0.57054347629E+04  0.65000000000E+04  0.15050000000E+03 0.  1.
</event>
<event>
 4    1  0.4521369E-004  0.6500000E+04  0.7818608E-02  0.7223770E-01
         52   -1    0    0    0    0  0.00000000000E+00  0.00000000000E+00  0.64930732323E+04  0.65000000000E+04  0.30000000000E+03 0. -1.
        -52   -1    0    0    0    0 -0.00000000000E+00 -0.00000000000E+00 -0.64930732323E+04  0.65000000000E+04  0.30000000000E+03 0.  1.
     100001    1    1    2    0    0 -0.21727913963E+04 -0.28196607091E+04 -0.54365283761E+04  0.65000000000E+04  0.15050000000E+03 0.  1.
     100001    1    1    2    0    0  0.21727913963E+04  0.28196607091E+04  0.54365283761E+04  0.65000000000E+04  0.15050000000E+03 0. -1.
</event>
<event>
 4    1  0.4521369E-004  0.6500000E+04  0.7818608E-02  0.7223770E-01
         52   -1    0    0    0    0  0.00000000000E+00  0.00000000000E+00  0.64930732323E+04  0.65000000000E+04  0.30000000000E+03 0.  1.
        -52   -1    0    0    0    0 -0.00000000000E+00 -0.00000000000E+00 -0.64930732323E+04  0.65000000000E+04  0.30000000000E+03 0. -1.
     100001    1    1    2    0    0 -0.13441935558E+03  0.70516460647E+03  0.64584846570E+04  0.65000000000E+04  0.15050000000E+03 0.  1.
     100001    1    1    2    0    0  0.13441935558E+03 -0.70516460647E+03 -0.64584846570E+04  0.65000000000E+04  0.15050000000E+03 0. -1.
</event>
<event>
 4    1  0.4521369E-004  0.6500000E+04  0.7818608E-02  0.7223770E-01
         52   -1    0    0    0    0  0.00000000000E+00  0.00000000000E+00  0.64930732323E+04  0.65000000000E+04  0.30000000000E+03 0. -1.
        -52   -1    0    0    0    0 -0.00000000000E+00 -0.00000000000E+00 -0.64930732323E+04  0.65000000000E+04  0.30000000000E+03 0.  1.
     100001    1    1    2    0    0 -0.42727473451E+03 -0.34693412000E+03 -0.64749071629E+04  0.65000000000E+04  0.15050000000E+03 0.  1.
     100001    1    1    2    0    0  0.42727473451E+03  0.34693412000E+03  0.64749071629E+04  0.65000000000E+04  0.15050000000E+03 0. -1.
</event>
<event>
 4    1  0.4521369E-004  0.6500000E+04  0.7818608E-02  0.7223770E-01
         52   -1    0    0    0    0  0.00000000000E+00  0.00000000000E+00  0.64930732323E+04  0.65000000000E+04  0.30000000000E+03 0. -1.
        -52   -1    0    0    0    0 -0.00000000000E+00 -0.00000000000E+00 -0.64930732323E+04  0.65000000000E+04  0.30000000000E+03 0. -1.
     100001    1    1    2    0    0 -0.47241912720E+03 -0.23643267864E+03  0.64767483745E+04  0.65000000000E+04  0.15050000000E+03 0. -1.
     100001    1    1    2    0    0  0.47241912720E+03  0.23643267864E+03 -0.64767483745E+04  0.65000000000E+04  0.15050000000E+03 0. -1.
</event>
<event>
 4    1  0.5406558E-004  0.6500000E+04  0.7818608E-02  0.7223770E-01
         52   -1    0    0    0    0  0.00000000000E+00  0.00000000000E+00  0.64930732323E+04  0.65000000000E+04  0.30000000000E+03 0. -1.
        -52   -1    0    0    0    0 -0.00000000000E+00 -0.00000000000E+00 -0.64930732323E+04  0.65000000000E+04  0.30000000000E+03 0.  1.
     100001    1    1    2    0    0 -0.28746047841E+03 -0.11894896089E+02  0.64918852990E+04  0.65000000000E+04  0.15050000000E+03 0. -1.
     100001    1    1    2    0    0  0.28746047841E+03  0.11894896089E+02 -0.64918852990E+04  0.65000000000E+04  0.15050000000E+03 0.  1.
</event>
<event>
 4    1  0.4521369E-004  0.6500000E+04  0.7818608E-02  0.7223770E-01
         52   -1    0    0    0    0  0.00000000000E+00  0.00000000000E+00  0.64930732323E+04  0.65000000000E+04  0.30000000000E+03 0. -1.
        -52   -1    0    0    0    0 -0.00000000000E+00 -0.00000000000E+00 -0.64930732323E+04  0.65000000000E+04  0.30000000000E+03 0.  1.
     100001    1    1    2    0    0  0.26454473735E+03  0.51716857350E+03 -0.64722409178E+04  0.65000000000E+04  0.15050000000E+03 0.  1.
     100001    1    1    2    0    0 -0.26454473735E+03 -0.51716857350E+03  0.64722409178E+04  0.65000000000E+04  0.15050000000E+03 0. -1.
</event>
<event>
 4    1  0.4521369E-004  0.6500000E+04  0.7818608E-02  0.7223770E-01
         52   -1    0    0    0    0  0.00000000000E+00  0.00000000000E+00  0.64930732323E+04  0.65000000000E+04  0.30000000000E+03 0.  1.
        -52   -1    0    0    0    0 -0.00000000000E+00 -0.00000000000E+00 -0.64930732323E+04  0.65000000000E+04  0.30000000000E+03 0. -1.
     100001    1    1    2    0    0 -0.18198395719E+04 -0.23303190131E+04 -0.57866352036E+04  0.65000000000E+04  0.15050000000E+03 0. -1.
     100001    1    1    2    0    0  0.18198395719E+04  0.23303190131E+04  0.57866352036E+04  0.65000000000E+04  0.15050000000E+03 0.  1.
</event>
<event>
 4    1  0.4521369E-004  0.6500000E+04  0.7818608E-02  0.7223770E-01
         52   -1    0    0    0    0  0.00000000000E+00  0.00000000000E+00  0.64930732323E+04  0.65000000000E+04  0.30000000000E+03 0. -1.
        -52   -1    0    0    0    0 -0.00000000000E+00 -0.00000000000E+00 -0.64930732323E+04  0.65000000000E+04  0.30000000000E+03 0.  1.
     100001    1    1    2    0    0  0.19962300441E+03 -0.73266813241E+03  0.64537351831E+04  0.65000000000E+04  0.15050000000E+03 0. -1.
     100001    1    1    2    0    0 -0.19962300441E+03  0.73266813241E+03 -0.64537351831E+04  0.65000000000E+04  0.15050000000E+03 0.  1.
</event>
<event>
 4    1  0.4521369E-004  0.6500000E+04  0.7818608E-02  0.7223770E-01
         52   -1    0    0    0    0  0.00000000000E+00  0.00000000000E+00  0.64930732323E+04  0.65000000000E+04  0.30000000000E+03 0. -1.
        -52   -1    0    0    0    0 -0.00000000000E+00 -0.00000000000E+00 -0.64930732323E+04  0.65000000000E+04  0.30000000000E+03 0. -1.
     100001    1    1    2    0    0 -0.25451429334E+03 -0.16683194713E+02 -0.64932498716E+04  0.65000000000E+04  0.15050000000E+03 0. -1.
     100001    1    1    2    0    0  0.25451429334E+03  0.16683194713E+02  0.64932498716E+04  0.65000000000E+04  0.15050000000E+03 0. -1.
</event>
<event>
 4    1  0.4521369E-004  0.6500000E+04  0.7818608E-02  0.7223770E-01
         52   -1    0    0    0    0  0.00000000000E+00  0.00000000000E+00  0.64930732323E+04  0.65000000000E+04  0.30000000000E+03 0. -1.
        -52   -1    0    0    0    0 -0.00000000000E+00 -0.00000000000E+00 -0.64930732323E+04  0.65000000000E+04  0.30000000000E+03 0.  1.
     100001    1    1    2    0    0  0.15044582954E+03 -0.63397956362E+03  0.64655073827E+04  0.65000000000E+04  0.15050000000E+03 0. -1.
     100001    1    1    2    0    0 -0.15044582954E+03  0.63397956362E+03 -0.64655073827E+04  0.65000000000E+04  0.15050000000E+03 0.  1.
</event>
<event>
 4    1  0.4521369E-004  0.6500000E+04  0.7818608E-02  0.7223770E-01
         52   -1    0    0    0    0  0.00000000000E+00  0.00000000000E+00  0.64930732323E+04  0.65000000000E+04  0.30000000000E+03 0. -1.
        -52   -1    0    0    0    0 -0.00000000000E+00 -0.00000000000E+00 -0.64930732323E+04  0.65000000000E+04  0.30000000000E+03 0. -1.
     100001    1    1    2    0    0 -0.10680544729E+04 -0.99868744483E+02 -0.64091056807E+04  0.65000000000E+04  0.15050000000E+03 0. -1.
     100001    1    1    2    0    0  0.10680544729E+04  0.99868744483E+02  0.64091056807E+04  0.65000000000E+04  0.15050000000E+03 0. -1.
</event>
<event>
 4    1  0.4521369E-004  0.6500000E+04  0.7818608E-02  0.7223770E-01
         52   -1    0    0    0    0  0.00000000000E+00  0.00000000000E+00  0.64930732323E+04  0.65000000000E+04  0.30000000000E+03 0.  1.
        -52   -1    0    0    0    0 -0.00000000000E+00 -0.00000000000E+00 -0.64930732323E+04  0.65000000000E+04  0.30000000000E+03 0.  1.
     100001    1    1    2    0    0 -0.65577888849E+02  0.35728049748E+03  0.64880967885E+04  0.65000000000E+04  0.15050000000E+03 0.  1.
     100001    1    1    2    0    0  0.65577888849E+02 -0.35728049748E+03 -0.64880967885E+04  0.65000000000E+04  0.15050000000E+03 0.  1.
</event>
<event>
 4    1  0.4521369E-004  0.6500000E+04  0.7818608E-02  0.7223770E-01
         52   -1    0    0    0    0  0.00000000000E+00  0.00000000000E+00  0.64930732323E+04  0.65000000000E+04  0.30000000000E+03 0. -1.
        -52   -1    0    0    0    0 -0.00000000000E+00 -0.00000000000E+00 -0.64930732323E+04  0.65000000000E+04  0.30000000000E+03 0. -1.
     100001    1    1    2    0    0 -0.11636067362E+03 -0.67783304826E+03 -0.64617607741E+04  0.65000000000E+04  0.15050000000E+03 0. -1.
     100001    1    1    2    0    0  0.11636067362E+03  0.67783304826E+03  0.64617607741E+04  0.65000000000E+04  0.15050000000E+03 0. -1.
</event>
<event>
 4    1  0.4521369E-004  0.6500000E+04  0.7818608E-02  0.7223770E-01
         52   -1    0    0    0    0  0.00000000000E+00  0.00000000000E+00  0.64930732323E+04  0.65000000000E+04  0.30000000000E+03 0. -1.
        -52   -1    0    0    0    0 -0.00000000000E+00 -0.00000000000E+00 -0.64930732323E+04  0.65000000000E+04  0.30000000000E+03 0.  1.
     100001    1    1    2    0    0 -0.10679648537E+04 -0.12013549339E+04 -0.62963121860E+04  0.65000000000E+04  0.15050000000E+03 0.  1.
     100001    1    1    2    0    0  0.10679648537E+04  0.12013549339E+04  0.62963121860E+04  0.65000000000E+04  0.15050000000E+03 0. -1.
</event>
<event>
 4    1  0.4521369E-004  0.6500000E+04  0.7818608E-02  0.7223770E-01
         52   -1    0    0    0    0  0.00000000000E+00  0.00000000000E+00  0.64930732323E+04  0.65000000000E+04  0.30000000000E+03 0.  1.
        -52   -1    0    0    0    0 -0.00000000000E+00 -0.00000000000E+00 -0.64930732323E+04  0.65000000000E+04  0.30000000000E+03 0.  1.
     100001    1    1    2    0    0 -0.13667713534E+03  0.59602902889E+03  0.64694218063E+04  0.65000000000E+04  0.15050000000E+03 0.  1.
     100001    1    1    2    0    0  0.13667713534E+03 -0.59602902889E+03 -0.64694218063E+04  0.65000000000E+04  0.15050000000E+03 0.  1.
</event>
<event>
 4    1  0.4521369E-004  0.6500000E+04  0.7818608E-02  0.7223770E-01
         52   -1    0    0    0    0  0.00000000000E+00  0.00000000000E+00  0.64930732323E+04  0.65000000000E+04  0.30000000000E+03 0. -1.
        -52   -1    0    0    0    0 -0.00000000000E+00 -0.00000000000E+00 -0.64930732323E+04  0.65000000000E+04  0.30000000000E+03 0.  1.
     100001    1    1    2    0    0 -0.79858742450E+03 -0.44259641690E+04  0.46904636285E+04  0.65000000000E+04  0.15050000000E+03 0. -1.
     100001    1    1    2    0    0  0.79858742450E+03  0.44259641690E+04 -0.46904636285E+04  0.65000000000E+04  0.15050000000E+03 0.  1.
</event>
<event>
 4    1  0.4521369E-004  0.6500000E+04  0.7818608E-02  0.7223770E-01
         52   -1    0    0    0    0  0.00000000000E+00  0.00000000000E+00  0.64930732323E+04  0.65000000000E+04  0.30000000000E+03 0. -1.
        -52   -1    0    0    0    0 -0.00000000000E+00 -0.00000000000E+00 -0.64930732323E+04  0.65000000000E+04  0.30000000000E+03 0.  1.
     100001    1    1    2    0    0 -0.21931250880E+04 -0.55893801514E+04 -0.24852327099E+04  0.65000000000E+04  0.15050000000E+03 0.  1.
     100001    1    1    2    0    0  0.21931250880E+04  0.55893801514E+04  0.24852327099E+04  0.65000000000E+04  0.15050000000E+03 0. -1.
</event>
<event>
 4    1  0.4521369E-004  0.6500000E+04  0.7818608E-02  0.7223770E-01
         52   -1    0    0    0    0  0.00000000000E+00  0.00000000000E+00  0.64930732323E+04  0.65000000000E+04  0.30000000000E+03 0.  1.
        -52   -1    0    0    0    0 -0.00000000000E+00 -0.00000000000E+00 -0.64930732323E+04  0.65000000000E+04  0.30000000000E+03 0. -1.
     100001    1    1    2    0    0  0.19571078708E+03  0.25869020445E+03 -0.64901561165E+04  0.65000000000E+04  0.15050000000E+03 0. -1.
     100001    1    1    2    0    0 -0.19571078708E+03 -0.25869020445E+03  0.64901561165E+04  0.65000000000E+04  0.15050000000E+03 0.  1.
</event>
<event>
 4    1  0.4521369E-004  0.6500000E+04  0.7818608E-02  0.7223770E-01
         52   -1    0    0    0    0  0.00000000000E+00  0.00000000000E+00  0.64930732323E+04  0.65000000000E+04  0.30000000000E+03 0. -1.
        -52   -1    0    0    0    0 -0.00000000000E+00 -0.00000000000E+00 -0.64930732323E+04  0.65000000000E+04  0.30000000000E+03 0.  1.
     100001    1    1    2    0    0  0.13979751393E+04 -0.28923397013E+03 -0.63395077861E+04  0.65000000000E+04  0.15050000000E+03 0.  1.
     100001    1    1    2    0    0 -0.13979751393E+04  0.28923397013E+03  0.63395077861E+04  0.65000000000E+04  0.15050000000E+03 0. -1.
</event>
<event>
 4    1  0.4521369E-004  0.6500000E+04  0.7818608E-02  0.7223770E-01
         52   -1    0    0    0    0  0.00000000000E+00  0.00000000000E+00  0.64930732323E+04  0.65000000000E+04  0.30000000000E+03 0. -1.
        -52   -1    0    0    0    0 -0.00000000000E+00 -0.00000000000E+00 -0.64930732323E+04  0.65000000000E+04  0.30000000000E+03 0.  1.
     100001    1    1    2    0    0  0.82144397340E+03  0.54875863439E+03  0.64227286654E+04  0.65000000000E+04  0.15050000000E+03 0. -1.
     100001    1    1    2    0    0 -0.82144397340E+03 -0.54875863439E+03 -0.64227286654E+04  0.65000000000E+04  0.15050000000E+03 0.  1.
</event>
<event>
 4    1  0.4521369E-004  0.6500000E+04  0.7818608E-02  0.7223770E-01
         52   -1    0    0    0    0  0.00000000000E+00  0.00000000000E+00  0.64930732323E+04  0.65000000000E+04  0.30000000000E+03 0. -1.
        -52   -1    0    0    0    0 -0.00000000000E+00 -0.00000000000E+00 -0.64930732323E+04  0.65000000000E+04  0.30000000000E+03 0. -1.
     100001    1    1    2    0    0 -0.13774875545E+03 -0.33665218013E+02 -0.64967100661E+04  0.65000000000E+04  0.15050000000E+03 0. -1.
     100001    1    1    2    0    0  0.13774875545E+03  0.33665218013E+02  0.64967100661E+04  0.65000000000E+04  0.15050000000E+03 0. -1.
</event>
<event>
 4    1  0.4521369E-004  0.6500000E+04  0.7818608E-02  0.7223770E-01
         52   -1    0    0    0    0  0.00000000000E+00  0.00000000000E+00  0.64930732323E+04  0.65000000000E+04  0.30000000000E+03 0.  1.
        -52   -1    0    0    0    0 -0.00000000000E+00 -0.00000000000E+00 -0.64930732323E+04  0.65000000000E+04  0.30000000000E+03 0. -1.
     100001    1    1    2    0    0 -0.87058914272E+03 -0.40875403621E+03 -0.64266900059E+04  0.65000000000E+04  0.15050000000E+03 0. -1.
     100001    1    1    2    0    0  0.87058914272E+03  0.40875403621E+03  0.64266900059E+04  0.65000000000E+04  0.15050000000E+03 0.  1.
</event>
<event>
 4    1  0.4521369E-004  0.6500000E+04  0.7818608E-02  0.7223770E-01
         52   -1    0    0    0    0  0.00000000000E+00  0.00000000000E+00  0.64930732323E+04  0.65000000000E+04  0.30000000000E+03 0.  1.
        -52   -1    0    0    0    0 -0.00000000000E+00 -0.00000000000E+00 -0.64930732323E+04  0.65000000000E+04  0.30000000000E+03 0. -1.
     100001    1    1    2    0    0  0.59797806849E+03  0.65767653614E+02 -0.64703513502E+04  0.65000000000E+04  0.15050000000E+03 0. -1.
     100001    1    1    2    0    0 -0.59797806849E+03 -0.65767653614E+02  0.64703513502E+04  0.65000000000E+04  0.15050000000E+03 0.  1.
</event>
<event>
 4    1  0.6091188E-004  0.6500000E+04  0.7818608E-02  0.7223770E-01
         52   -1    0    0    0    0  0.00000000000E+00  0.00000000000E+00  0.64930732323E+04  0.65000000000E+04  0.30000000000E+03 0. -1.
        -52   -1    0    0    0    0 -0.00000000000E+00 -0.00000000000E+00 -0.64930732323E+04  0.65000000000E+04  0.30000000000E+03 0. -1.
     100001    1    1    2    0    0 -0.12111261173E+03 -0.12474500489E+03 -0.64959310471E+04  0.65000000000E+04  0.15050000000E+03 0. -1.
     100001    1    1    2    0    0  0.12111261173E+03  0.12474500489E+03  0.64959310471E+04  0.65000000000E+04  0.15050000000E+03 0. -1.
</event>
<event>
 4    1  0.4521369E-004  0.6500000E+04  0.7818608E-02  0.7223770E-01
         52   -1    0    0    0    0  0.00000000000E+00  0.00000000000E+00  0.64930732323E+04  0.65000000000E+04  0.30000000000E+03 0.  1.
        -52   -1    0    0    0    0 -0.00000000000E+00 -0.00000000000E+00 -0.64930732323E+04  0.65000000000E+04  0.30000000000E+03 0. -1.
     100001    1    1    2    0    0  0.10179131809E+04 -0.13091384024E+04 -0.62831010775E+04  0.65000000000E+04  0.15050000000E+03 0. -1.
     100001    1    1    2    0    0 -0.10179131809E+04  0.13091384024E+04  0.62831010775E+04  0.65000000000E+04  0.15050000000E+03 0.  1.
</event>
<event>
 4    1  0.4521369E-004  0.6500000E+04  0.7818608E-02  0.7223770E-01
         52   -1    0    0    0    0  0.00000000000E+00  0.00000000000E+00  0.64930732323E+04  0.65000000000E+04  0.30000000000E+03 0.  1.
        -52   -1    0    0    0    0 -0.00000000000E+00 -0.00000000000E+00 -0.64930732323E+04  0.65000000000E+04  0.30000000000E+03 0. -1.
     100001    1    1    2    0    0  0.43809069344E+04  0.20468420996E+04  0.43411336770E+04  0.65000000000E+04  0.15050000000E+03 0.  1.
     100001    1    1    2    0    0 -0.43809069344E+04 -0.20468420996E+04 -0.43411336770E+04  0.65000000000E+04  0.15050000000E+03 0. -1.
</event>
<event>
 4    1  0.4521369E-004  0.6500000E+04  0.7818608E-02  0.7223770E-01
         52   -1    0    0    0    0  0.00000000000E+00  0.00000000000E+00  0.64930732323E+04  0.65000000000E+04  0.30000000000E+03 0. -1.
        -52   -1    0    0    0    0 -0.00000000000E+00 -0.00000000000E+00 -0.64930732323E+04  0.65000000000E+04  0.30000000000E+03 0.  1.
     100001    1    1    2    0    0 -0.33587206966E+04 -0.32040906835E+04  0.45475430646E+04  0.65000000000E+04  0.15050000000E+03 0. -1.
     100001    1    1    2    0    0  0.33587206966E+04  0.32040906835E+04 -0.45475430646E+04  0.65000000000E+04  0.15050000000E+03 0.  1.
</event>
<event>
 4    1  0.4521369E-004  0.6500000E+04  0.7818608E-02  0.7223770E-01
         52   -1    0    0    0    0  0.00000000000E+00  0.00000000000E+00  0.64930732323E+04  0.65000000000E+04  0.30000000000E+03 0.  1.
        -52   -1    0    0    0    0 -0.00000000000E+00 -0.00000000000E+00 -0.64930732323E+04  0.65000000000E+04  0.30000000000E+03 0. -1.
     100001    1    1    2    0    0 -0.32204242138E+03 -0.52779004011E+03 -0.64687770175E+04  0.65000000000E+04  0.15050000000E+03 0. -1.
     100001    1    1    2    0    0  0.32204242138E+03  0.52779004011E+03  0.64687770175E+04  0.65000000000E+04  0.15050000000E+03 0.  1.
</event>
<event>
 4    1  0.4521369E-004  0.6500000E+04  0.7818608E-02  0.7223770E-01
         52   -1    0    0    0    0  0.00000000000E+00  0.00000000000E+00  0.64930732323E+04  0.65000000000E+04  0.30000000000E+03 0. -1.
        -52   -1    0    0    0    0 -0.00000000000E+00 -0.00000000000E+00 -0.64930732323E+04  0.65000000000E+04  0.30000000000E+03 0.  1.
     100001    1    1    2    0    0 -0.18177292476E+04 -0.20497625042E+04  0.58925108238E+04  0.65000000000E+04  0.15050000000E+03 0. -1.
     100001    1    1    2    0    0  0.18177292476E+04  0.20497625042E+04 -0.58925108238E+04  0.65000000000E+04  0.15050000000E+03 0.  1.
</event>
<event>
 4    1  0.4521369E-004  0.6500000E+04  0.7818608E-02  0.7223770E-01
         52   -1    0    0    0    0  0.00000000000E+00  0.00000000000E+00  0.64930732323E+04  0.65000000000E+04  0.30000000000E+03 0. -1.
        -52   -1    0    0    0    0 -0.00000000000E+00 -0.00000000000E+00 -0.64930732323E+04  0.65000000000E+04  0.30000000000E+03 0.  1.
     100001    1    1    2    0    0 -0.11715408782E+04  0.11148181107E+04 -0.62938082510E+04  0.65000000000E+04  0.15050000000E+03 0.  1.
     100001    1    1    2    0    0  0.11715408782E+04 -0.11148181107E+04  0.62938082510E+04  0.65000000000E+04  0.15050000000E+03 0. -1.
</event>
<event>
 4    1  0.4823640E-004  0.6500000E+04  0.7818608E-02  0.7223770E-01
         52   -1    0    0    0    0  0.00000000000E+00  0.00000000000E+00  0.64930732323E+04  0.65000000000E+04  0.30000000000E+03 0. -1.
        -52   -1    0    0    0    0 -0.00000000000E+00 -0.00000000000E+00 -0.64930732323E+04  0.65000000000E+04  0.30000000000E+03 0.  1.
     100001    1    1    2    0    0  0.25961880096E+03  0.10237873782E+03  0.64922620420E+04  0.65000000000E+04  0.15050000000E+03 0. -1.
     100001    1    1    2    0    0 -0.25961880096E+03 -0.10237873782E+03 -0.64922620420E+04  0.65000000000E+04  0.15050000000E+03 0.  1.
</event>
<event>
 4    1  0.4521369E-004  0.6500000E+04  0.7818608E-02  0.7223770E-01
         52   -1    0    0    0    0  0.00000000000E+00  0.00000000000E+00  0.64930732323E+04  0.65000000000E+04  0.30000000000E+03 0. -1.
        -52   -1    0    0    0    0 -0.00000000000E+00 -0.00000000000E+00 -0.64930732323E+04  0.65000000000E+04  0.30000000000E+03 0.  1.
     100001    1    1    2    0    0 -0.77913287358E+03 -0.28029722520E+04  0.58106495566E+04  0.65000000000E+04  0.15050000000E+03 0. -1.
     100001    1    1    2    0    0  0.77913287358E+03  0.28029722520E+04 -0.58106495566E+04  0.65000000000E+04  0.15050000000E+03 0.  1.
</event>
<event>
 4    1  0.4521369E-004  0.6500000E+04  0.7818608E-02  0.7223770E-01
         52   -1    0    0    0    0  0.00000000000E+00  0.00000000000E+00  0.64930732323E+04  0.65000000000E+04  0.30000000000E+03 0. -1.
        -52   -1    0    0    0    0 -0.00000000000E+00 -0.00000000000E+00 -0.64930732323E+04  0.65000000000E+04  0.30000000000E+03 0.  1.
     100001    1    1    2    0    0  0.32261164120E+03 -0.95394473786E+03 -0.64197555184E+04  0.65000000000E+04  0.15050000000E+03 0.  1.
     100001    1    1    2    0    0 -0.32261164120E+03  0.95394473786E+03  0.64197555184E+04  0.65000000000E+04  0.15050000000E+03 0. -1.
</event>
<event>
 4    1  0.4521369E-004  0.6500000E+04  0.7818608E-02  0.7223770E-01
         52   -1    0    0    0    0  0.00000000000E+00  0.00000000000E+00  0.64930732323E+04  0.65000000000E+04  0.30000000000E+03 0.  1.
        -52   -1    0    0    0    0 -0.00000000000E+00 -0.00000000000E+00 -0.64930732323E+04  0.65000000000E+04  0.30000000000E+03 0. -1.
     100001    1    1    2    0    0 -0.69260518408E+02 -0.11368525690E+04  0.63976651184E+04  0.65000000000E+04  0.15050000000E+03 0.  1.
     100001    1    1    2    0    0  0.69260518408E+02  0.11368525690E+04 -0.63976651184E+04  0.65000000000E+04  0.15050000000E+03 0. -1.
</event>
<event>
 4    1  0.4521369E-004  0.6500000E+04  0.7818608E-02  0.7223770E-01
         52   -1    0    0    0    0  0.00000000000E+00  0.00000000000E+00  0.64930732323E+04  0.65000000000E+04  0.30000000000E+03 0.  1.
        -52   -1    0    0    0    0 -0.00000000000E+00 -0.00000000000E+00 -0.64930732323E+04  0.65000000000E+04  0.30000000000E+03 0. -1.
     100001    1    1    2    0    0 -0.21224116492E+04 -0.10842929591E+04 -0.60454137427E+04  0.65000000000E+04  0.15050000000E+03 0. -1.
     100001    1    1    2    0    0  0.21224116492E+04  0.10842929591E+04  0.60454137427E+04  0.65000000000E+04  0.15050000000E+03 0.  1.
</event>
<event>
 4    1  0.4521369E-004  0.6500000E+04  0.7818608E-02  0.7223770E-01
         52   -1    0    0    0    0  0.00000000000E+00  0.00000000000E+00  0.64930732323E+04  0.65000000000E+04  0.30000000000E+03 0.  1.
        -52   -1    0    0    0    0 -0.00000000000E+00 -0.00000000000E+00 -0.64930732323E+04  0.65000000000E+04  0.30000000000E+03 0.  1.
     100001    1    1    2    0    0 -0.65234100104E+03 -0.50233885011E+02  0.64652360765E+04  0.65000000000E+04  0.15050000000E+03 0.  1.
     100001    1    1    2    0    0  0.65234100104E+03  0.50233885011E+02 -0.64652360765E+04  0.65000000000E+04  0.15050000000E+03 0.  1.
</event>
<event>
 4    1  0.4521369E-004  0.6500000E+04  0.7818608E-02  0.7223770E-01
         52   -1    0    0    0    0  0.00000000000E+00  0.00000000000E+00  0.64930732323E+04  0.65000000000E+04  0.30000000000E+03 0.  1.
        -52   -1    0    0    0    0 -0.00000000000E+00 -0.00000000000E+00 -0.64930732323E+04  0.65000000000E+04  0.30000000000E+03 0. -1.
     100001    1    1    2    0    0 -0.13467804649E+03  0.69095923774E+03 -0.64600144664E+04  0.65000000000E+04  0.15050000000E+03 0. -1.
     100001    1    1    2    0    0  0.13467804649E+03 -0.69095923774E+03  0.64600144664E+04  0.65000000000E+04  0.15050000000E+03 0.  1.
</event>
<event>
 4    1  0.4521369E-004  0.6500000E+04  0.7818608E-02  0.7223770E-01
         52   -1    0    0    0    0  0.00000000000E+00  0.00000000000E+00  0.64930732323E+04  0.65000000000E+04  0.30000000000E+03 0.  1.
        -52   -1    0    0    0    0 -0.00000000000E+00 -0.00000000000E+00 -0.64930732323E+04  0.65000000000E+04  0.30000000000E+03 0. -1.
     100001    1    1    2    0    0 -0.26822838102E+03 -0.20876676266E+04  0.61479303157E+04  0.65000000000E+04  0.15050000000E+03 0.  1.
     100001    1    1    2    0    0  0.26822838102E+03  0.20876676266E+04 -0.61479303157E+04  0.65000000000E+04  0.15050000000E+03 0. -1.
</event>
<event>
 4    1  0.7357092E-004  0.6500000E+04  0.7818608E-02  0.7223770E-01
         52   -1    0    0    0    0  0.00000000000E+00  0.00000000000E+00  0.64930732323E+04  0.65000000000E+04  0.30000000000E+03 0.  1.
        -52   -1    0    0    0    0 -0.00000000000E+00 -0.00000000000E+00 -0.64930732323E+04  0.65000000000E+04  0.30000000000E+03 0. -1.
     100001    1    1    2    0    0 -0.41805693372E+02 -0.84451060852E+02  0.64975741667E+04  0.65000000000E+04  0.15050000000E+03 0.  1.
     100001    1    1    2    0    0  0.41805693372E+02  0.84451060852E+02 -0.64975741667E+04  0.65000000000E+04  0.15050000000E+03 0. -1.
</event>
<event>
 4    1  0.4521369E-004  0.6500000E+04  0.7818608E-02  0.7223770E-01
         52   -1    0    0    0    0  0.00000000000E+00  0.00000000000E+00  0.64930732323E+04  0.65000000000E+04  0.30000000000E+03 0.  1.
        -52   -1    0    0    0    0 -0.00000000000E+00 -0.00000000000E+00 -0.64930732323E+04  0.65000000000E+04  0.30000000000E+03 0. -1.
     100001    1    1    2    0    0 -0.30707142934E+03  0.10170376688E+04  0.64108260987E+04  0.65000000000E+04  0.15050000000E+03 0.  1.
     100001    1    1    2    0    0  0.30707142934E+03 -0.10170376688E+04 -0.64108260987E+04  0.65000000000E+04  0.15050000000E+03 0. -1.
</event>
<event>
 4    1  0.4521369E-004  0.6500000E+04  0.7818608E-02  0.7223770E-01
         52   -1    0    0    0    0  0.00000000000E+00  0.00000000000E+00  0.64930732323E+04  0.65000000000E+04  0.30000000000E+03 0. -1.
        -52   -1    0    0    0    0 -0.00000000000E+00 -0.00000000000E+00 -0.64930732323E+04  0.65000000000E+04  0.30000000000E+03 0. -1.
     100001    1    1    2    0    0  0.44300129909E+03  0.29371751720E+03 -0.64764828124E+04  0.65000000000E+04  0.15050000000E+03 0. -1.
     100001    1    1    2    0    0 -0.44300129909E+03 -0.29371751720E+03  0.64764828124E+04  0.65000000000E+04  0.15050000000E+03 0. -1.
</event>
<event>
 4    1  0.4521369E-004  0.6500000E+04  0.7818608E-02  0.7223770E-01
         52   -1    0    0    0    0  0.00000000000E+00  0.00000000000E+00  0.64930732323E+04  0.65000000000E+04  0.30000000000E+03 0. -1.
        -52   -1    0    0    0    0 -0.00000000000E+00 -0.00000000000E+00 -0.64930732323E+04  0.65000000000E+04  0.30000000000E+03 0.  1.
     100001    1    1    2    0    0 -0.13302640171E+04 -0.21447851799E+02 -0.63606043254E+04  0.65000000000E+04  0.15050000000E+03 0.  1.
     100001    1    1    2    0    0  0.13302640171E+04  0.21447851799E+02  0.63606043254E+04  0.65000000000E+04  0.15050000000E+03 0. -1.
</event>
<event>
 4    1  0.4521369E-004  0.6500000E+04  0.7818608E-02  0.7223770E-01
         52   -1    0    0    0    0  0.00000000000E+00  0.00000000000E+00  0.64930732323E+04  0.65000000000E+04  0.30000000000E+03 0.  1.
        -52   -1    0    0    0    0 -0.00000000000E+00 -0.00000000000E+00 -0.64930732323E+04  0.65000000000E+04  0.30000000000E+03 0. -1.
     100001    1    1    2    0    0  0.36041116615E+03 -0.83270207686E+02  0.64877206794E+04  0.65000000000E+04  0.15050000000E+03 0.  1.
     100001    1    1    2    0    0 -0.36041116615E+03  0.83270207686E+02 -0.64877206794E+04  0.65000000000E+04  0.15050000000E+03 0. -1.
</event>
<event>
 4    1  0.4521369E-004  0.6500000E+04  0.7818608E-02  0.7223770E-01
         52   -1    0    0    0    0  0.00000000000E+00  0.00000000000E+00  0.64930732323E+04  0.65000000000E+04  0.30000000000E+03 0. -1.
        -52   -1    0    0    0    0 -0.00000000000E+00 -0.00000000000E+00 -0.64930732323E+04  0.65000000000E+04  0.30000000000E+03 0.  1.
     100001    1    1    2    0    0 -0.83652371873E+03  0.30744532361E+04 -0.56635073159E+04  0.65000000000E+04  0.15050000000E+03 0.  1.
     100001    1    1    2    0    0  0.83652371873E+03 -0.30744532361E+04  0.56635073159E+04  0.65000000000E+04  0.15050000000E+03 0. -1.
</event>
<event>
 4    1  0.4521369E-004  0.6500000E+04  0.7818608E-02  0.7223770E-01
         52   -1    0    0    0    0  0.00000000000E+00  0.00000000000E+00  0.64930732323E+04  0.65000000000E+04  0.30000000000E+03 0. -1.
        -52   -1    0    0    0    0 -0.00000000000E+00 -0.00000000000E+00 -0.64930732323E+04  0.65000000000E+04  0.30000000000E+03 0.  1.
     100001    1    1    2    0    0 -0.18798564063E+04  0.63942111120E+02 -0.62200804696E+04  0.65000000000E+04  0.15050000000E+03 0.  1.
     100001    1    1    2    0    0  0.18798564063E+04 -0.63942111120E+02  0.62200804696E+04  0.65000000000E+04  0.15050000000E+03 0. -1.
</event>
<event>
 4    1  0.4521369E-004  0.6500000E+04  0.7818608E-02  0.7223770E-01
         52   -1    0    0    0    0  0.00000000000E+00  0.00000000000E+00  0.64930732323E+04  0.65000000000E+04  0.30000000000E+03 0. -1.
        -52   -1    0    0    0    0 -0.00000000000E+00 -0.00000000000E+00 -0.64930732323E+04  0.65000000000E+04  0.30000000000E+03 0.  1.
     100001    1    1    2    0    0 -0.52247500877E+04  0.35726975145E+04 -0.14714512363E+04  0.65000000000E+04  0.15050000000E+03 0. -1.
     100001    1    1    2    0    0  0.52247500877E+04 -0.35726975145E+04  0.14714512363E+04  0.65000000000E+04  0.15050000000E+03 0.  1.
</event>
<event>
 4    1  0.4521369E-004  0.6500000E+04  0.7818608E-02  0.7223770E-01
         52   -1    0    0    0    0  0.00000000000E+00  0.00000000000E+00  0.64930732323E+04  0.65000000000E+04  0.30000000000E+03 0.  1.
        -52   -1    0    0    0    0 -0.00000000000E+00 -0.00000000000E+00 -0.64930732323E+04  0.65000000000E+04  0.30000000000E+03 0.  1.
     100001    1    1    2    0    0 -0.10215904172E+03  0.16434338349E+03  0.64953756267E+04  0.65000000000E+04  0.15050000000E+03 0.  1.
     100001    1    1    2    0    0  0.10215904172E+03 -0.16434338349E+03 -0.64953756267E+04  0.65000000000E+04  0.15050000000E+03 0.  1.
</event>
<event>
 4    1  0.4521369E-004  0.6500000E+04  0.7818608E-02  0.7223770E-01
         52   -1    0    0    0    0  0.00000000000E+00  0.00000000000E+00  0.64930732323E+04  0.65000000000E+04  0.30000000000E+03 0.  1.
        -52   -1    0    0    0    0 -0.00000000000E+00 -0.00000000000E+00 -0.64930732323E+04  0.65000000000E+04  0.30000000000E+03 0. -1.
     100001    1    1    2    0    0 -0.11858727745E+04 -0.22580344997E+04 -0.59768165198E+04  0.65000000000E+04  0.15050000000E+03 0. -1.
     100001    1    1    2    0    0  0.11858727745E+04  0.22580344997E+04  0.59768165198E+04  0.65000000000E+04  0.15050000000E+03 0.  1.
</event>
<event>
 4    1  0.4521369E-004  0.6500000E+04  0.7818608E-02  0.7223770E-01
         52   -1    0    0    0    0  0.00000000000E+00  0.00000000000E+00  0.64930732323E+04  0.65000000000E+04  0.30000000000E+03 0.  1.
        -52   -1    0    0    0    0 -0.00000000000E+00 -0.00000000000E+00 -0.64930732323E+04  0.65000000000E+04  0.30000000000E+03 0. -1.
     100001    1    1    2    0    0 -0.15764890360E+03 -0.12280714453E+04 -0.63792113226E+04  0.65000000000E+04  0.15050000000E+03 0. -1.
     100001    1    1    2    0    0  0.15764890360E+03  0.12280714453E+04  0.63792113226E+04  0.65000000000E+04  0.15050000000E+03 0.  1.
</event>
<event>
 4    1  0.4521369E-004  0.6500000E+04  0.7818608E-02  0.7223770E-01
         52   -1    0    0    0    0  0.00000000000E+00  0.00000000000E+00  0.64930732323E+04  0.65000000000E+04  0.30000000000E+03 0.  1.
        -52   -1    0    0    0    0 -0.00000000000E+00 -0.00000000000E+00 -0.64930732323E+04  0.65000000000E+04  0.30000000000E+03 0. -1.
     100001    1    1    2    0    0 -0.19680338387E+03  0.11941654341E+04 -0.63845584886E+04  0.65000000000E+04  0.15050000000E+03 0. -1.
     100001    1    1    2    0    0  0.19680338387E+03 -0.11941654341E+04  0.63845584886E+04  0.65000000000E+04  0.15050000000E+03 0.  1.
</event>
<event>
 4    1  0.4521369E-004  0.6500000E+04  0.7818608E-02  0.7223770E-01
         52   -1    0    0    0    0  0.00000000000E+00  0.00000000000E+00  0.64930732323E+04  0.65000000000E+04  0.30000000000E+03 0.  1.
        -52   -1    0    0    0    0 -0.00000000000E+00 -0.00000000000E+00 -0.64930732323E+04  0.65000000000E+04  0.30000000000E+03 0. -1.
     100001    1    1    2    0    0 -0.13580739857E+04  0.30543488564E+04  0.55726060208E+04  0.65000000000E+04  0.15050000000E+03 0.  1.
     100001    1    1    2    0    0  0.13580739857E+04 -0.30543488564E+04 -0.55726060208E+04  0.65000000000E+04  0.15050000000E+03 0. -1.
</event>
<event>
 4    1  0.4521369E-004  0.6500000E+04  0.7818608E-02  0.7223770E-01
         52   -1    0    0    0    0  0.00000000000E+00  0.00000000000E+00  0.64930732323E+04  0.65000000000E+04  0.30000000000E+03 0.  1.
        -52   -1    0    0    0    0 -0.00000000000E+00 -0.00000000000E+00 -0.64930732323E+04  0.65000000000E+04  0.30000000000E+03 0. -1.
     100001    1    1    2    0    0 -0.92890425549E+03 -0.11154115315E+02  0.64315132138E+04  0.65000000000E+04  0.15050000000E+03 0.  1.
     100001    1    1    2    0    0  0.92890425549E+03  0.11154115315E+02 -0.64315132138E+04  0.65000000000E+04  0.15050000000E+03 0. -1.
</event>
<event>
 4    1  0.4521369E-004  0.6500000E+04  0.7818608E-02  0.7223770E-01
         52   -1    0    0    0    0  0.00000000000E+00  0.00000000000E+00  0.64930732323E+04  0.65000000000E+04  0.30000000000E+03 0.  1.
        -52   -1    0    0    0    0 -0.00000000000E+00 -0.00000000000E+00 -0.64930732323E+04  0.65000000000E+04  0.30000000000E+03 0.  1.
     100001    1    1    2    0    0  0.25474060635E+03 -0.16093396409E+03 -0.64912677678E+04  0.65000000000E+04  0.15050000000E+03 0.  1.
     100001    1    1    2    0    0 -0.25474060635E+03  0.16093396409E+03  0.64912677678E+04  0.65000000000E+04  0.15050000000E+03 0.  1.
</event>
