<event>
 4    1  0.5143956E-004  0.6500000E+04  0.7818608E-02  0.7223770E-01
         52   -1    0    0    0    0  0.00000000000E+00  0.00000000000E+00  0.64930732323E+04  0.65000000000E+04  0.30000000000E+03 0. -1.
        -52   -1    0    0    0    0 -0.00000000000E+00 -0.00000000000E+00 -0.64930732323E+04  0.65000000000E+04  0.30000000000E+03 0.  1.
     100001    1    1    2    0    0  0.68877984716E+03  0.42355460058E+03 -0.64477541495E+04  0.65000000000E+04  0.15050000000E+03 0.  1.
     100001    1    1    2    0    0 -0.68877984716E+03 -0.42355460058E+03  0.64477541495E+04  0.65000000000E+04  0.15050000000E+03 0. -1.
</event>
<event>
 4    1  0.5143956E-004  0.6500000E+04  0.7818608E-02  0.7223770E-01
         52   -1    0    0    0    0  0.00000000000E+00  0.00000000000E+00  0.64930732323E+04  0.65000000000E+04  0.30000000000E+03 0. -1.
        -52   -1    0    0    0    0 -0.00000000000E+00 -0.00000000000E+00 -0.64930732323E+04  0.65000000000E+04  0.30000000000E+03 0.  1.
     100001    1    1    2    0    0 -0.27272143520E+03  0.91293728280E+02  0.64918901888E+04  0.65000000000E+04  0.15050000000E+03 0. -1.
     100001    1    1    2    0    0  0.27272143520E+03 -0.91293728280E+02 -0.64918901888E+04  0.65000000000E+04  0.15050000000E+03 0.  1.
</event>
<event>
 4    1  0.5143956E-004  0.6500000E+04  0.7818608E-02  0.7223770E-01
         52   -1    0    0    0    0  0.00000000000E+00  0.00000000000E+00  0.64930732323E+04  0.65000000000E+04  0.30000000000E+03 0.  1.
        -52   -1    0    0    0    0 -0.00000000000E+00 -0.00000000000E+00 -0.64930732323E+04  0.65000000000E+04  0.30000000000E+03 0. -1.
     100001    1    1    2    0    0 -0.14617864125E+04  0.19234930976E+04  0.60324708485E+04  0.65000000000E+04  0.15050000000E+03 0.  1.
     100001    1    1    2    0    0  0.14617864125E+04 -0.19234930976E+04 -0.60324708485E+04  0.65000000000E+04  0.15050000000E+03 0. -1.
</event>
<event>
 4    1  0.5143956E-004  0.6500000E+04  0.7818608E-02  0.7223770E-01
         52   -1    0    0    0    0  0.00000000000E+00  0.00000000000E+00  0.64930732323E+04  0.65000000000E+04  0.30000000000E+03 0.  1.
        -52   -1    0    0    0    0 -0.00000000000E+00 -0.00000000000E+00 -0.64930732323E+04  0.65000000000E+04  0.30000000000E+03 0. -1.
     100001    1    1    2    0    0 -0.53871381741E+04 -0.27964672360E+04  0.23207462249E+04  0.65000000000E+04  0.15050000000E+03 0.  1.
     100001    1    1    2    0    0  0.53871381741E+04  0.27964672360E+04 -0.23207462249E+04  0.65000000000E+04  0.15050000000E+03 0. -1.
</event>
<event>
 4    1  0.5143956E-004  0.6500000E+04  0.7818608E-02  0.7223770E-01
         52   -1    0    0    0    0  0.00000000000E+00  0.00000000000E+00  0.64930732323E+04  0.65000000000E+04  0.30000000000E+03 0.  1.
        -52   -1    0    0    0    0 -0.00000000000E+00 -0.00000000000E+00 -0.64930732323E+04  0.65000000000E+04  0.30000000000E+03 0. -1.
     100001    1    1    2    0    0 -0.18152409797E+04  0.21683201701E+04  0.58506954779E+04  0.65000000000E+04  0.15050000000E+03 0.  1.
     100001    1    1    2    0    0  0.18152409797E+04 -0.21683201701E+04 -0.58506954779E+04  0.65000000000E+04  0.15050000000E+03 0. -1.
</event>
<event>
 4    1  0.7840361E-004  0.6500000E+04  0.7818608E-02  0.7223770E-01
         52   -1    0    0    0    0  0.00000000000E+00  0.00000000000E+00  0.64930732323E+04  0.65000000000E+04  0.30000000000E+03 0.  1.
        -52   -1    0    0    0    0 -0.00000000000E+00 -0.00000000000E+00 -0.64930732323E+04  0.65000000000E+04  0.30000000000E+03 0.  1.
     100001    1    1    2    0    0  0.94193673473E+01  0.12466331543E+03 -0.64970547237E+04  0.65000000000E+04  0.15050000000E+03 0.  1.
     100001    1    1    2    0    0 -0.94193673473E+01 -0.12466331543E+03  0.64970547237E+04  0.65000000000E+04  0.15050000000E+03 0.  1.
</event>
<event>
 4    1  0.5143956E-004  0.6500000E+04  0.7818608E-02  0.7223770E-01
         52   -1    0    0    0    0  0.00000000000E+00  0.00000000000E+00  0.64930732323E+04  0.65000000000E+04  0.30000000000E+03 0. -1.
        -52   -1    0    0    0    0 -0.00000000000E+00 -0.00000000000E+00 -0.64930732323E+04  0.65000000000E+04  0.30000000000E+03 0.  1.
     100001    1    1    2    0    0  0.19973389082E+02  0.31093554896E+04  0.57060370883E+04  0.65000000000E+04  0.15050000000E+03 0. -1.
     100001    1    1    2    0    0 -0.19973389082E+02 -0.31093554896E+04 -0.57060370883E+04  0.65000000000E+04  0.15050000000E+03 0.  1.
</event>
<event>
 4    1  0.5143956E-004  0.6500000E+04  0.7818608E-02  0.7223770E-01
         52   -1    0    0    0    0  0.00000000000E+00  0.00000000000E+00  0.64930732323E+04  0.65000000000E+04  0.30000000000E+03 0.  1.
        -52   -1    0    0    0    0 -0.00000000000E+00 -0.00000000000E+00 -0.64930732323E+04  0.65000000000E+04  0.30000000000E+03 0. -1.
     100001    1    1    2    0    0 -0.11288974811E+04  0.21501719807E+03 -0.63958351942E+04  0.65000000000E+04  0.15050000000E+03 0. -1.
     100001    1    1    2    0    0  0.11288974811E+04 -0.21501719807E+03  0.63958351942E+04  0.65000000000E+04  0.15050000000E+03 0.  1.
</event>
<event>
 4    1  0.6779970E-004  0.6500000E+04  0.7818608E-02  0.7223770E-01
         52   -1    0    0    0    0  0.00000000000E+00  0.00000000000E+00  0.64930732323E+04  0.65000000000E+04  0.30000000000E+03 0. -1.
        -52   -1    0    0    0    0 -0.00000000000E+00 -0.00000000000E+00 -0.64930732323E+04  0.65000000000E+04  0.30000000000E+03 0. -1.
     100001    1    1    2    0    0 -0.54415917448E+02  0.17327358219E+03 -0.64957189690E+04  0.65000000000E+04  0.15050000000E+03 0. -1.
     100001    1    1    2    0    0  0.54415917448E+02 -0.17327358219E+03  0.64957189690E+04  0.65000000000E+04  0.15050000000E+03 0. -1.
</event>
<event>
 4    1  0.5143956E-004  0.6500000E+04  0.7818608E-02  0.7223770E-01
         52   -1    0    0    0    0  0.00000000000E+00  0.00000000000E+00  0.64930732323E+04  0.65000000000E+04  0.30000000000E+03 0. -1.
        -52   -1    0    0    0    0 -0.00000000000E+00 -0.00000000000E+00 -0.64930732323E+04  0.65000000000E+04  0.30000000000E+03 0.  1.
     100001    1    1    2    0    0 -0.10478677036E+04 -0.29670925074E+03  0.64063473716E+04  0.65000000000E+04  0.15050000000E+03 0. -1.
     100001    1    1    2    0    0  0.10478677036E+04  0.29670925074E+03 -0.64063473716E+04  0.65000000000E+04  0.15050000000E+03 0.  1.
</event>
<event>
 4    1  0.5143956E-004  0.6500000E+04  0.7818608E-02  0.7223770E-01
         52   -1    0    0    0    0  0.00000000000E+00  0.00000000000E+00  0.64930732323E+04  0.65000000000E+04  0.30000000000E+03 0.  1.
        -52   -1    0    0    0    0 -0.00000000000E+00 -0.00000000000E+00 -0.64930732323E+04  0.65000000000E+04  0.30000000000E+03 0. -1.
     100001    1    1    2    0    0 -0.18462103140E+04  0.11351802155E+04  0.61261915661E+04  0.65000000000E+04  0.15050000000E+03 0.  1.
     100001    1    1    2    0    0  0.18462103140E+04 -0.11351802155E+04 -0.61261915661E+04  0.65000000000E+04  0.15050000000E+03 0. -1.
</event>
<event>
 4    1  0.5143956E-004  0.6500000E+04  0.7818608E-02  0.7223770E-01
         52   -1    0    0    0    0  0.00000000000E+00  0.00000000000E+00  0.64930732323E+04  0.65000000000E+04  0.30000000000E+03 0. -1.
        -52   -1    0    0    0    0 -0.00000000000E+00 -0.00000000000E+00 -0.64930732323E+04  0.65000000000E+04  0.30000000000E+03 0. -1.
     100001    1    1    2    0    0  0.84655940514E+02  0.85924611991E+03  0.64406427651E+04  0.65000000000E+04  0.15050000000E+03 0. -1.
     100001    1    1    2    0    0 -0.84655940514E+02 -0.85924611991E+03 -0.64406427651E+04  0.65000000000E+04  0.15050000000E+03 0. -1.
</event>
<event>
 4    1  0.5143956E-004  0.6500000E+04  0.7818608E-02  0.7223770E-01
         52   -1    0    0    0    0  0.00000000000E+00  0.00000000000E+00  0.64930732323E+04  0.65000000000E+04  0.30000000000E+03 0. -1.
        -52   -1    0    0    0    0 -0.00000000000E+00 -0.00000000000E+00 -0.64930732323E+04  0.65000000000E+04  0.30000000000E+03 0.  1.
     100001    1    1    2    0    0  0.38580215826E+03 -0.10051902881E+04  0.64084396642E+04  0.65000000000E+04  0.15050000000E+03 0. -1.
     100001    1    1    2    0    0 -0.38580215826E+03  0.10051902881E+04 -0.64084396642E+04  0.65000000000E+04  0.15050000000E+03 0.  1.
</event>
<event>
 4    1  0.5143956E-004  0.6500000E+04  0.7818608E-02  0.7223770E-01
         52   -1    0    0    0    0  0.00000000000E+00  0.00000000000E+00  0.64930732323E+04  0.65000000000E+04  0.30000000000E+03 0.  1.
        -52   -1    0    0    0    0 -0.00000000000E+00 -0.00000000000E+00 -0.64930732323E+04  0.65000000000E+04  0.30000000000E+03 0.  1.
     100001    1    1    2    0    0 -0.81405840822E+03  0.43816308772E+03 -0.64321591839E+04  0.65000000000E+04  0.15050000000E+03 0.  1.
     100001    1    1    2    0    0  0.81405840822E+03 -0.43816308772E+03  0.64321591839E+04  0.65000000000E+04  0.15050000000E+03 0.  1.
</event>
<event>
 4    1  0.5143956E-004  0.6500000E+04  0.7818608E-02  0.7223770E-01
         52   -1    0    0    0    0  0.00000000000E+00  0.00000000000E+00  0.64930732323E+04  0.65000000000E+04  0.30000000000E+03 0.  1.
        -52   -1    0    0    0    0 -0.00000000000E+00 -0.00000000000E+00 -0.64930732323E+04  0.65000000000E+04  0.30000000000E+03 0. -1.
     100001    1    1    2    0    0 -0.50374934398E+04  0.39504735781E+04 -0.11156917596E+04  0.65000000000E+04  0.15050000000E+03 0.  1.
     100001    1    1    2    0    0  0.50374934398E+04 -0.39504735781E+04  0.11156917596E+04  0.65000000000E+04  0.15050000000E+03 0. -1.
</event>
<event>
 4    1  0.5143956E-004  0.6500000E+04  0.7818608E-02  0.7223770E-01
         52   -1    0    0    0    0  0.00000000000E+00  0.00000000000E+00  0.64930732323E+04  0.65000000000E+04  0.30000000000E+03 0.  1.
        -52   -1    0    0    0    0 -0.00000000000E+00 -0.00000000000E+00 -0.64930732323E+04  0.65000000000E+04  0.30000000000E+03 0. -1.
     100001    1    1    2    0    0 -0.10854803491E+04 -0.74835717735E+03  0.63631001640E+04  0.65000000000E+04  0.15050000000E+03 0.  1.
     100001    1    1    2    0    0  0.10854803491E+04  0.74835717735E+03 -0.63631001640E+04  0.65000000000E+04  0.15050000000E+03 0. -1.
</event>
<event>
 4    1  0.5143956E-004  0.6500000E+04  0.7818608E-02  0.7223770E-01
         52   -1    0    0    0    0  0.00000000000E+00  0.00000000000E+00  0.64930732323E+04  0.65000000000E+04  0.30000000000E+03 0.  1.
        -52   -1    0    0    0    0 -0.00000000000E+00 -0.00000000000E+00 -0.64930732323E+04  0.65000000000E+04  0.30000000000E+03 0. -1.
     100001    1    1    2    0    0 -0.15577137762E+04 -0.69608369754E+02 -0.63084096424E+04  0.65000000000E+04  0.15050000000E+03 0. -1.
     100001    1    1    2    0    0  0.15577137762E+04  0.69608369754E+02  0.63084096424E+04  0.65000000000E+04  0.15050000000E+03 0.  1.
</event>
<event>
 4    1  0.5143956E-004  0.6500000E+04  0.7818608E-02  0.7223770E-01
         52   -1    0    0    0    0  0.00000000000E+00  0.00000000000E+00  0.64930732323E+04  0.65000000000E+04  0.30000000000E+03 0.  1.
        -52   -1    0    0    0    0 -0.00000000000E+00 -0.00000000000E+00 -0.64930732323E+04  0.65000000000E+04  0.30000000000E+03 0.  1.
     100001    1    1    2    0    0 -0.25823450273E+03 -0.35724416472E+03  0.64832893888E+04  0.65000000000E+04  0.15050000000E+03 0.  1.
     100001    1    1    2    0    0  0.25823450273E+03  0.35724416472E+03 -0.64832893888E+04  0.65000000000E+04  0.15050000000E+03 0.  1.
</event>
<event>
 4    1  0.5143956E-004  0.6500000E+04  0.7818608E-02  0.7223770E-01
         52   -1    0    0    0    0  0.00000000000E+00  0.00000000000E+00  0.64930732323E+04  0.65000000000E+04  0.30000000000E+03 0.  1.
        -52   -1    0    0    0    0 -0.00000000000E+00 -0.00000000000E+00 -0.64930732323E+04  0.65000000000E+04  0.30000000000E+03 0. -1.
     100001    1    1    2    0    0 -0.95888767421E+03  0.86383603586E+03  0.63688045567E+04  0.65000000000E+04  0.15050000000E+03 0.  1.
     100001    1    1    2    0    0  0.95888767421E+03 -0.86383603586E+03 -0.63688045567E+04  0.65000000000E+04  0.15050000000E+03 0. -1.
</event>
<event>
 4    1  0.5143956E-004  0.6500000E+04  0.7818608E-02  0.7223770E-01
         52   -1    0    0    0    0  0.00000000000E+00  0.00000000000E+00  0.64930732323E+04  0.65000000000E+04  0.30000000000E+03 0. -1.
        -52   -1    0    0    0    0 -0.00000000000E+00 -0.00000000000E+00 -0.64930732323E+04  0.65000000000E+04  0.30000000000E+03 0.  1.
     100001    1    1    2    0    0  0.18405360709E+03  0.29982446235E+04  0.57622914884E+04  0.65000000000E+04  0.15050000000E+03 0. -1.
     100001    1    1    2    0    0 -0.18405360709E+03 -0.29982446235E+04 -0.57622914884E+04  0.65000000000E+04  0.15050000000E+03 0.  1.
</event>
<event>
 4    1  0.5143956E-004  0.6500000E+04  0.7818608E-02  0.7223770E-01
         52   -1    0    0    0    0  0.00000000000E+00  0.00000000000E+00  0.64930732323E+04  0.65000000000E+04  0.30000000000E+03 0. -1.
        -52   -1    0    0    0    0 -0.00000000000E+00 -0.00000000000E+00 -0.64930732323E+04  0.65000000000E+04  0.30000000000E+03 0.  1.
     100001    1    1    2    0    0 -0.69599803511E+03  0.13479089323E+04  0.63187085702E+04  0.65000000000E+04  0.15050000000E+03 0. -1.
     100001    1    1    2    0    0  0.69599803511E+03 -0.13479089323E+04 -0.63187085702E+04  0.65000000000E+04  0.15050000000E+03 0.  1.
</event>
<event>
 4    1  0.5143956E-004  0.6500000E+04  0.7818608E-02  0.7223770E-01
         52   -1    0    0    0    0  0.00000000000E+00  0.00000000000E+00  0.64930732323E+04  0.65000000000E+04  0.30000000000E+03 0. -1.
        -52   -1    0    0    0    0 -0.00000000000E+00 -0.00000000000E+00 -0.64930732323E+04  0.65000000000E+04  0.30000000000E+03 0. -1.
     100001    1    1    2    0    0  0.12522652039E+03  0.27445442359E+03  0.64912512536E+04  0.65000000000E+04  0.15050000000E+03 0. -1.
     100001    1    1    2    0    0 -0.12522652039E+03 -0.27445442359E+03 -0.64912512536E+04  0.65000000000E+04  0.15050000000E+03 0. -1.
</event>
<event>
 4    1  0.5143956E-004  0.6500000E+04  0.7818608E-02  0.7223770E-01
         52   -1    0    0    0    0  0.00000000000E+00  0.00000000000E+00  0.64930732323E+04  0.65000000000E+04  0.30000000000E+03 0. -1.
        -52   -1    0    0    0    0 -0.00000000000E+00 -0.00000000000E+00 -0.64930732323E+04  0.65000000000E+04  0.30000000000E+03 0.  1.
     100001    1    1    2    0    0 -0.50303105245E+03 -0.13921279536E+03 -0.64772624856E+04  0.65000000000E+04  0.15050000000E+03 0.  1.
     100001    1    1    2    0    0  0.50303105245E+03  0.13921279536E+03  0.64772624856E+04  0.65000000000E+04  0.15050000000E+03 0. -1.
</event>
<event>
 4    1  0.5143956E-004  0.6500000E+04  0.7818608E-02  0.7223770E-01
         52   -1    0    0    0    0  0.00000000000E+00  0.00000000000E+00  0.64930732323E+04  0.65000000000E+04  0.30000000000E+03 0. -1.
        -52   -1    0    0    0    0 -0.00000000000E+00 -0.00000000000E+00 -0.64930732323E+04  0.65000000000E+04  0.30000000000E+03 0.  1.
     100001    1    1    2    0    0 -0.28418084241E+04 -0.12372693513E+04  0.57114480811E+04  0.65000000000E+04  0.15050000000E+03 0. -1.
     100001    1    1    2    0    0  0.28418084241E+04  0.12372693513E+04 -0.57114480811E+04  0.65000000000E+04  0.15050000000E+03 0.  1.
</event>
<event>
 4    1  0.5143956E-004  0.6500000E+04  0.7818608E-02  0.7223770E-01
         52   -1    0    0    0    0  0.00000000000E+00  0.00000000000E+00  0.64930732323E+04  0.65000000000E+04  0.30000000000E+03 0.  1.
        -52   -1    0    0    0    0 -0.00000000000E+00 -0.00000000000E+00 -0.64930732323E+04  0.65000000000E+04  0.30000000000E+03 0. -1.
     100001    1    1    2    0    0 -0.49512153544E+03 -0.14148020376E+04  0.63230166542E+04  0.65000000000E+04  0.15050000000E+03 0.  1.
     100001    1    1    2    0    0  0.49512153544E+03  0.14148020376E+04 -0.63230166542E+04  0.65000000000E+04  0.15050000000E+03 0. -1.
</event>
<event>
 4    1  0.5143956E-004  0.6500000E+04  0.7818608E-02  0.7223770E-01
         52   -1    0    0    0    0  0.00000000000E+00  0.00000000000E+00  0.64930732323E+04  0.65000000000E+04  0.30000000000E+03 0.  1.
        -52   -1    0    0    0    0 -0.00000000000E+00 -0.00000000000E+00 -0.64930732323E+04  0.65000000000E+04  0.30000000000E+03 0. -1.
     100001    1    1    2    0    0 -0.68963730792E+03 -0.37566180048E+04 -0.52573349997E+04  0.65000000000E+04  0.15050000000E+03 0. -1.
     100001    1    1    2    0    0  0.68963730792E+03  0.37566180048E+04  0.52573349997E+04  0.65000000000E+04  0.15050000000E+03 0.  1.
</event>
<event>
 4    1  0.5143956E-004  0.6500000E+04  0.7818608E-02  0.7223770E-01
         52   -1    0    0    0    0  0.00000000000E+00  0.00000000000E+00  0.64930732323E+04  0.65000000000E+04  0.30000000000E+03 0. -1.
        -52   -1    0    0    0    0 -0.00000000000E+00 -0.00000000000E+00 -0.64930732323E+04  0.65000000000E+04  0.30000000000E+03 0. -1.
     100001    1    1    2    0    0 -0.63233310325E+04 -0.96796293547E+03 -0.11427520110E+04  0.65000000000E+04  0.15050000000E+03 0. -1.
     100001    1    1    2    0    0  0.63233310325E+04  0.96796293547E+03  0.11427520110E+04  0.65000000000E+04  0.15050000000E+03 0. -1.
</event>
<event>
 4    1  0.5143956E-004  0.6500000E+04  0.7818608E-02  0.7223770E-01
         52   -1    0    0    0    0  0.00000000000E+00  0.00000000000E+00  0.64930732323E+04  0.65000000000E+04  0.30000000000E+03 0. -1.
        -52   -1    0    0    0    0 -0.00000000000E+00 -0.00000000000E+00 -0.64930732323E+04  0.65000000000E+04  0.30000000000E+03 0.  1.
     100001    1    1    2    0    0  0.45904340304E+02  0.29857679305E+03 -0.64912321203E+04  0.65000000000E+04  0.15050000000E+03 0.  1.
     100001    1    1    2    0    0 -0.45904340304E+02 -0.29857679305E+03  0.64912321203E+04  0.65000000000E+04  0.15050000000E+03 0. -1.
</event>
<event>
 4    1  0.5143956E-004  0.6500000E+04  0.7818608E-02  0.7223770E-01
         52   -1    0    0    0    0  0.00000000000E+00  0.00000000000E+00  0.64930732323E+04  0.65000000000E+04  0.30000000000E+03 0.  1.
        -52   -1    0    0    0    0 -0.00000000000E+00 -0.00000000000E+00 -0.64930732323E+04  0.65000000000E+04  0.30000000000E+03 0. -1.
     100001    1    1    2    0    0  0.53232816680E+03 -0.14243608939E+04 -0.63178455597E+04  0.65000000000E+04  0.15050000000E+03 0. -1.
     100001    1    1    2    0    0 -0.53232816680E+03  0.14243608939E+04  0.63178455597E+04  0.65000000000E+04  0.15050000000E+03 0.  1.
</event>
<event>
 4    1  0.5143956E-004  0.6500000E+04  0.7818608E-02  0.7223770E-01
         52   -1    0    0    0    0  0.00000000000E+00  0.00000000000E+00  0.64930732323E+04  0.65000000000E+04  0.30000000000E+03 0.  1.
        -52   -1    0    0    0    0 -0.00000000000E+00 -0.00000000000E+00 -0.64930732323E+04  0.65000000000E+04  0.30000000000E+03 0. -1.
     100001    1    1    2    0    0 -0.37612031396E+03 -0.22850970762E+04 -0.60715907810E+04  0.65000000000E+04  0.15050000000E+03 0. -1.
     100001    1    1    2    0    0  0.37612031396E+03  0.22850970762E+04  0.60715907810E+04  0.65000000000E+04  0.15050000000E+03 0.  1.
</event>
<event>
 4    1  0.5143956E-004  0.6500000E+04  0.7818608E-02  0.7223770E-01
         52   -1    0    0    0    0  0.00000000000E+00  0.00000000000E+00  0.64930732323E+04  0.65000000000E+04  0.30000000000E+03 0. -1.
        -52   -1    0    0    0    0 -0.00000000000E+00 -0.00000000000E+00 -0.64930732323E+04  0.65000000000E+04  0.30000000000E+03 0.  1.
     100001    1    1    2    0    0  0.28936244993E+04 -0.21418763933E+04  0.54098662205E+04  0.65000000000E+04  0.15050000000E+03 0. -1.
     100001    1    1    2    0    0 -0.28936244993E+04  0.21418763933E+04 -0.54098662205E+04  0.65000000000E+04  0.15050000000E+03 0.  1.
</event>
<event>
 4    1  0.5143956E-004  0.6500000E+04  0.7818608E-02  0.7223770E-01
         52   -1    0    0    0    0  0.00000000000E+00  0.00000000000E+00  0.64930732323E+04  0.65000000000E+04  0.30000000000E+03 0. -1.
        -52   -1    0    0    0    0 -0.00000000000E+00 -0.00000000000E+00 -0.64930732323E+04  0.65000000000E+04  0.30000000000E+03 0.  1.
     100001    1    1    2    0    0 -0.46969603320E+04 -0.11283204957E+04 -0.43465855851E+04  0.65000000000E+04  0.15050000000E+03 0.  1.
     100001    1    1    2    0    0  0.46969603320E+04  0.11283204957E+04  0.43465855851E+04  0.65000000000E+04  0.15050000000E+03 0. -1.
</event>
<event>
 4    1  0.5143956E-004  0.6500000E+04  0.7818608E-02  0.7223770E-01
         52   -1    0    0    0    0  0.00000000000E+00  0.00000000000E+00  0.64930732323E+04  0.65000000000E+04  0.30000000000E+03 0. -1.
        -52   -1    0    0    0    0 -0.00000000000E+00 -0.00000000000E+00 -0.64930732323E+04  0.65000000000E+04  0.30000000000E+03 0.  1.
     100001    1    1    2    0    0 -0.28359616232E+04  0.44149080281E+03  0.58300735238E+04  0.65000000000E+04  0.15050000000E+03 0. -1.
     100001    1    1    2    0    0  0.28359616232E+04 -0.44149080281E+03 -0.58300735238E+04  0.65000000000E+04  0.15050000000E+03 0.  1.
</event>
<event>
 4    1  0.5143956E-004  0.6500000E+04  0.7818608E-02  0.7223770E-01
         52   -1    0    0    0    0  0.00000000000E+00  0.00000000000E+00  0.64930732323E+04  0.65000000000E+04  0.30000000000E+03 0. -1.
        -52   -1    0    0    0    0 -0.00000000000E+00 -0.00000000000E+00 -0.64930732323E+04  0.65000000000E+04  0.30000000000E+03 0.  1.
     100001    1    1    2    0    0  0.31194145384E+04  0.39975344359E+04  0.40640276969E+04  0.65000000000E+04  0.15050000000E+03 0. -1.
     100001    1    1    2    0    0 -0.31194145384E+04 -0.39975344359E+04 -0.40640276969E+04  0.65000000000E+04  0.15050000000E+03 0.  1.
</event>
<event>
 4    1  0.5143956E-004  0.6500000E+04  0.7818608E-02  0.7223770E-01
         52   -1    0    0    0    0  0.00000000000E+00  0.00000000000E+00  0.64930732323E+04  0.65000000000E+04  0.30000000000E+03 0.  1.
        -52   -1    0    0    0    0 -0.00000000000E+00 -0.00000000000E+00 -0.64930732323E+04  0.65000000000E+04  0.30000000000E+03 0. -1.
     100001    1    1    2    0    0 -0.28044953097E+04  0.13066341621E+04 -0.57144433652E+04  0.65000000000E+04  0.15050000000E+03 0. -1.
     100001    1    1    2    0    0  0.28044953097E+04 -0.13066341621E+04  0.57144433652E+04  0.65000000000E+04  0.15050000000E+03 0.  1.
</event>
<event>
 4    1  0.5143956E-004  0.6500000E+04  0.7818608E-02  0.7223770E-01
         52   -1    0    0    0    0  0.00000000000E+00  0.00000000000E+00  0.64930732323E+04  0.65000000000E+04  0.30000000000E+03 0.  1.
        -52   -1    0    0    0    0 -0.00000000000E+00 -0.00000000000E+00 -0.64930732323E+04  0.65000000000E+04  0.30000000000E+03 0. -1.
     100001    1    1    2    0    0  0.30087444091E+04 -0.29209452811E+04  0.49641600997E+04  0.65000000000E+04  0.15050000000E+03 0.  1.
     100001    1    1    2    0    0 -0.30087444091E+04  0.29209452811E+04 -0.49641600997E+04  0.65000000000E+04  0.15050000000E+03 0. -1.
</event>
<event>
 4    1  0.5143956E-004  0.6500000E+04  0.7818608E-02  0.7223770E-01
         52   -1    0    0    0    0  0.00000000000E+00  0.00000000000E+00  0.64930732323E+04  0.65000000000E+04  0.30000000000E+03 0.  1.
        -52   -1    0    0    0    0 -0.00000000000E+00 -0.00000000000E+00 -0.64930732323E+04  0.65000000000E+04  0.30000000000E+03 0. -1.
     100001    1    1    2    0    0  0.16823209176E+04 -0.42264110505E+03 -0.62624692076E+04  0.65000000000E+04  0.15050000000E+03 0. -1.
     100001    1    1    2    0    0 -0.16823209176E+04  0.42264110505E+03  0.62624692076E+04  0.65000000000E+04  0.15050000000E+03 0.  1.
</event>
<event>
 4    1  0.5143956E-004  0.6500000E+04  0.7818608E-02  0.7223770E-01
         52   -1    0    0    0    0  0.00000000000E+00  0.00000000000E+00  0.64930732323E+04  0.65000000000E+04  0.30000000000E+03 0. -1.
        -52   -1    0    0    0    0 -0.00000000000E+00 -0.00000000000E+00 -0.64930732323E+04  0.65000000000E+04  0.30000000000E+03 0.  1.
     100001    1    1    2    0    0 -0.35199277593E+03 -0.98520851418E+02 -0.64879692106E+04  0.65000000000E+04  0.15050000000E+03 0.  1.
     100001    1    1    2    0    0  0.35199277593E+03  0.98520851418E+02  0.64879692106E+04  0.65000000000E+04  0.15050000000E+03 0. -1.
</event>
<event>
 4    1  0.5143956E-004  0.6500000E+04  0.7818608E-02  0.7223770E-01
         52   -1    0    0    0    0  0.00000000000E+00  0.00000000000E+00  0.64930732323E+04  0.65000000000E+04  0.30000000000E+03 0.  1.
        -52   -1    0    0    0    0 -0.00000000000E+00 -0.00000000000E+00 -0.64930732323E+04  0.65000000000E+04  0.30000000000E+03 0. -1.
     100001    1    1    2    0    0 -0.80208080013E+03  0.40715961549E+03  0.64357002096E+04  0.65000000000E+04  0.15050000000E+03 0.  1.
     100001    1    1    2    0    0  0.80208080013E+03 -0.40715961549E+03 -0.64357002096E+04  0.65000000000E+04  0.15050000000E+03 0. -1.
</event>
<event>
 4    1  0.5143956E-004  0.6500000E+04  0.7818608E-02  0.7223770E-01
         52   -1    0    0    0    0  0.00000000000E+00  0.00000000000E+00  0.64930732323E+04  0.65000000000E+04  0.30000000000E+03 0. -1.
        -52   -1    0    0    0    0 -0.00000000000E+00 -0.00000000000E+00 -0.64930732323E+04  0.65000000000E+04  0.30000000000E+03 0. -1.
     100001    1    1    2    0    0  0.87965302152E+02 -0.33342742240E+03 -0.64891014794E+04  0.65000000000E+04  0.15050000000E+03 0. -1.
     100001    1    1    2    0    0 -0.87965302152E+02  0.33342742240E+03  0.64891014794E+04  0.65000000000E+04  0.15050000000E+03 0. -1.
</event>
<event>
 4    1  0.5143956E-004  0.6500000E+04  0.7818608E-02  0.7223770E-01
         52   -1    0    0    0    0  0.00000000000E+00  0.00000000000E+00  0.64930732323E+04  0.65000000000E+04  0.30000000000E+03 0. -1.
        -52   -1    0    0    0    0 -0.00000000000E+00 -0.00000000000E+00 -0.64930732323E+04  0.65000000000E+04  0.30000000000E+03 0.  1.
     100001    1    1    2    0    0  0.24006415895E+04  0.21133233982E+04 -0.56566893077E+04  0.65000000000E+04  0.15050000000E+03 0.  1.
     100001    1    1    2    0    0 -0.24006415895E+04 -0.21133233982E+04  0.56566893077E+04  0.65000000000E+04  0.15050000000E+03 0. -1.
</event>
<event>
 4    1  0.5143956E-004  0.6500000E+04  0.7818608E-02  0.7223770E-01
         52   -1    0    0    0    0  0.00000000000E+00  0.00000000000E+00  0.64930732323E+04  0.65000000000E+04  0.30000000000E+03 0. -1.
        -52   -1    0    0    0    0 -0.00000000000E+00 -0.00000000000E+00 -0.64930732323E+04  0.65000000000E+04  0.30000000000E+03 0.  1.
     100001    1    1    2    0    0  0.22774330079E+03  0.10660284016E+04  0.64061740677E+04  0.65000000000E+04  0.15050000000E+03 0. -1.
     100001    1    1    2    0    0 -0.22774330079E+03 -0.10660284016E+04 -0.64061740677E+04  0.65000000000E+04  0.15050000000E+03 0.  1.
</event>
<event>
 4    1  0.5143956E-004  0.6500000E+04  0.7818608E-02  0.7223770E-01
         52   -1    0    0    0    0  0.00000000000E+00  0.00000000000E+00  0.64930732323E+04  0.65000000000E+04  0.30000000000E+03 0. -1.
        -52   -1    0    0    0    0 -0.00000000000E+00 -0.00000000000E+00 -0.64930732323E+04  0.65000000000E+04  0.30000000000E+03 0.  1.
     100001    1    1    2    0    0 -0.45394246677E+04 -0.83930187707E+03  0.45734610302E+04  0.65000000000E+04  0.15050000000E+03 0. -1.
     100001    1    1    2    0    0  0.45394246677E+04  0.83930187707E+03 -0.45734610302E+04  0.65000000000E+04  0.15050000000E+03 0.  1.
</event>
<event>
 4    1  0.5143956E-004  0.6500000E+04  0.7818608E-02  0.7223770E-01
         52   -1    0    0    0    0  0.00000000000E+00  0.00000000000E+00  0.64930732323E+04  0.65000000000E+04  0.30000000000E+03 0. -1.
        -52   -1    0    0    0    0 -0.00000000000E+00 -0.00000000000E+00 -0.64930732323E+04  0.65000000000E+04  0.30000000000E+03 0.  1.
     100001    1    1    2    0    0  0.45818593517E+03  0.41055895406E+03 -0.64690692332E+04  0.65000000000E+04  0.15050000000E+03 0.  1.
     100001    1    1    2    0    0 -0.45818593517E+03 -0.41055895406E+03  0.64690692332E+04  0.65000000000E+04  0.15050000000E+03 0. -1.
</event>
<event>
 4    1  0.5143956E-004  0.6500000E+04  0.7818608E-02  0.7223770E-01
         52   -1    0    0    0    0  0.00000000000E+00  0.00000000000E+00  0.64930732323E+04  0.65000000000E+04  0.30000000000E+03 0. -1.
        -52   -1    0    0    0    0 -0.00000000000E+00 -0.00000000000E+00 -0.64930732323E+04  0.65000000000E+04  0.30000000000E+03 0.  1.
     100001    1    1    2    0    0 -0.10884985154E+04 -0.17864280424E+04 -0.61523325317E+04  0.65000000000E+04  0.15050000000E+03 0.  1.
     100001    1    1    2    0    0  0.10884985154E+04  0.17864280424E+04  0.61523325317E+04  0.65000000000E+04  0.15050000000E+03 0. -1.
</event>
<event>
 4    1  0.5143956E-004  0.6500000E+04  0.7818608E-02  0.7223770E-01
         52   -1    0    0    0    0  0.00000000000E+00  0.00000000000E+00  0.64930732323E+04  0.65000000000E+04  0.30000000000E+03 0.  1.
        -52   -1    0    0    0    0 -0.00000000000E+00 -0.00000000000E+00 -0.64930732323E+04  0.65000000000E+04  0.30000000000E+03 0. -1.
     100001    1    1    2    0    0  0.14347730946E+04 -0.14149656171E+04  0.61779161713E+04  0.65000000000E+04  0.15050000000E+03 0.  1.
     100001    1    1    2    0    0 -0.14347730946E+04  0.14149656171E+04 -0.61779161713E+04  0.65000000000E+04  0.15050000000E+03 0. -1.
</event>
<event>
 4    1  0.5143956E-004  0.6500000E+04  0.7818608E-02  0.7223770E-01
         52   -1    0    0    0    0  0.00000000000E+00  0.00000000000E+00  0.64930732323E+04  0.65000000000E+04  0.30000000000E+03 0. -1.
        -52   -1    0    0    0    0 -0.00000000000E+00 -0.00000000000E+00 -0.64930732323E+04  0.65000000000E+04  0.30000000000E+03 0.  1.
     100001    1    1    2    0    0 -0.43548772229E+04  0.23394740395E+04 -0.42177310657E+04  0.65000000000E+04  0.15050000000E+03 0.  1.
     100001    1    1    2    0    0  0.43548772229E+04 -0.23394740395E+04  0.42177310657E+04  0.65000000000E+04  0.15050000000E+03 0. -1.
</event>
<event>
 4    1  0.5143956E-004  0.6500000E+04  0.7818608E-02  0.7223770E-01
         52   -1    0    0    0    0  0.00000000000E+00  0.00000000000E+00  0.64930732323E+04  0.65000000000E+04  0.30000000000E+03 0.  1.
        -52   -1    0    0    0    0 -0.00000000000E+00 -0.00000000000E+00 -0.64930732323E+04  0.65000000000E+04  0.30000000000E+03 0.  1.
     100001    1    1    2    0    0 -0.21509400675E+03 -0.79147839051E+02  0.64942143434E+04  0.65000000000E+04  0.15050000000E+03 0.  1.
     100001    1    1    2    0    0  0.21509400675E+03  0.79147839051E+02 -0.64942143434E+04  0.65000000000E+04  0.15050000000E+03 0.  1.
</event>
<event>
 4    1  0.5143956E-004  0.6500000E+04  0.7818608E-02  0.7223770E-01
         52   -1    0    0    0    0  0.00000000000E+00  0.00000000000E+00  0.64930732323E+04  0.65000000000E+04  0.30000000000E+03 0. -1.
        -52   -1    0    0    0    0 -0.00000000000E+00 -0.00000000000E+00 -0.64930732323E+04  0.65000000000E+04  0.30000000000E+03 0. -1.
     100001    1    1    2    0    0  0.40171824036E+03  0.66984830602E+02 -0.64854826527E+04  0.65000000000E+04  0.15050000000E+03 0. -1.
     100001    1    1    2    0    0 -0.40171824036E+03 -0.66984830602E+02  0.64854826527E+04  0.65000000000E+04  0.15050000000E+03 0. -1.
</event>
<event>
 4    1  0.5143956E-004  0.6500000E+04  0.7818608E-02  0.7223770E-01
         52   -1    0    0    0    0  0.00000000000E+00  0.00000000000E+00  0.64930732323E+04  0.65000000000E+04  0.30000000000E+03 0. -1.
        -52   -1    0    0    0    0 -0.00000000000E+00 -0.00000000000E+00 -0.64930732323E+04  0.65000000000E+04  0.30000000000E+03 0.  1.
     100001    1    1    2    0    0 -0.51221066207E+03  0.62596273838E+03  0.64477252297E+04  0.65000000000E+04  0.15050000000E+03 0. -1.
     100001    1    1    2    0    0  0.51221066207E+03 -0.62596273838E+03 -0.64477252297E+04  0.65000000000E+04  0.15050000000E+03 0.  1.
</event>
<event>
 4    1  0.5143956E-004  0.6500000E+04  0.7818608E-02  0.7223770E-01
         52   -1    0    0    0    0  0.00000000000E+00  0.00000000000E+00  0.64930732323E+04  0.65000000000E+04  0.30000000000E+03 0.  1.
        -52   -1    0    0    0    0 -0.00000000000E+00 -0.00000000000E+00 -0.64930732323E+04  0.65000000000E+04  0.30000000000E+03 0. -1.
     100001    1    1    2    0    0  0.35865491534E+04  0.21444303256E+04 -0.49764880688E+04  0.65000000000E+04  0.15050000000E+03 0. -1.
     100001    1    1    2    0    0 -0.35865491534E+04 -0.21444303256E+04  0.49764880688E+04  0.65000000000E+04  0.15050000000E+03 0.  1.
</event>
<event>
 4    1  0.5143956E-004  0.6500000E+04  0.7818608E-02  0.7223770E-01
         52   -1    0    0    0    0  0.00000000000E+00  0.00000000000E+00  0.64930732323E+04  0.65000000000E+04  0.30000000000E+03 0. -1.
        -52   -1    0    0    0    0 -0.00000000000E+00 -0.00000000000E+00 -0.64930732323E+04  0.65000000000E+04  0.30000000000E+03 0. -1.
     100001    1    1    2    0    0 -0.25806842813E+03 -0.22038765447E+03 -0.64893897801E+04  0.65000000000E+04  0.15050000000E+03 0. -1.
     100001    1    1    2    0    0  0.25806842813E+03  0.22038765447E+03  0.64893897801E+04  0.65000000000E+04  0.15050000000E+03 0. -1.
</event>
<event>
 4    1  0.5143956E-004  0.6500000E+04  0.7818608E-02  0.7223770E-01
         52   -1    0    0    0    0  0.00000000000E+00  0.00000000000E+00  0.64930732323E+04  0.65000000000E+04  0.30000000000E+03 0. -1.
        -52   -1    0    0    0    0 -0.00000000000E+00 -0.00000000000E+00 -0.64930732323E+04  0.65000000000E+04  0.30000000000E+03 0.  1.
     100001    1    1    2    0    0 -0.31646538079E+03 -0.95869178757E+03 -0.64193542876E+04  0.65000000000E+04  0.15050000000E+03 0.  1.
     100001    1    1    2    0    0  0.31646538079E+03  0.95869178757E+03  0.64193542876E+04  0.65000000000E+04  0.15050000000E+03 0. -1.
</event>
<event>
 4    1  0.5143956E-004  0.6500000E+04  0.7818608E-02  0.7223770E-01
         52   -1    0    0    0    0  0.00000000000E+00  0.00000000000E+00  0.64930732323E+04  0.65000000000E+04  0.30000000000E+03 0. -1.
        -52   -1    0    0    0    0 -0.00000000000E+00 -0.00000000000E+00 -0.64930732323E+04  0.65000000000E+04  0.30000000000E+03 0.  1.
     100001    1    1    2    0    0 -0.46889582648E+04  0.37218587872E+04 -0.25276050539E+04  0.65000000000E+04  0.15050000000E+03 0.  1.
     100001    1    1    2    0    0  0.46889582648E+04 -0.37218587872E+04  0.25276050539E+04  0.65000000000E+04  0.15050000000E+03 0. -1.
</event>
<event>
 4    1  0.5143956E-004  0.6500000E+04  0.7818608E-02  0.7223770E-01
         52   -1    0    0    0    0  0.00000000000E+00  0.00000000000E+00  0.64930732323E+04  0.65000000000E+04  0.30000000000E+03 0. -1.
        -52   -1    0    0    0    0 -0.00000000000E+00 -0.00000000000E+00 -0.64930732323E+04  0.65000000000E+04  0.30000000000E+03 0.  1.
     100001    1    1    2    0    0 -0.26886865800E+04  0.48048100969E+04  0.34513930748E+04  0.65000000000E+04  0.15050000000E+03 0. -1.
     100001    1    1    2    0    0  0.26886865800E+04 -0.48048100969E+04 -0.34513930748E+04  0.65000000000E+04  0.15050000000E+03 0.  1.
</event>
<event>
 4    1  0.5143956E-004  0.6500000E+04  0.7818608E-02  0.7223770E-01
         52   -1    0    0    0    0  0.00000000000E+00  0.00000000000E+00  0.64930732323E+04  0.65000000000E+04  0.30000000000E+03 0.  1.
        -52   -1    0    0    0    0 -0.00000000000E+00 -0.00000000000E+00 -0.64930732323E+04  0.65000000000E+04  0.30000000000E+03 0.  1.
     100001    1    1    2    0    0 -0.79673003632E+03 -0.42147938012E+03 -0.64354429631E+04  0.65000000000E+04  0.15050000000E+03 0.  1.
     100001    1    1    2    0    0  0.79673003632E+03  0.42147938012E+03  0.64354429631E+04  0.65000000000E+04  0.15050000000E+03 0.  1.
</event>
<event>
 4    1  0.5143956E-004  0.6500000E+04  0.7818608E-02  0.7223770E-01
         52   -1    0    0    0    0  0.00000000000E+00  0.00000000000E+00  0.64930732323E+04  0.65000000000E+04  0.30000000000E+03 0.  1.
        -52   -1    0    0    0    0 -0.00000000000E+00 -0.00000000000E+00 -0.64930732323E+04  0.65000000000E+04  0.30000000000E+03 0. -1.
     100001    1    1    2    0    0  0.37877564479E+04  0.47468845364E+03  0.52587947015E+04  0.65000000000E+04  0.15050000000E+03 0.  1.
     100001    1    1    2    0    0 -0.37877564479E+04 -0.47468845364E+03 -0.52587947015E+04  0.65000000000E+04  0.15050000000E+03 0. -1.
</event>
<event>
 4    1  0.5143956E-004  0.6500000E+04  0.7818608E-02  0.7223770E-01
         52   -1    0    0    0    0  0.00000000000E+00  0.00000000000E+00  0.64930732323E+04  0.65000000000E+04  0.30000000000E+03 0.  1.
        -52   -1    0    0    0    0 -0.00000000000E+00 -0.00000000000E+00 -0.64930732323E+04  0.65000000000E+04  0.30000000000E+03 0. -1.
     100001    1    1    2    0    0 -0.46329842552E+03  0.94142327681E+03  0.64129888923E+04  0.65000000000E+04  0.15050000000E+03 0.  1.
     100001    1    1    2    0    0  0.46329842552E+03 -0.94142327681E+03 -0.64129888923E+04  0.65000000000E+04  0.15050000000E+03 0. -1.
</event>
<event>
 4    1  0.5143956E-004  0.6500000E+04  0.7818608E-02  0.7223770E-01
         52   -1    0    0    0    0  0.00000000000E+00  0.00000000000E+00  0.64930732323E+04  0.65000000000E+04  0.30000000000E+03 0.  1.
        -52   -1    0    0    0    0 -0.00000000000E+00 -0.00000000000E+00 -0.64930732323E+04  0.65000000000E+04  0.30000000000E+03 0. -1.
     100001    1    1    2    0    0 -0.40243764159E+03  0.16286805596E+03  0.64837387124E+04  0.65000000000E+04  0.15050000000E+03 0.  1.
     100001    1    1    2    0    0  0.40243764159E+03 -0.16286805596E+03 -0.64837387124E+04  0.65000000000E+04  0.15050000000E+03 0. -1.
</event>
<event>
 4    1  0.5143956E-004  0.6500000E+04  0.7818608E-02  0.7223770E-01
         52   -1    0    0    0    0  0.00000000000E+00  0.00000000000E+00  0.64930732323E+04  0.65000000000E+04  0.30000000000E+03 0. -1.
        -52   -1    0    0    0    0 -0.00000000000E+00 -0.00000000000E+00 -0.64930732323E+04  0.65000000000E+04  0.30000000000E+03 0.  1.
     100001    1    1    2    0    0  0.21213560490E+04 -0.58287679888E+03  0.61145280195E+04  0.65000000000E+04  0.15050000000E+03 0. -1.
     100001    1    1    2    0    0 -0.21213560490E+04  0.58287679888E+03 -0.61145280195E+04  0.65000000000E+04  0.15050000000E+03 0.  1.
</event>
<event>
 4    1  0.5143956E-004  0.6500000E+04  0.7818608E-02  0.7223770E-01
         52   -1    0    0    0    0  0.00000000000E+00  0.00000000000E+00  0.64930732323E+04  0.65000000000E+04  0.30000000000E+03 0.  1.
        -52   -1    0    0    0    0 -0.00000000000E+00 -0.00000000000E+00 -0.64930732323E+04  0.65000000000E+04  0.30000000000E+03 0. -1.
     100001    1    1    2    0    0 -0.67826201780E+03  0.70406569916E+03  0.64242977730E+04  0.65000000000E+04  0.15050000000E+03 0.  1.
     100001    1    1    2    0    0  0.67826201780E+03 -0.70406569916E+03 -0.64242977730E+04  0.65000000000E+04  0.15050000000E+03 0. -1.
</event>
<event>
 4    1  0.5143956E-004  0.6500000E+04  0.7818608E-02  0.7223770E-01
         52   -1    0    0    0    0  0.00000000000E+00  0.00000000000E+00  0.64930732323E+04  0.65000000000E+04  0.30000000000E+03 0. -1.
        -52   -1    0    0    0    0 -0.00000000000E+00 -0.00000000000E+00 -0.64930732323E+04  0.65000000000E+04  0.30000000000E+03 0.  1.
     100001    1    1    2    0    0 -0.16100202477E+03  0.67330067103E+03  0.64612765228E+04  0.65000000000E+04  0.15050000000E+03 0. -1.
     100001    1    1    2    0    0  0.16100202477E+03 -0.67330067103E+03 -0.64612765228E+04  0.65000000000E+04  0.15050000000E+03 0.  1.
</event>
<event>
 4    1  0.5143956E-004  0.6500000E+04  0.7818608E-02  0.7223770E-01
         52   -1    0    0    0    0  0.00000000000E+00  0.00000000000E+00  0.64930732323E+04  0.65000000000E+04  0.30000000000E+03 0. -1.
        -52   -1    0    0    0    0 -0.00000000000E+00 -0.00000000000E+00 -0.64930732323E+04  0.65000000000E+04  0.30000000000E+03 0.  1.
     100001    1    1    2    0    0  0.21078053527E+04 -0.27679912103E+04 -0.54884178963E+04  0.65000000000E+04  0.15050000000E+03 0.  1.
     100001    1    1    2    0    0 -0.21078053527E+04  0.27679912103E+04  0.54884178963E+04  0.65000000000E+04  0.15050000000E+03 0. -1.
</event>
<event>
 4    1  0.5143956E-004  0.6500000E+04  0.7818608E-02  0.7223770E-01
         52   -1    0    0    0    0  0.00000000000E+00  0.00000000000E+00  0.64930732323E+04  0.65000000000E+04  0.30000000000E+03 0. -1.
        -52   -1    0    0    0    0 -0.00000000000E+00 -0.00000000000E+00 -0.64930732323E+04  0.65000000000E+04  0.30000000000E+03 0.  1.
     100001    1    1    2    0    0 -0.11266316766E+04  0.80081489733E+03  0.63495469378E+04  0.65000000000E+04  0.15050000000E+03 0. -1.
     100001    1    1    2    0    0  0.11266316766E+04 -0.80081489733E+03 -0.63495469378E+04  0.65000000000E+04  0.15050000000E+03 0.  1.
</event>
<event>
 4    1  0.5143956E-004  0.6500000E+04  0.7818608E-02  0.7223770E-01
         52   -1    0    0    0    0  0.00000000000E+00  0.00000000000E+00  0.64930732323E+04  0.65000000000E+04  0.30000000000E+03 0. -1.
        -52   -1    0    0    0    0 -0.00000000000E+00 -0.00000000000E+00 -0.64930732323E+04  0.65000000000E+04  0.30000000000E+03 0. -1.
     100001    1    1    2    0    0 -0.58138623579E+02 -0.22683518212E+03  0.64940369148E+04  0.65000000000E+04  0.15050000000E+03 0. -1.
     100001    1    1    2    0    0  0.58138623579E+02  0.22683518212E+03 -0.64940369148E+04  0.65000000000E+04  0.15050000000E+03 0. -1.
</event>
<event>
 4    1  0.5143956E-004  0.6500000E+04  0.7818608E-02  0.7223770E-01
         52   -1    0    0    0    0  0.00000000000E+00  0.00000000000E+00  0.64930732323E+04  0.65000000000E+04  0.30000000000E+03 0.  1.
        -52   -1    0    0    0    0 -0.00000000000E+00 -0.00000000000E+00 -0.64930732323E+04  0.65000000000E+04  0.30000000000E+03 0. -1.
     100001    1    1    2    0    0 -0.49261072053E+03 -0.62170851776E+03  0.64496637856E+04  0.65000000000E+04  0.15050000000E+03 0.  1.
     100001    1    1    2    0    0  0.49261072053E+03  0.62170851776E+03 -0.64496637856E+04  0.65000000000E+04  0.15050000000E+03 0. -1.
</event>
<event>
 4    1  0.5143956E-004  0.6500000E+04  0.7818608E-02  0.7223770E-01
         52   -1    0    0    0    0  0.00000000000E+00  0.00000000000E+00  0.64930732323E+04  0.65000000000E+04  0.30000000000E+03 0.  1.
        -52   -1    0    0    0    0 -0.00000000000E+00 -0.00000000000E+00 -0.64930732323E+04  0.65000000000E+04  0.30000000000E+03 0. -1.
     100001    1    1    2    0    0  0.30556035742E+04  0.48906832596E+03  0.57141446184E+04  0.65000000000E+04  0.15050000000E+03 0.  1.
     100001    1    1    2    0    0 -0.30556035742E+04 -0.48906832596E+03 -0.57141446184E+04  0.65000000000E+04  0.15050000000E+03 0. -1.
</event>
<event>
 4    1  0.5143956E-004  0.6500000E+04  0.7818608E-02  0.7223770E-01
         52   -1    0    0    0    0  0.00000000000E+00  0.00000000000E+00  0.64930732323E+04  0.65000000000E+04  0.30000000000E+03 0.  1.
        -52   -1    0    0    0    0 -0.00000000000E+00 -0.00000000000E+00 -0.64930732323E+04  0.65000000000E+04  0.30000000000E+03 0. -1.
     100001    1    1    2    0    0  0.17590329031E+04  0.29262121983E+04 -0.55290537315E+04  0.65000000000E+04  0.15050000000E+03 0. -1.
     100001    1    1    2    0    0 -0.17590329031E+04 -0.29262121983E+04  0.55290537315E+04  0.65000000000E+04  0.15050000000E+03 0.  1.
</event>
<event>
 4    1  0.5143956E-004  0.6500000E+04  0.7818608E-02  0.7223770E-01
         52   -1    0    0    0    0  0.00000000000E+00  0.00000000000E+00  0.64930732323E+04  0.65000000000E+04  0.30000000000E+03 0.  1.
        -52   -1    0    0    0    0 -0.00000000000E+00 -0.00000000000E+00 -0.64930732323E+04  0.65000000000E+04  0.30000000000E+03 0. -1.
     100001    1    1    2    0    0  0.16644774611E+04 -0.21305003091E+04 -0.59091313206E+04  0.65000000000E+04  0.15050000000E+03 0. -1.
     100001    1    1    2    0    0 -0.16644774611E+04  0.21305003091E+04  0.59091313206E+04  0.65000000000E+04  0.15050000000E+03 0.  1.
</event>
<event>
 4    1  0.5143956E-004  0.6500000E+04  0.7818608E-02  0.7223770E-01
         52   -1    0    0    0    0  0.00000000000E+00  0.00000000000E+00  0.64930732323E+04  0.65000000000E+04  0.30000000000E+03 0.  1.
        -52   -1    0    0    0    0 -0.00000000000E+00 -0.00000000000E+00 -0.64930732323E+04  0.65000000000E+04  0.30000000000E+03 0. -1.
     100001    1    1    2    0    0 -0.47533659509E+03  0.70039462238E+03  0.64428916058E+04  0.65000000000E+04  0.15050000000E+03 0.  1.
     100001    1    1    2    0    0  0.47533659509E+03 -0.70039462238E+03 -0.64428916058E+04  0.65000000000E+04  0.15050000000E+03 0. -1.
</event>
<event>
 4    1  0.5143956E-004  0.6500000E+04  0.7818608E-02  0.7223770E-01
         52   -1    0    0    0    0  0.00000000000E+00  0.00000000000E+00  0.64930732323E+04  0.65000000000E+04  0.30000000000E+03 0. -1.
        -52   -1    0    0    0    0 -0.00000000000E+00 -0.00000000000E+00 -0.64930732323E+04  0.65000000000E+04  0.30000000000E+03 0. -1.
     100001    1    1    2    0    0 -0.33609785757E+02  0.26201907016E+03  0.64928858098E+04  0.65000000000E+04  0.15050000000E+03 0. -1.
     100001    1    1    2    0    0  0.33609785757E+02 -0.26201907016E+03 -0.64928858098E+04  0.65000000000E+04  0.15050000000E+03 0. -1.
</event>
<event>
 4    1  0.5143956E-004  0.6500000E+04  0.7818608E-02  0.7223770E-01
         52   -1    0    0    0    0  0.00000000000E+00  0.00000000000E+00  0.64930732323E+04  0.65000000000E+04  0.30000000000E+03 0. -1.
        -52   -1    0    0    0    0 -0.00000000000E+00 -0.00000000000E+00 -0.64930732323E+04  0.65000000000E+04  0.30000000000E+03 0. -1.
     100001    1    1    2    0    0  0.18424567788E+03  0.95839521657E+02  0.64949378801E+04  0.65000000000E+04  0.15050000000E+03 0. -1.
     100001    1    1    2    0    0 -0.18424567788E+03 -0.95839521657E+02 -0.64949378801E+04  0.65000000000E+04  0.15050000000E+03 0. -1.
</event>
<event>
 4    1  0.5143956E-004  0.6500000E+04  0.7818608E-02  0.7223770E-01
         52   -1    0    0    0    0  0.00000000000E+00  0.00000000000E+00  0.64930732323E+04  0.65000000000E+04  0.30000000000E+03 0. -1.
        -52   -1    0    0    0    0 -0.00000000000E+00 -0.00000000000E+00 -0.64930732323E+04  0.65000000000E+04  0.30000000000E+03 0.  1.
     100001    1    1    2    0    0  0.50194130243E+02 -0.40656988494E+04 -0.50690159958E+04  0.65000000000E+04  0.15050000000E+03 0.  1.
     100001    1    1    2    0    0 -0.50194130243E+02  0.40656988494E+04  0.50690159958E+04  0.65000000000E+04  0.15050000000E+03 0. -1.
</event>
<event>
 4    1  0.5143956E-004  0.6500000E+04  0.7818608E-02  0.7223770E-01
         52   -1    0    0    0    0  0.00000000000E+00  0.00000000000E+00  0.64930732323E+04  0.65000000000E+04  0.30000000000E+03 0.  1.
        -52   -1    0    0    0    0 -0.00000000000E+00 -0.00000000000E+00 -0.64930732323E+04  0.65000000000E+04  0.30000000000E+03 0. -1.
     100001    1    1    2    0    0 -0.13048052840E+04 -0.12245526188E+04  0.62470235957E+04  0.65000000000E+04  0.15050000000E+03 0.  1.
     100001    1    1    2    0    0  0.13048052840E+04  0.12245526188E+04 -0.62470235957E+04  0.65000000000E+04  0.15050000000E+03 0. -1.
</event>
<event>
 4    1  0.5143956E-004  0.6500000E+04  0.7818608E-02  0.7223770E-01
         52   -1    0    0    0    0  0.00000000000E+00  0.00000000000E+00  0.64930732323E+04  0.65000000000E+04  0.30000000000E+03 0.  1.
        -52   -1    0    0    0    0 -0.00000000000E+00 -0.00000000000E+00 -0.64930732323E+04  0.65000000000E+04  0.30000000000E+03 0. -1.
     100001    1    1    2    0    0  0.18284387021E+04 -0.28523085862E+04 -0.55451327659E+04  0.65000000000E+04  0.15050000000E+03 0. -1.
     100001    1    1    2    0    0 -0.18284387021E+04  0.28523085862E+04  0.55451327659E+04  0.65000000000E+04  0.15050000000E+03 0.  1.
</event>
<event>
 4    1  0.5143956E-004  0.6500000E+04  0.7818608E-02  0.7223770E-01
         52   -1    0    0    0    0  0.00000000000E+00  0.00000000000E+00  0.64930732323E+04  0.65000000000E+04  0.30000000000E+03 0. -1.
        -52   -1    0    0    0    0 -0.00000000000E+00 -0.00000000000E+00 -0.64930732323E+04  0.65000000000E+04  0.30000000000E+03 0.  1.
     100001    1    1    2    0    0 -0.22090717510E+04 -0.13018071003E+04  0.59709840079E+04  0.65000000000E+04  0.15050000000E+03 0. -1.
     100001    1    1    2    0    0  0.22090717510E+04  0.13018071003E+04 -0.59709840079E+04  0.65000000000E+04  0.15050000000E+03 0.  1.
</event>
<event>
 4    1  0.5143956E-004  0.6500000E+04  0.7818608E-02  0.7223770E-01
         52   -1    0    0    0    0  0.00000000000E+00  0.00000000000E+00  0.64930732323E+04  0.65000000000E+04  0.30000000000E+03 0.  1.
        -52   -1    0    0    0    0 -0.00000000000E+00 -0.00000000000E+00 -0.64930732323E+04  0.65000000000E+04  0.30000000000E+03 0.  1.
     100001    1    1    2    0    0  0.29104319572E+03 -0.98463482663E+03 -0.64166297904E+04  0.65000000000E+04  0.15050000000E+03 0.  1.
     100001    1    1    2    0    0 -0.29104319572E+03  0.98463482663E+03  0.64166297904E+04  0.65000000000E+04  0.15050000000E+03 0.  1.
</event>
<event>
 4    1  0.5143956E-004  0.6500000E+04  0.7818608E-02  0.7223770E-01
         52   -1    0    0    0    0  0.00000000000E+00  0.00000000000E+00  0.64930732323E+04  0.65000000000E+04  0.30000000000E+03 0.  1.
        -52   -1    0    0    0    0 -0.00000000000E+00 -0.00000000000E+00 -0.64930732323E+04  0.65000000000E+04  0.30000000000E+03 0. -1.
     100001    1    1    2    0    0 -0.47249425507E+03 -0.25076751968E+03  0.64762037167E+04  0.65000000000E+04  0.15050000000E+03 0.  1.
     100001    1    1    2    0    0  0.47249425507E+03  0.25076751968E+03 -0.64762037167E+04  0.65000000000E+04  0.15050000000E+03 0. -1.
</event>
<event>
 4    1  0.5143956E-004  0.6500000E+04  0.7818608E-02  0.7223770E-01
         52   -1    0    0    0    0  0.00000000000E+00  0.00000000000E+00  0.64930732323E+04  0.65000000000E+04  0.30000000000E+03 0. -1.
        -52   -1    0    0    0    0 -0.00000000000E+00 -0.00000000000E+00 -0.64930732323E+04  0.65000000000E+04  0.30000000000E+03 0.  1.
     100001    1    1    2    0    0 -0.19301512308E+04 -0.15539275225E+04 -0.60072602100E+04  0.65000000000E+04  0.15050000000E+03 0.  1.
     100001    1    1    2    0    0  0.19301512308E+04  0.15539275225E+04  0.60072602100E+04  0.65000000000E+04  0.15050000000E+03 0. -1.
</event>
<event>
 4    1  0.5143956E-004  0.6500000E+04  0.7818608E-02  0.7223770E-01
         52   -1    0    0    0    0  0.00000000000E+00  0.00000000000E+00  0.64930732323E+04  0.65000000000E+04  0.30000000000E+03 0.  1.
        -52   -1    0    0    0    0 -0.00000000000E+00 -0.00000000000E+00 -0.64930732323E+04  0.65000000000E+04  0.30000000000E+03 0. -1.
     100001    1    1    2    0    0 -0.93937182627E+03  0.13684583777E+04 -0.62826946441E+04  0.65000000000E+04  0.15050000000E+03 0. -1.
     100001    1    1    2    0    0  0.93937182627E+03 -0.13684583777E+04  0.62826946441E+04  0.65000000000E+04  0.15050000000E+03 0.  1.
</event>
<event>
 4    1  0.5143956E-004  0.6500000E+04  0.7818608E-02  0.7223770E-01
         52   -1    0    0    0    0  0.00000000000E+00  0.00000000000E+00  0.64930732323E+04  0.65000000000E+04  0.30000000000E+03 0. -1.
        -52   -1    0    0    0    0 -0.00000000000E+00 -0.00000000000E+00 -0.64930732323E+04  0.65000000000E+04  0.30000000000E+03 0.  1.
     100001    1    1    2    0    0  0.48222066278E+04  0.41647766381E+04 -0.12760519359E+04  0.65000000000E+04  0.15050000000E+03 0.  1.
     100001    1    1    2    0    0 -0.48222066278E+04 -0.41647766381E+04  0.12760519359E+04  0.65000000000E+04  0.15050000000E+03 0. -1.
</event>
<event>
 4    1  0.5143956E-004  0.6500000E+04  0.7818608E-02  0.7223770E-01
         52   -1    0    0    0    0  0.00000000000E+00  0.00000000000E+00  0.64930732323E+04  0.65000000000E+04  0.30000000000E+03 0. -1.
        -52   -1    0    0    0    0 -0.00000000000E+00 -0.00000000000E+00 -0.64930732323E+04  0.65000000000E+04  0.30000000000E+03 0.  1.
     100001    1    1    2    0    0  0.21370742172E+04  0.82569786027E+03  0.60809938812E+04  0.65000000000E+04  0.15050000000E+03 0. -1.
     100001    1    1    2    0    0 -0.21370742172E+04 -0.82569786027E+03 -0.60809938812E+04  0.65000000000E+04  0.15050000000E+03 0.  1.
</event>
<event>
 4    1  0.5143956E-004  0.6500000E+04  0.7818608E-02  0.7223770E-01
         52   -1    0    0    0    0  0.00000000000E+00  0.00000000000E+00  0.64930732323E+04  0.65000000000E+04  0.30000000000E+03 0. -1.
        -52   -1    0    0    0    0 -0.00000000000E+00 -0.00000000000E+00 -0.64930732323E+04  0.65000000000E+04  0.30000000000E+03 0.  1.
     100001    1    1    2    0    0 -0.37464660218E+04 -0.11582070503E+04  0.51816887716E+04  0.65000000000E+04  0.15050000000E+03 0. -1.
     100001    1    1    2    0    0  0.37464660218E+04  0.11582070503E+04 -0.51816887716E+04  0.65000000000E+04  0.15050000000E+03 0.  1.
</event>
<event>
 4    1  0.5143956E-004  0.6500000E+04  0.7818608E-02  0.7223770E-01
         52   -1    0    0    0    0  0.00000000000E+00  0.00000000000E+00  0.64930732323E+04  0.65000000000E+04  0.30000000000E+03 0.  1.
        -52   -1    0    0    0    0 -0.00000000000E+00 -0.00000000000E+00 -0.64930732323E+04  0.65000000000E+04  0.30000000000E+03 0. -1.
     100001    1    1    2    0    0 -0.74413172492E+03  0.50337997248E+02 -0.64553143852E+04  0.65000000000E+04  0.15050000000E+03 0. -1.
     100001    1    1    2    0    0  0.74413172492E+03 -0.50337997248E+02  0.64553143852E+04  0.65000000000E+04  0.15050000000E+03 0.  1.
</event>
<event>
 4    1  0.5143956E-004  0.6500000E+04  0.7818608E-02  0.7223770E-01
         52   -1    0    0    0    0  0.00000000000E+00  0.00000000000E+00  0.64930732323E+04  0.65000000000E+04  0.30000000000E+03 0.  1.
        -52   -1    0    0    0    0 -0.00000000000E+00 -0.00000000000E+00 -0.64930732323E+04  0.65000000000E+04  0.30000000000E+03 0. -1.
     100001    1    1    2    0    0  0.12947504957E+02 -0.79881993342E+03  0.64489587397E+04  0.65000000000E+04  0.15050000000E+03 0.  1.
     100001    1    1    2    0    0 -0.12947504957E+02  0.79881993342E+03 -0.64489587397E+04  0.65000000000E+04  0.15050000000E+03 0. -1.
</event>
<event>
 4    1  0.5143956E-004  0.6500000E+04  0.7818608E-02  0.7223770E-01
         52   -1    0    0    0    0  0.00000000000E+00  0.00000000000E+00  0.64930732323E+04  0.65000000000E+04  0.30000000000E+03 0. -1.
        -52   -1    0    0    0    0 -0.00000000000E+00 -0.00000000000E+00 -0.64930732323E+04  0.65000000000E+04  0.30000000000E+03 0.  1.
     100001    1    1    2    0    0 -0.87665258004E+03 -0.14334535401E+04  0.62772638110E+04  0.65000000000E+04  0.15050000000E+03 0. -1.
     100001    1    1    2    0    0  0.87665258004E+03  0.14334535401E+04 -0.62772638110E+04  0.65000000000E+04  0.15050000000E+03 0.  1.
</event>
<event>
 4    1  0.5143956E-004  0.6500000E+04  0.7818608E-02  0.7223770E-01
         52   -1    0    0    0    0  0.00000000000E+00  0.00000000000E+00  0.64930732323E+04  0.65000000000E+04  0.30000000000E+03 0. -1.
        -52   -1    0    0    0    0 -0.00000000000E+00 -0.00000000000E+00 -0.64930732323E+04  0.65000000000E+04  0.30000000000E+03 0. -1.
     100001    1    1    2    0    0  0.11439648737E+03  0.35842942584E+03  0.64873562828E+04  0.65000000000E+04  0.15050000000E+03 0. -1.
     100001    1    1    2    0    0 -0.11439648737E+03 -0.35842942584E+03 -0.64873562828E+04  0.65000000000E+04  0.15050000000E+03 0. -1.
</event>
<event>
 4    1  0.5143956E-004  0.6500000E+04  0.7818608E-02  0.7223770E-01
         52   -1    0    0    0    0  0.00000000000E+00  0.00000000000E+00  0.64930732323E+04  0.65000000000E+04  0.30000000000E+03 0. -1.
        -52   -1    0    0    0    0 -0.00000000000E+00 -0.00000000000E+00 -0.64930732323E+04  0.65000000000E+04  0.30000000000E+03 0.  1.
     100001    1    1    2    0    0 -0.11951633143E+04 -0.91033645645E+03 -0.63222007195E+04  0.65000000000E+04  0.15050000000E+03 0.  1.
     100001    1    1    2    0    0  0.11951633143E+04  0.91033645645E+03  0.63222007195E+04  0.65000000000E+04  0.15050000000E+03 0. -1.
</event>
<event>
 4    1  0.5143956E-004  0.6500000E+04  0.7818608E-02  0.7223770E-01
         52   -1    0    0    0    0  0.00000000000E+00  0.00000000000E+00  0.64930732323E+04  0.65000000000E+04  0.30000000000E+03 0.  1.
        -52   -1    0    0    0    0 -0.00000000000E+00 -0.00000000000E+00 -0.64930732323E+04  0.65000000000E+04  0.30000000000E+03 0. -1.
     100001    1    1    2    0    0  0.31612133497E+04 -0.28698140334E+03  0.56702488113E+04  0.65000000000E+04  0.15050000000E+03 0.  1.
     100001    1    1    2    0    0 -0.31612133497E+04  0.28698140334E+03 -0.56702488113E+04  0.65000000000E+04  0.15050000000E+03 0. -1.
</event>
<event>
 4    1  0.5143956E-004  0.6500000E+04  0.7818608E-02  0.7223770E-01
         52   -1    0    0    0    0  0.00000000000E+00  0.00000000000E+00  0.64930732323E+04  0.65000000000E+04  0.30000000000E+03 0.  1.
        -52   -1    0    0    0    0 -0.00000000000E+00 -0.00000000000E+00 -0.64930732323E+04  0.65000000000E+04  0.30000000000E+03 0. -1.
     100001    1    1    2    0    0 -0.90598091249E+03  0.66218520182E+03 -0.64006295858E+04  0.65000000000E+04  0.15050000000E+03 0. -1.
     100001    1    1    2    0    0  0.90598091249E+03 -0.66218520182E+03  0.64006295858E+04  0.65000000000E+04  0.15050000000E+03 0.  1.
</event>
<event>
 4    1  0.5218588E-004  0.6500000E+04  0.7818608E-02  0.7223770E-01
         52   -1    0    0    0    0  0.00000000000E+00  0.00000000000E+00  0.64930732323E+04  0.65000000000E+04  0.30000000000E+03 0. -1.
        -52   -1    0    0    0    0 -0.00000000000E+00 -0.00000000000E+00 -0.64930732323E+04  0.65000000000E+04  0.30000000000E+03 0. -1.
     100001    1    1    2    0    0  0.24054356874E+03  0.48285381544E+01  0.64938020625E+04  0.65000000000E+04  0.15050000000E+03 0. -1.
     100001    1    1    2    0    0 -0.24054356874E+03 -0.48285381544E+01 -0.64938020625E+04  0.65000000000E+04  0.15050000000E+03 0. -1.
</event>
<event>
 4    1  0.5143956E-004  0.6500000E+04  0.7818608E-02  0.7223770E-01
         52   -1    0    0    0    0  0.00000000000E+00  0.00000000000E+00  0.64930732323E+04  0.65000000000E+04  0.30000000000E+03 0.  1.
        -52   -1    0    0    0    0 -0.00000000000E+00 -0.00000000000E+00 -0.64930732323E+04  0.65000000000E+04  0.30000000000E+03 0. -1.
     100001    1    1    2    0    0  0.61382815902E+04  0.10522648524E+04 -0.18551516244E+04  0.65000000000E+04  0.15050000000E+03 0.  1.
     100001    1    1    2    0    0 -0.61382815902E+04 -0.10522648524E+04  0.18551516244E+04  0.65000000000E+04  0.15050000000E+03 0. -1.
</event>
<event>
 4    1  0.5143956E-004  0.6500000E+04  0.7818608E-02  0.7223770E-01
         52   -1    0    0    0    0  0.00000000000E+00  0.00000000000E+00  0.64930732323E+04  0.65000000000E+04  0.30000000000E+03 0.  1.
        -52   -1    0    0    0    0 -0.00000000000E+00 -0.00000000000E+00 -0.64930732323E+04  0.65000000000E+04  0.30000000000E+03 0.  1.
     100001    1    1    2    0    0 -0.63779728968E+01  0.16229205450E+03 -0.64962273945E+04  0.65000000000E+04  0.15050000000E+03 0.  1.
     100001    1    1    2    0    0  0.63779728968E+01 -0.16229205450E+03  0.64962273945E+04  0.65000000000E+04  0.15050000000E+03 0.  1.
</event>
<event>
 4    1  0.5143956E-004  0.6500000E+04  0.7818608E-02  0.7223770E-01
         52   -1    0    0    0    0  0.00000000000E+00  0.00000000000E+00  0.64930732323E+04  0.65000000000E+04  0.30000000000E+03 0.  1.
        -52   -1    0    0    0    0 -0.00000000000E+00 -0.00000000000E+00 -0.64930732323E+04  0.65000000000E+04  0.30000000000E+03 0. -1.
     100001    1    1    2    0    0  0.80983220725E+03  0.31971159402E+03  0.64396666096E+04  0.65000000000E+04  0.15050000000E+03 0.  1.
     100001    1    1    2    0    0 -0.80983220725E+03 -0.31971159402E+03 -0.64396666096E+04  0.65000000000E+04  0.15050000000E+03 0. -1.
</event>
<event>
 4    1  0.5143956E-004  0.6500000E+04  0.7818608E-02  0.7223770E-01
         52   -1    0    0    0    0  0.00000000000E+00  0.00000000000E+00  0.64930732323E+04  0.65000000000E+04  0.30000000000E+03 0. -1.
        -52   -1    0    0    0    0 -0.00000000000E+00 -0.00000000000E+00 -0.64930732323E+04  0.65000000000E+04  0.30000000000E+03 0.  1.
     100001    1    1    2    0    0 -0.63256624571E+03  0.17859331179E+03  0.64649295529E+04  0.65000000000E+04  0.15050000000E+03 0. -1.
     100001    1    1    2    0    0  0.63256624571E+03 -0.17859331179E+03 -0.64649295529E+04  0.65000000000E+04  0.15050000000E+03 0.  1.
</event>
<event>
 4    1  0.5143956E-004  0.6500000E+04  0.7818608E-02  0.7223770E-01
         52   -1    0    0    0    0  0.00000000000E+00  0.00000000000E+00  0.64930732323E+04  0.65000000000E+04  0.30000000000E+03 0. -1.
        -52   -1    0    0    0    0 -0.00000000000E+00 -0.00000000000E+00 -0.64930732323E+04  0.65000000000E+04  0.30000000000E+03 0.  1.
     100001    1    1    2    0    0  0.32644915135E+04  0.70561643841E+03  0.55742757691E+04  0.65000000000E+04  0.15050000000E+03 0. -1.
     100001    1    1    2    0    0 -0.32644915135E+04 -0.70561643841E+03 -0.55742757691E+04  0.65000000000E+04  0.15050000000E+03 0.  1.
</event>
<event>
 4    1  0.5143956E-004  0.6500000E+04  0.7818608E-02  0.7223770E-01
         52   -1    0    0    0    0  0.00000000000E+00  0.00000000000E+00  0.64930732323E+04  0.65000000000E+04  0.30000000000E+03 0. -1.
        -52   -1    0    0    0    0 -0.00000000000E+00 -0.00000000000E+00 -0.64930732323E+04  0.65000000000E+04  0.30000000000E+03 0.  1.
     100001    1    1    2    0    0  0.28171694728E+04  0.20198920308E+04  0.54964481345E+04  0.65000000000E+04  0.15050000000E+03 0. -1.
     100001    1    1    2    0    0 -0.28171694728E+04 -0.20198920308E+04 -0.54964481345E+04  0.65000000000E+04  0.15050000000E+03 0.  1.
</event>
<event>
 4    1  0.5143956E-004  0.6500000E+04  0.7818608E-02  0.7223770E-01
         52   -1    0    0    0    0  0.00000000000E+00  0.00000000000E+00  0.64930732323E+04  0.65000000000E+04  0.30000000000E+03 0.  1.
        -52   -1    0    0    0    0 -0.00000000000E+00 -0.00000000000E+00 -0.64930732323E+04  0.65000000000E+04  0.30000000000E+03 0. -1.
     100001    1    1    2    0    0  0.64718973124E+03  0.11782033180E+03  0.64648753717E+04  0.65000000000E+04  0.15050000000E+03 0.  1.
     100001    1    1    2    0    0 -0.64718973124E+03 -0.11782033180E+03 -0.64648753717E+04  0.65000000000E+04  0.15050000000E+03 0. -1.
</event>
<event>
 4    1  0.5143956E-004  0.6500000E+04  0.7818608E-02  0.7223770E-01
         52   -1    0    0    0    0  0.00000000000E+00  0.00000000000E+00  0.64930732323E+04  0.65000000000E+04  0.30000000000E+03 0. -1.
        -52   -1    0    0    0    0 -0.00000000000E+00 -0.00000000000E+00 -0.64930732323E+04  0.65000000000E+04  0.30000000000E+03 0.  1.
     100001    1    1    2    0    0 -0.47005846896E+04  0.15370706789E+04 -0.42153608451E+04  0.65000000000E+04  0.15050000000E+03 0.  1.
     100001    1    1    2    0    0  0.47005846896E+04 -0.15370706789E+04  0.42153608451E+04  0.65000000000E+04  0.15050000000E+03 0. -1.
</event>
<event>
 4    1  0.5143956E-004  0.6500000E+04  0.7818608E-02  0.7223770E-01
         52   -1    0    0    0    0  0.00000000000E+00  0.00000000000E+00  0.64930732323E+04  0.65000000000E+04  0.30000000000E+03 0.  1.
        -52   -1    0    0    0    0 -0.00000000000E+00 -0.00000000000E+00 -0.64930732323E+04  0.65000000000E+04  0.30000000000E+03 0. -1.
     100001    1    1    2    0    0 -0.14949491765E+04 -0.40056448447E+04 -0.48935964370E+04  0.65000000000E+04  0.15050000000E+03 0. -1.
     100001    1    1    2    0    0  0.14949491765E+04  0.40056448447E+04  0.48935964370E+04  0.65000000000E+04  0.15050000000E+03 0.  1.
</event>
<event>
 4    1  0.5143956E-004  0.6500000E+04  0.7818608E-02  0.7223770E-01
         52   -1    0    0    0    0  0.00000000000E+00  0.00000000000E+00  0.64930732323E+04  0.65000000000E+04  0.30000000000E+03 0.  1.
        -52   -1    0    0    0    0 -0.00000000000E+00 -0.00000000000E+00 -0.64930732323E+04  0.65000000000E+04  0.30000000000E+03 0. -1.
     100001    1    1    2    0    0 -0.13994272358E+04 -0.19410282624E+04 -0.60416357426E+04  0.65000000000E+04  0.15050000000E+03 0. -1.
     100001    1    1    2    0    0  0.13994272358E+04  0.19410282624E+04  0.60416357426E+04  0.65000000000E+04  0.15050000000E+03 0.  1.
</event>
<event>
 4    1  0.5143956E-004  0.6500000E+04  0.7818608E-02  0.7223770E-01
         52   -1    0    0    0    0  0.00000000000E+00  0.00000000000E+00  0.64930732323E+04  0.65000000000E+04  0.30000000000E+03 0. -1.
        -52   -1    0    0    0    0 -0.00000000000E+00 -0.00000000000E+00 -0.64930732323E+04  0.65000000000E+04  0.30000000000E+03 0.  1.
     100001    1    1    2    0    0  0.76351617285E+03  0.73055700093E+03 -0.64117610118E+04  0.65000000000E+04  0.15050000000E+03 0.  1.
     100001    1    1    2    0    0 -0.76351617285E+03 -0.73055700093E+03  0.64117610118E+04  0.65000000000E+04  0.15050000000E+03 0. -1.
</event>
<event>
 4    1  0.5143956E-004  0.6500000E+04  0.7818608E-02  0.7223770E-01
         52   -1    0    0    0    0  0.00000000000E+00  0.00000000000E+00  0.64930732323E+04  0.65000000000E+04  0.30000000000E+03 0.  1.
        -52   -1    0    0    0    0 -0.00000000000E+00 -0.00000000000E+00 -0.64930732323E+04  0.65000000000E+04  0.30000000000E+03 0. -1.
     100001    1    1    2    0    0 -0.28727920842E+03 -0.35580435163E+03  0.64821465326E+04  0.65000000000E+04  0.15050000000E+03 0.  1.
     100001    1    1    2    0    0  0.28727920842E+03  0.35580435163E+03 -0.64821465326E+04  0.65000000000E+04  0.15050000000E+03 0. -1.
</event>
<event>
 4    1  0.5143956E-004  0.6500000E+04  0.7818608E-02  0.7223770E-01
         52   -1    0    0    0    0  0.00000000000E+00  0.00000000000E+00  0.64930732323E+04  0.65000000000E+04  0.30000000000E+03 0.  1.
        -52   -1    0    0    0    0 -0.00000000000E+00 -0.00000000000E+00 -0.64930732323E+04  0.65000000000E+04  0.30000000000E+03 0. -1.
     100001    1    1    2    0    0 -0.23622292439E+03 -0.31400836791E+03 -0.64863662574E+04  0.65000000000E+04  0.15050000000E+03 0. -1.
     100001    1    1    2    0    0  0.23622292439E+03  0.31400836791E+03  0.64863662574E+04  0.65000000000E+04  0.15050000000E+03 0.  1.
</event>
<event>
 4    1  0.5143956E-004  0.6500000E+04  0.7818608E-02  0.7223770E-01
         52   -1    0    0    0    0  0.00000000000E+00  0.00000000000E+00  0.64930732323E+04  0.65000000000E+04  0.30000000000E+03 0.  1.
        -52   -1    0    0    0    0 -0.00000000000E+00 -0.00000000000E+00 -0.64930732323E+04  0.65000000000E+04  0.30000000000E+03 0. -1.
     100001    1    1    2    0    0 -0.14975319898E+04  0.94933118102E+03 -0.62516812137E+04  0.65000000000E+04  0.15050000000E+03 0. -1.
     100001    1    1    2    0    0  0.14975319898E+04 -0.94933118102E+03  0.62516812137E+04  0.65000000000E+04  0.15050000000E+03 0.  1.
</event>
<event>
 4    1  0.5143956E-004  0.6500000E+04  0.7818608E-02  0.7223770E-01
         52   -1    0    0    0    0  0.00000000000E+00  0.00000000000E+00  0.64930732323E+04  0.65000000000E+04  0.30000000000E+03 0.  1.
        -52   -1    0    0    0    0 -0.00000000000E+00 -0.00000000000E+00 -0.64930732323E+04  0.65000000000E+04  0.30000000000E+03 0. -1.
     100001    1    1    2    0    0  0.74832668426E+03  0.24202866496E+03 -0.64504867296E+04  0.65000000000E+04  0.15050000000E+03 0. -1.
     100001    1    1    2    0    0 -0.74832668426E+03 -0.24202866496E+03  0.64504867296E+04  0.65000000000E+04  0.15050000000E+03 0.  1.
</event>
<event>
 4    1  0.5143956E-004  0.6500000E+04  0.7818608E-02  0.7223770E-01
         52   -1    0    0    0    0  0.00000000000E+00  0.00000000000E+00  0.64930732323E+04  0.65000000000E+04  0.30000000000E+03 0.  1.
        -52   -1    0    0    0    0 -0.00000000000E+00 -0.00000000000E+00 -0.64930732323E+04  0.65000000000E+04  0.30000000000E+03 0. -1.
     100001    1    1    2    0    0  0.29246518156E+02 -0.10359127223E+04 -0.64150899622E+04  0.65000000000E+04  0.15050000000E+03 0. -1.
     100001    1    1    2    0    0 -0.29246518156E+02  0.10359127223E+04  0.64150899622E+04  0.65000000000E+04  0.15050000000E+03 0.  1.
</event>
<event>
 4    1  0.5143956E-004  0.6500000E+04  0.7818608E-02  0.7223770E-01
         52   -1    0    0    0    0  0.00000000000E+00  0.00000000000E+00  0.64930732323E+04  0.65000000000E+04  0.30000000000E+03 0. -1.
        -52   -1    0    0    0    0 -0.00000000000E+00 -0.00000000000E+00 -0.64930732323E+04  0.65000000000E+04  0.30000000000E+03 0.  1.
     100001    1    1    2    0    0 -0.44551124718E+03 -0.33957884607E+03  0.64740679396E+04  0.65000000000E+04  0.15050000000E+03 0. -1.
     100001    1    1    2    0    0  0.44551124718E+03  0.33957884607E+03 -0.64740679396E+04  0.65000000000E+04  0.15050000000E+03 0.  1.
</event>
<event>
 4    1  0.5143956E-004  0.6500000E+04  0.7818608E-02  0.7223770E-01
         52   -1    0    0    0    0  0.00000000000E+00  0.00000000000E+00  0.64930732323E+04  0.65000000000E+04  0.30000000000E+03 0. -1.
        -52   -1    0    0    0    0 -0.00000000000E+00 -0.00000000000E+00 -0.64930732323E+04  0.65000000000E+04  0.30000000000E+03 0. -1.
     100001    1    1    2    0    0  0.17697886972E+03 -0.41306253158E+02 -0.64957156667E+04  0.65000000000E+04  0.15050000000E+03 0. -1.
     100001    1    1    2    0    0 -0.17697886972E+03  0.41306253158E+02  0.64957156667E+04  0.65000000000E+04  0.15050000000E+03 0. -1.
</event>
<event>
 4    1  0.5143956E-004  0.6500000E+04  0.7818608E-02  0.7223770E-01
         52   -1    0    0    0    0  0.00000000000E+00  0.00000000000E+00  0.64930732323E+04  0.65000000000E+04  0.30000000000E+03 0.  1.
        -52   -1    0    0    0    0 -0.00000000000E+00 -0.00000000000E+00 -0.64930732323E+04  0.65000000000E+04  0.30000000000E+03 0. -1.
     100001    1    1    2    0    0  0.16149686055E+04  0.13130827112E+04 -0.61558947316E+04  0.65000000000E+04  0.15050000000E+03 0. -1.
     100001    1    1    2    0    0 -0.16149686055E+04 -0.13130827112E+04  0.61558947316E+04  0.65000000000E+04  0.15050000000E+03 0.  1.
</event>
<event>
 4    1  0.5143956E-004  0.6500000E+04  0.7818608E-02  0.7223770E-01
         52   -1    0    0    0    0  0.00000000000E+00  0.00000000000E+00  0.64930732323E+04  0.65000000000E+04  0.30000000000E+03 0. -1.
        -52   -1    0    0    0    0 -0.00000000000E+00 -0.00000000000E+00 -0.64930732323E+04  0.65000000000E+04  0.30000000000E+03 0.  1.
     100001    1    1    2    0    0  0.18691777730E+04  0.30804223073E+04  0.54078205048E+04  0.65000000000E+04  0.15050000000E+03 0. -1.
     100001    1    1    2    0    0 -0.18691777730E+04 -0.30804223073E+04 -0.54078205048E+04  0.65000000000E+04  0.15050000000E+03 0.  1.
</event>
<event>
 4    1  0.5143956E-004  0.6500000E+04  0.7818608E-02  0.7223770E-01
         52   -1    0    0    0    0  0.00000000000E+00  0.00000000000E+00  0.64930732323E+04  0.65000000000E+04  0.30000000000E+03 0.  1.
        -52   -1    0    0    0    0 -0.00000000000E+00 -0.00000000000E+00 -0.64930732323E+04  0.65000000000E+04  0.30000000000E+03 0. -1.
     100001    1    1    2    0    0 -0.13947739979E+04  0.14628009722E+04 -0.61759346305E+04  0.65000000000E+04  0.15050000000E+03 0. -1.
     100001    1    1    2    0    0  0.13947739979E+04 -0.14628009722E+04  0.61759346305E+04  0.65000000000E+04  0.15050000000E+03 0.  1.
</event>
<event>
 4    1  0.5143956E-004  0.6500000E+04  0.7818608E-02  0.7223770E-01
         52   -1    0    0    0    0  0.00000000000E+00  0.00000000000E+00  0.64930732323E+04  0.65000000000E+04  0.30000000000E+03 0.  1.
        -52   -1    0    0    0    0 -0.00000000000E+00 -0.00000000000E+00 -0.64930732323E+04  0.65000000000E+04  0.30000000000E+03 0. -1.
     100001    1    1    2    0    0 -0.31294324451E+03  0.35490377304E+03  0.64810076059E+04  0.65000000000E+04  0.15050000000E+03 0.  1.
     100001    1    1    2    0    0  0.31294324451E+03 -0.35490377304E+03 -0.64810076059E+04  0.65000000000E+04  0.15050000000E+03 0. -1.
</event>
<event>
 4    1  0.5143956E-004  0.6500000E+04  0.7818608E-02  0.7223770E-01
         52   -1    0    0    0    0  0.00000000000E+00  0.00000000000E+00  0.64930732323E+04  0.65000000000E+04  0.30000000000E+03 0. -1.
        -52   -1    0    0    0    0 -0.00000000000E+00 -0.00000000000E+00 -0.64930732323E+04  0.65000000000E+04  0.30000000000E+03 0.  1.
     100001    1    1    2    0    0 -0.28107993097E+03 -0.27608562669E+04  0.58758843161E+04  0.65000000000E+04  0.15050000000E+03 0. -1.
     100001    1    1    2    0    0  0.28107993097E+03  0.27608562669E+04 -0.58758843161E+04  0.65000000000E+04  0.15050000000E+03 0.  1.
</event>
<event>
 4    1  0.5143956E-004  0.6500000E+04  0.7818608E-02  0.7223770E-01
         52   -1    0    0    0    0  0.00000000000E+00  0.00000000000E+00  0.64930732323E+04  0.65000000000E+04  0.30000000000E+03 0.  1.
        -52   -1    0    0    0    0 -0.00000000000E+00 -0.00000000000E+00 -0.64930732323E+04  0.65000000000E+04  0.30000000000E+03 0. -1.
     100001    1    1    2    0    0  0.75608460586E+03  0.14090815008E+04  0.62984264021E+04  0.65000000000E+04  0.15050000000E+03 0.  1.
     100001    1    1    2    0    0 -0.75608460586E+03 -0.14090815008E+04 -0.62984264021E+04  0.65000000000E+04  0.15050000000E+03 0. -1.
</event>
<event>
 4    1  0.5143956E-004  0.6500000E+04  0.7818608E-02  0.7223770E-01
         52   -1    0    0    0    0  0.00000000000E+00  0.00000000000E+00  0.64930732323E+04  0.65000000000E+04  0.30000000000E+03 0.  1.
        -52   -1    0    0    0    0 -0.00000000000E+00 -0.00000000000E+00 -0.64930732323E+04  0.65000000000E+04  0.30000000000E+03 0.  1.
     100001    1    1    2    0    0  0.33274488842E+03 -0.22184363208E+03  0.64859398696E+04  0.65000000000E+04  0.15050000000E+03 0.  1.
     100001    1    1    2    0    0 -0.33274488842E+03  0.22184363208E+03 -0.64859398696E+04  0.65000000000E+04  0.15050000000E+03 0.  1.
</event>
<event>
 4    1  0.5143956E-004  0.6500000E+04  0.7818608E-02  0.7223770E-01
         52   -1    0    0    0    0  0.00000000000E+00  0.00000000000E+00  0.64930732323E+04  0.65000000000E+04  0.30000000000E+03 0.  1.
        -52   -1    0    0    0    0 -0.00000000000E+00 -0.00000000000E+00 -0.64930732323E+04  0.65000000000E+04  0.30000000000E+03 0. -1.
     100001    1    1    2    0    0  0.19972680229E+02  0.42587616333E+03 -0.64842563441E+04  0.65000000000E+04  0.15050000000E+03 0. -1.
     100001    1    1    2    0    0 -0.19972680229E+02 -0.42587616333E+03  0.64842563441E+04  0.65000000000E+04  0.15050000000E+03 0.  1.
</event>
<event>
 4    1  0.5143956E-004  0.6500000E+04  0.7818608E-02  0.7223770E-01
         52   -1    0    0    0    0  0.00000000000E+00  0.00000000000E+00  0.64930732323E+04  0.65000000000E+04  0.30000000000E+03 0. -1.
        -52   -1    0    0    0    0 -0.00000000000E+00 -0.00000000000E+00 -0.64930732323E+04  0.65000000000E+04  0.30000000000E+03 0.  1.
     100001    1    1    2    0    0  0.14431638072E+04 -0.60386378177E+03  0.63071369502E+04  0.65000000000E+04  0.15050000000E+03 0. -1.
     100001    1    1    2    0    0 -0.14431638072E+04  0.60386378177E+03 -0.63071369502E+04  0.65000000000E+04  0.15050000000E+03 0.  1.
</event>
<event>
 4    1  0.5143956E-004  0.6500000E+04  0.7818608E-02  0.7223770E-01
         52   -1    0    0    0    0  0.00000000000E+00  0.00000000000E+00  0.64930732323E+04  0.65000000000E+04  0.30000000000E+03 0.  1.
        -52   -1    0    0    0    0 -0.00000000000E+00 -0.00000000000E+00 -0.64930732323E+04  0.65000000000E+04  0.30000000000E+03 0.  1.
     100001    1    1    2    0    0 -0.20663403362E+03  0.17937612512E+03 -0.64924938453E+04  0.65000000000E+04  0.15050000000E+03 0.  1.
     100001    1    1    2    0    0  0.20663403362E+03 -0.17937612512E+03  0.64924938453E+04  0.65000000000E+04  0.15050000000E+03 0.  1.
</event>
<event>
 4    1  0.5143956E-004  0.6500000E+04  0.7818608E-02  0.7223770E-01
         52   -1    0    0    0    0  0.00000000000E+00  0.00000000000E+00  0.64930732323E+04  0.65000000000E+04  0.30000000000E+03 0.  1.
        -52   -1    0    0    0    0 -0.00000000000E+00 -0.00000000000E+00 -0.64930732323E+04  0.65000000000E+04  0.30000000000E+03 0. -1.
     100001    1    1    2    0    0  0.63962035799E+03 -0.90149146605E+03  0.64035575022E+04  0.65000000000E+04  0.15050000000E+03 0.  1.
     100001    1    1    2    0    0 -0.63962035799E+03  0.90149146605E+03 -0.64035575022E+04  0.65000000000E+04  0.15050000000E+03 0. -1.
</event>
<event>
 4    1  0.5143956E-004  0.6500000E+04  0.7818608E-02  0.7223770E-01
         52   -1    0    0    0    0  0.00000000000E+00  0.00000000000E+00  0.64930732323E+04  0.65000000000E+04  0.30000000000E+03 0.  1.
        -52   -1    0    0    0    0 -0.00000000000E+00 -0.00000000000E+00 -0.64930732323E+04  0.65000000000E+04  0.30000000000E+03 0. -1.
     100001    1    1    2    0    0 -0.12238092836E+04  0.52808447943E+04  0.35836181222E+04  0.65000000000E+04  0.15050000000E+03 0.  1.
     100001    1    1    2    0    0  0.12238092836E+04 -0.52808447943E+04 -0.35836181222E+04  0.65000000000E+04  0.15050000000E+03 0. -1.
</event>
<event>
 4    1  0.5143956E-004  0.6500000E+04  0.7818608E-02  0.7223770E-01
         52   -1    0    0    0    0  0.00000000000E+00  0.00000000000E+00  0.64930732323E+04  0.65000000000E+04  0.30000000000E+03 0.  1.
        -52   -1    0    0    0    0 -0.00000000000E+00 -0.00000000000E+00 -0.64930732323E+04  0.65000000000E+04  0.30000000000E+03 0. -1.
     100001    1    1    2    0    0  0.35359859254E+03  0.25046485776E+04  0.59857374891E+04  0.65000000000E+04  0.15050000000E+03 0.  1.
     100001    1    1    2    0    0 -0.35359859254E+03 -0.25046485776E+04 -0.59857374891E+04  0.65000000000E+04  0.15050000000E+03 0. -1.
</event>
<event>
 4    1  0.5143956E-004  0.6500000E+04  0.7818608E-02  0.7223770E-01
         52   -1    0    0    0    0  0.00000000000E+00  0.00000000000E+00  0.64930732323E+04  0.65000000000E+04  0.30000000000E+03 0. -1.
        -52   -1    0    0    0    0 -0.00000000000E+00 -0.00000000000E+00 -0.64930732323E+04  0.65000000000E+04  0.30000000000E+03 0. -1.
     100001    1    1    2    0    0  0.87235785138E+03 -0.40612667618E+03  0.64266167345E+04  0.65000000000E+04  0.15050000000E+03 0. -1.
     100001    1    1    2    0    0 -0.87235785138E+03  0.40612667618E+03 -0.64266167345E+04  0.65000000000E+04  0.15050000000E+03 0. -1.
</event>
<event>
 4    1  0.5143956E-004  0.6500000E+04  0.7818608E-02  0.7223770E-01
         52   -1    0    0    0    0  0.00000000000E+00  0.00000000000E+00  0.64930732323E+04  0.65000000000E+04  0.30000000000E+03 0. -1.
        -52   -1    0    0    0    0 -0.00000000000E+00 -0.00000000000E+00 -0.64930732323E+04  0.65000000000E+04  0.30000000000E+03 0.  1.
     100001    1    1    2    0    0  0.40552703355E+04 -0.38423199136E+04  0.33194442212E+04  0.65000000000E+04  0.15050000000E+03 0. -1.
     100001    1    1    2    0    0 -0.40552703355E+04  0.38423199136E+04 -0.33194442212E+04  0.65000000000E+04  0.15050000000E+03 0.  1.
</event>
<event>
 4    1  0.5143956E-004  0.6500000E+04  0.7818608E-02  0.7223770E-01
         52   -1    0    0    0    0  0.00000000000E+00  0.00000000000E+00  0.64930732323E+04  0.65000000000E+04  0.30000000000E+03 0.  1.
        -52   -1    0    0    0    0 -0.00000000000E+00 -0.00000000000E+00 -0.64930732323E+04  0.65000000000E+04  0.30000000000E+03 0. -1.
     100001    1    1    2    0    0 -0.19223265106E+04  0.21390960662E+03  0.62037289767E+04  0.65000000000E+04  0.15050000000E+03 0.  1.
     100001    1    1    2    0    0  0.19223265106E+04 -0.21390960662E+03 -0.62037289767E+04  0.65000000000E+04  0.15050000000E+03 0. -1.
</event>
<event>
 4    1  0.5143956E-004  0.6500000E+04  0.7818608E-02  0.7223770E-01
         52   -1    0    0    0    0  0.00000000000E+00  0.00000000000E+00  0.64930732323E+04  0.65000000000E+04  0.30000000000E+03 0. -1.
        -52   -1    0    0    0    0 -0.00000000000E+00 -0.00000000000E+00 -0.64930732323E+04  0.65000000000E+04  0.30000000000E+03 0.  1.
     100001    1    1    2    0    0 -0.39957006917E+04 -0.19257104127E+04  0.47490383383E+04  0.65000000000E+04  0.15050000000E+03 0. -1.
     100001    1    1    2    0    0  0.39957006917E+04  0.19257104127E+04 -0.47490383383E+04  0.65000000000E+04  0.15050000000E+03 0.  1.
</event>
<event>
 4    1  0.5143956E-004  0.6500000E+04  0.7818608E-02  0.7223770E-01
         52   -1    0    0    0    0  0.00000000000E+00  0.00000000000E+00  0.64930732323E+04  0.65000000000E+04  0.30000000000E+03 0. -1.
        -52   -1    0    0    0    0 -0.00000000000E+00 -0.00000000000E+00 -0.64930732323E+04  0.65000000000E+04  0.30000000000E+03 0.  1.
     100001    1    1    2    0    0 -0.69661744253E+03  0.51923317500E+03 -0.64399123285E+04  0.65000000000E+04  0.15050000000E+03 0.  1.
     100001    1    1    2    0    0  0.69661744253E+03 -0.51923317500E+03  0.64399123285E+04  0.65000000000E+04  0.15050000000E+03 0. -1.
</event>
<event>
 4    1  0.5475733E-004  0.6500000E+04  0.7818608E-02  0.7223770E-01
         52   -1    0    0    0    0  0.00000000000E+00  0.00000000000E+00  0.64930732323E+04  0.65000000000E+04  0.30000000000E+03 0.  1.
        -52   -1    0    0    0    0 -0.00000000000E+00 -0.00000000000E+00 -0.64930732323E+04  0.65000000000E+04  0.30000000000E+03 0.  1.
     100001    1    1    2    0    0 -0.22374232625E+03 -0.12852422020E+03  0.64931325758E+04  0.65000000000E+04  0.15050000000E+03 0.  1.
     100001    1    1    2    0    0  0.22374232625E+03  0.12852422020E+03 -0.64931325758E+04  0.65000000000E+04  0.15050000000E+03 0.  1.
</event>
<event>
 4    1  0.5143956E-004  0.6500000E+04  0.7818608E-02  0.7223770E-01
         52   -1    0    0    0    0  0.00000000000E+00  0.00000000000E+00  0.64930732323E+04  0.65000000000E+04  0.30000000000E+03 0.  1.
        -52   -1    0    0    0    0 -0.00000000000E+00 -0.00000000000E+00 -0.64930732323E+04  0.65000000000E+04  0.30000000000E+03 0. -1.
     100001    1    1    2    0    0  0.89622241075E+03  0.33865586856E+03 -0.64272425925E+04  0.65000000000E+04  0.15050000000E+03 0. -1.
     100001    1    1    2    0    0 -0.89622241075E+03 -0.33865586856E+03  0.64272425925E+04  0.65000000000E+04  0.15050000000E+03 0.  1.
</event>
<event>
 4    1  0.5143956E-004  0.6500000E+04  0.7818608E-02  0.7223770E-01
         52   -1    0    0    0    0  0.00000000000E+00  0.00000000000E+00  0.64930732323E+04  0.65000000000E+04  0.30000000000E+03 0.  1.
        -52   -1    0    0    0    0 -0.00000000000E+00 -0.00000000000E+00 -0.64930732323E+04  0.65000000000E+04  0.30000000000E+03 0.  1.
     100001    1    1    2    0    0  0.21838115187E+03  0.33269152129E+02 -0.64945017196E+04  0.65000000000E+04  0.15050000000E+03 0.  1.
     100001    1    1    2    0    0 -0.21838115187E+03 -0.33269152129E+02  0.64945017196E+04  0.65000000000E+04  0.15050000000E+03 0.  1.
</event>
<event>
 4    1  0.5143956E-004  0.6500000E+04  0.7818608E-02  0.7223770E-01
         52   -1    0    0    0    0  0.00000000000E+00  0.00000000000E+00  0.64930732323E+04  0.65000000000E+04  0.30000000000E+03 0. -1.
        -52   -1    0    0    0    0 -0.00000000000E+00 -0.00000000000E+00 -0.64930732323E+04  0.65000000000E+04  0.30000000000E+03 0.  1.
     100001    1    1    2    0    0 -0.18502070154E+03 -0.65121197618E+03 -0.64628971872E+04  0.65000000000E+04  0.15050000000E+03 0.  1.
     100001    1    1    2    0    0  0.18502070154E+03  0.65121197618E+03  0.64628971872E+04  0.65000000000E+04  0.15050000000E+03 0. -1.
</event>
<event>
 4    1  0.5143956E-004  0.6500000E+04  0.7818608E-02  0.7223770E-01
         52   -1    0    0    0    0  0.00000000000E+00  0.00000000000E+00  0.64930732323E+04  0.65000000000E+04  0.30000000000E+03 0. -1.
        -52   -1    0    0    0    0 -0.00000000000E+00 -0.00000000000E+00 -0.64930732323E+04  0.65000000000E+04  0.30000000000E+03 0.  1.
     100001    1    1    2    0    0 -0.32013279878E+04 -0.35144574624E+04  0.44302864026E+04  0.65000000000E+04  0.15050000000E+03 0. -1.
     100001    1    1    2    0    0  0.32013279878E+04  0.35144574624E+04 -0.44302864026E+04  0.65000000000E+04  0.15050000000E+03 0.  1.
</event>
<event>
 4    1  0.5143956E-004  0.6500000E+04  0.7818608E-02  0.7223770E-01
         52   -1    0    0    0    0  0.00000000000E+00  0.00000000000E+00  0.64930732323E+04  0.65000000000E+04  0.30000000000E+03 0. -1.
        -52   -1    0    0    0    0 -0.00000000000E+00 -0.00000000000E+00 -0.64930732323E+04  0.65000000000E+04  0.30000000000E+03 0.  1.
     100001    1    1    2    0    0  0.10197972473E+04  0.33765184314E+03  0.64088497062E+04  0.65000000000E+04  0.15050000000E+03 0. -1.
     100001    1    1    2    0    0 -0.10197972473E+04 -0.33765184314E+03 -0.64088497062E+04  0.65000000000E+04  0.15050000000E+03 0.  1.
</event>
<event>
 4    1  0.5143956E-004  0.6500000E+04  0.7818608E-02  0.7223770E-01
         52   -1    0    0    0    0  0.00000000000E+00  0.00000000000E+00  0.64930732323E+04  0.65000000000E+04  0.30000000000E+03 0. -1.
        -52   -1    0    0    0    0 -0.00000000000E+00 -0.00000000000E+00 -0.64930732323E+04  0.65000000000E+04  0.30000000000E+03 0.  1.
     100001    1    1    2    0    0 -0.15153797573E+04  0.16821782571E+04 -0.60910795638E+04  0.65000000000E+04  0.15050000000E+03 0.  1.
     100001    1    1    2    0    0  0.15153797573E+04 -0.16821782571E+04  0.60910795638E+04  0.65000000000E+04  0.15050000000E+03 0. -1.
</event>
<event>
 4    1  0.5143956E-004  0.6500000E+04  0.7818608E-02  0.7223770E-01
         52   -1    0    0    0    0  0.00000000000E+00  0.00000000000E+00  0.64930732323E+04  0.65000000000E+04  0.30000000000E+03 0.  1.
        -52   -1    0    0    0    0 -0.00000000000E+00 -0.00000000000E+00 -0.64930732323E+04  0.65000000000E+04  0.30000000000E+03 0. -1.
     100001    1    1    2    0    0  0.29211411566E+04 -0.26598062570E+04 -0.51594296941E+04  0.65000000000E+04  0.15050000000E+03 0. -1.
     100001    1    1    2    0    0 -0.29211411566E+04  0.26598062570E+04  0.51594296941E+04  0.65000000000E+04  0.15050000000E+03 0.  1.
</event>
<event>
 4    1  0.5143956E-004  0.6500000E+04  0.7818608E-02  0.7223770E-01
         52   -1    0    0    0    0  0.00000000000E+00  0.00000000000E+00  0.64930732323E+04  0.65000000000E+04  0.30000000000E+03 0. -1.
        -52   -1    0    0    0    0 -0.00000000000E+00 -0.00000000000E+00 -0.64930732323E+04  0.65000000000E+04  0.30000000000E+03 0.  1.
     100001    1    1    2    0    0 -0.22549273602E+04 -0.19875130168E+04  0.57612884286E+04  0.65000000000E+04  0.15050000000E+03 0. -1.
     100001    1    1    2    0    0  0.22549273602E+04  0.19875130168E+04 -0.57612884286E+04  0.65000000000E+04  0.15050000000E+03 0.  1.
</event>
<event>
 4    1  0.5143956E-004  0.6500000E+04  0.7818608E-02  0.7223770E-01
         52   -1    0    0    0    0  0.00000000000E+00  0.00000000000E+00  0.64930732323E+04  0.65000000000E+04  0.30000000000E+03 0. -1.
        -52   -1    0    0    0    0 -0.00000000000E+00 -0.00000000000E+00 -0.64930732323E+04  0.65000000000E+04  0.30000000000E+03 0.  1.
     100001    1    1    2    0    0 -0.27544177676E+04 -0.33849192910E+04 -0.48148576204E+04  0.65000000000E+04  0.15050000000E+03 0.  1.
     100001    1    1    2    0    0  0.27544177676E+04  0.33849192910E+04  0.48148576204E+04  0.65000000000E+04  0.15050000000E+03 0. -1.
</event>
<event>
 4    1  0.5143956E-004  0.6500000E+04  0.7818608E-02  0.7223770E-01
         52   -1    0    0    0    0  0.00000000000E+00  0.00000000000E+00  0.64930732323E+04  0.65000000000E+04  0.30000000000E+03 0.  1.
        -52   -1    0    0    0    0 -0.00000000000E+00 -0.00000000000E+00 -0.64930732323E+04  0.65000000000E+04  0.30000000000E+03 0. -1.
     100001    1    1    2    0    0 -0.14255283723E+04 -0.23936632548E+04 -0.58707405693E+04  0.65000000000E+04  0.15050000000E+03 0. -1.
     100001    1    1    2    0    0  0.14255283723E+04  0.23936632548E+04  0.58707405693E+04  0.65000000000E+04  0.15050000000E+03 0.  1.
</event>
<event>
 4    1  0.5143956E-004  0.6500000E+04  0.7818608E-02  0.7223770E-01
         52   -1    0    0    0    0  0.00000000000E+00  0.00000000000E+00  0.64930732323E+04  0.65000000000E+04  0.30000000000E+03 0.  1.
        -52   -1    0    0    0    0 -0.00000000000E+00 -0.00000000000E+00 -0.64930732323E+04  0.65000000000E+04  0.30000000000E+03 0. -1.
     100001    1    1    2    0    0 -0.83690565027E+03 -0.87943613594E+03 -0.63838492123E+04  0.65000000000E+04  0.15050000000E+03 0. -1.
     100001    1    1    2    0    0  0.83690565027E+03  0.87943613594E+03  0.63838492123E+04  0.65000000000E+04  0.15050000000E+03 0.  1.
</event>
<event>
 4    1  0.5143956E-004  0.6500000E+04  0.7818608E-02  0.7223770E-01
         52   -1    0    0    0    0  0.00000000000E+00  0.00000000000E+00  0.64930732323E+04  0.65000000000E+04  0.30000000000E+03 0.  1.
        -52   -1    0    0    0    0 -0.00000000000E+00 -0.00000000000E+00 -0.64930732323E+04  0.65000000000E+04  0.30000000000E+03 0. -1.
     100001    1    1    2    0    0 -0.24033318031E+04  0.10277088926E+04 -0.59493831971E+04  0.65000000000E+04  0.15050000000E+03 0. -1.
     100001    1    1    2    0    0  0.24033318031E+04 -0.10277088926E+04  0.59493831971E+04  0.65000000000E+04  0.15050000000E+03 0.  1.
</event>
<event>
 4    1  0.5143956E-004  0.6500000E+04  0.7818608E-02  0.7223770E-01
         52   -1    0    0    0    0  0.00000000000E+00  0.00000000000E+00  0.64930732323E+04  0.65000000000E+04  0.30000000000E+03 0.  1.
        -52   -1    0    0    0    0 -0.00000000000E+00 -0.00000000000E+00 -0.64930732323E+04  0.65000000000E+04  0.30000000000E+03 0. -1.
     100001    1    1    2    0    0 -0.57804318207E+04  0.27241377053E+04 -0.11802675457E+04  0.65000000000E+04  0.15050000000E+03 0.  1.
     100001    1    1    2    0    0  0.57804318207E+04 -0.27241377053E+04  0.11802675457E+04  0.65000000000E+04  0.15050000000E+03 0. -1.
</event>
<event>
 4    1  0.6453364E-004  0.6500000E+04  0.7818608E-02  0.7223770E-01
         52   -1    0    0    0    0  0.00000000000E+00  0.00000000000E+00  0.64930732323E+04  0.65000000000E+04  0.30000000000E+03 0. -1.
        -52   -1    0    0    0    0 -0.00000000000E+00 -0.00000000000E+00 -0.64930732323E+04  0.65000000000E+04  0.30000000000E+03 0.  1.
     100001    1    1    2    0    0  0.12333861115E+03  0.64338978706E+02  0.64967682607E+04  0.65000000000E+04  0.15050000000E+03 0. -1.
     100001    1    1    2    0    0 -0.12333861115E+03 -0.64338978706E+02 -0.64967682607E+04  0.65000000000E+04  0.15050000000E+03 0.  1.
</event>
<event>
 4    1  0.5143956E-004  0.6500000E+04  0.7818608E-02  0.7223770E-01
         52   -1    0    0    0    0  0.00000000000E+00  0.00000000000E+00  0.64930732323E+04  0.65000000000E+04  0.30000000000E+03 0. -1.
        -52   -1    0    0    0    0 -0.00000000000E+00 -0.00000000000E+00 -0.64930732323E+04  0.65000000000E+04  0.30000000000E+03 0.  1.
     100001    1    1    2    0    0  0.86951438152E+03  0.12027977438E+04  0.63264976154E+04  0.65000000000E+04  0.15050000000E+03 0. -1.
     100001    1    1    2    0    0 -0.86951438152E+03 -0.12027977438E+04 -0.63264976154E+04  0.65000000000E+04  0.15050000000E+03 0.  1.
</event>
<event>
 4    1  0.5143956E-004  0.6500000E+04  0.7818608E-02  0.7223770E-01
         52   -1    0    0    0    0  0.00000000000E+00  0.00000000000E+00  0.64930732323E+04  0.65000000000E+04  0.30000000000E+03 0. -1.
        -52   -1    0    0    0    0 -0.00000000000E+00 -0.00000000000E+00 -0.64930732323E+04  0.65000000000E+04  0.30000000000E+03 0.  1.
     100001    1    1    2    0    0  0.26713788502E+02  0.40933568017E+03 -0.64852972503E+04  0.65000000000E+04  0.15050000000E+03 0.  1.
     100001    1    1    2    0    0 -0.26713788502E+02 -0.40933568017E+03  0.64852972503E+04  0.65000000000E+04  0.15050000000E+03 0. -1.
</event>
<event>
 4    1  0.5143956E-004  0.6500000E+04  0.7818608E-02  0.7223770E-01
         52   -1    0    0    0    0  0.00000000000E+00  0.00000000000E+00  0.64930732323E+04  0.65000000000E+04  0.30000000000E+03 0.  1.
        -52   -1    0    0    0    0 -0.00000000000E+00 -0.00000000000E+00 -0.64930732323E+04  0.65000000000E+04  0.30000000000E+03 0. -1.
     100001    1    1    2    0    0 -0.53049411106E+03 -0.57756815037E+02 -0.64763098983E+04  0.65000000000E+04  0.15050000000E+03 0. -1.
     100001    1    1    2    0    0  0.53049411106E+03  0.57756815037E+02  0.64763098983E+04  0.65000000000E+04  0.15050000000E+03 0.  1.
</event>
<event>
 4    1  0.5143956E-004  0.6500000E+04  0.7818608E-02  0.7223770E-01
         52   -1    0    0    0    0  0.00000000000E+00  0.00000000000E+00  0.64930732323E+04  0.65000000000E+04  0.30000000000E+03 0.  1.
        -52   -1    0    0    0    0 -0.00000000000E+00 -0.00000000000E+00 -0.64930732323E+04  0.65000000000E+04  0.30000000000E+03 0. -1.
     100001    1    1    2    0    0 -0.79475144816E+03 -0.24928925400E+04 -0.59482103754E+04  0.65000000000E+04  0.15050000000E+03 0. -1.
     100001    1    1    2    0    0  0.79475144816E+03  0.24928925400E+04  0.59482103754E+04  0.65000000000E+04  0.15050000000E+03 0.  1.
</event>
<event>
 4    1  0.5143956E-004  0.6500000E+04  0.7818608E-02  0.7223770E-01
         52   -1    0    0    0    0  0.00000000000E+00  0.00000000000E+00  0.64930732323E+04  0.65000000000E+04  0.30000000000E+03 0.  1.
        -52   -1    0    0    0    0 -0.00000000000E+00 -0.00000000000E+00 -0.64930732323E+04  0.65000000000E+04  0.30000000000E+03 0. -1.
     100001    1    1    2    0    0  0.23628503012E+03  0.51928364306E+03  0.64731648853E+04  0.65000000000E+04  0.15050000000E+03 0.  1.
     100001    1    1    2    0    0 -0.23628503012E+03 -0.51928364306E+03 -0.64731648853E+04  0.65000000000E+04  0.15050000000E+03 0. -1.
</event>
<event>
 4    1  0.5143956E-004  0.6500000E+04  0.7818608E-02  0.7223770E-01
         52   -1    0    0    0    0  0.00000000000E+00  0.00000000000E+00  0.64930732323E+04  0.65000000000E+04  0.30000000000E+03 0. -1.
        -52   -1    0    0    0    0 -0.00000000000E+00 -0.00000000000E+00 -0.64930732323E+04  0.65000000000E+04  0.30000000000E+03 0.  1.
     100001    1    1    2    0    0 -0.42653810757E+04  0.22936315484E+04 -0.43327968276E+04  0.65000000000E+04  0.15050000000E+03 0.  1.
     100001    1    1    2    0    0  0.42653810757E+04 -0.22936315484E+04  0.43327968276E+04  0.65000000000E+04  0.15050000000E+03 0. -1.
</event>
<event>
 4    1  0.5143956E-004  0.6500000E+04  0.7818608E-02  0.7223770E-01
         52   -1    0    0    0    0  0.00000000000E+00  0.00000000000E+00  0.64930732323E+04  0.65000000000E+04  0.30000000000E+03 0. -1.
        -52   -1    0    0    0    0 -0.00000000000E+00 -0.00000000000E+00 -0.64930732323E+04  0.65000000000E+04  0.30000000000E+03 0.  1.
     100001    1    1    2    0    0 -0.49355745953E+03 -0.72537037588E+03 -0.64387567590E+04  0.65000000000E+04  0.15050000000E+03 0.  1.
     100001    1    1    2    0    0  0.49355745953E+03  0.72537037588E+03  0.64387567590E+04  0.65000000000E+04  0.15050000000E+03 0. -1.
</event>
<event>
 4    1  0.5143956E-004  0.6500000E+04  0.7818608E-02  0.7223770E-01
         52   -1    0    0    0    0  0.00000000000E+00  0.00000000000E+00  0.64930732323E+04  0.65000000000E+04  0.30000000000E+03 0.  1.
        -52   -1    0    0    0    0 -0.00000000000E+00 -0.00000000000E+00 -0.64930732323E+04  0.65000000000E+04  0.30000000000E+03 0. -1.
     100001    1    1    2    0    0 -0.72537645016E+03 -0.45179987092E+04  0.46139859578E+04  0.65000000000E+04  0.15050000000E+03 0.  1.
     100001    1    1    2    0    0  0.72537645016E+03  0.45179987092E+04 -0.46139859578E+04  0.65000000000E+04  0.15050000000E+03 0. -1.
</event>
<event>
 4    1  0.5143956E-004  0.6500000E+04  0.7818608E-02  0.7223770E-01
         52   -1    0    0    0    0  0.00000000000E+00  0.00000000000E+00  0.64930732323E+04  0.65000000000E+04  0.30000000000E+03 0. -1.
        -52   -1    0    0    0    0 -0.00000000000E+00 -0.00000000000E+00 -0.64930732323E+04  0.65000000000E+04  0.30000000000E+03 0.  1.
     100001    1    1    2    0    0  0.87132822151E+03 -0.21668238005E+04  0.60640754858E+04  0.65000000000E+04  0.15050000000E+03 0. -1.
     100001    1    1    2    0    0 -0.87132822151E+03  0.21668238005E+04 -0.60640754858E+04  0.65000000000E+04  0.15050000000E+03 0.  1.
</event>
<event>
 4    1  0.5143956E-004  0.6500000E+04  0.7818608E-02  0.7223770E-01
         52   -1    0    0    0    0  0.00000000000E+00  0.00000000000E+00  0.64930732323E+04  0.65000000000E+04  0.30000000000E+03 0. -1.
        -52   -1    0    0    0    0 -0.00000000000E+00 -0.00000000000E+00 -0.64930732323E+04  0.65000000000E+04  0.30000000000E+03 0. -1.
     100001    1    1    2    0    0 -0.21886982769E+03  0.16901053860E+03 -0.64923709988E+04  0.65000000000E+04  0.15050000000E+03 0. -1.
     100001    1    1    2    0    0  0.21886982769E+03 -0.16901053860E+03  0.64923709988E+04  0.65000000000E+04  0.15050000000E+03 0. -1.
</event>
<event>
 4    1  0.5143956E-004  0.6500000E+04  0.7818608E-02  0.7223770E-01
         52   -1    0    0    0    0  0.00000000000E+00  0.00000000000E+00  0.64930732323E+04  0.65000000000E+04  0.30000000000E+03 0. -1.
        -52   -1    0    0    0    0 -0.00000000000E+00 -0.00000000000E+00 -0.64930732323E+04  0.65000000000E+04  0.30000000000E+03 0.  1.
     100001    1    1    2    0    0  0.60926906216E+04  0.22129055107E+04  0.45773348187E+03  0.65000000000E+04  0.15050000000E+03 0.  1.
     100001    1    1    2    0    0 -0.60926906216E+04 -0.22129055107E+04 -0.45773348187E+03  0.65000000000E+04  0.15050000000E+03 0. -1.
</event>
<event>
 4    1  0.5143956E-004  0.6500000E+04  0.7818608E-02  0.7223770E-01
         52   -1    0    0    0    0  0.00000000000E+00  0.00000000000E+00  0.64930732323E+04  0.65000000000E+04  0.30000000000E+03 0.  1.
        -52   -1    0    0    0    0 -0.00000000000E+00 -0.00000000000E+00 -0.64930732323E+04  0.65000000000E+04  0.30000000000E+03 0.  1.
     100001    1    1    2    0    0  0.27895629590E+03  0.63298264892E+03 -0.64613362473E+04  0.65000000000E+04  0.15050000000E+03 0.  1.
     100001    1    1    2    0    0 -0.27895629590E+03 -0.63298264892E+03  0.64613362473E+04  0.65000000000E+04  0.15050000000E+03 0.  1.
</event>
<event>
 4    1  0.5143956E-004  0.6500000E+04  0.7818608E-02  0.7223770E-01
         52   -1    0    0    0    0  0.00000000000E+00  0.00000000000E+00  0.64930732323E+04  0.65000000000E+04  0.30000000000E+03 0. -1.
        -52   -1    0    0    0    0 -0.00000000000E+00 -0.00000000000E+00 -0.64930732323E+04  0.65000000000E+04  0.30000000000E+03 0.  1.
     100001    1    1    2    0    0  0.21122920205E+03  0.17962016002E+04 -0.62415055704E+04  0.65000000000E+04  0.15050000000E+03 0.  1.
     100001    1    1    2    0    0 -0.21122920205E+03 -0.17962016002E+04  0.62415055704E+04  0.65000000000E+04  0.15050000000E+03 0. -1.
</event>
<event>
 4    1  0.5143956E-004  0.6500000E+04  0.7818608E-02  0.7223770E-01
         52   -1    0    0    0    0  0.00000000000E+00  0.00000000000E+00  0.64930732323E+04  0.65000000000E+04  0.30000000000E+03 0.  1.
        -52   -1    0    0    0    0 -0.00000000000E+00 -0.00000000000E+00 -0.64930732323E+04  0.65000000000E+04  0.30000000000E+03 0. -1.
     100001    1    1    2    0    0  0.87521938513E+03 -0.14715123294E+03  0.64373664874E+04  0.65000000000E+04  0.15050000000E+03 0.  1.
     100001    1    1    2    0    0 -0.87521938513E+03  0.14715123294E+03 -0.64373664874E+04  0.65000000000E+04  0.15050000000E+03 0. -1.
</event>
<event>
 4    1  0.5143956E-004  0.6500000E+04  0.7818608E-02  0.7223770E-01
         52   -1    0    0    0    0  0.00000000000E+00  0.00000000000E+00  0.64930732323E+04  0.65000000000E+04  0.30000000000E+03 0.  1.
        -52   -1    0    0    0    0 -0.00000000000E+00 -0.00000000000E+00 -0.64930732323E+04  0.65000000000E+04  0.30000000000E+03 0. -1.
     100001    1    1    2    0    0  0.22441153412E+03  0.10826229813E+03  0.64934789203E+04  0.65000000000E+04  0.15050000000E+03 0.  1.
     100001    1    1    2    0    0 -0.22441153412E+03 -0.10826229813E+03 -0.64934789203E+04  0.65000000000E+04  0.15050000000E+03 0. -1.
</event>
<event>
 4    1  0.5143956E-004  0.6500000E+04  0.7818608E-02  0.7223770E-01
         52   -1    0    0    0    0  0.00000000000E+00  0.00000000000E+00  0.64930732323E+04  0.65000000000E+04  0.30000000000E+03 0.  1.
        -52   -1    0    0    0    0 -0.00000000000E+00 -0.00000000000E+00 -0.64930732323E+04  0.65000000000E+04  0.30000000000E+03 0. -1.
     100001    1    1    2    0    0  0.50885613176E+04  0.22148165599E+04 -0.33806036552E+04  0.65000000000E+04  0.15050000000E+03 0. -1.
     100001    1    1    2    0    0 -0.50885613176E+04 -0.22148165599E+04  0.33806036552E+04  0.65000000000E+04  0.15050000000E+03 0.  1.
</event>
<event>
 4    1  0.5143956E-004  0.6500000E+04  0.7818608E-02  0.7223770E-01
         52   -1    0    0    0    0  0.00000000000E+00  0.00000000000E+00  0.64930732323E+04  0.65000000000E+04  0.30000000000E+03 0.  1.
        -52   -1    0    0    0    0 -0.00000000000E+00 -0.00000000000E+00 -0.64930732323E+04  0.65000000000E+04  0.30000000000E+03 0. -1.
     100001    1    1    2    0    0  0.21273319278E+04 -0.95534688306E+03  0.60654036100E+04  0.65000000000E+04  0.15050000000E+03 0.  1.
     100001    1    1    2    0    0 -0.21273319278E+04  0.95534688306E+03 -0.60654036100E+04  0.65000000000E+04  0.15050000000E+03 0. -1.
</event>
<event>
 4    1  0.5143956E-004  0.6500000E+04  0.7818608E-02  0.7223770E-01
         52   -1    0    0    0    0  0.00000000000E+00  0.00000000000E+00  0.64930732323E+04  0.65000000000E+04  0.30000000000E+03 0. -1.
        -52   -1    0    0    0    0 -0.00000000000E+00 -0.00000000000E+00 -0.64930732323E+04  0.65000000000E+04  0.30000000000E+03 0.  1.
     100001    1    1    2    0    0  0.86765941830E+03  0.67440054072E+03  0.64046624263E+04  0.65000000000E+04  0.15050000000E+03 0. -1.
     100001    1    1    2    0    0 -0.86765941830E+03 -0.67440054072E+03 -0.64046624263E+04  0.65000000000E+04  0.15050000000E+03 0.  1.
</event>
<event>
 4    1  0.5143956E-004  0.6500000E+04  0.7818608E-02  0.7223770E-01
         52   -1    0    0    0    0  0.00000000000E+00  0.00000000000E+00  0.64930732323E+04  0.65000000000E+04  0.30000000000E+03 0. -1.
        -52   -1    0    0    0    0 -0.00000000000E+00 -0.00000000000E+00 -0.64930732323E+04  0.65000000000E+04  0.30000000000E+03 0.  1.
     100001    1    1    2    0    0 -0.12590711422E+04  0.47530915241E+03  0.63573713765E+04  0.65000000000E+04  0.15050000000E+03 0. -1.
     100001    1    1    2    0    0  0.12590711422E+04 -0.47530915241E+03 -0.63573713765E+04  0.65000000000E+04  0.15050000000E+03 0.  1.
</event>
<event>
 4    1  0.5143956E-004  0.6500000E+04  0.7818608E-02  0.7223770E-01
         52   -1    0    0    0    0  0.00000000000E+00  0.00000000000E+00  0.64930732323E+04  0.65000000000E+04  0.30000000000E+03 0. -1.
        -52   -1    0    0    0    0 -0.00000000000E+00 -0.00000000000E+00 -0.64930732323E+04  0.65000000000E+04  0.30000000000E+03 0. -1.
     100001    1    1    2    0    0 -0.22919799873E+03 -0.58526060177E+02 -0.64939504716E+04  0.65000000000E+04  0.15050000000E+03 0. -1.
     100001    1    1    2    0    0  0.22919799873E+03  0.58526060177E+02  0.64939504716E+04  0.65000000000E+04  0.15050000000E+03 0. -1.
</event>
<event>
 4    1  0.5143956E-004  0.6500000E+04  0.7818608E-02  0.7223770E-01
         52   -1    0    0    0    0  0.00000000000E+00  0.00000000000E+00  0.64930732323E+04  0.65000000000E+04  0.30000000000E+03 0.  1.
        -52   -1    0    0    0    0 -0.00000000000E+00 -0.00000000000E+00 -0.64930732323E+04  0.65000000000E+04  0.30000000000E+03 0. -1.
     100001    1    1    2    0    0  0.33632537354E+04 -0.12428254639E+04 -0.54195257106E+04  0.65000000000E+04  0.15050000000E+03 0. -1.
     100001    1    1    2    0    0 -0.33632537354E+04  0.12428254639E+04  0.54195257106E+04  0.65000000000E+04  0.15050000000E+03 0.  1.
</event>
<event>
 4    1  0.5143956E-004  0.6500000E+04  0.7818608E-02  0.7223770E-01
         52   -1    0    0    0    0  0.00000000000E+00  0.00000000000E+00  0.64930732323E+04  0.65000000000E+04  0.30000000000E+03 0. -1.
        -52   -1    0    0    0    0 -0.00000000000E+00 -0.00000000000E+00 -0.64930732323E+04  0.65000000000E+04  0.30000000000E+03 0.  1.
     100001    1    1    2    0    0  0.27337569583E+03 -0.73033767257E+03  0.64512961770E+04  0.65000000000E+04  0.15050000000E+03 0. -1.
     100001    1    1    2    0    0 -0.27337569583E+03  0.73033767257E+03 -0.64512961770E+04  0.65000000000E+04  0.15050000000E+03 0.  1.
</event>
<event>
 4    1  0.5143956E-004  0.6500000E+04  0.7818608E-02  0.7223770E-01
         52   -1    0    0    0    0  0.00000000000E+00  0.00000000000E+00  0.64930732323E+04  0.65000000000E+04  0.30000000000E+03 0. -1.
        -52   -1    0    0    0    0 -0.00000000000E+00 -0.00000000000E+00 -0.64930732323E+04  0.65000000000E+04  0.30000000000E+03 0. -1.
     100001    1    1    2    0    0  0.10009002087E+03  0.10145267289E+03  0.64966944743E+04  0.65000000000E+04  0.15050000000E+03 0. -1.
     100001    1    1    2    0    0 -0.10009002087E+03 -0.10145267289E+03 -0.64966944743E+04  0.65000000000E+04  0.15050000000E+03 0. -1.
</event>
<event>
 4    1  0.5143956E-004  0.6500000E+04  0.7818608E-02  0.7223770E-01
         52   -1    0    0    0    0  0.00000000000E+00  0.00000000000E+00  0.64930732323E+04  0.65000000000E+04  0.30000000000E+03 0.  1.
        -52   -1    0    0    0    0 -0.00000000000E+00 -0.00000000000E+00 -0.64930732323E+04  0.65000000000E+04  0.30000000000E+03 0.  1.
     100001    1    1    2    0    0  0.32423221320E+03  0.20545826284E+03 -0.64869106764E+04  0.65000000000E+04  0.15050000000E+03 0.  1.
     100001    1    1    2    0    0 -0.32423221320E+03 -0.20545826284E+03  0.64869106764E+04  0.65000000000E+04  0.15050000000E+03 0.  1.
</event>
<event>
 4    1  0.5143956E-004  0.6500000E+04  0.7818608E-02  0.7223770E-01
         52   -1    0    0    0    0  0.00000000000E+00  0.00000000000E+00  0.64930732323E+04  0.65000000000E+04  0.30000000000E+03 0.  1.
        -52   -1    0    0    0    0 -0.00000000000E+00 -0.00000000000E+00 -0.64930732323E+04  0.65000000000E+04  0.30000000000E+03 0. -1.
     100001    1    1    2    0    0  0.17977076373E+04  0.16240339520E+04  0.60297687123E+04  0.65000000000E+04  0.15050000000E+03 0.  1.
     100001    1    1    2    0    0 -0.17977076373E+04 -0.16240339520E+04 -0.60297687123E+04  0.65000000000E+04  0.15050000000E+03 0. -1.
</event>
<event>
 4    1  0.5143956E-004  0.6500000E+04  0.7818608E-02  0.7223770E-01
         52   -1    0    0    0    0  0.00000000000E+00  0.00000000000E+00  0.64930732323E+04  0.65000000000E+04  0.30000000000E+03 0.  1.
        -52   -1    0    0    0    0 -0.00000000000E+00 -0.00000000000E+00 -0.64930732323E+04  0.65000000000E+04  0.30000000000E+03 0. -1.
     100001    1    1    2    0    0 -0.38278297788E+04  0.11320454798E+04 -0.51277228831E+04  0.65000000000E+04  0.15050000000E+03 0. -1.
     100001    1    1    2    0    0  0.38278297788E+04 -0.11320454798E+04  0.51277228831E+04  0.65000000000E+04  0.15050000000E+03 0.  1.
</event>
<event>
 4    1  0.5143956E-004  0.6500000E+04  0.7818608E-02  0.7223770E-01
         52   -1    0    0    0    0  0.00000000000E+00  0.00000000000E+00  0.64930732323E+04  0.65000000000E+04  0.30000000000E+03 0.  1.
        -52   -1    0    0    0    0 -0.00000000000E+00 -0.00000000000E+00 -0.64930732323E+04  0.65000000000E+04  0.30000000000E+03 0. -1.
     100001    1    1    2    0    0  0.34394943240E+04  0.18513979487E+04  0.51932219460E+04  0.65000000000E+04  0.15050000000E+03 0.  1.
     100001    1    1    2    0    0 -0.34394943240E+04 -0.18513979487E+04 -0.51932219460E+04  0.65000000000E+04  0.15050000000E+03 0. -1.
</event>
<event>
 4    1  0.5143956E-004  0.6500000E+04  0.7818608E-02  0.7223770E-01
         52   -1    0    0    0    0  0.00000000000E+00  0.00000000000E+00  0.64930732323E+04  0.65000000000E+04  0.30000000000E+03 0. -1.
        -52   -1    0    0    0    0 -0.00000000000E+00 -0.00000000000E+00 -0.64930732323E+04  0.65000000000E+04  0.30000000000E+03 0.  1.
     100001    1    1    2    0    0 -0.74252730293E+03  0.23854246890E+03  0.64512867278E+04  0.65000000000E+04  0.15050000000E+03 0. -1.
     100001    1    1    2    0    0  0.74252730293E+03 -0.23854246890E+03 -0.64512867278E+04  0.65000000000E+04  0.15050000000E+03 0.  1.
</event>
<event>
 4    1  0.5143956E-004  0.6500000E+04  0.7818608E-02  0.7223770E-01
         52   -1    0    0    0    0  0.00000000000E+00  0.00000000000E+00  0.64930732323E+04  0.65000000000E+04  0.30000000000E+03 0. -1.
        -52   -1    0    0    0    0 -0.00000000000E+00 -0.00000000000E+00 -0.64930732323E+04  0.65000000000E+04  0.30000000000E+03 0.  1.
     100001    1    1    2    0    0  0.46211672404E+04 -0.27471321692E+02 -0.45685236579E+04  0.65000000000E+04  0.15050000000E+03 0.  1.
     100001    1    1    2    0    0 -0.46211672404E+04  0.27471321692E+02  0.45685236579E+04  0.65000000000E+04  0.15050000000E+03 0. -1.
</event>
<event>
 4    1  0.5143956E-004  0.6500000E+04  0.7818608E-02  0.7223770E-01
         52   -1    0    0    0    0  0.00000000000E+00  0.00000000000E+00  0.64930732323E+04  0.65000000000E+04  0.30000000000E+03 0.  1.
        -52   -1    0    0    0    0 -0.00000000000E+00 -0.00000000000E+00 -0.64930732323E+04  0.65000000000E+04  0.30000000000E+03 0. -1.
     100001    1    1    2    0    0  0.63704089267E+03 -0.36391601579E+03  0.64567092071E+04  0.65000000000E+04  0.15050000000E+03 0.  1.
     100001    1    1    2    0    0 -0.63704089267E+03  0.36391601579E+03 -0.64567092071E+04  0.65000000000E+04  0.15050000000E+03 0. -1.
</event>
<event>
 4    1  0.5143956E-004  0.6500000E+04  0.7818608E-02  0.7223770E-01
         52   -1    0    0    0    0  0.00000000000E+00  0.00000000000E+00  0.64930732323E+04  0.65000000000E+04  0.30000000000E+03 0.  1.
        -52   -1    0    0    0    0 -0.00000000000E+00 -0.00000000000E+00 -0.64930732323E+04  0.65000000000E+04  0.30000000000E+03 0. -1.
     100001    1    1    2    0    0 -0.43796337219E+03  0.54066968514E+03  0.64608988636E+04  0.65000000000E+04  0.15050000000E+03 0.  1.
     100001    1    1    2    0    0  0.43796337219E+03 -0.54066968514E+03 -0.64608988636E+04  0.65000000000E+04  0.15050000000E+03 0. -1.
</event>
<event>
 4    1  0.5143956E-004  0.6500000E+04  0.7818608E-02  0.7223770E-01
         52   -1    0    0    0    0  0.00000000000E+00  0.00000000000E+00  0.64930732323E+04  0.65000000000E+04  0.30000000000E+03 0. -1.
        -52   -1    0    0    0    0 -0.00000000000E+00 -0.00000000000E+00 -0.64930732323E+04  0.65000000000E+04  0.30000000000E+03 0.  1.
     100001    1    1    2    0    0  0.32824414600E+04  0.29490401125E+04 -0.47703343936E+04  0.65000000000E+04  0.15050000000E+03 0.  1.
     100001    1    1    2    0    0 -0.32824414600E+04 -0.29490401125E+04  0.47703343936E+04  0.65000000000E+04  0.15050000000E+03 0. -1.
</event>
<event>
 4    1  0.5143956E-004  0.6500000E+04  0.7818608E-02  0.7223770E-01
         52   -1    0    0    0    0  0.00000000000E+00  0.00000000000E+00  0.64930732323E+04  0.65000000000E+04  0.30000000000E+03 0. -1.
        -52   -1    0    0    0    0 -0.00000000000E+00 -0.00000000000E+00 -0.64930732323E+04  0.65000000000E+04  0.30000000000E+03 0.  1.
     100001    1    1    2    0    0 -0.39510486405E+03  0.40084317576E+03 -0.64738370882E+04  0.65000000000E+04  0.15050000000E+03 0.  1.
     100001    1    1    2    0    0  0.39510486405E+03 -0.40084317576E+03  0.64738370882E+04  0.65000000000E+04  0.15050000000E+03 0. -1.
</event>
<event>
 4    1  0.5143956E-004  0.6500000E+04  0.7818608E-02  0.7223770E-01
         52   -1    0    0    0    0  0.00000000000E+00  0.00000000000E+00  0.64930732323E+04  0.65000000000E+04  0.30000000000E+03 0.  1.
        -52   -1    0    0    0    0 -0.00000000000E+00 -0.00000000000E+00 -0.64930732323E+04  0.65000000000E+04  0.30000000000E+03 0. -1.
     100001    1    1    2    0    0 -0.10510919805E+04 -0.23859384101E+04  0.59522981530E+04  0.65000000000E+04  0.15050000000E+03 0.  1.
     100001    1    1    2    0    0  0.10510919805E+04  0.23859384101E+04 -0.59522981530E+04  0.65000000000E+04  0.15050000000E+03 0. -1.
</event>
<event>
 4    1  0.5143956E-004  0.6500000E+04  0.7818608E-02  0.7223770E-01
         52   -1    0    0    0    0  0.00000000000E+00  0.00000000000E+00  0.64930732323E+04  0.65000000000E+04  0.30000000000E+03 0.  1.
        -52   -1    0    0    0    0 -0.00000000000E+00 -0.00000000000E+00 -0.64930732323E+04  0.65000000000E+04  0.30000000000E+03 0. -1.
     100001    1    1    2    0    0 -0.42551594635E+03 -0.64559237446E+02 -0.64839893611E+04  0.65000000000E+04  0.15050000000E+03 0. -1.
     100001    1    1    2    0    0  0.42551594635E+03  0.64559237446E+02  0.64839893611E+04  0.65000000000E+04  0.15050000000E+03 0.  1.
</event>
<event>
 4    1  0.5143956E-004  0.6500000E+04  0.7818608E-02  0.7223770E-01
         52   -1    0    0    0    0  0.00000000000E+00  0.00000000000E+00  0.64930732323E+04  0.65000000000E+04  0.30000000000E+03 0.  1.
        -52   -1    0    0    0    0 -0.00000000000E+00 -0.00000000000E+00 -0.64930732323E+04  0.65000000000E+04  0.30000000000E+03 0. -1.
     100001    1    1    2    0    0  0.30345413406E+03  0.16561255633E+04  0.62763455495E+04  0.65000000000E+04  0.15050000000E+03 0.  1.
     100001    1    1    2    0    0 -0.30345413406E+03 -0.16561255633E+04 -0.62763455495E+04  0.65000000000E+04  0.15050000000E+03 0. -1.
</event>
<event>
 4    1  0.5143956E-004  0.6500000E+04  0.7818608E-02  0.7223770E-01
         52   -1    0    0    0    0  0.00000000000E+00  0.00000000000E+00  0.64930732323E+04  0.65000000000E+04  0.30000000000E+03 0.  1.
        -52   -1    0    0    0    0 -0.00000000000E+00 -0.00000000000E+00 -0.64930732323E+04  0.65000000000E+04  0.30000000000E+03 0. -1.
     100001    1    1    2    0    0  0.60676982652E+04  0.17914315608E+04  0.14836308421E+04  0.65000000000E+04  0.15050000000E+03 0.  1.
     100001    1    1    2    0    0 -0.60676982652E+04 -0.17914315608E+04 -0.14836308421E+04  0.65000000000E+04  0.15050000000E+03 0. -1.
</event>
<event>
 4    1  0.5143956E-004  0.6500000E+04  0.7818608E-02  0.7223770E-01
         52   -1    0    0    0    0  0.00000000000E+00  0.00000000000E+00  0.64930732323E+04  0.65000000000E+04  0.30000000000E+03 0. -1.
        -52   -1    0    0    0    0 -0.00000000000E+00 -0.00000000000E+00 -0.64930732323E+04  0.65000000000E+04  0.30000000000E+03 0.  1.
     100001    1    1    2    0    0 -0.46058869880E+04  0.99876802832E+02 -0.45829225859E+04  0.65000000000E+04  0.15050000000E+03 0.  1.
     100001    1    1    2    0    0  0.46058869880E+04 -0.99876802832E+02  0.45829225859E+04  0.65000000000E+04  0.15050000000E+03 0. -1.
</event>
<event>
 4    1  0.5143956E-004  0.6500000E+04  0.7818608E-02  0.7223770E-01
         52   -1    0    0    0    0  0.00000000000E+00  0.00000000000E+00  0.64930732323E+04  0.65000000000E+04  0.30000000000E+03 0.  1.
        -52   -1    0    0    0    0 -0.00000000000E+00 -0.00000000000E+00 -0.64930732323E+04  0.65000000000E+04  0.30000000000E+03 0. -1.
     100001    1    1    2    0    0  0.10219441347E+04 -0.16839112231E+04  0.61925296066E+04  0.65000000000E+04  0.15050000000E+03 0.  1.
     100001    1    1    2    0    0 -0.10219441347E+04  0.16839112231E+04 -0.61925296066E+04  0.65000000000E+04  0.15050000000E+03 0. -1.
</event>
<event>
 4    1  0.5143956E-004  0.6500000E+04  0.7818608E-02  0.7223770E-01
         52   -1    0    0    0    0  0.00000000000E+00  0.00000000000E+00  0.64930732323E+04  0.65000000000E+04  0.30000000000E+03 0. -1.
        -52   -1    0    0    0    0 -0.00000000000E+00 -0.00000000000E+00 -0.64930732323E+04  0.65000000000E+04  0.30000000000E+03 0.  1.
     100001    1    1    2    0    0  0.43373103376E+03 -0.83710450067E+00 -0.64837663776E+04  0.65000000000E+04  0.15050000000E+03 0.  1.
     100001    1    1    2    0    0 -0.43373103376E+03  0.83710450067E+00  0.64837663776E+04  0.65000000000E+04  0.15050000000E+03 0. -1.
</event>
<event>
 4    1  0.5143956E-004  0.6500000E+04  0.7818608E-02  0.7223770E-01
         52   -1    0    0    0    0  0.00000000000E+00  0.00000000000E+00  0.64930732323E+04  0.65000000000E+04  0.30000000000E+03 0.  1.
        -52   -1    0    0    0    0 -0.00000000000E+00 -0.00000000000E+00 -0.64930732323E+04  0.65000000000E+04  0.30000000000E+03 0. -1.
     100001    1    1    2    0    0 -0.38196185639E+02 -0.37383202999E+03  0.64873831716E+04  0.65000000000E+04  0.15050000000E+03 0.  1.
     100001    1    1    2    0    0  0.38196185639E+02  0.37383202999E+03 -0.64873831716E+04  0.65000000000E+04  0.15050000000E+03 0. -1.
</event>
<event>
 4    1  0.5143956E-004  0.6500000E+04  0.7818608E-02  0.7223770E-01
         52   -1    0    0    0    0  0.00000000000E+00  0.00000000000E+00  0.64930732323E+04  0.65000000000E+04  0.30000000000E+03 0. -1.
        -52   -1    0    0    0    0 -0.00000000000E+00 -0.00000000000E+00 -0.64930732323E+04  0.65000000000E+04  0.30000000000E+03 0.  1.
     100001    1    1    2    0    0 -0.50724320485E+04  0.12809108835E+04 -0.38544844237E+04  0.65000000000E+04  0.15050000000E+03 0.  1.
     100001    1    1    2    0    0  0.50724320485E+04 -0.12809108835E+04  0.38544844237E+04  0.65000000000E+04  0.15050000000E+03 0. -1.
</event>
<event>
 4    1  0.5143956E-004  0.6500000E+04  0.7818608E-02  0.7223770E-01
         52   -1    0    0    0    0  0.00000000000E+00  0.00000000000E+00  0.64930732323E+04  0.65000000000E+04  0.30000000000E+03 0.  1.
        -52   -1    0    0    0    0 -0.00000000000E+00 -0.00000000000E+00 -0.64930732323E+04  0.65000000000E+04  0.30000000000E+03 0. -1.
     100001    1    1    2    0    0  0.33799483664E+04 -0.71111060222E+02 -0.55496163838E+04  0.65000000000E+04  0.15050000000E+03 0. -1.
     100001    1    1    2    0    0 -0.33799483664E+04  0.71111060222E+02  0.55496163838E+04  0.65000000000E+04  0.15050000000E+03 0.  1.
</event>
<event>
 4    1  0.5143956E-004  0.6500000E+04  0.7818608E-02  0.7223770E-01
         52   -1    0    0    0    0  0.00000000000E+00  0.00000000000E+00  0.64930732323E+04  0.65000000000E+04  0.30000000000E+03 0. -1.
        -52   -1    0    0    0    0 -0.00000000000E+00 -0.00000000000E+00 -0.64930732323E+04  0.65000000000E+04  0.30000000000E+03 0.  1.
     100001    1    1    2    0    0 -0.13874879353E+04 -0.40644820531E+03  0.63353789812E+04  0.65000000000E+04  0.15050000000E+03 0. -1.
     100001    1    1    2    0    0  0.13874879353E+04  0.40644820531E+03 -0.63353789812E+04  0.65000000000E+04  0.15050000000E+03 0.  1.
</event>
<event>
 4    1  0.5143956E-004  0.6500000E+04  0.7818608E-02  0.7223770E-01
         52   -1    0    0    0    0  0.00000000000E+00  0.00000000000E+00  0.64930732323E+04  0.65000000000E+04  0.30000000000E+03 0. -1.
        -52   -1    0    0    0    0 -0.00000000000E+00 -0.00000000000E+00 -0.64930732323E+04  0.65000000000E+04  0.30000000000E+03 0.  1.
     100001    1    1    2    0    0 -0.48266043637E+04 -0.41778799725E+04  0.12151374415E+04  0.65000000000E+04  0.15050000000E+03 0. -1.
     100001    1    1    2    0    0  0.48266043637E+04  0.41778799725E+04 -0.12151374415E+04  0.65000000000E+04  0.15050000000E+03 0.  1.
</event>
<event>
 4    1  0.5143956E-004  0.6500000E+04  0.7818608E-02  0.7223770E-01
         52   -1    0    0    0    0  0.00000000000E+00  0.00000000000E+00  0.64930732323E+04  0.65000000000E+04  0.30000000000E+03 0. -1.
        -52   -1    0    0    0    0 -0.00000000000E+00 -0.00000000000E+00 -0.64930732323E+04  0.65000000000E+04  0.30000000000E+03 0.  1.
     100001    1    1    2    0    0  0.49030644685E+03 -0.95916813949E+03  0.64083496954E+04  0.65000000000E+04  0.15050000000E+03 0. -1.
     100001    1    1    2    0    0 -0.49030644685E+03  0.95916813949E+03 -0.64083496954E+04  0.65000000000E+04  0.15050000000E+03 0.  1.
</event>
<event>
 4    1  0.5143956E-004  0.6500000E+04  0.7818608E-02  0.7223770E-01
         52   -1    0    0    0    0  0.00000000000E+00  0.00000000000E+00  0.64930732323E+04  0.65000000000E+04  0.30000000000E+03 0.  1.
        -52   -1    0    0    0    0 -0.00000000000E+00 -0.00000000000E+00 -0.64930732323E+04  0.65000000000E+04  0.30000000000E+03 0. -1.
     100001    1    1    2    0    0 -0.86914145844E+03 -0.60827022169E+03 -0.64110802688E+04  0.65000000000E+04  0.15050000000E+03 0. -1.
     100001    1    1    2    0    0  0.86914145844E+03  0.60827022169E+03  0.64110802688E+04  0.65000000000E+04  0.15050000000E+03 0.  1.
</event>
<event>
 4    1  0.5143956E-004  0.6500000E+04  0.7818608E-02  0.7223770E-01
         52   -1    0    0    0    0  0.00000000000E+00  0.00000000000E+00  0.64930732323E+04  0.65000000000E+04  0.30000000000E+03 0.  1.
        -52   -1    0    0    0    0 -0.00000000000E+00 -0.00000000000E+00 -0.64930732323E+04  0.65000000000E+04  0.30000000000E+03 0. -1.
     100001    1    1    2    0    0  0.39559287688E+04 -0.49101462373E+04 -0.15711273830E+04  0.65000000000E+04  0.15050000000E+03 0. -1.
     100001    1    1    2    0    0 -0.39559287688E+04  0.49101462373E+04  0.15711273830E+04  0.65000000000E+04  0.15050000000E+03 0.  1.
</event>
<event>
 4    1  0.5143956E-004  0.6500000E+04  0.7818608E-02  0.7223770E-01
         52   -1    0    0    0    0  0.00000000000E+00  0.00000000000E+00  0.64930732323E+04  0.65000000000E+04  0.30000000000E+03 0.  1.
        -52   -1    0    0    0    0 -0.00000000000E+00 -0.00000000000E+00 -0.64930732323E+04  0.65000000000E+04  0.30000000000E+03 0. -1.
     100001    1    1    2    0    0 -0.10197687134E+02  0.34434567134E+03  0.64891194946E+04  0.65000000000E+04  0.15050000000E+03 0.  1.
     100001    1    1    2    0    0  0.10197687134E+02 -0.34434567134E+03 -0.64891194946E+04  0.65000000000E+04  0.15050000000E+03 0. -1.
</event>
<event>
 4    1  0.5143956E-004  0.6500000E+04  0.7818608E-02  0.7223770E-01
         52   -1    0    0    0    0  0.00000000000E+00  0.00000000000E+00  0.64930732323E+04  0.65000000000E+04  0.30000000000E+03 0.  1.
        -52   -1    0    0    0    0 -0.00000000000E+00 -0.00000000000E+00 -0.64930732323E+04  0.65000000000E+04  0.30000000000E+03 0. -1.
     100001    1    1    2    0    0 -0.12515370303E+03  0.11224022362E+04 -0.63993671188E+04  0.65000000000E+04  0.15050000000E+03 0. -1.
     100001    1    1    2    0    0  0.12515370303E+03 -0.11224022362E+04  0.63993671188E+04  0.65000000000E+04  0.15050000000E+03 0.  1.
</event>
<event>
 4    1  0.5143956E-004  0.6500000E+04  0.7818608E-02  0.7223770E-01
         52   -1    0    0    0    0  0.00000000000E+00  0.00000000000E+00  0.64930732323E+04  0.65000000000E+04  0.30000000000E+03 0.  1.
        -52   -1    0    0    0    0 -0.00000000000E+00 -0.00000000000E+00 -0.64930732323E+04  0.65000000000E+04  0.30000000000E+03 0. -1.
     100001    1    1    2    0    0  0.48896912055E+04 -0.97245914546E+03  0.41680442507E+04  0.65000000000E+04  0.15050000000E+03 0.  1.
     100001    1    1    2    0    0 -0.48896912055E+04  0.97245914546E+03 -0.41680442507E+04  0.65000000000E+04  0.15050000000E+03 0. -1.
</event>
<event>
 4    1  0.5143956E-004  0.6500000E+04  0.7818608E-02  0.7223770E-01
         52   -1    0    0    0    0  0.00000000000E+00  0.00000000000E+00  0.64930732323E+04  0.65000000000E+04  0.30000000000E+03 0.  1.
        -52   -1    0    0    0    0 -0.00000000000E+00 -0.00000000000E+00 -0.64930732323E+04  0.65000000000E+04  0.30000000000E+03 0. -1.
     100001    1    1    2    0    0  0.33381373614E+03 -0.21386078138E+03 -0.64861530745E+04  0.65000000000E+04  0.15050000000E+03 0. -1.
     100001    1    1    2    0    0 -0.33381373614E+03  0.21386078138E+03  0.64861530745E+04  0.65000000000E+04  0.15050000000E+03 0.  1.
</event>
<event>
 4    1  0.5143956E-004  0.6500000E+04  0.7818608E-02  0.7223770E-01
         52   -1    0    0    0    0  0.00000000000E+00  0.00000000000E+00  0.64930732323E+04  0.65000000000E+04  0.30000000000E+03 0. -1.
        -52   -1    0    0    0    0 -0.00000000000E+00 -0.00000000000E+00 -0.64930732323E+04  0.65000000000E+04  0.30000000000E+03 0. -1.
     100001    1    1    2    0    0  0.32453390170E+03  0.57645338933E+03 -0.64644975819E+04  0.65000000000E+04  0.15050000000E+03 0. -1.
     100001    1    1    2    0    0 -0.32453390170E+03 -0.57645338933E+03  0.64644975819E+04  0.65000000000E+04  0.15050000000E+03 0. -1.
</event>
<event>
 4    1  0.5143956E-004  0.6500000E+04  0.7818608E-02  0.7223770E-01
         52   -1    0    0    0    0  0.00000000000E+00  0.00000000000E+00  0.64930732323E+04  0.65000000000E+04  0.30000000000E+03 0. -1.
        -52   -1    0    0    0    0 -0.00000000000E+00 -0.00000000000E+00 -0.64930732323E+04  0.65000000000E+04  0.30000000000E+03 0.  1.
     100001    1    1    2    0    0  0.10024993697E+04  0.21737410991E+03 -0.64167821578E+04  0.65000000000E+04  0.15050000000E+03 0.  1.
     100001    1    1    2    0    0 -0.10024993697E+04 -0.21737410991E+03  0.64167821578E+04  0.65000000000E+04  0.15050000000E+03 0. -1.
</event>
<event>
 4    1  0.5143956E-004  0.6500000E+04  0.7818608E-02  0.7223770E-01
         52   -1    0    0    0    0  0.00000000000E+00  0.00000000000E+00  0.64930732323E+04  0.65000000000E+04  0.30000000000E+03 0.  1.
        -52   -1    0    0    0    0 -0.00000000000E+00 -0.00000000000E+00 -0.64930732323E+04  0.65000000000E+04  0.30000000000E+03 0. -1.
     100001    1    1    2    0    0  0.31117012086E+04  0.47449034718E+04  0.31671053633E+04  0.65000000000E+04  0.15050000000E+03 0.  1.
     100001    1    1    2    0    0 -0.31117012086E+04 -0.47449034718E+04 -0.31671053633E+04  0.65000000000E+04  0.15050000000E+03 0. -1.
</event>
<event>
 4    1  0.5143956E-004  0.6500000E+04  0.7818608E-02  0.7223770E-01
         52   -1    0    0    0    0  0.00000000000E+00  0.00000000000E+00  0.64930732323E+04  0.65000000000E+04  0.30000000000E+03 0.  1.
        -52   -1    0    0    0    0 -0.00000000000E+00 -0.00000000000E+00 -0.64930732323E+04  0.65000000000E+04  0.30000000000E+03 0.  1.
     100001    1    1    2    0    0  0.17406208776E+03 -0.25278330545E+03  0.64910055261E+04  0.65000000000E+04  0.15050000000E+03 0.  1.
     100001    1    1    2    0    0 -0.17406208776E+03  0.25278330545E+03 -0.64910055261E+04  0.65000000000E+04  0.15050000000E+03 0.  1.
</event>
<event>
 4    1  0.5143956E-004  0.6500000E+04  0.7818608E-02  0.7223770E-01
         52   -1    0    0    0    0  0.00000000000E+00  0.00000000000E+00  0.64930732323E+04  0.65000000000E+04  0.30000000000E+03 0. -1.
        -52   -1    0    0    0    0 -0.00000000000E+00 -0.00000000000E+00 -0.64930732323E+04  0.65000000000E+04  0.30000000000E+03 0.  1.
     100001    1    1    2    0    0  0.39962026174E+04 -0.77287260520E+03  0.50656077945E+04  0.65000000000E+04  0.15050000000E+03 0. -1.
     100001    1    1    2    0    0 -0.39962026174E+04  0.77287260520E+03 -0.50656077945E+04  0.65000000000E+04  0.15050000000E+03 0.  1.
</event>
<event>
 4    1  0.5143956E-004  0.6500000E+04  0.7818608E-02  0.7223770E-01
         52   -1    0    0    0    0  0.00000000000E+00  0.00000000000E+00  0.64930732323E+04  0.65000000000E+04  0.30000000000E+03 0. -1.
        -52   -1    0    0    0    0 -0.00000000000E+00 -0.00000000000E+00 -0.64930732323E+04  0.65000000000E+04  0.30000000000E+03 0.  1.
     100001    1    1    2    0    0 -0.59268420989E+03 -0.15847729130E+04 -0.62741190610E+04  0.65000000000E+04  0.15050000000E+03 0.  1.
     100001    1    1    2    0    0  0.59268420989E+03  0.15847729130E+04  0.62741190610E+04  0.65000000000E+04  0.15050000000E+03 0. -1.
</event>
<event>
 4    1  0.5143956E-004  0.6500000E+04  0.7818608E-02  0.7223770E-01
         52   -1    0    0    0    0  0.00000000000E+00  0.00000000000E+00  0.64930732323E+04  0.65000000000E+04  0.30000000000E+03 0.  1.
        -52   -1    0    0    0    0 -0.00000000000E+00 -0.00000000000E+00 -0.64930732323E+04  0.65000000000E+04  0.30000000000E+03 0. -1.
     100001    1    1    2    0    0 -0.11695986253E+04 -0.89828950997E+03  0.63287016648E+04  0.65000000000E+04  0.15050000000E+03 0.  1.
     100001    1    1    2    0    0  0.11695986253E+04  0.89828950997E+03 -0.63287016648E+04  0.65000000000E+04  0.15050000000E+03 0. -1.
</event>
<event>
 4    1  0.5143956E-004  0.6500000E+04  0.7818608E-02  0.7223770E-01
         52   -1    0    0    0    0  0.00000000000E+00  0.00000000000E+00  0.64930732323E+04  0.65000000000E+04  0.30000000000E+03 0. -1.
        -52   -1    0    0    0    0 -0.00000000000E+00 -0.00000000000E+00 -0.64930732323E+04  0.65000000000E+04  0.30000000000E+03 0.  1.
     100001    1    1    2    0    0  0.57301929226E+03 -0.13411191109E+04 -0.63324875184E+04  0.65000000000E+04  0.15050000000E+03 0.  1.
     100001    1    1    2    0    0 -0.57301929226E+03  0.13411191109E+04  0.63324875184E+04  0.65000000000E+04  0.15050000000E+03 0. -1.
</event>
<event>
 4    1  0.5143956E-004  0.6500000E+04  0.7818608E-02  0.7223770E-01
         52   -1    0    0    0    0  0.00000000000E+00  0.00000000000E+00  0.64930732323E+04  0.65000000000E+04  0.30000000000E+03 0.  1.
        -52   -1    0    0    0    0 -0.00000000000E+00 -0.00000000000E+00 -0.64930732323E+04  0.65000000000E+04  0.30000000000E+03 0. -1.
     100001    1    1    2    0    0  0.78772997855E+02 -0.27970149268E+03  0.64917572074E+04  0.65000000000E+04  0.15050000000E+03 0.  1.
     100001    1    1    2    0    0 -0.78772997855E+02  0.27970149268E+03 -0.64917572074E+04  0.65000000000E+04  0.15050000000E+03 0. -1.
</event>
<event>
 4    1  0.5143956E-004  0.6500000E+04  0.7818608E-02  0.7223770E-01
         52   -1    0    0    0    0  0.00000000000E+00  0.00000000000E+00  0.64930732323E+04  0.65000000000E+04  0.30000000000E+03 0.  1.
        -52   -1    0    0    0    0 -0.00000000000E+00 -0.00000000000E+00 -0.64930732323E+04  0.65000000000E+04  0.30000000000E+03 0. -1.
     100001    1    1    2    0    0 -0.48435473149E+03  0.15260611770E+02  0.64801633743E+04  0.65000000000E+04  0.15050000000E+03 0.  1.
     100001    1    1    2    0    0  0.48435473149E+03 -0.15260611770E+02 -0.64801633743E+04  0.65000000000E+04  0.15050000000E+03 0. -1.
</event>
<event>
 4    1  0.5143956E-004  0.6500000E+04  0.7818608E-02  0.7223770E-01
         52   -1    0    0    0    0  0.00000000000E+00  0.00000000000E+00  0.64930732323E+04  0.65000000000E+04  0.30000000000E+03 0.  1.
        -52   -1    0    0    0    0 -0.00000000000E+00 -0.00000000000E+00 -0.64930732323E+04  0.65000000000E+04  0.30000000000E+03 0. -1.
     100001    1    1    2    0    0  0.48521335057E+04 -0.13372723341E+04 -0.41104565315E+04  0.65000000000E+04  0.15050000000E+03 0. -1.
     100001    1    1    2    0    0 -0.48521335057E+04  0.13372723341E+04  0.41104565315E+04  0.65000000000E+04  0.15050000000E+03 0.  1.
</event>
<event>
 4    1  0.5143956E-004  0.6500000E+04  0.7818608E-02  0.7223770E-01
         52   -1    0    0    0    0  0.00000000000E+00  0.00000000000E+00  0.64930732323E+04  0.65000000000E+04  0.30000000000E+03 0. -1.
        -52   -1    0    0    0    0 -0.00000000000E+00 -0.00000000000E+00 -0.64930732323E+04  0.65000000000E+04  0.30000000000E+03 0. -1.
     100001    1    1    2    0    0 -0.80503039232E+02  0.19102625409E+03  0.64949501908E+04  0.65000000000E+04  0.15050000000E+03 0. -1.
     100001    1    1    2    0    0  0.80503039232E+02 -0.19102625409E+03 -0.64949501908E+04  0.65000000000E+04  0.15050000000E+03 0. -1.
</event>
<event>
 4    1  0.5143956E-004  0.6500000E+04  0.7818608E-02  0.7223770E-01
         52   -1    0    0    0    0  0.00000000000E+00  0.00000000000E+00  0.64930732323E+04  0.65000000000E+04  0.30000000000E+03 0.  1.
        -52   -1    0    0    0    0 -0.00000000000E+00 -0.00000000000E+00 -0.64930732323E+04  0.65000000000E+04  0.30000000000E+03 0.  1.
     100001    1    1    2    0    0 -0.17502467313E+03 -0.85174398710E+03  0.64398174116E+04  0.65000000000E+04  0.15050000000E+03 0.  1.
     100001    1    1    2    0    0  0.17502467313E+03  0.85174398710E+03 -0.64398174116E+04  0.65000000000E+04  0.15050000000E+03 0.  1.
</event>
<event>
 4    1  0.5143956E-004  0.6500000E+04  0.7818608E-02  0.7223770E-01
         52   -1    0    0    0    0  0.00000000000E+00  0.00000000000E+00  0.64930732323E+04  0.65000000000E+04  0.30000000000E+03 0. -1.
        -52   -1    0    0    0    0 -0.00000000000E+00 -0.00000000000E+00 -0.64930732323E+04  0.65000000000E+04  0.30000000000E+03 0.  1.
     100001    1    1    2    0    0 -0.79442607657E+03  0.26723250507E+04 -0.58698309841E+04  0.65000000000E+04  0.15050000000E+03 0.  1.
     100001    1    1    2    0    0  0.79442607657E+03 -0.26723250507E+04  0.58698309841E+04  0.65000000000E+04  0.15050000000E+03 0. -1.
</event>
<event>
 4    1  0.5143956E-004  0.6500000E+04  0.7818608E-02  0.7223770E-01
         52   -1    0    0    0    0  0.00000000000E+00  0.00000000000E+00  0.64930732323E+04  0.65000000000E+04  0.30000000000E+03 0. -1.
        -52   -1    0    0    0    0 -0.00000000000E+00 -0.00000000000E+00 -0.64930732323E+04  0.65000000000E+04  0.30000000000E+03 0.  1.
     100001    1    1    2    0    0 -0.22832304043E+03 -0.56623553964E+03 -0.64695127833E+04  0.65000000000E+04  0.15050000000E+03 0.  1.
     100001    1    1    2    0    0  0.22832304043E+03  0.56623553964E+03  0.64695127833E+04  0.65000000000E+04  0.15050000000E+03 0. -1.
</event>
<event>
 4    1  0.5143956E-004  0.6500000E+04  0.7818608E-02  0.7223770E-01
         52   -1    0    0    0    0  0.00000000000E+00  0.00000000000E+00  0.64930732323E+04  0.65000000000E+04  0.30000000000E+03 0. -1.
        -52   -1    0    0    0    0 -0.00000000000E+00 -0.00000000000E+00 -0.64930732323E+04  0.65000000000E+04  0.30000000000E+03 0.  1.
     100001    1    1    2    0    0  0.10790352915E+04  0.49346249132E+03  0.63890161496E+04  0.65000000000E+04  0.15050000000E+03 0. -1.
     100001    1    1    2    0    0 -0.10790352915E+04 -0.49346249132E+03 -0.63890161496E+04  0.65000000000E+04  0.15050000000E+03 0.  1.
</event>
<event>
 4    1  0.5143956E-004  0.6500000E+04  0.7818608E-02  0.7223770E-01
         52   -1    0    0    0    0  0.00000000000E+00  0.00000000000E+00  0.64930732323E+04  0.65000000000E+04  0.30000000000E+03 0. -1.
        -52   -1    0    0    0    0 -0.00000000000E+00 -0.00000000000E+00 -0.64930732323E+04  0.65000000000E+04  0.30000000000E+03 0.  1.
     100001    1    1    2    0    0 -0.45293746743E+03  0.15350806221E+04 -0.62980731088E+04  0.65000000000E+04  0.15050000000E+03 0.  1.
     100001    1    1    2    0    0  0.45293746743E+03 -0.15350806221E+04  0.62980731088E+04  0.65000000000E+04  0.15050000000E+03 0. -1.
</event>
<event>
 4    1  0.5143956E-004  0.6500000E+04  0.7818608E-02  0.7223770E-01
         52   -1    0    0    0    0  0.00000000000E+00  0.00000000000E+00  0.64930732323E+04  0.65000000000E+04  0.30000000000E+03 0. -1.
        -52   -1    0    0    0    0 -0.00000000000E+00 -0.00000000000E+00 -0.64930732323E+04  0.65000000000E+04  0.30000000000E+03 0.  1.
     100001    1    1    2    0    0 -0.24549866364E+04 -0.19981825889E+04  0.56751790021E+04  0.65000000000E+04  0.15050000000E+03 0. -1.
     100001    1    1    2    0    0  0.24549866364E+04  0.19981825889E+04 -0.56751790021E+04  0.65000000000E+04  0.15050000000E+03 0.  1.
</event>
<event>
 4    1  0.5143956E-004  0.6500000E+04  0.7818608E-02  0.7223770E-01
         52   -1    0    0    0    0  0.00000000000E+00  0.00000000000E+00  0.64930732323E+04  0.65000000000E+04  0.30000000000E+03 0.  1.
        -52   -1    0    0    0    0 -0.00000000000E+00 -0.00000000000E+00 -0.64930732323E+04  0.65000000000E+04  0.30000000000E+03 0. -1.
     100001    1    1    2    0    0 -0.71799577551E+02  0.77814925869E+03 -0.64510989995E+04  0.65000000000E+04  0.15050000000E+03 0. -1.
     100001    1    1    2    0    0  0.71799577551E+02 -0.77814925869E+03  0.64510989995E+04  0.65000000000E+04  0.15050000000E+03 0.  1.
</event>
<event>
 4    1  0.5143956E-004  0.6500000E+04  0.7818608E-02  0.7223770E-01
         52   -1    0    0    0    0  0.00000000000E+00  0.00000000000E+00  0.64930732323E+04  0.65000000000E+04  0.30000000000E+03 0. -1.
        -52   -1    0    0    0    0 -0.00000000000E+00 -0.00000000000E+00 -0.64930732323E+04  0.65000000000E+04  0.30000000000E+03 0.  1.
     100001    1    1    2    0    0  0.95560856038E+02 -0.27349382653E+03  0.64917962845E+04  0.65000000000E+04  0.15050000000E+03 0. -1.
     100001    1    1    2    0    0 -0.95560856038E+02  0.27349382653E+03 -0.64917962845E+04  0.65000000000E+04  0.15050000000E+03 0.  1.
</event>
<event>
 4    1  0.5143956E-004  0.6500000E+04  0.7818608E-02  0.7223770E-01
         52   -1    0    0    0    0  0.00000000000E+00  0.00000000000E+00  0.64930732323E+04  0.65000000000E+04  0.30000000000E+03 0. -1.
        -52   -1    0    0    0    0 -0.00000000000E+00 -0.00000000000E+00 -0.64930732323E+04  0.65000000000E+04  0.30000000000E+03 0.  1.
     100001    1    1    2    0    0  0.23053871041E+04 -0.33426202701E+04 -0.50734041610E+04  0.65000000000E+04  0.15050000000E+03 0.  1.
     100001    1    1    2    0    0 -0.23053871041E+04  0.33426202701E+04  0.50734041610E+04  0.65000000000E+04  0.15050000000E+03 0. -1.
</event>
<event>
 4    1  0.5143956E-004  0.6500000E+04  0.7818608E-02  0.7223770E-01
         52   -1    0    0    0    0  0.00000000000E+00  0.00000000000E+00  0.64930732323E+04  0.65000000000E+04  0.30000000000E+03 0. -1.
        -52   -1    0    0    0    0 -0.00000000000E+00 -0.00000000000E+00 -0.64930732323E+04  0.65000000000E+04  0.30000000000E+03 0.  1.
     100001    1    1    2    0    0 -0.12717411126E+03  0.22216535930E+03 -0.64932133069E+04  0.65000000000E+04  0.15050000000E+03 0.  1.
     100001    1    1    2    0    0  0.12717411126E+03 -0.22216535930E+03  0.64932133069E+04  0.65000000000E+04  0.15050000000E+03 0. -1.
</event>
<event>
 4    1  0.5143956E-004  0.6500000E+04  0.7818608E-02  0.7223770E-01
         52   -1    0    0    0    0  0.00000000000E+00  0.00000000000E+00  0.64930732323E+04  0.65000000000E+04  0.30000000000E+03 0.  1.
        -52   -1    0    0    0    0 -0.00000000000E+00 -0.00000000000E+00 -0.64930732323E+04  0.65000000000E+04  0.30000000000E+03 0. -1.
     100001    1    1    2    0    0  0.51016492221E+04 -0.32870439971E+04 -0.23229004985E+04  0.65000000000E+04  0.15050000000E+03 0. -1.
     100001    1    1    2    0    0 -0.51016492221E+04  0.32870439971E+04  0.23229004985E+04  0.65000000000E+04  0.15050000000E+03 0.  1.
</event>
<event>
 4    1  0.5143956E-004  0.6500000E+04  0.7818608E-02  0.7223770E-01
         52   -1    0    0    0    0  0.00000000000E+00  0.00000000000E+00  0.64930732323E+04  0.65000000000E+04  0.30000000000E+03 0. -1.
        -52   -1    0    0    0    0 -0.00000000000E+00 -0.00000000000E+00 -0.64930732323E+04  0.65000000000E+04  0.30000000000E+03 0.  1.
     100001    1    1    2    0    0 -0.17875293077E+04 -0.84665009320E+03  0.61899331453E+04  0.65000000000E+04  0.15050000000E+03 0. -1.
     100001    1    1    2    0    0  0.17875293077E+04  0.84665009320E+03 -0.61899331453E+04  0.65000000000E+04  0.15050000000E+03 0.  1.
</event>
<event>
 4    1  0.5143956E-004  0.6500000E+04  0.7818608E-02  0.7223770E-01
         52   -1    0    0    0    0  0.00000000000E+00  0.00000000000E+00  0.64930732323E+04  0.65000000000E+04  0.30000000000E+03 0.  1.
        -52   -1    0    0    0    0 -0.00000000000E+00 -0.00000000000E+00 -0.64930732323E+04  0.65000000000E+04  0.30000000000E+03 0. -1.
     100001    1    1    2    0    0 -0.59549380475E+04  0.25280090338E+04  0.61256258938E+03  0.65000000000E+04  0.15050000000E+03 0. -1.
     100001    1    1    2    0    0  0.59549380475E+04 -0.25280090338E+04 -0.61256258938E+03  0.65000000000E+04  0.15050000000E+03 0.  1.
</event>
<event>
 4    1  0.5143956E-004  0.6500000E+04  0.7818608E-02  0.7223770E-01
         52   -1    0    0    0    0  0.00000000000E+00  0.00000000000E+00  0.64930732323E+04  0.65000000000E+04  0.30000000000E+03 0. -1.
        -52   -1    0    0    0    0 -0.00000000000E+00 -0.00000000000E+00 -0.64930732323E+04  0.65000000000E+04  0.30000000000E+03 0.  1.
     100001    1    1    2    0    0  0.61225722598E+02  0.15765183883E+04  0.63038235169E+04  0.65000000000E+04  0.15050000000E+03 0. -1.
     100001    1    1    2    0    0 -0.61225722598E+02 -0.15765183883E+04 -0.63038235169E+04  0.65000000000E+04  0.15050000000E+03 0.  1.
</event>
<event>
 4    1  0.5143956E-004  0.6500000E+04  0.7818608E-02  0.7223770E-01
         52   -1    0    0    0    0  0.00000000000E+00  0.00000000000E+00  0.64930732323E+04  0.65000000000E+04  0.30000000000E+03 0. -1.
        -52   -1    0    0    0    0 -0.00000000000E+00 -0.00000000000E+00 -0.64930732323E+04  0.65000000000E+04  0.30000000000E+03 0.  1.
     100001    1    1    2    0    0 -0.12025910419E+04  0.60990851849E+04  0.18926923794E+04  0.65000000000E+04  0.15050000000E+03 0. -1.
     100001    1    1    2    0    0  0.12025910419E+04 -0.60990851849E+04 -0.18926923794E+04  0.65000000000E+04  0.15050000000E+03 0.  1.
</event>
<event>
 4    1  0.5143956E-004  0.6500000E+04  0.7818608E-02  0.7223770E-01
         52   -1    0    0    0    0  0.00000000000E+00  0.00000000000E+00  0.64930732323E+04  0.65000000000E+04  0.30000000000E+03 0. -1.
        -52   -1    0    0    0    0 -0.00000000000E+00 -0.00000000000E+00 -0.64930732323E+04  0.65000000000E+04  0.30000000000E+03 0.  1.
     100001    1    1    2    0    0 -0.45090723202E+03 -0.61443894900E+02  0.64823033766E+04  0.65000000000E+04  0.15050000000E+03 0. -1.
     100001    1    1    2    0    0  0.45090723202E+03  0.61443894900E+02 -0.64823033766E+04  0.65000000000E+04  0.15050000000E+03 0.  1.
</event>
<event>
 4    1  0.5143956E-004  0.6500000E+04  0.7818608E-02  0.7223770E-01
         52   -1    0    0    0    0  0.00000000000E+00  0.00000000000E+00  0.64930732323E+04  0.65000000000E+04  0.30000000000E+03 0.  1.
        -52   -1    0    0    0    0 -0.00000000000E+00 -0.00000000000E+00 -0.64930732323E+04  0.65000000000E+04  0.30000000000E+03 0.  1.
     100001    1    1    2    0    0  0.10476305686E+03  0.56893103209E+03  0.64724564064E+04  0.65000000000E+04  0.15050000000E+03 0.  1.
     100001    1    1    2    0    0 -0.10476305686E+03 -0.56893103209E+03 -0.64724564064E+04  0.65000000000E+04  0.15050000000E+03 0.  1.
</event>
<event>
 4    1  0.5143956E-004  0.6500000E+04  0.7818608E-02  0.7223770E-01
         52   -1    0    0    0    0  0.00000000000E+00  0.00000000000E+00  0.64930732323E+04  0.65000000000E+04  0.30000000000E+03 0.  1.
        -52   -1    0    0    0    0 -0.00000000000E+00 -0.00000000000E+00 -0.64930732323E+04  0.65000000000E+04  0.30000000000E+03 0. -1.
     100001    1    1    2    0    0 -0.97048153243E+03 -0.22021737194E+04  0.60362195333E+04  0.65000000000E+04  0.15050000000E+03 0.  1.
     100001    1    1    2    0    0  0.97048153243E+03  0.22021737194E+04 -0.60362195333E+04  0.65000000000E+04  0.15050000000E+03 0. -1.
</event>
<event>
 4    1  0.5143956E-004  0.6500000E+04  0.7818608E-02  0.7223770E-01
         52   -1    0    0    0    0  0.00000000000E+00  0.00000000000E+00  0.64930732323E+04  0.65000000000E+04  0.30000000000E+03 0. -1.
        -52   -1    0    0    0    0 -0.00000000000E+00 -0.00000000000E+00 -0.64930732323E+04  0.65000000000E+04  0.30000000000E+03 0.  1.
     100001    1    1    2    0    0 -0.52533038449E+03  0.10028629955E+04  0.63988783040E+04  0.65000000000E+04  0.15050000000E+03 0. -1.
     100001    1    1    2    0    0  0.52533038449E+03 -0.10028629955E+04 -0.63988783040E+04  0.65000000000E+04  0.15050000000E+03 0.  1.
</event>
<event>
 4    1  0.5143956E-004  0.6500000E+04  0.7818608E-02  0.7223770E-01
         52   -1    0    0    0    0  0.00000000000E+00  0.00000000000E+00  0.64930732323E+04  0.65000000000E+04  0.30000000000E+03 0.  1.
        -52   -1    0    0    0    0 -0.00000000000E+00 -0.00000000000E+00 -0.64930732323E+04  0.65000000000E+04  0.30000000000E+03 0. -1.
     100001    1    1    2    0    0  0.45764578653E+04  0.13485379717E+04  0.44118962472E+04  0.65000000000E+04  0.15050000000E+03 0.  1.
     100001    1    1    2    0    0 -0.45764578653E+04 -0.13485379717E+04 -0.44118962472E+04  0.65000000000E+04  0.15050000000E+03 0. -1.
</event>
<event>
 4    1  0.5143956E-004  0.6500000E+04  0.7818608E-02  0.7223770E-01
         52   -1    0    0    0    0  0.00000000000E+00  0.00000000000E+00  0.64930732323E+04  0.65000000000E+04  0.30000000000E+03 0.  1.
        -52   -1    0    0    0    0 -0.00000000000E+00 -0.00000000000E+00 -0.64930732323E+04  0.65000000000E+04  0.30000000000E+03 0.  1.
     100001    1    1    2    0    0 -0.14667374242E+03 -0.39080214377E+03  0.64848369484E+04  0.65000000000E+04  0.15050000000E+03 0.  1.
     100001    1    1    2    0    0  0.14667374242E+03  0.39080214377E+03 -0.64848369484E+04  0.65000000000E+04  0.15050000000E+03 0.  1.
</event>
<event>
 4    1  0.5143956E-004  0.6500000E+04  0.7818608E-02  0.7223770E-01
         52   -1    0    0    0    0  0.00000000000E+00  0.00000000000E+00  0.64930732323E+04  0.65000000000E+04  0.30000000000E+03 0. -1.
        -52   -1    0    0    0    0 -0.00000000000E+00 -0.00000000000E+00 -0.64930732323E+04  0.65000000000E+04  0.30000000000E+03 0.  1.
     100001    1    1    2    0    0  0.78315688251E+03 -0.12249784851E+04  0.63335174081E+04  0.65000000000E+04  0.15050000000E+03 0. -1.
     100001    1    1    2    0    0 -0.78315688251E+03  0.12249784851E+04 -0.63335174081E+04  0.65000000000E+04  0.15050000000E+03 0.  1.
</event>
<event>
 4    1  0.5143956E-004  0.6500000E+04  0.7818608E-02  0.7223770E-01
         52   -1    0    0    0    0  0.00000000000E+00  0.00000000000E+00  0.64930732323E+04  0.65000000000E+04  0.30000000000E+03 0.  1.
        -52   -1    0    0    0    0 -0.00000000000E+00 -0.00000000000E+00 -0.64930732323E+04  0.65000000000E+04  0.30000000000E+03 0. -1.
     100001    1    1    2    0    0  0.11092335322E+04 -0.55148190723E+04 -0.32532631803E+04  0.65000000000E+04  0.15050000000E+03 0. -1.
     100001    1    1    2    0    0 -0.11092335322E+04  0.55148190723E+04  0.32532631803E+04  0.65000000000E+04  0.15050000000E+03 0.  1.
</event>
<event>
 4    1  0.5143956E-004  0.6500000E+04  0.7818608E-02  0.7223770E-01
         52   -1    0    0    0    0  0.00000000000E+00  0.00000000000E+00  0.64930732323E+04  0.65000000000E+04  0.30000000000E+03 0.  1.
        -52   -1    0    0    0    0 -0.00000000000E+00 -0.00000000000E+00 -0.64930732323E+04  0.65000000000E+04  0.30000000000E+03 0. -1.
     100001    1    1    2    0    0 -0.32970195373E+03  0.27750178427E+04 -0.58666789877E+04  0.65000000000E+04  0.15050000000E+03 0. -1.
     100001    1    1    2    0    0  0.32970195373E+03 -0.27750178427E+04  0.58666789877E+04  0.65000000000E+04  0.15050000000E+03 0.  1.
</event>
<event>
 4    1  0.5143956E-004  0.6500000E+04  0.7818608E-02  0.7223770E-01
         52   -1    0    0    0    0  0.00000000000E+00  0.00000000000E+00  0.64930732323E+04  0.65000000000E+04  0.30000000000E+03 0. -1.
        -52   -1    0    0    0    0 -0.00000000000E+00 -0.00000000000E+00 -0.64930732323E+04  0.65000000000E+04  0.30000000000E+03 0.  1.
     100001    1    1    2    0    0 -0.29252254102E+03 -0.14459968931E+04  0.63285759297E+04  0.65000000000E+04  0.15050000000E+03 0. -1.
     100001    1    1    2    0    0  0.29252254102E+03  0.14459968931E+04 -0.63285759297E+04  0.65000000000E+04  0.15050000000E+03 0.  1.
</event>
<event>
 4    1  0.5143956E-004  0.6500000E+04  0.7818608E-02  0.7223770E-01
         52   -1    0    0    0    0  0.00000000000E+00  0.00000000000E+00  0.64930732323E+04  0.65000000000E+04  0.30000000000E+03 0. -1.
        -52   -1    0    0    0    0 -0.00000000000E+00 -0.00000000000E+00 -0.64930732323E+04  0.65000000000E+04  0.30000000000E+03 0.  1.
     100001    1    1    2    0    0 -0.76020466001E+03 -0.52714358908E+04  0.37230904199E+04  0.65000000000E+04  0.15050000000E+03 0. -1.
     100001    1    1    2    0    0  0.76020466001E+03  0.52714358908E+04 -0.37230904199E+04  0.65000000000E+04  0.15050000000E+03 0.  1.
</event>
<event>
 4    1  0.5143956E-004  0.6500000E+04  0.7818608E-02  0.7223770E-01
         52   -1    0    0    0    0  0.00000000000E+00  0.00000000000E+00  0.64930732323E+04  0.65000000000E+04  0.30000000000E+03 0.  1.
        -52   -1    0    0    0    0 -0.00000000000E+00 -0.00000000000E+00 -0.64930732323E+04  0.65000000000E+04  0.30000000000E+03 0. -1.
     100001    1    1    2    0    0 -0.57662668712E+04 -0.28913954231E+04  0.78571536066E+03  0.65000000000E+04  0.15050000000E+03 0. -1.
     100001    1    1    2    0    0  0.57662668712E+04  0.28913954231E+04 -0.78571536066E+03  0.65000000000E+04  0.15050000000E+03 0.  1.
</event>
<event>
 4    1  0.5143956E-004  0.6500000E+04  0.7818608E-02  0.7223770E-01
         52   -1    0    0    0    0  0.00000000000E+00  0.00000000000E+00  0.64930732323E+04  0.65000000000E+04  0.30000000000E+03 0.  1.
        -52   -1    0    0    0    0 -0.00000000000E+00 -0.00000000000E+00 -0.64930732323E+04  0.65000000000E+04  0.30000000000E+03 0. -1.
     100001    1    1    2    0    0 -0.21369422026E+04 -0.34791958713E+04 -0.50552966146E+04  0.65000000000E+04  0.15050000000E+03 0. -1.
     100001    1    1    2    0    0  0.21369422026E+04  0.34791958713E+04  0.50552966146E+04  0.65000000000E+04  0.15050000000E+03 0.  1.
</event>
<event>
 4    1  0.5143956E-004  0.6500000E+04  0.7818608E-02  0.7223770E-01
         52   -1    0    0    0    0  0.00000000000E+00  0.00000000000E+00  0.64930732323E+04  0.65000000000E+04  0.30000000000E+03 0. -1.
        -52   -1    0    0    0    0 -0.00000000000E+00 -0.00000000000E+00 -0.64930732323E+04  0.65000000000E+04  0.30000000000E+03 0.  1.
     100001    1    1    2    0    0  0.43931794275E+04  0.16581701424E+04 -0.44919701742E+04  0.65000000000E+04  0.15050000000E+03 0.  1.
     100001    1    1    2    0    0 -0.43931794275E+04 -0.16581701424E+04  0.44919701742E+04  0.65000000000E+04  0.15050000000E+03 0. -1.
</event>
<event>
 4    1  0.5143956E-004  0.6500000E+04  0.7818608E-02  0.7223770E-01
         52   -1    0    0    0    0  0.00000000000E+00  0.00000000000E+00  0.64930732323E+04  0.65000000000E+04  0.30000000000E+03 0.  1.
        -52   -1    0    0    0    0 -0.00000000000E+00 -0.00000000000E+00 -0.64930732323E+04  0.65000000000E+04  0.30000000000E+03 0. -1.
     100001    1    1    2    0    0  0.34277746865E+03  0.30400484407E+03  0.64820856529E+04  0.65000000000E+04  0.15050000000E+03 0.  1.
     100001    1    1    2    0    0 -0.34277746865E+03 -0.30400484407E+03 -0.64820856529E+04  0.65000000000E+04  0.15050000000E+03 0. -1.
</event>
<event>
 4    1  0.5143956E-004  0.6500000E+04  0.7818608E-02  0.7223770E-01
         52   -1    0    0    0    0  0.00000000000E+00  0.00000000000E+00  0.64930732323E+04  0.65000000000E+04  0.30000000000E+03 0. -1.
        -52   -1    0    0    0    0 -0.00000000000E+00 -0.00000000000E+00 -0.64930732323E+04  0.65000000000E+04  0.30000000000E+03 0. -1.
     100001    1    1    2    0    0 -0.33223285158E+03 -0.67890841116E+03 -0.64541501727E+04  0.65000000000E+04  0.15050000000E+03 0. -1.
     100001    1    1    2    0    0  0.33223285158E+03  0.67890841116E+03  0.64541501727E+04  0.65000000000E+04  0.15050000000E+03 0. -1.
</event>
<event>
 4    1  0.7609346E-004  0.6500000E+04  0.7818608E-02  0.7223770E-01
         52   -1    0    0    0    0  0.00000000000E+00  0.00000000000E+00  0.64930732323E+04  0.65000000000E+04  0.30000000000E+03 0.  1.
        -52   -1    0    0    0    0 -0.00000000000E+00 -0.00000000000E+00 -0.64930732323E+04  0.65000000000E+04  0.30000000000E+03 0.  1.
     100001    1    1    2    0    0  0.11465621417E+02  0.15276619846E+03  0.64964513989E+04  0.65000000000E+04  0.15050000000E+03 0.  1.
     100001    1    1    2    0    0 -0.11465621417E+02 -0.15276619846E+03 -0.64964513989E+04  0.65000000000E+04  0.15050000000E+03 0.  1.
</event>
<event>
 4    1  0.5143956E-004  0.6500000E+04  0.7818608E-02  0.7223770E-01
         52   -1    0    0    0    0  0.00000000000E+00  0.00000000000E+00  0.64930732323E+04  0.65000000000E+04  0.30000000000E+03 0.  1.
        -52   -1    0    0    0    0 -0.00000000000E+00 -0.00000000000E+00 -0.64930732323E+04  0.65000000000E+04  0.30000000000E+03 0. -1.
     100001    1    1    2    0    0  0.15355858356E+04 -0.10309380071E+04  0.62294857506E+04  0.65000000000E+04  0.15050000000E+03 0.  1.
     100001    1    1    2    0    0 -0.15355858356E+04  0.10309380071E+04 -0.62294857506E+04  0.65000000000E+04  0.15050000000E+03 0. -1.
</event>
<event>
 4    1  0.5143956E-004  0.6500000E+04  0.7818608E-02  0.7223770E-01
         52   -1    0    0    0    0  0.00000000000E+00  0.00000000000E+00  0.64930732323E+04  0.65000000000E+04  0.30000000000E+03 0. -1.
        -52   -1    0    0    0    0 -0.00000000000E+00 -0.00000000000E+00 -0.64930732323E+04  0.65000000000E+04  0.30000000000E+03 0.  1.
     100001    1    1    2    0    0  0.93885203534E+03 -0.10248118626E+04 -0.63478868336E+04  0.65000000000E+04  0.15050000000E+03 0.  1.
     100001    1    1    2    0    0 -0.93885203534E+03  0.10248118626E+04  0.63478868336E+04  0.65000000000E+04  0.15050000000E+03 0. -1.
</event>
<event>
 4    1  0.5143956E-004  0.6500000E+04  0.7818608E-02  0.7223770E-01
         52   -1    0    0    0    0  0.00000000000E+00  0.00000000000E+00  0.64930732323E+04  0.65000000000E+04  0.30000000000E+03 0. -1.
        -52   -1    0    0    0    0 -0.00000000000E+00 -0.00000000000E+00 -0.64930732323E+04  0.65000000000E+04  0.30000000000E+03 0.  1.
     100001    1    1    2    0    0  0.70811889993E+03 -0.16959252359E+04  0.62329571607E+04  0.65000000000E+04  0.15050000000E+03 0. -1.
     100001    1    1    2    0    0 -0.70811889993E+03  0.16959252359E+04 -0.62329571607E+04  0.65000000000E+04  0.15050000000E+03 0.  1.
</event>
<event>
 4    1  0.5143956E-004  0.6500000E+04  0.7818608E-02  0.7223770E-01
         52   -1    0    0    0    0  0.00000000000E+00  0.00000000000E+00  0.64930732323E+04  0.65000000000E+04  0.30000000000E+03 0. -1.
        -52   -1    0    0    0    0 -0.00000000000E+00 -0.00000000000E+00 -0.64930732323E+04  0.65000000000E+04  0.30000000000E+03 0.  1.
     100001    1    1    2    0    0 -0.56726493162E+03  0.84997309694E+03 -0.64174064841E+04  0.65000000000E+04  0.15050000000E+03 0.  1.
     100001    1    1    2    0    0  0.56726493162E+03 -0.84997309694E+03  0.64174064841E+04  0.65000000000E+04  0.15050000000E+03 0. -1.
</event>
<event>
 4    1  0.5143956E-004  0.6500000E+04  0.7818608E-02  0.7223770E-01
         52   -1    0    0    0    0  0.00000000000E+00  0.00000000000E+00  0.64930732323E+04  0.65000000000E+04  0.30000000000E+03 0. -1.
        -52   -1    0    0    0    0 -0.00000000000E+00 -0.00000000000E+00 -0.64930732323E+04  0.65000000000E+04  0.30000000000E+03 0. -1.
     100001    1    1    2    0    0  0.38131361372E+03  0.31788517374E+03 -0.64792668331E+04  0.65000000000E+04  0.15050000000E+03 0. -1.
     100001    1    1    2    0    0 -0.38131361372E+03 -0.31788517374E+03  0.64792668331E+04  0.65000000000E+04  0.15050000000E+03 0. -1.
</event>
<event>
 4    1  0.5143956E-004  0.6500000E+04  0.7818608E-02  0.7223770E-01
         52   -1    0    0    0    0  0.00000000000E+00  0.00000000000E+00  0.64930732323E+04  0.65000000000E+04  0.30000000000E+03 0. -1.
        -52   -1    0    0    0    0 -0.00000000000E+00 -0.00000000000E+00 -0.64930732323E+04  0.65000000000E+04  0.30000000000E+03 0.  1.
     100001    1    1    2    0    0 -0.15034283026E+04 -0.12750095497E+02  0.63219372446E+04  0.65000000000E+04  0.15050000000E+03 0. -1.
     100001    1    1    2    0    0  0.15034283026E+04  0.12750095497E+02 -0.63219372446E+04  0.65000000000E+04  0.15050000000E+03 0.  1.
</event>
<event>
 4    1  0.5143956E-004  0.6500000E+04  0.7818608E-02  0.7223770E-01
         52   -1    0    0    0    0  0.00000000000E+00  0.00000000000E+00  0.64930732323E+04  0.65000000000E+04  0.30000000000E+03 0. -1.
        -52   -1    0    0    0    0 -0.00000000000E+00 -0.00000000000E+00 -0.64930732323E+04  0.65000000000E+04  0.30000000000E+03 0.  1.
     100001    1    1    2    0    0  0.56899631716E+03  0.33119158739E+03  0.64648205755E+04  0.65000000000E+04  0.15050000000E+03 0. -1.
     100001    1    1    2    0    0 -0.56899631716E+03 -0.33119158739E+03 -0.64648205755E+04  0.65000000000E+04  0.15050000000E+03 0.  1.
</event>
<event>
 4    1  0.5143956E-004  0.6500000E+04  0.7818608E-02  0.7223770E-01
         52   -1    0    0    0    0  0.00000000000E+00  0.00000000000E+00  0.64930732323E+04  0.65000000000E+04  0.30000000000E+03 0.  1.
        -52   -1    0    0    0    0 -0.00000000000E+00 -0.00000000000E+00 -0.64930732323E+04  0.65000000000E+04  0.30000000000E+03 0. -1.
     100001    1    1    2    0    0  0.80065132523E+03 -0.11337877878E+04  0.63482936650E+04  0.65000000000E+04  0.15050000000E+03 0.  1.
     100001    1    1    2    0    0 -0.80065132523E+03  0.11337877878E+04 -0.63482936650E+04  0.65000000000E+04  0.15050000000E+03 0. -1.
</event>
<event>
 4    1  0.5143956E-004  0.6500000E+04  0.7818608E-02  0.7223770E-01
         52   -1    0    0    0    0  0.00000000000E+00  0.00000000000E+00  0.64930732323E+04  0.65000000000E+04  0.30000000000E+03 0.  1.
        -52   -1    0    0    0    0 -0.00000000000E+00 -0.00000000000E+00 -0.64930732323E+04  0.65000000000E+04  0.30000000000E+03 0. -1.
     100001    1    1    2    0    0 -0.63488632752E+03 -0.80668683473E+03 -0.64166599919E+04  0.65000000000E+04  0.15050000000E+03 0. -1.
     100001    1    1    2    0    0  0.63488632752E+03  0.80668683473E+03  0.64166599919E+04  0.65000000000E+04  0.15050000000E+03 0.  1.
</event>
<event>
 4    1  0.5143956E-004  0.6500000E+04  0.7818608E-02  0.7223770E-01
         52   -1    0    0    0    0  0.00000000000E+00  0.00000000000E+00  0.64930732323E+04  0.65000000000E+04  0.30000000000E+03 0.  1.
        -52   -1    0    0    0    0 -0.00000000000E+00 -0.00000000000E+00 -0.64930732323E+04  0.65000000000E+04  0.30000000000E+03 0. -1.
     100001    1    1    2    0    0  0.98143636497E+03 -0.22800301707E+03 -0.64196687637E+04  0.65000000000E+04  0.15050000000E+03 0. -1.
     100001    1    1    2    0    0 -0.98143636497E+03  0.22800301707E+03  0.64196687637E+04  0.65000000000E+04  0.15050000000E+03 0.  1.
</event>
<event>
 4    1  0.5143956E-004  0.6500000E+04  0.7818608E-02  0.7223770E-01
         52   -1    0    0    0    0  0.00000000000E+00  0.00000000000E+00  0.64930732323E+04  0.65000000000E+04  0.30000000000E+03 0. -1.
        -52   -1    0    0    0    0 -0.00000000000E+00 -0.00000000000E+00 -0.64930732323E+04  0.65000000000E+04  0.30000000000E+03 0.  1.
     100001    1    1    2    0    0  0.60876303051E+04 -0.27446339807E+03 -0.22567181618E+04  0.65000000000E+04  0.15050000000E+03 0.  1.
     100001    1    1    2    0    0 -0.60876303051E+04  0.27446339807E+03  0.22567181618E+04  0.65000000000E+04  0.15050000000E+03 0. -1.
</event>
<event>
 4    1  0.5143956E-004  0.6500000E+04  0.7818608E-02  0.7223770E-01
         52   -1    0    0    0    0  0.00000000000E+00  0.00000000000E+00  0.64930732323E+04  0.65000000000E+04  0.30000000000E+03 0.  1.
        -52   -1    0    0    0    0 -0.00000000000E+00 -0.00000000000E+00 -0.64930732323E+04  0.65000000000E+04  0.30000000000E+03 0. -1.
     100001    1    1    2    0    0 -0.48156893008E+02  0.23750465323E+03  0.64937371523E+04  0.65000000000E+04  0.15050000000E+03 0.  1.
     100001    1    1    2    0    0  0.48156893008E+02 -0.23750465323E+03 -0.64937371523E+04  0.65000000000E+04  0.15050000000E+03 0. -1.
</event>
<event>
 4    1  0.5143956E-004  0.6500000E+04  0.7818608E-02  0.7223770E-01
         52   -1    0    0    0    0  0.00000000000E+00  0.00000000000E+00  0.64930732323E+04  0.65000000000E+04  0.30000000000E+03 0.  1.
        -52   -1    0    0    0    0 -0.00000000000E+00 -0.00000000000E+00 -0.64930732323E+04  0.65000000000E+04  0.30000000000E+03 0. -1.
     100001    1    1    2    0    0 -0.55722391240E+03  0.17385947692E+03 -0.64719876502E+04  0.65000000000E+04  0.15050000000E+03 0. -1.
     100001    1    1    2    0    0  0.55722391240E+03 -0.17385947692E+03  0.64719876502E+04  0.65000000000E+04  0.15050000000E+03 0.  1.
</event>
<event>
 4    1  0.5143956E-004  0.6500000E+04  0.7818608E-02  0.7223770E-01
         52   -1    0    0    0    0  0.00000000000E+00  0.00000000000E+00  0.64930732323E+04  0.65000000000E+04  0.30000000000E+03 0.  1.
        -52   -1    0    0    0    0 -0.00000000000E+00 -0.00000000000E+00 -0.64930732323E+04  0.65000000000E+04  0.30000000000E+03 0. -1.
     100001    1    1    2    0    0 -0.47754855414E+04  0.30045100976E+03 -0.43967961955E+04  0.65000000000E+04  0.15050000000E+03 0. -1.
     100001    1    1    2    0    0  0.47754855414E+04 -0.30045100976E+03  0.43967961955E+04  0.65000000000E+04  0.15050000000E+03 0.  1.
</event>
<event>
 4    1  0.5143956E-004  0.6500000E+04  0.7818608E-02  0.7223770E-01
         52   -1    0    0    0    0  0.00000000000E+00  0.00000000000E+00  0.64930732323E+04  0.65000000000E+04  0.30000000000E+03 0. -1.
        -52   -1    0    0    0    0 -0.00000000000E+00 -0.00000000000E+00 -0.64930732323E+04  0.65000000000E+04  0.30000000000E+03 0.  1.
     100001    1    1    2    0    0  0.13770260740E+04 -0.12017521810E+04  0.62359394350E+04  0.65000000000E+04  0.15050000000E+03 0. -1.
     100001    1    1    2    0    0 -0.13770260740E+04  0.12017521810E+04 -0.62359394350E+04  0.65000000000E+04  0.15050000000E+03 0.  1.
</event>
<event>
 4    1  0.5143956E-004  0.6500000E+04  0.7818608E-02  0.7223770E-01
         52   -1    0    0    0    0  0.00000000000E+00  0.00000000000E+00  0.64930732323E+04  0.65000000000E+04  0.30000000000E+03 0. -1.
        -52   -1    0    0    0    0 -0.00000000000E+00 -0.00000000000E+00 -0.64930732323E+04  0.65000000000E+04  0.30000000000E+03 0.  1.
     100001    1    1    2    0    0  0.82606648472E+03  0.17245940563E+04  0.62105345385E+04  0.65000000000E+04  0.15050000000E+03 0. -1.
     100001    1    1    2    0    0 -0.82606648472E+03 -0.17245940563E+04 -0.62105345385E+04  0.65000000000E+04  0.15050000000E+03 0.  1.
</event>
<event>
 4    1  0.5143956E-004  0.6500000E+04  0.7818608E-02  0.7223770E-01
         52   -1    0    0    0    0  0.00000000000E+00  0.00000000000E+00  0.64930732323E+04  0.65000000000E+04  0.30000000000E+03 0. -1.
        -52   -1    0    0    0    0 -0.00000000000E+00 -0.00000000000E+00 -0.64930732323E+04  0.65000000000E+04  0.30000000000E+03 0.  1.
     100001    1    1    2    0    0 -0.25564326106E+04 -0.17053555969E+04 -0.57257108157E+04  0.65000000000E+04  0.15050000000E+03 0.  1.
     100001    1    1    2    0    0  0.25564326106E+04  0.17053555969E+04  0.57257108157E+04  0.65000000000E+04  0.15050000000E+03 0. -1.
</event>
<event>
 4    1  0.5143956E-004  0.6500000E+04  0.7818608E-02  0.7223770E-01
         52   -1    0    0    0    0  0.00000000000E+00  0.00000000000E+00  0.64930732323E+04  0.65000000000E+04  0.30000000000E+03 0.  1.
        -52   -1    0    0    0    0 -0.00000000000E+00 -0.00000000000E+00 -0.64930732323E+04  0.65000000000E+04  0.30000000000E+03 0. -1.
     100001    1    1    2    0    0 -0.46813948067E+04 -0.44948730736E+04 -0.32864641479E+03  0.65000000000E+04  0.15050000000E+03 0. -1.
     100001    1    1    2    0    0  0.46813948067E+04  0.44948730736E+04  0.32864641479E+03  0.65000000000E+04  0.15050000000E+03 0.  1.
</event>
<event>
 4    1  0.5143956E-004  0.6500000E+04  0.7818608E-02  0.7223770E-01
         52   -1    0    0    0    0  0.00000000000E+00  0.00000000000E+00  0.64930732323E+04  0.65000000000E+04  0.30000000000E+03 0. -1.
        -52   -1    0    0    0    0 -0.00000000000E+00 -0.00000000000E+00 -0.64930732323E+04  0.65000000000E+04  0.30000000000E+03 0.  1.
     100001    1    1    2    0    0  0.22930270730E+04 -0.14299632708E+04 -0.59097023306E+04  0.65000000000E+04  0.15050000000E+03 0.  1.
     100001    1    1    2    0    0 -0.22930270730E+04  0.14299632708E+04  0.59097023306E+04  0.65000000000E+04  0.15050000000E+03 0. -1.
</event>
<event>
 4    1  0.5143956E-004  0.6500000E+04  0.7818608E-02  0.7223770E-01
         52   -1    0    0    0    0  0.00000000000E+00  0.00000000000E+00  0.64930732323E+04  0.65000000000E+04  0.30000000000E+03 0. -1.
        -52   -1    0    0    0    0 -0.00000000000E+00 -0.00000000000E+00 -0.64930732323E+04  0.65000000000E+04  0.30000000000E+03 0.  1.
     100001    1    1    2    0    0  0.22559346964E+03 -0.40220579985E+03  0.64818737901E+04  0.65000000000E+04  0.15050000000E+03 0. -1.
     100001    1    1    2    0    0 -0.22559346964E+03  0.40220579985E+03 -0.64818737901E+04  0.65000000000E+04  0.15050000000E+03 0.  1.
</event>
<event>
 4    1  0.5143956E-004  0.6500000E+04  0.7818608E-02  0.7223770E-01
         52   -1    0    0    0    0  0.00000000000E+00  0.00000000000E+00  0.64930732323E+04  0.65000000000E+04  0.30000000000E+03 0.  1.
        -52   -1    0    0    0    0 -0.00000000000E+00 -0.00000000000E+00 -0.64930732323E+04  0.65000000000E+04  0.30000000000E+03 0. -1.
     100001    1    1    2    0    0  0.98754956048E+03  0.13730004737E+04  0.62743099473E+04  0.65000000000E+04  0.15050000000E+03 0.  1.
     100001    1    1    2    0    0 -0.98754956048E+03 -0.13730004737E+04 -0.62743099473E+04  0.65000000000E+04  0.15050000000E+03 0. -1.
</event>
<event>
 4    1  0.5143956E-004  0.6500000E+04  0.7818608E-02  0.7223770E-01
         52   -1    0    0    0    0  0.00000000000E+00  0.00000000000E+00  0.64930732323E+04  0.65000000000E+04  0.30000000000E+03 0. -1.
        -52   -1    0    0    0    0 -0.00000000000E+00 -0.00000000000E+00 -0.64930732323E+04  0.65000000000E+04  0.30000000000E+03 0.  1.
     100001    1    1    2    0    0 -0.42810813519E+04  0.31386404977E+04 -0.37481499482E+04  0.65000000000E+04  0.15050000000E+03 0.  1.
     100001    1    1    2    0    0  0.42810813519E+04 -0.31386404977E+04  0.37481499482E+04  0.65000000000E+04  0.15050000000E+03 0. -1.
</event>
<event>
 4    1  0.5143956E-004  0.6500000E+04  0.7818608E-02  0.7223770E-01
         52   -1    0    0    0    0  0.00000000000E+00  0.00000000000E+00  0.64930732323E+04  0.65000000000E+04  0.30000000000E+03 0. -1.
        -52   -1    0    0    0    0 -0.00000000000E+00 -0.00000000000E+00 -0.64930732323E+04  0.65000000000E+04  0.30000000000E+03 0.  1.
     100001    1    1    2    0    0 -0.14840635976E+04  0.17482453832E+04  0.60801762366E+04  0.65000000000E+04  0.15050000000E+03 0. -1.
     100001    1    1    2    0    0  0.14840635976E+04 -0.17482453832E+04 -0.60801762366E+04  0.65000000000E+04  0.15050000000E+03 0.  1.
</event>
<event>
 4    1  0.5143956E-004  0.6500000E+04  0.7818608E-02  0.7223770E-01
         52   -1    0    0    0    0  0.00000000000E+00  0.00000000000E+00  0.64930732323E+04  0.65000000000E+04  0.30000000000E+03 0. -1.
        -52   -1    0    0    0    0 -0.00000000000E+00 -0.00000000000E+00 -0.64930732323E+04  0.65000000000E+04  0.30000000000E+03 0.  1.
     100001    1    1    2    0    0 -0.29393518962E+03  0.26249520273E+02  0.64915531899E+04  0.65000000000E+04  0.15050000000E+03 0. -1.
     100001    1    1    2    0    0  0.29393518962E+03 -0.26249520273E+02 -0.64915531899E+04  0.65000000000E+04  0.15050000000E+03 0.  1.
</event>
<event>
 4    1  0.5143956E-004  0.6500000E+04  0.7818608E-02  0.7223770E-01
         52   -1    0    0    0    0  0.00000000000E+00  0.00000000000E+00  0.64930732323E+04  0.65000000000E+04  0.30000000000E+03 0. -1.
        -52   -1    0    0    0    0 -0.00000000000E+00 -0.00000000000E+00 -0.64930732323E+04  0.65000000000E+04  0.30000000000E+03 0.  1.
     100001    1    1    2    0    0 -0.17726256346E+04 -0.45586933928E+03 -0.62351689035E+04  0.65000000000E+04  0.15050000000E+03 0.  1.
     100001    1    1    2    0    0  0.17726256346E+04  0.45586933928E+03  0.62351689035E+04  0.65000000000E+04  0.15050000000E+03 0. -1.
</event>
<event>
 4    1  0.5143956E-004  0.6500000E+04  0.7818608E-02  0.7223770E-01
         52   -1    0    0    0    0  0.00000000000E+00  0.00000000000E+00  0.64930732323E+04  0.65000000000E+04  0.30000000000E+03 0.  1.
        -52   -1    0    0    0    0 -0.00000000000E+00 -0.00000000000E+00 -0.64930732323E+04  0.65000000000E+04  0.30000000000E+03 0. -1.
     100001    1    1    2    0    0  0.63725748702E+03 -0.27831376301E+03 -0.64609437464E+04  0.65000000000E+04  0.15050000000E+03 0. -1.
     100001    1    1    2    0    0 -0.63725748702E+03  0.27831376301E+03  0.64609437464E+04  0.65000000000E+04  0.15050000000E+03 0.  1.
</event>
<event>
 4    1  0.5143956E-004  0.6500000E+04  0.7818608E-02  0.7223770E-01
         52   -1    0    0    0    0  0.00000000000E+00  0.00000000000E+00  0.64930732323E+04  0.65000000000E+04  0.30000000000E+03 0. -1.
        -52   -1    0    0    0    0 -0.00000000000E+00 -0.00000000000E+00 -0.64930732323E+04  0.65000000000E+04  0.30000000000E+03 0.  1.
     100001    1    1    2    0    0 -0.33981264808E+03 -0.29657234954E+03  0.64825860546E+04  0.65000000000E+04  0.15050000000E+03 0. -1.
     100001    1    1    2    0    0  0.33981264808E+03  0.29657234954E+03 -0.64825860546E+04  0.65000000000E+04  0.15050000000E+03 0.  1.
</event>
<event>
 4    1  0.5143956E-004  0.6500000E+04  0.7818608E-02  0.7223770E-01
         52   -1    0    0    0    0  0.00000000000E+00  0.00000000000E+00  0.64930732323E+04  0.65000000000E+04  0.30000000000E+03 0. -1.
        -52   -1    0    0    0    0 -0.00000000000E+00 -0.00000000000E+00 -0.64930732323E+04  0.65000000000E+04  0.30000000000E+03 0.  1.
     100001    1    1    2    0    0 -0.35981284920E+03  0.16262705380E+04  0.62811725498E+04  0.65000000000E+04  0.15050000000E+03 0. -1.
     100001    1    1    2    0    0  0.35981284920E+03 -0.16262705380E+04 -0.62811725498E+04  0.65000000000E+04  0.15050000000E+03 0.  1.
</event>
<event>
 4    1  0.5143956E-004  0.6500000E+04  0.7818608E-02  0.7223770E-01
         52   -1    0    0    0    0  0.00000000000E+00  0.00000000000E+00  0.64930732323E+04  0.65000000000E+04  0.30000000000E+03 0. -1.
        -52   -1    0    0    0    0 -0.00000000000E+00 -0.00000000000E+00 -0.64930732323E+04  0.65000000000E+04  0.30000000000E+03 0.  1.
     100001    1    1    2    0    0 -0.26223612163E+04  0.11674434216E+04 -0.58298925598E+04  0.65000000000E+04  0.15050000000E+03 0.  1.
     100001    1    1    2    0    0  0.26223612163E+04 -0.11674434216E+04  0.58298925598E+04  0.65000000000E+04  0.15050000000E+03 0. -1.
</event>
<event>
 4    1  0.5143956E-004  0.6500000E+04  0.7818608E-02  0.7223770E-01
         52   -1    0    0    0    0  0.00000000000E+00  0.00000000000E+00  0.64930732323E+04  0.65000000000E+04  0.30000000000E+03 0.  1.
        -52   -1    0    0    0    0 -0.00000000000E+00 -0.00000000000E+00 -0.64930732323E+04  0.65000000000E+04  0.30000000000E+03 0. -1.
     100001    1    1    2    0    0 -0.11534454720E+04  0.10738033205E+04 -0.63042731319E+04  0.65000000000E+04  0.15050000000E+03 0. -1.
     100001    1    1    2    0    0  0.11534454720E+04 -0.10738033205E+04  0.63042731319E+04  0.65000000000E+04  0.15050000000E+03 0.  1.
</event>
<event>
 4    1  0.5143956E-004  0.6500000E+04  0.7818608E-02  0.7223770E-01
         52   -1    0    0    0    0  0.00000000000E+00  0.00000000000E+00  0.64930732323E+04  0.65000000000E+04  0.30000000000E+03 0.  1.
        -52   -1    0    0    0    0 -0.00000000000E+00 -0.00000000000E+00 -0.64930732323E+04  0.65000000000E+04  0.30000000000E+03 0.  1.
     100001    1    1    2    0    0 -0.42597875019E+03  0.33547335073E+03  0.64755964579E+04  0.65000000000E+04  0.15050000000E+03 0.  1.
     100001    1    1    2    0    0  0.42597875019E+03 -0.33547335073E+03 -0.64755964579E+04  0.65000000000E+04  0.15050000000E+03 0.  1.
</event>
<event>
 4    1  0.5143956E-004  0.6500000E+04  0.7818608E-02  0.7223770E-01
         52   -1    0    0    0    0  0.00000000000E+00  0.00000000000E+00  0.64930732323E+04  0.65000000000E+04  0.30000000000E+03 0.  1.
        -52   -1    0    0    0    0 -0.00000000000E+00 -0.00000000000E+00 -0.64930732323E+04  0.65000000000E+04  0.30000000000E+03 0. -1.
     100001    1    1    2    0    0  0.38570972412E+04  0.74851544476E+03  0.51758936669E+04  0.65000000000E+04  0.15050000000E+03 0.  1.
     100001    1    1    2    0    0 -0.38570972412E+04 -0.74851544476E+03 -0.51758936669E+04  0.65000000000E+04  0.15050000000E+03 0. -1.
</event>
<event>
 4    1  0.5143956E-004  0.6500000E+04  0.7818608E-02  0.7223770E-01
         52   -1    0    0    0    0  0.00000000000E+00  0.00000000000E+00  0.64930732323E+04  0.65000000000E+04  0.30000000000E+03 0. -1.
        -52   -1    0    0    0    0 -0.00000000000E+00 -0.00000000000E+00 -0.64930732323E+04  0.65000000000E+04  0.30000000000E+03 0.  1.
     100001    1    1    2    0    0  0.13812648058E+04 -0.35165581463E+04  0.52870857842E+04  0.65000000000E+04  0.15050000000E+03 0. -1.
     100001    1    1    2    0    0 -0.13812648058E+04  0.35165581463E+04 -0.52870857842E+04  0.65000000000E+04  0.15050000000E+03 0.  1.
</event>
<event>
 4    1  0.5143956E-004  0.6500000E+04  0.7818608E-02  0.7223770E-01
         52   -1    0    0    0    0  0.00000000000E+00  0.00000000000E+00  0.64930732323E+04  0.65000000000E+04  0.30000000000E+03 0.  1.
        -52   -1    0    0    0    0 -0.00000000000E+00 -0.00000000000E+00 -0.64930732323E+04  0.65000000000E+04  0.30000000000E+03 0. -1.
     100001    1    1    2    0    0  0.10955561270E+04  0.10165036956E+04  0.63240672640E+04  0.65000000000E+04  0.15050000000E+03 0.  1.
     100001    1    1    2    0    0 -0.10955561270E+04 -0.10165036956E+04 -0.63240672640E+04  0.65000000000E+04  0.15050000000E+03 0. -1.
</event>
<event>
 4    1  0.5143956E-004  0.6500000E+04  0.7818608E-02  0.7223770E-01
         52   -1    0    0    0    0  0.00000000000E+00  0.00000000000E+00  0.64930732323E+04  0.65000000000E+04  0.30000000000E+03 0. -1.
        -52   -1    0    0    0    0 -0.00000000000E+00 -0.00000000000E+00 -0.64930732323E+04  0.65000000000E+04  0.30000000000E+03 0.  1.
     100001    1    1    2    0    0  0.83676721441E+02  0.18729835953E+03 -0.64950186513E+04  0.65000000000E+04  0.15050000000E+03 0.  1.
     100001    1    1    2    0    0 -0.83676721441E+02 -0.18729835953E+03  0.64950186513E+04  0.65000000000E+04  0.15050000000E+03 0. -1.
</event>
<event>
 4    1  0.5143956E-004  0.6500000E+04  0.7818608E-02  0.7223770E-01
         52   -1    0    0    0    0  0.00000000000E+00  0.00000000000E+00  0.64930732323E+04  0.65000000000E+04  0.30000000000E+03 0.  1.
        -52   -1    0    0    0    0 -0.00000000000E+00 -0.00000000000E+00 -0.64930732323E+04  0.65000000000E+04  0.30000000000E+03 0. -1.
     100001    1    1    2    0    0  0.25991971460E+04  0.50340594746E+04 -0.31827298271E+04  0.65000000000E+04  0.15050000000E+03 0. -1.
     100001    1    1    2    0    0 -0.25991971460E+04 -0.50340594746E+04  0.31827298271E+04  0.65000000000E+04  0.15050000000E+03 0.  1.
</event>
<event>
 4    1  0.5143956E-004  0.6500000E+04  0.7818608E-02  0.7223770E-01
         52   -1    0    0    0    0  0.00000000000E+00  0.00000000000E+00  0.64930732323E+04  0.65000000000E+04  0.30000000000E+03 0.  1.
        -52   -1    0    0    0    0 -0.00000000000E+00 -0.00000000000E+00 -0.64930732323E+04  0.65000000000E+04  0.30000000000E+03 0. -1.
     100001    1    1    2    0    0  0.35650318590E+04  0.33468189391E+04  0.42798014654E+04  0.65000000000E+04  0.15050000000E+03 0.  1.
     100001    1    1    2    0    0 -0.35650318590E+04 -0.33468189391E+04 -0.42798014654E+04  0.65000000000E+04  0.15050000000E+03 0. -1.
</event>
<event>
 4    1  0.5143956E-004  0.6500000E+04  0.7818608E-02  0.7223770E-01
         52   -1    0    0    0    0  0.00000000000E+00  0.00000000000E+00  0.64930732323E+04  0.65000000000E+04  0.30000000000E+03 0. -1.
        -52   -1    0    0    0    0 -0.00000000000E+00 -0.00000000000E+00 -0.64930732323E+04  0.65000000000E+04  0.30000000000E+03 0.  1.
     100001    1    1    2    0    0  0.40295892910E+03  0.35008577800E+04 -0.54597590291E+04  0.65000000000E+04  0.15050000000E+03 0.  1.
     100001    1    1    2    0    0 -0.40295892910E+03 -0.35008577800E+04  0.54597590291E+04  0.65000000000E+04  0.15050000000E+03 0. -1.
</event>
<event>
 4    1  0.5143956E-004  0.6500000E+04  0.7818608E-02  0.7223770E-01
         52   -1    0    0    0    0  0.00000000000E+00  0.00000000000E+00  0.64930732323E+04  0.65000000000E+04  0.30000000000E+03 0. -1.
        -52   -1    0    0    0    0 -0.00000000000E+00 -0.00000000000E+00 -0.64930732323E+04  0.65000000000E+04  0.30000000000E+03 0. -1.
     100001    1    1    2    0    0  0.53254360329E+03 -0.94660081131E+02 -0.64757074154E+04  0.65000000000E+04  0.15050000000E+03 0. -1.
     100001    1    1    2    0    0 -0.53254360329E+03  0.94660081131E+02  0.64757074154E+04  0.65000000000E+04  0.15050000000E+03 0. -1.
</event>
<event>
 4    1  0.5143956E-004  0.6500000E+04  0.7818608E-02  0.7223770E-01
         52   -1    0    0    0    0  0.00000000000E+00  0.00000000000E+00  0.64930732323E+04  0.65000000000E+04  0.30000000000E+03 0.  1.
        -52   -1    0    0    0    0 -0.00000000000E+00 -0.00000000000E+00 -0.64930732323E+04  0.65000000000E+04  0.30000000000E+03 0. -1.
     100001    1    1    2    0    0 -0.30612482983E+04  0.21354451085E+04 -0.53193968450E+04  0.65000000000E+04  0.15050000000E+03 0. -1.
     100001    1    1    2    0    0  0.30612482983E+04 -0.21354451085E+04  0.53193968450E+04  0.65000000000E+04  0.15050000000E+03 0.  1.
</event>
<event>
 4    1  0.5143956E-004  0.6500000E+04  0.7818608E-02  0.7223770E-01
         52   -1    0    0    0    0  0.00000000000E+00  0.00000000000E+00  0.64930732323E+04  0.65000000000E+04  0.30000000000E+03 0. -1.
        -52   -1    0    0    0    0 -0.00000000000E+00 -0.00000000000E+00 -0.64930732323E+04  0.65000000000E+04  0.30000000000E+03 0.  1.
     100001    1    1    2    0    0 -0.55104198956E+03  0.62796299019E+04 -0.15779577850E+04  0.65000000000E+04  0.15050000000E+03 0. -1.
     100001    1    1    2    0    0  0.55104198956E+03 -0.62796299019E+04  0.15779577850E+04  0.65000000000E+04  0.15050000000E+03 0.  1.
</event>
<event>
 4    1  0.5143956E-004  0.6500000E+04  0.7818608E-02  0.7223770E-01
         52   -1    0    0    0    0  0.00000000000E+00  0.00000000000E+00  0.64930732323E+04  0.65000000000E+04  0.30000000000E+03 0.  1.
        -52   -1    0    0    0    0 -0.00000000000E+00 -0.00000000000E+00 -0.64930732323E+04  0.65000000000E+04  0.30000000000E+03 0.  1.
     100001    1    1    2    0    0  0.10214217463E+03  0.27357683746E+03 -0.64916925713E+04  0.65000000000E+04  0.15050000000E+03 0.  1.
     100001    1    1    2    0    0 -0.10214217463E+03 -0.27357683746E+03  0.64916925713E+04  0.65000000000E+04  0.15050000000E+03 0.  1.
</event>
<event>
 4    1  0.5143956E-004  0.6500000E+04  0.7818608E-02  0.7223770E-01
         52   -1    0    0    0    0  0.00000000000E+00  0.00000000000E+00  0.64930732323E+04  0.65000000000E+04  0.30000000000E+03 0.  1.
        -52   -1    0    0    0    0 -0.00000000000E+00 -0.00000000000E+00 -0.64930732323E+04  0.65000000000E+04  0.30000000000E+03 0. -1.
     100001    1    1    2    0    0  0.52478263711E+03  0.59658589947E+04 -0.25219990860E+04  0.65000000000E+04  0.15050000000E+03 0. -1.
     100001    1    1    2    0    0 -0.52478263711E+03 -0.59658589947E+04  0.25219990860E+04  0.65000000000E+04  0.15050000000E+03 0.  1.
</event>
<event>
 4    1  0.5143956E-004  0.6500000E+04  0.7818608E-02  0.7223770E-01
         52   -1    0    0    0    0  0.00000000000E+00  0.00000000000E+00  0.64930732323E+04  0.65000000000E+04  0.30000000000E+03 0. -1.
        -52   -1    0    0    0    0 -0.00000000000E+00 -0.00000000000E+00 -0.64930732323E+04  0.65000000000E+04  0.30000000000E+03 0.  1.
     100001    1    1    2    0    0  0.23878324748E+03 -0.48918549374E+03 -0.64754173505E+04  0.65000000000E+04  0.15050000000E+03 0.  1.
     100001    1    1    2    0    0 -0.23878324748E+03  0.48918549374E+03  0.64754173505E+04  0.65000000000E+04  0.15050000000E+03 0. -1.
</event>
<event>
 4    1  0.5143956E-004  0.6500000E+04  0.7818608E-02  0.7223770E-01
         52   -1    0    0    0    0  0.00000000000E+00  0.00000000000E+00  0.64930732323E+04  0.65000000000E+04  0.30000000000E+03 0. -1.
        -52   -1    0    0    0    0 -0.00000000000E+00 -0.00000000000E+00 -0.64930732323E+04  0.65000000000E+04  0.30000000000E+03 0.  1.
     100001    1    1    2    0    0  0.43283253393E+04  0.16554723684E+03  0.48441246494E+04  0.65000000000E+04  0.15050000000E+03 0. -1.
     100001    1    1    2    0    0 -0.43283253393E+04 -0.16554723684E+03 -0.48441246494E+04  0.65000000000E+04  0.15050000000E+03 0.  1.
</event>
<event>
 4    1  0.5143956E-004  0.6500000E+04  0.7818608E-02  0.7223770E-01
         52   -1    0    0    0    0  0.00000000000E+00  0.00000000000E+00  0.64930732323E+04  0.65000000000E+04  0.30000000000E+03 0. -1.
        -52   -1    0    0    0    0 -0.00000000000E+00 -0.00000000000E+00 -0.64930732323E+04  0.65000000000E+04  0.30000000000E+03 0.  1.
     100001    1    1    2    0    0 -0.14272554775E+04 -0.45876249228E+02  0.63394153454E+04  0.65000000000E+04  0.15050000000E+03 0. -1.
     100001    1    1    2    0    0  0.14272554775E+04  0.45876249228E+02 -0.63394153454E+04  0.65000000000E+04  0.15050000000E+03 0.  1.
</event>
<event>
 4    1  0.5143956E-004  0.6500000E+04  0.7818608E-02  0.7223770E-01
         52   -1    0    0    0    0  0.00000000000E+00  0.00000000000E+00  0.64930732323E+04  0.65000000000E+04  0.30000000000E+03 0. -1.
        -52   -1    0    0    0    0 -0.00000000000E+00 -0.00000000000E+00 -0.64930732323E+04  0.65000000000E+04  0.30000000000E+03 0.  1.
     100001    1    1    2    0    0 -0.69049274568E+03  0.48046651465E+03 -0.64435798627E+04  0.65000000000E+04  0.15050000000E+03 0.  1.
     100001    1    1    2    0    0  0.69049274568E+03 -0.48046651465E+03  0.64435798627E+04  0.65000000000E+04  0.15050000000E+03 0. -1.
</event>
<event>
 4    1  0.5143956E-004  0.6500000E+04  0.7818608E-02  0.7223770E-01
         52   -1    0    0    0    0  0.00000000000E+00  0.00000000000E+00  0.64930732323E+04  0.65000000000E+04  0.30000000000E+03 0.  1.
        -52   -1    0    0    0    0 -0.00000000000E+00 -0.00000000000E+00 -0.64930732323E+04  0.65000000000E+04  0.30000000000E+03 0. -1.
     100001    1    1    2    0    0 -0.27552895164E+03  0.84568788859E+03 -0.64370991558E+04  0.65000000000E+04  0.15050000000E+03 0. -1.
     100001    1    1    2    0    0  0.27552895164E+03 -0.84568788859E+03  0.64370991558E+04  0.65000000000E+04  0.15050000000E+03 0.  1.
</event>
<event>
 4    1  0.5143956E-004  0.6500000E+04  0.7818608E-02  0.7223770E-01
         52   -1    0    0    0    0  0.00000000000E+00  0.00000000000E+00  0.64930732323E+04  0.65000000000E+04  0.30000000000E+03 0.  1.
        -52   -1    0    0    0    0 -0.00000000000E+00 -0.00000000000E+00 -0.64930732323E+04  0.65000000000E+04  0.30000000000E+03 0. -1.
     100001    1    1    2    0    0  0.51800511261E+03  0.16182849449E+03 -0.64755565005E+04  0.65000000000E+04  0.15050000000E+03 0. -1.
     100001    1    1    2    0    0 -0.51800511261E+03 -0.16182849449E+03  0.64755565005E+04  0.65000000000E+04  0.15050000000E+03 0.  1.
</event>
<event>
 4    1  0.5143956E-004  0.6500000E+04  0.7818608E-02  0.7223770E-01
         52   -1    0    0    0    0  0.00000000000E+00  0.00000000000E+00  0.64930732323E+04  0.65000000000E+04  0.30000000000E+03 0.  1.
        -52   -1    0    0    0    0 -0.00000000000E+00 -0.00000000000E+00 -0.64930732323E+04  0.65000000000E+04  0.30000000000E+03 0. -1.
     100001    1    1    2    0    0  0.18106025688E+03  0.19413728406E+04 -0.61988417005E+04  0.65000000000E+04  0.15050000000E+03 0. -1.
     100001    1    1    2    0    0 -0.18106025688E+03 -0.19413728406E+04  0.61988417005E+04  0.65000000000E+04  0.15050000000E+03 0.  1.
</event>
<event>
 4    1  0.5143956E-004  0.6500000E+04  0.7818608E-02  0.7223770E-01
         52   -1    0    0    0    0  0.00000000000E+00  0.00000000000E+00  0.64930732323E+04  0.65000000000E+04  0.30000000000E+03 0. -1.
        -52   -1    0    0    0    0 -0.00000000000E+00 -0.00000000000E+00 -0.64930732323E+04  0.65000000000E+04  0.30000000000E+03 0.  1.
     100001    1    1    2    0    0  0.16538610848E+04 -0.14943476068E+04  0.61040165868E+04  0.65000000000E+04  0.15050000000E+03 0. -1.
     100001    1    1    2    0    0 -0.16538610848E+04  0.14943476068E+04 -0.61040165868E+04  0.65000000000E+04  0.15050000000E+03 0.  1.
</event>
<event>
 4    1  0.5143956E-004  0.6500000E+04  0.7818608E-02  0.7223770E-01
         52   -1    0    0    0    0  0.00000000000E+00  0.00000000000E+00  0.64930732323E+04  0.65000000000E+04  0.30000000000E+03 0. -1.
        -52   -1    0    0    0    0 -0.00000000000E+00 -0.00000000000E+00 -0.64930732323E+04  0.65000000000E+04  0.30000000000E+03 0.  1.
     100001    1    1    2    0    0  0.65985313307E+02  0.69096897466E+03  0.64610802165E+04  0.65000000000E+04  0.15050000000E+03 0. -1.
     100001    1    1    2    0    0 -0.65985313307E+02 -0.69096897466E+03 -0.64610802165E+04  0.65000000000E+04  0.15050000000E+03 0.  1.
</event>
<event>
 4    1  0.5143956E-004  0.6500000E+04  0.7818608E-02  0.7223770E-01
         52   -1    0    0    0    0  0.00000000000E+00  0.00000000000E+00  0.64930732323E+04  0.65000000000E+04  0.30000000000E+03 0. -1.
        -52   -1    0    0    0    0 -0.00000000000E+00 -0.00000000000E+00 -0.64930732323E+04  0.65000000000E+04  0.30000000000E+03 0.  1.
     100001    1    1    2    0    0 -0.80886224883E+03 -0.75274974644E+03  0.64036286144E+04  0.65000000000E+04  0.15050000000E+03 0. -1.
     100001    1    1    2    0    0  0.80886224883E+03  0.75274974644E+03 -0.64036286144E+04  0.65000000000E+04  0.15050000000E+03 0.  1.
</event>
<event>
 4    1  0.5143956E-004  0.6500000E+04  0.7818608E-02  0.7223770E-01
         52   -1    0    0    0    0  0.00000000000E+00  0.00000000000E+00  0.64930732323E+04  0.65000000000E+04  0.30000000000E+03 0. -1.
        -52   -1    0    0    0    0 -0.00000000000E+00 -0.00000000000E+00 -0.64930732323E+04  0.65000000000E+04  0.30000000000E+03 0.  1.
     100001    1    1    2    0    0 -0.70778899291E+03 -0.34517525562E+03  0.64503673178E+04  0.65000000000E+04  0.15050000000E+03 0. -1.
     100001    1    1    2    0    0  0.70778899291E+03  0.34517525562E+03 -0.64503673178E+04  0.65000000000E+04  0.15050000000E+03 0.  1.
</event>
<event>
 4    1  0.5143956E-004  0.6500000E+04  0.7818608E-02  0.7223770E-01
         52   -1    0    0    0    0  0.00000000000E+00  0.00000000000E+00  0.64930732323E+04  0.65000000000E+04  0.30000000000E+03 0. -1.
        -52   -1    0    0    0    0 -0.00000000000E+00 -0.00000000000E+00 -0.64930732323E+04  0.65000000000E+04  0.30000000000E+03 0.  1.
     100001    1    1    2    0    0  0.35068436043E+04 -0.32665297380E+04  0.43885283588E+04  0.65000000000E+04  0.15050000000E+03 0. -1.
     100001    1    1    2    0    0 -0.35068436043E+04  0.32665297380E+04 -0.43885283588E+04  0.65000000000E+04  0.15050000000E+03 0.  1.
</event>
<event>
 4    1  0.5143956E-004  0.6500000E+04  0.7818608E-02  0.7223770E-01
         52   -1    0    0    0    0  0.00000000000E+00  0.00000000000E+00  0.64930732323E+04  0.65000000000E+04  0.30000000000E+03 0.  1.
        -52   -1    0    0    0    0 -0.00000000000E+00 -0.00000000000E+00 -0.64930732323E+04  0.65000000000E+04  0.30000000000E+03 0. -1.
     100001    1    1    2    0    0  0.50733679532E+03 -0.73324319311E+03  0.64367937318E+04  0.65000000000E+04  0.15050000000E+03 0.  1.
     100001    1    1    2    0    0 -0.50733679532E+03  0.73324319311E+03 -0.64367937318E+04  0.65000000000E+04  0.15050000000E+03 0. -1.
</event>
<event>
 4    1  0.5143956E-004  0.6500000E+04  0.7818608E-02  0.7223770E-01
         52   -1    0    0    0    0  0.00000000000E+00  0.00000000000E+00  0.64930732323E+04  0.65000000000E+04  0.30000000000E+03 0.  1.
        -52   -1    0    0    0    0 -0.00000000000E+00 -0.00000000000E+00 -0.64930732323E+04  0.65000000000E+04  0.30000000000E+03 0. -1.
     100001    1    1    2    0    0  0.37906199022E+03 -0.15162303308E+04 -0.63075119771E+04  0.65000000000E+04  0.15050000000E+03 0. -1.
     100001    1    1    2    0    0 -0.37906199022E+03  0.15162303308E+04  0.63075119771E+04  0.65000000000E+04  0.15050000000E+03 0.  1.
</event>
<event>
 4    1  0.5143956E-004  0.6500000E+04  0.7818608E-02  0.7223770E-01
         52   -1    0    0    0    0  0.00000000000E+00  0.00000000000E+00  0.64930732323E+04  0.65000000000E+04  0.30000000000E+03 0.  1.
        -52   -1    0    0    0    0 -0.00000000000E+00 -0.00000000000E+00 -0.64930732323E+04  0.65000000000E+04  0.30000000000E+03 0. -1.
     100001    1    1    2    0    0 -0.16455259796E+04 -0.58600872197E+04  0.22757354366E+04  0.65000000000E+04  0.15050000000E+03 0.  1.
     100001    1    1    2    0    0  0.16455259796E+04  0.58600872197E+04 -0.22757354366E+04  0.65000000000E+04  0.15050000000E+03 0. -1.
</event>
<event>
 4    1  0.5143956E-004  0.6500000E+04  0.7818608E-02  0.7223770E-01
         52   -1    0    0    0    0  0.00000000000E+00  0.00000000000E+00  0.64930732323E+04  0.65000000000E+04  0.30000000000E+03 0.  1.
        -52   -1    0    0    0    0 -0.00000000000E+00 -0.00000000000E+00 -0.64930732323E+04  0.65000000000E+04  0.30000000000E+03 0. -1.
     100001    1    1    2    0    0  0.47467343930E+04 -0.44366167136E+04  0.11088051728E+03  0.65000000000E+04  0.15050000000E+03 0.  1.
     100001    1    1    2    0    0 -0.47467343930E+04  0.44366167136E+04 -0.11088051728E+03  0.65000000000E+04  0.15050000000E+03 0. -1.
</event>
<event>
 4    1  0.5143956E-004  0.6500000E+04  0.7818608E-02  0.7223770E-01
         52   -1    0    0    0    0  0.00000000000E+00  0.00000000000E+00  0.64930732323E+04  0.65000000000E+04  0.30000000000E+03 0. -1.
        -52   -1    0    0    0    0 -0.00000000000E+00 -0.00000000000E+00 -0.64930732323E+04  0.65000000000E+04  0.30000000000E+03 0.  1.
     100001    1    1    2    0    0  0.57452984509E+03 -0.58291978212E+03  0.64465083367E+04  0.65000000000E+04  0.15050000000E+03 0. -1.
     100001    1    1    2    0    0 -0.57452984509E+03  0.58291978212E+03 -0.64465083367E+04  0.65000000000E+04  0.15050000000E+03 0.  1.
</event>
<event>
 4    1  0.5143956E-004  0.6500000E+04  0.7818608E-02  0.7223770E-01
         52   -1    0    0    0    0  0.00000000000E+00  0.00000000000E+00  0.64930732323E+04  0.65000000000E+04  0.30000000000E+03 0.  1.
        -52   -1    0    0    0    0 -0.00000000000E+00 -0.00000000000E+00 -0.64930732323E+04  0.65000000000E+04  0.30000000000E+03 0. -1.
     100001    1    1    2    0    0  0.43444338406E+04 -0.25355849323E+04  0.41138854391E+04  0.65000000000E+04  0.15050000000E+03 0.  1.
     100001    1    1    2    0    0 -0.43444338406E+04  0.25355849323E+04 -0.41138854391E+04  0.65000000000E+04  0.15050000000E+03 0. -1.
</event>
<event>
 4    1  0.5143956E-004  0.6500000E+04  0.7818608E-02  0.7223770E-01
         52   -1    0    0    0    0  0.00000000000E+00  0.00000000000E+00  0.64930732323E+04  0.65000000000E+04  0.30000000000E+03 0. -1.
        -52   -1    0    0    0    0 -0.00000000000E+00 -0.00000000000E+00 -0.64930732323E+04  0.65000000000E+04  0.30000000000E+03 0.  1.
     100001    1    1    2    0    0 -0.40452504881E+04 -0.53850902771E+03  0.50570056620E+04  0.65000000000E+04  0.15050000000E+03 0. -1.
     100001    1    1    2    0    0  0.40452504881E+04  0.53850902771E+03 -0.50570056620E+04  0.65000000000E+04  0.15050000000E+03 0.  1.
</event>
<event>
 4    1  0.5143956E-004  0.6500000E+04  0.7818608E-02  0.7223770E-01
         52   -1    0    0    0    0  0.00000000000E+00  0.00000000000E+00  0.64930732323E+04  0.65000000000E+04  0.30000000000E+03 0. -1.
        -52   -1    0    0    0    0 -0.00000000000E+00 -0.00000000000E+00 -0.64930732323E+04  0.65000000000E+04  0.30000000000E+03 0.  1.
     100001    1    1    2    0    0  0.30026237094E+04  0.40424927471E+04 -0.41072926605E+04  0.65000000000E+04  0.15050000000E+03 0.  1.
     100001    1    1    2    0    0 -0.30026237094E+04 -0.40424927471E+04  0.41072926605E+04  0.65000000000E+04  0.15050000000E+03 0. -1.
</event>
<event>
 4    1  0.5143956E-004  0.6500000E+04  0.7818608E-02  0.7223770E-01
         52   -1    0    0    0    0  0.00000000000E+00  0.00000000000E+00  0.64930732323E+04  0.65000000000E+04  0.30000000000E+03 0. -1.
        -52   -1    0    0    0    0 -0.00000000000E+00 -0.00000000000E+00 -0.64930732323E+04  0.65000000000E+04  0.30000000000E+03 0.  1.
     100001    1    1    2    0    0 -0.12924583419E+03  0.45392724086E+03  0.64810952257E+04  0.65000000000E+04  0.15050000000E+03 0. -1.
     100001    1    1    2    0    0  0.12924583419E+03 -0.45392724086E+03 -0.64810952257E+04  0.65000000000E+04  0.15050000000E+03 0.  1.
</event>
<event>
 4    1  0.5143956E-004  0.6500000E+04  0.7818608E-02  0.7223770E-01
         52   -1    0    0    0    0  0.00000000000E+00  0.00000000000E+00  0.64930732323E+04  0.65000000000E+04  0.30000000000E+03 0. -1.
        -52   -1    0    0    0    0 -0.00000000000E+00 -0.00000000000E+00 -0.64930732323E+04  0.65000000000E+04  0.30000000000E+03 0.  1.
     100001    1    1    2    0    0  0.22996831305E+04 -0.18447787278E+04  0.57909928937E+04  0.65000000000E+04  0.15050000000E+03 0. -1.
     100001    1    1    2    0    0 -0.22996831305E+04  0.18447787278E+04 -0.57909928937E+04  0.65000000000E+04  0.15050000000E+03 0.  1.
</event>
<event>
 4    1  0.5143956E-004  0.6500000E+04  0.7818608E-02  0.7223770E-01
         52   -1    0    0    0    0  0.00000000000E+00  0.00000000000E+00  0.64930732323E+04  0.65000000000E+04  0.30000000000E+03 0. -1.
        -52   -1    0    0    0    0 -0.00000000000E+00 -0.00000000000E+00 -0.64930732323E+04  0.65000000000E+04  0.30000000000E+03 0.  1.
     100001    1    1    2    0    0 -0.39144601612E+04  0.37166655226E+04  0.36181139824E+04  0.65000000000E+04  0.15050000000E+03 0.  1.
     100001    1    1    2    0    0  0.39144601612E+04 -0.37166655226E+04 -0.36181139824E+04  0.65000000000E+04  0.15050000000E+03 0. -1.
</event>
<event>
 4    1  0.5143956E-004  0.6500000E+04  0.7818608E-02  0.7223770E-01
         52   -1    0    0    0    0  0.00000000000E+00  0.00000000000E+00  0.64930732323E+04  0.65000000000E+04  0.30000000000E+03 0. -1.
        -52   -1    0    0    0    0 -0.00000000000E+00 -0.00000000000E+00 -0.64930732323E+04  0.65000000000E+04  0.30000000000E+03 0.  1.
     100001    1    1    2    0    0 -0.17894872284E+03  0.11484279581E+04 -0.63934685680E+04  0.65000000000E+04  0.15050000000E+03 0.  1.
     100001    1    1    2    0    0  0.17894872284E+03 -0.11484279581E+04  0.63934685680E+04  0.65000000000E+04  0.15050000000E+03 0. -1.
</event>
<event>
 4    1  0.5143956E-004  0.6500000E+04  0.7818608E-02  0.7223770E-01
         52   -1    0    0    0    0  0.00000000000E+00  0.00000000000E+00  0.64930732323E+04  0.65000000000E+04  0.30000000000E+03 0.  1.
        -52   -1    0    0    0    0 -0.00000000000E+00 -0.00000000000E+00 -0.64930732323E+04  0.65000000000E+04  0.30000000000E+03 0. -1.
     100001    1    1    2    0    0  0.59520041822E+04 -0.22807733274E+04  0.12645429983E+04  0.65000000000E+04  0.15050000000E+03 0.  1.
     100001    1    1    2    0    0 -0.59520041822E+04  0.22807733274E+04 -0.12645429983E+04  0.65000000000E+04  0.15050000000E+03 0. -1.
</event>
<event>
 4    1  0.5143956E-004  0.6500000E+04  0.7818608E-02  0.7223770E-01
         52   -1    0    0    0    0  0.00000000000E+00  0.00000000000E+00  0.64930732323E+04  0.65000000000E+04  0.30000000000E+03 0. -1.
        -52   -1    0    0    0    0 -0.00000000000E+00 -0.00000000000E+00 -0.64930732323E+04  0.65000000000E+04  0.30000000000E+03 0.  1.
     100001    1    1    2    0    0 -0.99270931957E+03  0.68233490696E+03 -0.63856320777E+04  0.65000000000E+04  0.15050000000E+03 0.  1.
     100001    1    1    2    0    0  0.99270931957E+03 -0.68233490696E+03  0.63856320777E+04  0.65000000000E+04  0.15050000000E+03 0. -1.
</event>
<event>
 4    1  0.5143956E-004  0.6500000E+04  0.7818608E-02  0.7223770E-01
         52   -1    0    0    0    0  0.00000000000E+00  0.00000000000E+00  0.64930732323E+04  0.65000000000E+04  0.30000000000E+03 0.  1.
        -52   -1    0    0    0    0 -0.00000000000E+00 -0.00000000000E+00 -0.64930732323E+04  0.65000000000E+04  0.30000000000E+03 0. -1.
     100001    1    1    2    0    0  0.17361221320E+04  0.27374255714E+03  0.62560606379E+04  0.65000000000E+04  0.15050000000E+03 0.  1.
     100001    1    1    2    0    0 -0.17361221320E+04 -0.27374255714E+03 -0.62560606379E+04  0.65000000000E+04  0.15050000000E+03 0. -1.
</event>
<event>
 4    1  0.5143956E-004  0.6500000E+04  0.7818608E-02  0.7223770E-01
         52   -1    0    0    0    0  0.00000000000E+00  0.00000000000E+00  0.64930732323E+04  0.65000000000E+04  0.30000000000E+03 0.  1.
        -52   -1    0    0    0    0 -0.00000000000E+00 -0.00000000000E+00 -0.64930732323E+04  0.65000000000E+04  0.30000000000E+03 0. -1.
     100001    1    1    2    0    0 -0.25542546909E+04 -0.93090418898E+03 -0.59022495809E+04  0.65000000000E+04  0.15050000000E+03 0. -1.
     100001    1    1    2    0    0  0.25542546909E+04  0.93090418898E+03  0.59022495809E+04  0.65000000000E+04  0.15050000000E+03 0.  1.
</event>
<event>
 4    1  0.5143956E-004  0.6500000E+04  0.7818608E-02  0.7223770E-01
         52   -1    0    0    0    0  0.00000000000E+00  0.00000000000E+00  0.64930732323E+04  0.65000000000E+04  0.30000000000E+03 0. -1.
        -52   -1    0    0    0    0 -0.00000000000E+00 -0.00000000000E+00 -0.64930732323E+04  0.65000000000E+04  0.30000000000E+03 0.  1.
     100001    1    1    2    0    0 -0.31059291705E+03 -0.42630865261E+03  0.64768157858E+04  0.65000000000E+04  0.15050000000E+03 0. -1.
     100001    1    1    2    0    0  0.31059291705E+03  0.42630865261E+03 -0.64768157858E+04  0.65000000000E+04  0.15050000000E+03 0.  1.
</event>
<event>
 4    1  0.5143956E-004  0.6500000E+04  0.7818608E-02  0.7223770E-01
         52   -1    0    0    0    0  0.00000000000E+00  0.00000000000E+00  0.64930732323E+04  0.65000000000E+04  0.30000000000E+03 0.  1.
        -52   -1    0    0    0    0 -0.00000000000E+00 -0.00000000000E+00 -0.64930732323E+04  0.65000000000E+04  0.30000000000E+03 0. -1.
     100001    1    1    2    0    0 -0.68072038462E+03 -0.17432829462E+04  0.62229361299E+04  0.65000000000E+04  0.15050000000E+03 0.  1.
     100001    1    1    2    0    0  0.68072038462E+03  0.17432829462E+04 -0.62229361299E+04  0.65000000000E+04  0.15050000000E+03 0. -1.
</event>
<event>
 4    1  0.5648523E-004  0.6500000E+04  0.7818608E-02  0.7223770E-01
         52   -1    0    0    0    0  0.00000000000E+00  0.00000000000E+00  0.64930732323E+04  0.65000000000E+04  0.30000000000E+03 0. -1.
        -52   -1    0    0    0    0 -0.00000000000E+00 -0.00000000000E+00 -0.64930732323E+04  0.65000000000E+04  0.30000000000E+03 0. -1.
     100001    1    1    2    0    0 -0.22089957167E+03 -0.30857372386E+02 -0.64944284546E+04  0.65000000000E+04  0.15050000000E+03 0. -1.
     100001    1    1    2    0    0  0.22089957167E+03  0.30857372386E+02  0.64944284546E+04  0.65000000000E+04  0.15050000000E+03 0. -1.
</event>
<event>
 4    1  0.5143956E-004  0.6500000E+04  0.7818608E-02  0.7223770E-01
         52   -1    0    0    0    0  0.00000000000E+00  0.00000000000E+00  0.64930732323E+04  0.65000000000E+04  0.30000000000E+03 0. -1.
        -52   -1    0    0    0    0 -0.00000000000E+00 -0.00000000000E+00 -0.64930732323E+04  0.65000000000E+04  0.30000000000E+03 0.  1.
     100001    1    1    2    0    0 -0.26865503727E+04 -0.34340487397E+04  0.48184132345E+04  0.65000000000E+04  0.15050000000E+03 0. -1.
     100001    1    1    2    0    0  0.26865503727E+04  0.34340487397E+04 -0.48184132345E+04  0.65000000000E+04  0.15050000000E+03 0.  1.
</event>
<event>
 4    1  0.5143956E-004  0.6500000E+04  0.7818608E-02  0.7223770E-01
         52   -1    0    0    0    0  0.00000000000E+00  0.00000000000E+00  0.64930732323E+04  0.65000000000E+04  0.30000000000E+03 0.  1.
        -52   -1    0    0    0    0 -0.00000000000E+00 -0.00000000000E+00 -0.64930732323E+04  0.65000000000E+04  0.30000000000E+03 0. -1.
     100001    1    1    2    0    0 -0.35672866557E+03 -0.72572384764E+03  0.64477452886E+04  0.65000000000E+04  0.15050000000E+03 0.  1.
     100001    1    1    2    0    0  0.35672866557E+03  0.72572384764E+03 -0.64477452886E+04  0.65000000000E+04  0.15050000000E+03 0. -1.
</event>
<event>
 4    1  0.5143956E-004  0.6500000E+04  0.7818608E-02  0.7223770E-01
         52   -1    0    0    0    0  0.00000000000E+00  0.00000000000E+00  0.64930732323E+04  0.65000000000E+04  0.30000000000E+03 0.  1.
        -52   -1    0    0    0    0 -0.00000000000E+00 -0.00000000000E+00 -0.64930732323E+04  0.65000000000E+04  0.30000000000E+03 0. -1.
     100001    1    1    2    0    0  0.13449863215E+03 -0.65682460875E+03  0.64635780572E+04  0.65000000000E+04  0.15050000000E+03 0.  1.
     100001    1    1    2    0    0 -0.13449863215E+03  0.65682460875E+03 -0.64635780572E+04  0.65000000000E+04  0.15050000000E+03 0. -1.
</event>
<event>
 4    1  0.5143956E-004  0.6500000E+04  0.7818608E-02  0.7223770E-01
         52   -1    0    0    0    0  0.00000000000E+00  0.00000000000E+00  0.64930732323E+04  0.65000000000E+04  0.30000000000E+03 0. -1.
        -52   -1    0    0    0    0 -0.00000000000E+00 -0.00000000000E+00 -0.64930732323E+04  0.65000000000E+04  0.30000000000E+03 0.  1.
     100001    1    1    2    0    0 -0.85351668245E+03 -0.15631453748E+04  0.62494348192E+04  0.65000000000E+04  0.15050000000E+03 0. -1.
     100001    1    1    2    0    0  0.85351668245E+03  0.15631453748E+04 -0.62494348192E+04  0.65000000000E+04  0.15050000000E+03 0.  1.
</event>
<event>
 4    1  0.5143956E-004  0.6500000E+04  0.7818608E-02  0.7223770E-01
         52   -1    0    0    0    0  0.00000000000E+00  0.00000000000E+00  0.64930732323E+04  0.65000000000E+04  0.30000000000E+03 0. -1.
        -52   -1    0    0    0    0 -0.00000000000E+00 -0.00000000000E+00 -0.64930732323E+04  0.65000000000E+04  0.30000000000E+03 0.  1.
     100001    1    1    2    0    0 -0.36968659048E+01  0.36785059742E+03 -0.64878364669E+04  0.65000000000E+04  0.15050000000E+03 0.  1.
     100001    1    1    2    0    0  0.36968659048E+01 -0.36785059742E+03  0.64878364669E+04  0.65000000000E+04  0.15050000000E+03 0. -1.
</event>
<event>
 4    1  0.5143956E-004  0.6500000E+04  0.7818608E-02  0.7223770E-01
         52   -1    0    0    0    0  0.00000000000E+00  0.00000000000E+00  0.64930732323E+04  0.65000000000E+04  0.30000000000E+03 0.  1.
        -52   -1    0    0    0    0 -0.00000000000E+00 -0.00000000000E+00 -0.64930732323E+04  0.65000000000E+04  0.30000000000E+03 0. -1.
     100001    1    1    2    0    0 -0.10298899393E+04  0.15276735759E+03 -0.64143073357E+04  0.65000000000E+04  0.15050000000E+03 0. -1.
     100001    1    1    2    0    0  0.10298899393E+04 -0.15276735759E+03  0.64143073357E+04  0.65000000000E+04  0.15050000000E+03 0.  1.
</event>
<event>
 4    1  0.5143956E-004  0.6500000E+04  0.7818608E-02  0.7223770E-01
         52   -1    0    0    0    0  0.00000000000E+00  0.00000000000E+00  0.64930732323E+04  0.65000000000E+04  0.30000000000E+03 0. -1.
        -52   -1    0    0    0    0 -0.00000000000E+00 -0.00000000000E+00 -0.64930732323E+04  0.65000000000E+04  0.30000000000E+03 0.  1.
     100001    1    1    2    0    0  0.53092152010E+03 -0.50000949613E+03 -0.64572023813E+04  0.65000000000E+04  0.15050000000E+03 0.  1.
     100001    1    1    2    0    0 -0.53092152010E+03  0.50000949613E+03  0.64572023813E+04  0.65000000000E+04  0.15050000000E+03 0. -1.
</event>
<event>
 4    1  0.5143956E-004  0.6500000E+04  0.7818608E-02  0.7223770E-01
         52   -1    0    0    0    0  0.00000000000E+00  0.00000000000E+00  0.64930732323E+04  0.65000000000E+04  0.30000000000E+03 0. -1.
        -52   -1    0    0    0    0 -0.00000000000E+00 -0.00000000000E+00 -0.64930732323E+04  0.65000000000E+04  0.30000000000E+03 0.  1.
     100001    1    1    2    0    0 -0.12166214553E+04  0.56772432606E+03 -0.63580556048E+04  0.65000000000E+04  0.15050000000E+03 0.  1.
     100001    1    1    2    0    0  0.12166214553E+04 -0.56772432606E+03  0.63580556048E+04  0.65000000000E+04  0.15050000000E+03 0. -1.
</event>
<event>
 4    1  0.5143956E-004  0.6500000E+04  0.7818608E-02  0.7223770E-01
         52   -1    0    0    0    0  0.00000000000E+00  0.00000000000E+00  0.64930732323E+04  0.65000000000E+04  0.30000000000E+03 0. -1.
        -52   -1    0    0    0    0 -0.00000000000E+00 -0.00000000000E+00 -0.64930732323E+04  0.65000000000E+04  0.30000000000E+03 0.  1.
     100001    1    1    2    0    0  0.45845337986E+03  0.56157663040E+03  0.64576932365E+04  0.65000000000E+04  0.15050000000E+03 0. -1.
     100001    1    1    2    0    0 -0.45845337986E+03 -0.56157663040E+03 -0.64576932365E+04  0.65000000000E+04  0.15050000000E+03 0.  1.
</event>
<event>
 4    1  0.5143956E-004  0.6500000E+04  0.7818608E-02  0.7223770E-01
         52   -1    0    0    0    0  0.00000000000E+00  0.00000000000E+00  0.64930732323E+04  0.65000000000E+04  0.30000000000E+03 0. -1.
        -52   -1    0    0    0    0 -0.00000000000E+00 -0.00000000000E+00 -0.64930732323E+04  0.65000000000E+04  0.30000000000E+03 0.  1.
     100001    1    1    2    0    0 -0.20615447298E+04  0.15364407467E+04  0.59679756123E+04  0.65000000000E+04  0.15050000000E+03 0. -1.
     100001    1    1    2    0    0  0.20615447298E+04 -0.15364407467E+04 -0.59679756123E+04  0.65000000000E+04  0.15050000000E+03 0.  1.
</event>
<event>
 4    1  0.5143956E-004  0.6500000E+04  0.7818608E-02  0.7223770E-01
         52   -1    0    0    0    0  0.00000000000E+00  0.00000000000E+00  0.64930732323E+04  0.65000000000E+04  0.30000000000E+03 0. -1.
        -52   -1    0    0    0    0 -0.00000000000E+00 -0.00000000000E+00 -0.64930732323E+04  0.65000000000E+04  0.30000000000E+03 0.  1.
     100001    1    1    2    0    0  0.46584337278E+03 -0.46915106046E+03  0.64645368732E+04  0.65000000000E+04  0.15050000000E+03 0. -1.
     100001    1    1    2    0    0 -0.46584337278E+03  0.46915106046E+03 -0.64645368732E+04  0.65000000000E+04  0.15050000000E+03 0.  1.
</event>
<event>
 4    1  0.5143956E-004  0.6500000E+04  0.7818608E-02  0.7223770E-01
         52   -1    0    0    0    0  0.00000000000E+00  0.00000000000E+00  0.64930732323E+04  0.65000000000E+04  0.30000000000E+03 0.  1.
        -52   -1    0    0    0    0 -0.00000000000E+00 -0.00000000000E+00 -0.64930732323E+04  0.65000000000E+04  0.30000000000E+03 0. -1.
     100001    1    1    2    0    0  0.16009080988E+04 -0.77134364798E+03 -0.62505577340E+04  0.65000000000E+04  0.15050000000E+03 0. -1.
     100001    1    1    2    0    0 -0.16009080988E+04  0.77134364798E+03  0.62505577340E+04  0.65000000000E+04  0.15050000000E+03 0.  1.
</event>
<event>
 4    1  0.5143956E-004  0.6500000E+04  0.7818608E-02  0.7223770E-01
         52   -1    0    0    0    0  0.00000000000E+00  0.00000000000E+00  0.64930732323E+04  0.65000000000E+04  0.30000000000E+03 0. -1.
        -52   -1    0    0    0    0 -0.00000000000E+00 -0.00000000000E+00 -0.64930732323E+04  0.65000000000E+04  0.30000000000E+03 0.  1.
     100001    1    1    2    0    0  0.14149333493E+04 -0.28264463974E+04  0.56777208570E+04  0.65000000000E+04  0.15050000000E+03 0. -1.
     100001    1    1    2    0    0 -0.14149333493E+04  0.28264463974E+04 -0.56777208570E+04  0.65000000000E+04  0.15050000000E+03 0.  1.
</event>
<event>
 4    1  0.5143956E-004  0.6500000E+04  0.7818608E-02  0.7223770E-01
         52   -1    0    0    0    0  0.00000000000E+00  0.00000000000E+00  0.64930732323E+04  0.65000000000E+04  0.30000000000E+03 0. -1.
        -52   -1    0    0    0    0 -0.00000000000E+00 -0.00000000000E+00 -0.64930732323E+04  0.65000000000E+04  0.30000000000E+03 0.  1.
     100001    1    1    2    0    0  0.10725431058E+04  0.45458107083E+03 -0.63929928114E+04  0.65000000000E+04  0.15050000000E+03 0.  1.
     100001    1    1    2    0    0 -0.10725431058E+04 -0.45458107083E+03  0.63929928114E+04  0.65000000000E+04  0.15050000000E+03 0. -1.
</event>
<event>
 4    1  0.5143956E-004  0.6500000E+04  0.7818608E-02  0.7223770E-01
         52   -1    0    0    0    0  0.00000000000E+00  0.00000000000E+00  0.64930732323E+04  0.65000000000E+04  0.30000000000E+03 0.  1.
        -52   -1    0    0    0    0 -0.00000000000E+00 -0.00000000000E+00 -0.64930732323E+04  0.65000000000E+04  0.30000000000E+03 0. -1.
     100001    1    1    2    0    0  0.13585788110E+04 -0.27709136733E+04  0.57187105871E+04  0.65000000000E+04  0.15050000000E+03 0.  1.
     100001    1    1    2    0    0 -0.13585788110E+04  0.27709136733E+04 -0.57187105871E+04  0.65000000000E+04  0.15050000000E+03 0. -1.
</event>
<event>
 4    1  0.5143956E-004  0.6500000E+04  0.7818608E-02  0.7223770E-01
         52   -1    0    0    0    0  0.00000000000E+00  0.00000000000E+00  0.64930732323E+04  0.65000000000E+04  0.30000000000E+03 0.  1.
        -52   -1    0    0    0    0 -0.00000000000E+00 -0.00000000000E+00 -0.64930732323E+04  0.65000000000E+04  0.30000000000E+03 0. -1.
     100001    1    1    2    0    0 -0.79275819041E+03  0.51232329750E+04  0.39180821948E+04  0.65000000000E+04  0.15050000000E+03 0.  1.
     100001    1    1    2    0    0  0.79275819041E+03 -0.51232329750E+04 -0.39180821948E+04  0.65000000000E+04  0.15050000000E+03 0. -1.
</event>
<event>
 4    1  0.5143956E-004  0.6500000E+04  0.7818608E-02  0.7223770E-01
         52   -1    0    0    0    0  0.00000000000E+00  0.00000000000E+00  0.64930732323E+04  0.65000000000E+04  0.30000000000E+03 0. -1.
        -52   -1    0    0    0    0 -0.00000000000E+00 -0.00000000000E+00 -0.64930732323E+04  0.65000000000E+04  0.30000000000E+03 0.  1.
     100001    1    1    2    0    0 -0.69020987508E+03 -0.79009813707E+03  0.64130106044E+04  0.65000000000E+04  0.15050000000E+03 0. -1.
     100001    1    1    2    0    0  0.69020987508E+03  0.79009813707E+03 -0.64130106044E+04  0.65000000000E+04  0.15050000000E+03 0.  1.
</event>
<event>
 4    1  0.5143956E-004  0.6500000E+04  0.7818608E-02  0.7223770E-01
         52   -1    0    0    0    0  0.00000000000E+00  0.00000000000E+00  0.64930732323E+04  0.65000000000E+04  0.30000000000E+03 0. -1.
        -52   -1    0    0    0    0 -0.00000000000E+00 -0.00000000000E+00 -0.64930732323E+04  0.65000000000E+04  0.30000000000E+03 0.  1.
     100001    1    1    2    0    0 -0.12013996437E+04  0.26711661794E+03  0.63806455284E+04  0.65000000000E+04  0.15050000000E+03 0. -1.
     100001    1    1    2    0    0  0.12013996437E+04 -0.26711661794E+03 -0.63806455284E+04  0.65000000000E+04  0.15050000000E+03 0.  1.
</event>
<event>
 4    1  0.5143956E-004  0.6500000E+04  0.7818608E-02  0.7223770E-01
         52   -1    0    0    0    0  0.00000000000E+00  0.00000000000E+00  0.64930732323E+04  0.65000000000E+04  0.30000000000E+03 0.  1.
        -52   -1    0    0    0    0 -0.00000000000E+00 -0.00000000000E+00 -0.64930732323E+04  0.65000000000E+04  0.30000000000E+03 0.  1.
     100001    1    1    2    0    0  0.68769488341E+03  0.31190743221E+03  0.64542342110E+04  0.65000000000E+04  0.15050000000E+03 0.  1.
     100001    1    1    2    0    0 -0.68769488341E+03 -0.31190743221E+03 -0.64542342110E+04  0.65000000000E+04  0.15050000000E+03 0.  1.
</event>
<event>
 4    1  0.5143956E-004  0.6500000E+04  0.7818608E-02  0.7223770E-01
         52   -1    0    0    0    0  0.00000000000E+00  0.00000000000E+00  0.64930732323E+04  0.65000000000E+04  0.30000000000E+03 0. -1.
        -52   -1    0    0    0    0 -0.00000000000E+00 -0.00000000000E+00 -0.64930732323E+04  0.65000000000E+04  0.30000000000E+03 0.  1.
     100001    1    1    2    0    0  0.20801179897E+04 -0.10709108200E+04 -0.60624754775E+04  0.65000000000E+04  0.15050000000E+03 0.  1.
     100001    1    1    2    0    0 -0.20801179897E+04  0.10709108200E+04  0.60624754775E+04  0.65000000000E+04  0.15050000000E+03 0. -1.
</event>
<event>
 4    1  0.5143956E-004  0.6500000E+04  0.7818608E-02  0.7223770E-01
         52   -1    0    0    0    0  0.00000000000E+00  0.00000000000E+00  0.64930732323E+04  0.65000000000E+04  0.30000000000E+03 0. -1.
        -52   -1    0    0    0    0 -0.00000000000E+00 -0.00000000000E+00 -0.64930732323E+04  0.65000000000E+04  0.30000000000E+03 0.  1.
     100001    1    1    2    0    0 -0.17416853625E+03  0.24486521029E+04 -0.60167364867E+04  0.65000000000E+04  0.15050000000E+03 0.  1.
     100001    1    1    2    0    0  0.17416853625E+03 -0.24486521029E+04  0.60167364867E+04  0.65000000000E+04  0.15050000000E+03 0. -1.
</event>
<event>
 4    1  0.5143956E-004  0.6500000E+04  0.7818608E-02  0.7223770E-01
         52   -1    0    0    0    0  0.00000000000E+00  0.00000000000E+00  0.64930732323E+04  0.65000000000E+04  0.30000000000E+03 0.  1.
        -52   -1    0    0    0    0 -0.00000000000E+00 -0.00000000000E+00 -0.64930732323E+04  0.65000000000E+04  0.30000000000E+03 0. -1.
     100001    1    1    2    0    0  0.16439137683E+04 -0.27776965950E+04 -0.56399733065E+04  0.65000000000E+04  0.15050000000E+03 0. -1.
     100001    1    1    2    0    0 -0.16439137683E+04  0.27776965950E+04  0.56399733065E+04  0.65000000000E+04  0.15050000000E+03 0.  1.
</event>
<event>
 4    1  0.5143956E-004  0.6500000E+04  0.7818608E-02  0.7223770E-01
         52   -1    0    0    0    0  0.00000000000E+00  0.00000000000E+00  0.64930732323E+04  0.65000000000E+04  0.30000000000E+03 0.  1.
        -52   -1    0    0    0    0 -0.00000000000E+00 -0.00000000000E+00 -0.64930732323E+04  0.65000000000E+04  0.30000000000E+03 0. -1.
     100001    1    1    2    0    0 -0.34283314944E+03 -0.23940525421E+04  0.60314449021E+04  0.65000000000E+04  0.15050000000E+03 0.  1.
     100001    1    1    2    0    0  0.34283314944E+03  0.23940525421E+04 -0.60314449021E+04  0.65000000000E+04  0.15050000000E+03 0. -1.
</event>
<event>
 4    1  0.5143956E-004  0.6500000E+04  0.7818608E-02  0.7223770E-01
         52   -1    0    0    0    0  0.00000000000E+00  0.00000000000E+00  0.64930732323E+04  0.65000000000E+04  0.30000000000E+03 0.  1.
        -52   -1    0    0    0    0 -0.00000000000E+00 -0.00000000000E+00 -0.64930732323E+04  0.65000000000E+04  0.30000000000E+03 0. -1.
     100001    1    1    2    0    0 -0.39053963652E+04 -0.36694802493E+04  0.36756147351E+04  0.65000000000E+04  0.15050000000E+03 0.  1.
     100001    1    1    2    0    0  0.39053963652E+04  0.36694802493E+04 -0.36756147351E+04  0.65000000000E+04  0.15050000000E+03 0. -1.
</event>
<event>
 4    1  0.5143956E-004  0.6500000E+04  0.7818608E-02  0.7223770E-01
         52   -1    0    0    0    0  0.00000000000E+00  0.00000000000E+00  0.64930732323E+04  0.65000000000E+04  0.30000000000E+03 0. -1.
        -52   -1    0    0    0    0 -0.00000000000E+00 -0.00000000000E+00 -0.64930732323E+04  0.65000000000E+04  0.30000000000E+03 0.  1.
     100001    1    1    2    0    0 -0.16669041405E+04 -0.30645605188E+04 -0.54824491938E+04  0.65000000000E+04  0.15050000000E+03 0.  1.
     100001    1    1    2    0    0  0.16669041405E+04  0.30645605188E+04  0.54824491938E+04  0.65000000000E+04  0.15050000000E+03 0. -1.
</event>
<event>
 4    1  0.5143956E-004  0.6500000E+04  0.7818608E-02  0.7223770E-01
         52   -1    0    0    0    0  0.00000000000E+00  0.00000000000E+00  0.64930732323E+04  0.65000000000E+04  0.30000000000E+03 0.  1.
        -52   -1    0    0    0    0 -0.00000000000E+00 -0.00000000000E+00 -0.64930732323E+04  0.65000000000E+04  0.30000000000E+03 0. -1.
     100001    1    1    2    0    0  0.75808330565E+03  0.81035045872E+03 -0.64028112252E+04  0.65000000000E+04  0.15050000000E+03 0. -1.
     100001    1    1    2    0    0 -0.75808330565E+03 -0.81035045872E+03  0.64028112252E+04  0.65000000000E+04  0.15050000000E+03 0.  1.
</event>
<event>
 4    1  0.5143956E-004  0.6500000E+04  0.7818608E-02  0.7223770E-01
         52   -1    0    0    0    0  0.00000000000E+00  0.00000000000E+00  0.64930732323E+04  0.65000000000E+04  0.30000000000E+03 0.  1.
        -52   -1    0    0    0    0 -0.00000000000E+00 -0.00000000000E+00 -0.64930732323E+04  0.65000000000E+04  0.30000000000E+03 0.  1.
     100001    1    1    2    0    0  0.33759656552E+02 -0.45495290001E+03 -0.64822239929E+04  0.65000000000E+04  0.15050000000E+03 0.  1.
     100001    1    1    2    0    0 -0.33759656552E+02  0.45495290001E+03  0.64822239929E+04  0.65000000000E+04  0.15050000000E+03 0.  1.
</event>
<event>
 4    1  0.5143956E-004  0.6500000E+04  0.7818608E-02  0.7223770E-01
         52   -1    0    0    0    0  0.00000000000E+00  0.00000000000E+00  0.64930732323E+04  0.65000000000E+04  0.30000000000E+03 0.  1.
        -52   -1    0    0    0    0 -0.00000000000E+00 -0.00000000000E+00 -0.64930732323E+04  0.65000000000E+04  0.30000000000E+03 0. -1.
     100001    1    1    2    0    0  0.43952779799E+03  0.21218733459E+02 -0.64833413322E+04  0.65000000000E+04  0.15050000000E+03 0. -1.
     100001    1    1    2    0    0 -0.43952779799E+03 -0.21218733459E+02  0.64833413322E+04  0.65000000000E+04  0.15050000000E+03 0.  1.
</event>
<event>
 4    1  0.5143956E-004  0.6500000E+04  0.7818608E-02  0.7223770E-01
         52   -1    0    0    0    0  0.00000000000E+00  0.00000000000E+00  0.64930732323E+04  0.65000000000E+04  0.30000000000E+03 0. -1.
        -52   -1    0    0    0    0 -0.00000000000E+00 -0.00000000000E+00 -0.64930732323E+04  0.65000000000E+04  0.30000000000E+03 0. -1.
     100001    1    1    2    0    0  0.13933100675E+03  0.58897239425E+03  0.64700114482E+04  0.65000000000E+04  0.15050000000E+03 0. -1.
     100001    1    1    2    0    0 -0.13933100675E+03 -0.58897239425E+03 -0.64700114482E+04  0.65000000000E+04  0.15050000000E+03 0. -1.
</event>
<event>
 4    1  0.5143956E-004  0.6500000E+04  0.7818608E-02  0.7223770E-01
         52   -1    0    0    0    0  0.00000000000E+00  0.00000000000E+00  0.64930732323E+04  0.65000000000E+04  0.30000000000E+03 0. -1.
        -52   -1    0    0    0    0 -0.00000000000E+00 -0.00000000000E+00 -0.64930732323E+04  0.65000000000E+04  0.30000000000E+03 0.  1.
     100001    1    1    2    0    0 -0.12255101587E+04  0.40082817419E+04 -0.49657982318E+04  0.65000000000E+04  0.15050000000E+03 0.  1.
     100001    1    1    2    0    0  0.12255101587E+04 -0.40082817419E+04  0.49657982318E+04  0.65000000000E+04  0.15050000000E+03 0. -1.
</event>
<event>
 4    1  0.5143956E-004  0.6500000E+04  0.7818608E-02  0.7223770E-01
         52   -1    0    0    0    0  0.00000000000E+00  0.00000000000E+00  0.64930732323E+04  0.65000000000E+04  0.30000000000E+03 0. -1.
        -52   -1    0    0    0    0 -0.00000000000E+00 -0.00000000000E+00 -0.64930732323E+04  0.65000000000E+04  0.30000000000E+03 0.  1.
     100001    1    1    2    0    0  0.39798698820E+02 -0.33384493236E+03 -0.64895541738E+04  0.65000000000E+04  0.15050000000E+03 0.  1.
     100001    1    1    2    0    0 -0.39798698820E+02  0.33384493236E+03  0.64895541738E+04  0.65000000000E+04  0.15050000000E+03 0. -1.
</event>
<event>
 4    1  0.5143956E-004  0.6500000E+04  0.7818608E-02  0.7223770E-01
         52   -1    0    0    0    0  0.00000000000E+00  0.00000000000E+00  0.64930732323E+04  0.65000000000E+04  0.30000000000E+03 0. -1.
        -52   -1    0    0    0    0 -0.00000000000E+00 -0.00000000000E+00 -0.64930732323E+04  0.65000000000E+04  0.30000000000E+03 0.  1.
     100001    1    1    2    0    0  0.21997033590E+03 -0.21076387488E+03  0.64911124925E+04  0.65000000000E+04  0.15050000000E+03 0. -1.
     100001    1    1    2    0    0 -0.21997033590E+03  0.21076387488E+03 -0.64911124925E+04  0.65000000000E+04  0.15050000000E+03 0.  1.
</event>
<event>
 4    1  0.5143956E-004  0.6500000E+04  0.7818608E-02  0.7223770E-01
         52   -1    0    0    0    0  0.00000000000E+00  0.00000000000E+00  0.64930732323E+04  0.65000000000E+04  0.30000000000E+03 0. -1.
        -52   -1    0    0    0    0 -0.00000000000E+00 -0.00000000000E+00 -0.64930732323E+04  0.65000000000E+04  0.30000000000E+03 0. -1.
     100001    1    1    2    0    0  0.60744526350E+03 -0.17755370743E+03  0.64673669049E+04  0.65000000000E+04  0.15050000000E+03 0. -1.
     100001    1    1    2    0    0 -0.60744526350E+03  0.17755370743E+03 -0.64673669049E+04  0.65000000000E+04  0.15050000000E+03 0. -1.
</event>
<event>
 4    1  0.5143956E-004  0.6500000E+04  0.7818608E-02  0.7223770E-01
         52   -1    0    0    0    0  0.00000000000E+00  0.00000000000E+00  0.64930732323E+04  0.65000000000E+04  0.30000000000E+03 0. -1.
        -52   -1    0    0    0    0 -0.00000000000E+00 -0.00000000000E+00 -0.64930732323E+04  0.65000000000E+04  0.30000000000E+03 0.  1.
     100001    1    1    2    0    0 -0.77043181932E+03  0.69805347855E+03  0.64145542248E+04  0.65000000000E+04  0.15050000000E+03 0. -1.
     100001    1    1    2    0    0  0.77043181932E+03 -0.69805347855E+03 -0.64145542248E+04  0.65000000000E+04  0.15050000000E+03 0.  1.
</event>
<event>
 4    1  0.5143956E-004  0.6500000E+04  0.7818608E-02  0.7223770E-01
         52   -1    0    0    0    0  0.00000000000E+00  0.00000000000E+00  0.64930732323E+04  0.65000000000E+04  0.30000000000E+03 0. -1.
        -52   -1    0    0    0    0 -0.00000000000E+00 -0.00000000000E+00 -0.64930732323E+04  0.65000000000E+04  0.30000000000E+03 0. -1.
     100001    1    1    2    0    0  0.27141106173E+03  0.16062485184E+03  0.64905997753E+04  0.65000000000E+04  0.15050000000E+03 0. -1.
     100001    1    1    2    0    0 -0.27141106173E+03 -0.16062485184E+03 -0.64905997753E+04  0.65000000000E+04  0.15050000000E+03 0. -1.
</event>
<event>
 4    1  0.5143956E-004  0.6500000E+04  0.7818608E-02  0.7223770E-01
         52   -1    0    0    0    0  0.00000000000E+00  0.00000000000E+00  0.64930732323E+04  0.65000000000E+04  0.30000000000E+03 0. -1.
        -52   -1    0    0    0    0 -0.00000000000E+00 -0.00000000000E+00 -0.64930732323E+04  0.65000000000E+04  0.30000000000E+03 0.  1.
     100001    1    1    2    0    0 -0.15744125225E+04  0.11138973079E+04 -0.62054659573E+04  0.65000000000E+04  0.15050000000E+03 0.  1.
     100001    1    1    2    0    0  0.15744125225E+04 -0.11138973079E+04  0.62054659573E+04  0.65000000000E+04  0.15050000000E+03 0. -1.
</event>
<event>
 4    1  0.5143956E-004  0.6500000E+04  0.7818608E-02  0.7223770E-01
         52   -1    0    0    0    0  0.00000000000E+00  0.00000000000E+00  0.64930732323E+04  0.65000000000E+04  0.30000000000E+03 0. -1.
        -52   -1    0    0    0    0 -0.00000000000E+00 -0.00000000000E+00 -0.64930732323E+04  0.65000000000E+04  0.30000000000E+03 0.  1.
     100001    1    1    2    0    0 -0.17057560008E+04 -0.52255277957E+03  0.62485746221E+04  0.65000000000E+04  0.15050000000E+03 0. -1.
     100001    1    1    2    0    0  0.17057560008E+04  0.52255277957E+03 -0.62485746221E+04  0.65000000000E+04  0.15050000000E+03 0.  1.
</event>
<event>
 4    1  0.5143956E-004  0.6500000E+04  0.7818608E-02  0.7223770E-01
         52   -1    0    0    0    0  0.00000000000E+00  0.00000000000E+00  0.64930732323E+04  0.65000000000E+04  0.30000000000E+03 0.  1.
        -52   -1    0    0    0    0 -0.00000000000E+00 -0.00000000000E+00 -0.64930732323E+04  0.65000000000E+04  0.30000000000E+03 0. -1.
     100001    1    1    2    0    0 -0.11029358500E+04  0.18252684292E+04  0.61383448438E+04  0.65000000000E+04  0.15050000000E+03 0.  1.
     100001    1    1    2    0    0  0.11029358500E+04 -0.18252684292E+04 -0.61383448438E+04  0.65000000000E+04  0.15050000000E+03 0. -1.
</event>
<event>
 4    1  0.5143956E-004  0.6500000E+04  0.7818608E-02  0.7223770E-01
         52   -1    0    0    0    0  0.00000000000E+00  0.00000000000E+00  0.64930732323E+04  0.65000000000E+04  0.30000000000E+03 0. -1.
        -52   -1    0    0    0    0 -0.00000000000E+00 -0.00000000000E+00 -0.64930732323E+04  0.65000000000E+04  0.30000000000E+03 0.  1.
     100001    1    1    2    0    0  0.81877369414E+03 -0.35114163038E+03  0.64368982393E+04  0.65000000000E+04  0.15050000000E+03 0. -1.
     100001    1    1    2    0    0 -0.81877369414E+03  0.35114163038E+03 -0.64368982393E+04  0.65000000000E+04  0.15050000000E+03 0.  1.
</event>
<event>
 4    1  0.5143956E-004  0.6500000E+04  0.7818608E-02  0.7223770E-01
         52   -1    0    0    0    0  0.00000000000E+00  0.00000000000E+00  0.64930732323E+04  0.65000000000E+04  0.30000000000E+03 0. -1.
        -52   -1    0    0    0    0 -0.00000000000E+00 -0.00000000000E+00 -0.64930732323E+04  0.65000000000E+04  0.30000000000E+03 0.  1.
     100001    1    1    2    0    0 -0.53004705633E+03  0.55840377972E+03  0.64524867367E+04  0.65000000000E+04  0.15050000000E+03 0. -1.
     100001    1    1    2    0    0  0.53004705633E+03 -0.55840377972E+03 -0.64524867367E+04  0.65000000000E+04  0.15050000000E+03 0.  1.
</event>
<event>
 4    1  0.5143956E-004  0.6500000E+04  0.7818608E-02  0.7223770E-01
         52   -1    0    0    0    0  0.00000000000E+00  0.00000000000E+00  0.64930732323E+04  0.65000000000E+04  0.30000000000E+03 0.  1.
        -52   -1    0    0    0    0 -0.00000000000E+00 -0.00000000000E+00 -0.64930732323E+04  0.65000000000E+04  0.30000000000E+03 0. -1.
     100001    1    1    2    0    0 -0.30047826650E+03  0.35264775036E+04 -0.54498641247E+04  0.65000000000E+04  0.15050000000E+03 0. -1.
     100001    1    1    2    0    0  0.30047826650E+03 -0.35264775036E+04  0.54498641247E+04  0.65000000000E+04  0.15050000000E+03 0.  1.
</event>
<event>
 4    1  0.5143956E-004  0.6500000E+04  0.7818608E-02  0.7223770E-01
         52   -1    0    0    0    0  0.00000000000E+00  0.00000000000E+00  0.64930732323E+04  0.65000000000E+04  0.30000000000E+03 0.  1.
        -52   -1    0    0    0    0 -0.00000000000E+00 -0.00000000000E+00 -0.64930732323E+04  0.65000000000E+04  0.30000000000E+03 0. -1.
     100001    1    1    2    0    0  0.55323181526E+03  0.42257829646E+03  0.64608599963E+04  0.65000000000E+04  0.15050000000E+03 0.  1.
     100001    1    1    2    0    0 -0.55323181526E+03 -0.42257829646E+03 -0.64608599963E+04  0.65000000000E+04  0.15050000000E+03 0. -1.
</event>
<event>
 4    1  0.5143956E-004  0.6500000E+04  0.7818608E-02  0.7223770E-01
         52   -1    0    0    0    0  0.00000000000E+00  0.00000000000E+00  0.64930732323E+04  0.65000000000E+04  0.30000000000E+03 0. -1.
        -52   -1    0    0    0    0 -0.00000000000E+00 -0.00000000000E+00 -0.64930732323E+04  0.65000000000E+04  0.30000000000E+03 0.  1.
     100001    1    1    2    0    0 -0.14587718982E+04  0.21781286737E+03 -0.63286564019E+04  0.65000000000E+04  0.15050000000E+03 0.  1.
     100001    1    1    2    0    0  0.14587718982E+04 -0.21781286737E+03  0.63286564019E+04  0.65000000000E+04  0.15050000000E+03 0. -1.
</event>
<event>
 4    1  0.5143956E-004  0.6500000E+04  0.7818608E-02  0.7223770E-01
         52   -1    0    0    0    0  0.00000000000E+00  0.00000000000E+00  0.64930732323E+04  0.65000000000E+04  0.30000000000E+03 0.  1.
        -52   -1    0    0    0    0 -0.00000000000E+00 -0.00000000000E+00 -0.64930732323E+04  0.65000000000E+04  0.30000000000E+03 0. -1.
     100001    1    1    2    0    0  0.20234066551E+04 -0.66526253217E+03 -0.61392671404E+04  0.65000000000E+04  0.15050000000E+03 0. -1.
     100001    1    1    2    0    0 -0.20234066551E+04  0.66526253217E+03  0.61392671404E+04  0.65000000000E+04  0.15050000000E+03 0.  1.
</event>
<event>
 4    1  0.5143956E-004  0.6500000E+04  0.7818608E-02  0.7223770E-01
         52   -1    0    0    0    0  0.00000000000E+00  0.00000000000E+00  0.64930732323E+04  0.65000000000E+04  0.30000000000E+03 0. -1.
        -52   -1    0    0    0    0 -0.00000000000E+00 -0.00000000000E+00 -0.64930732323E+04  0.65000000000E+04  0.30000000000E+03 0. -1.
     100001    1    1    2    0    0  0.29218497247E+03  0.42135343243E+03 -0.64779965249E+04  0.65000000000E+04  0.15050000000E+03 0. -1.
     100001    1    1    2    0    0 -0.29218497247E+03 -0.42135343243E+03  0.64779965249E+04  0.65000000000E+04  0.15050000000E+03 0. -1.
</event>
<event>
 4    1  0.5143956E-004  0.6500000E+04  0.7818608E-02  0.7223770E-01
         52   -1    0    0    0    0  0.00000000000E+00  0.00000000000E+00  0.64930732323E+04  0.65000000000E+04  0.30000000000E+03 0.  1.
        -52   -1    0    0    0    0 -0.00000000000E+00 -0.00000000000E+00 -0.64930732323E+04  0.65000000000E+04  0.30000000000E+03 0. -1.
     100001    1    1    2    0    0  0.35097603899E+04  0.56279935386E+03  0.54398702781E+04  0.65000000000E+04  0.15050000000E+03 0.  1.
     100001    1    1    2    0    0 -0.35097603899E+04 -0.56279935386E+03 -0.54398702781E+04  0.65000000000E+04  0.15050000000E+03 0. -1.
</event>
<event>
 4    1  0.5143956E-004  0.6500000E+04  0.7818608E-02  0.7223770E-01
         52   -1    0    0    0    0  0.00000000000E+00  0.00000000000E+00  0.64930732323E+04  0.65000000000E+04  0.30000000000E+03 0.  1.
        -52   -1    0    0    0    0 -0.00000000000E+00 -0.00000000000E+00 -0.64930732323E+04  0.65000000000E+04  0.30000000000E+03 0. -1.
     100001    1    1    2    0    0  0.24518628624E+03 -0.60765150017E+03  0.64651367417E+04  0.65000000000E+04  0.15050000000E+03 0.  1.
     100001    1    1    2    0    0 -0.24518628624E+03  0.60765150017E+03 -0.64651367417E+04  0.65000000000E+04  0.15050000000E+03 0. -1.
</event>
<event>
 4    1  0.5143956E-004  0.6500000E+04  0.7818608E-02  0.7223770E-01
         52   -1    0    0    0    0  0.00000000000E+00  0.00000000000E+00  0.64930732323E+04  0.65000000000E+04  0.30000000000E+03 0. -1.
        -52   -1    0    0    0    0 -0.00000000000E+00 -0.00000000000E+00 -0.64930732323E+04  0.65000000000E+04  0.30000000000E+03 0.  1.
     100001    1    1    2    0    0  0.81319000305E+03  0.17097656284E+04 -0.62163311740E+04  0.65000000000E+04  0.15050000000E+03 0.  1.
     100001    1    1    2    0    0 -0.81319000305E+03 -0.17097656284E+04  0.62163311740E+04  0.65000000000E+04  0.15050000000E+03 0. -1.
</event>
<event>
 4    1  0.5143956E-004  0.6500000E+04  0.7818608E-02  0.7223770E-01
         52   -1    0    0    0    0  0.00000000000E+00  0.00000000000E+00  0.64930732323E+04  0.65000000000E+04  0.30000000000E+03 0.  1.
        -52   -1    0    0    0    0 -0.00000000000E+00 -0.00000000000E+00 -0.64930732323E+04  0.65000000000E+04  0.30000000000E+03 0. -1.
     100001    1    1    2    0    0 -0.37452118946E+03  0.13857192959E+03  0.64859757515E+04  0.65000000000E+04  0.15050000000E+03 0.  1.
     100001    1    1    2    0    0  0.37452118946E+03 -0.13857192959E+03 -0.64859757515E+04  0.65000000000E+04  0.15050000000E+03 0. -1.
</event>
<event>
 4    1  0.5143956E-004  0.6500000E+04  0.7818608E-02  0.7223770E-01
         52   -1    0    0    0    0  0.00000000000E+00  0.00000000000E+00  0.64930732323E+04  0.65000000000E+04  0.30000000000E+03 0. -1.
        -52   -1    0    0    0    0 -0.00000000000E+00 -0.00000000000E+00 -0.64930732323E+04  0.65000000000E+04  0.30000000000E+03 0.  1.
     100001    1    1    2    0    0  0.19119303745E+04  0.54497931764E+04  0.29785275435E+04  0.65000000000E+04  0.15050000000E+03 0. -1.
     100001    1    1    2    0    0 -0.19119303745E+04 -0.54497931764E+04 -0.29785275435E+04  0.65000000000E+04  0.15050000000E+03 0.  1.
</event>
<event>
 4    1  0.5143956E-004  0.6500000E+04  0.7818608E-02  0.7223770E-01
         52   -1    0    0    0    0  0.00000000000E+00  0.00000000000E+00  0.64930732323E+04  0.65000000000E+04  0.30000000000E+03 0.  1.
        -52   -1    0    0    0    0 -0.00000000000E+00 -0.00000000000E+00 -0.64930732323E+04  0.65000000000E+04  0.30000000000E+03 0. -1.
     100001    1    1    2    0    0  0.43286768572E+03  0.19935326971E+03  0.64807587203E+04  0.65000000000E+04  0.15050000000E+03 0.  1.
     100001    1    1    2    0    0 -0.43286768572E+03 -0.19935326971E+03 -0.64807587203E+04  0.65000000000E+04  0.15050000000E+03 0. -1.
</event>
<event>
 4    1  0.5143956E-004  0.6500000E+04  0.7818608E-02  0.7223770E-01
         52   -1    0    0    0    0  0.00000000000E+00  0.00000000000E+00  0.64930732323E+04  0.65000000000E+04  0.30000000000E+03 0.  1.
        -52   -1    0    0    0    0 -0.00000000000E+00 -0.00000000000E+00 -0.64930732323E+04  0.65000000000E+04  0.30000000000E+03 0.  1.
     100001    1    1    2    0    0 -0.20390663098E+03 -0.40926493880E+03  0.64821504183E+04  0.65000000000E+04  0.15050000000E+03 0.  1.
     100001    1    1    2    0    0  0.20390663098E+03  0.40926493880E+03 -0.64821504183E+04  0.65000000000E+04  0.15050000000E+03 0.  1.
</event>
<event>
 4    1  0.5143956E-004  0.6500000E+04  0.7818608E-02  0.7223770E-01
         52   -1    0    0    0    0  0.00000000000E+00  0.00000000000E+00  0.64930732323E+04  0.65000000000E+04  0.30000000000E+03 0.  1.
        -52   -1    0    0    0    0 -0.00000000000E+00 -0.00000000000E+00 -0.64930732323E+04  0.65000000000E+04  0.30000000000E+03 0. -1.
     100001    1    1    2    0    0  0.16884466636E+04 -0.23942329665E+04 -0.58003574128E+04  0.65000000000E+04  0.15050000000E+03 0. -1.
     100001    1    1    2    0    0 -0.16884466636E+04  0.23942329665E+04  0.58003574128E+04  0.65000000000E+04  0.15050000000E+03 0.  1.
</event>
<event>
 4    1  0.5143956E-004  0.6500000E+04  0.7818608E-02  0.7223770E-01
         52   -1    0    0    0    0  0.00000000000E+00  0.00000000000E+00  0.64930732323E+04  0.65000000000E+04  0.30000000000E+03 0. -1.
        -52   -1    0    0    0    0 -0.00000000000E+00 -0.00000000000E+00 -0.64930732323E+04  0.65000000000E+04  0.30000000000E+03 0.  1.
     100001    1    1    2    0    0 -0.34148417811E+03  0.77196975806E+02 -0.64888195331E+04  0.65000000000E+04  0.15050000000E+03 0.  1.
     100001    1    1    2    0    0  0.34148417811E+03 -0.77196975806E+02  0.64888195331E+04  0.65000000000E+04  0.15050000000E+03 0. -1.
</event>
<event>
 4    1  0.5143956E-004  0.6500000E+04  0.7818608E-02  0.7223770E-01
         52   -1    0    0    0    0  0.00000000000E+00  0.00000000000E+00  0.64930732323E+04  0.65000000000E+04  0.30000000000E+03 0.  1.
        -52   -1    0    0    0    0 -0.00000000000E+00 -0.00000000000E+00 -0.64930732323E+04  0.65000000000E+04  0.30000000000E+03 0. -1.
     100001    1    1    2    0    0 -0.67109671831E+02 -0.36222596212E+03  0.64878069017E+04  0.65000000000E+04  0.15050000000E+03 0.  1.
     100001    1    1    2    0    0  0.67109671831E+02  0.36222596212E+03 -0.64878069017E+04  0.65000000000E+04  0.15050000000E+03 0. -1.
</event>
<event>
 4    1  0.5143956E-004  0.6500000E+04  0.7818608E-02  0.7223770E-01
         52   -1    0    0    0    0  0.00000000000E+00  0.00000000000E+00  0.64930732323E+04  0.65000000000E+04  0.30000000000E+03 0.  1.
        -52   -1    0    0    0    0 -0.00000000000E+00 -0.00000000000E+00 -0.64930732323E+04  0.65000000000E+04  0.30000000000E+03 0. -1.
     100001    1    1    2    0    0  0.26812983636E+03 -0.49914727127E+02 -0.64925314524E+04  0.65000000000E+04  0.15050000000E+03 0. -1.
     100001    1    1    2    0    0 -0.26812983636E+03  0.49914727127E+02  0.64925314524E+04  0.65000000000E+04  0.15050000000E+03 0.  1.
</event>
<event>
 4    1  0.5143956E-004  0.6500000E+04  0.7818608E-02  0.7223770E-01
         52   -1    0    0    0    0  0.00000000000E+00  0.00000000000E+00  0.64930732323E+04  0.65000000000E+04  0.30000000000E+03 0. -1.
        -52   -1    0    0    0    0 -0.00000000000E+00 -0.00000000000E+00 -0.64930732323E+04  0.65000000000E+04  0.30000000000E+03 0.  1.
     100001    1    1    2    0    0  0.33036384118E+04  0.30016548089E+03  0.55877744835E+04  0.65000000000E+04  0.15050000000E+03 0. -1.
     100001    1    1    2    0    0 -0.33036384118E+04 -0.30016548089E+03 -0.55877744835E+04  0.65000000000E+04  0.15050000000E+03 0.  1.
</event>
<event>
 4    1  0.5143956E-004  0.6500000E+04  0.7818608E-02  0.7223770E-01
         52   -1    0    0    0    0  0.00000000000E+00  0.00000000000E+00  0.64930732323E+04  0.65000000000E+04  0.30000000000E+03 0. -1.
        -52   -1    0    0    0    0 -0.00000000000E+00 -0.00000000000E+00 -0.64930732323E+04  0.65000000000E+04  0.30000000000E+03 0.  1.
     100001    1    1    2    0    0 -0.32626947868E+04  0.47951286546E+04  0.29306848457E+04  0.65000000000E+04  0.15050000000E+03 0. -1.
     100001    1    1    2    0    0  0.32626947868E+04 -0.47951286546E+04 -0.29306848457E+04  0.65000000000E+04  0.15050000000E+03 0.  1.
</event>
<event>
 4    1  0.7717150E-004  0.6500000E+04  0.7818608E-02  0.7223770E-01
         52   -1    0    0    0    0  0.00000000000E+00  0.00000000000E+00  0.64930732323E+04  0.65000000000E+04  0.30000000000E+03 0. -1.
        -52   -1    0    0    0    0 -0.00000000000E+00 -0.00000000000E+00 -0.64930732323E+04  0.65000000000E+04  0.30000000000E+03 0. -1.
     100001    1    1    2    0    0  0.12263362109E+03 -0.49866421156E+02  0.64969088100E+04  0.65000000000E+04  0.15050000000E+03 0. -1.
     100001    1    1    2    0    0 -0.12263362109E+03  0.49866421156E+02 -0.64969088100E+04  0.65000000000E+04  0.15050000000E+03 0. -1.
</event>
<event>
 4    1  0.5679299E-004  0.6500000E+04  0.7818608E-02  0.7223770E-01
         52   -1    0    0    0    0  0.00000000000E+00  0.00000000000E+00  0.64930732323E+04  0.65000000000E+04  0.30000000000E+03 0. -1.
        -52   -1    0    0    0    0 -0.00000000000E+00 -0.00000000000E+00 -0.64930732323E+04  0.65000000000E+04  0.30000000000E+03 0.  1.
     100001    1    1    2    0    0  0.15805751924E+03  0.20089601521E+03  0.64932278846E+04  0.65000000000E+04  0.15050000000E+03 0. -1.
     100001    1    1    2    0    0 -0.15805751924E+03 -0.20089601521E+03 -0.64932278846E+04  0.65000000000E+04  0.15050000000E+03 0.  1.
</event>
<event>
 4    1  0.5143956E-004  0.6500000E+04  0.7818608E-02  0.7223770E-01
         52   -1    0    0    0    0  0.00000000000E+00  0.00000000000E+00  0.64930732323E+04  0.65000000000E+04  0.30000000000E+03 0. -1.
        -52   -1    0    0    0    0 -0.00000000000E+00 -0.00000000000E+00 -0.64930732323E+04  0.65000000000E+04  0.30000000000E+03 0.  1.
     100001    1    1    2    0    0 -0.36295391179E+04  0.10872272668E+04 -0.52793685619E+04  0.65000000000E+04  0.15050000000E+03 0.  1.
     100001    1    1    2    0    0  0.36295391179E+04 -0.10872272668E+04  0.52793685619E+04  0.65000000000E+04  0.15050000000E+03 0. -1.
</event>
<event>
 4    1  0.7290863E-004  0.6500000E+04  0.7818608E-02  0.7223770E-01
         52   -1    0    0    0    0  0.00000000000E+00  0.00000000000E+00  0.64930732323E+04  0.65000000000E+04  0.30000000000E+03 0. -1.
        -52   -1    0    0    0    0 -0.00000000000E+00 -0.00000000000E+00 -0.64930732323E+04  0.65000000000E+04  0.30000000000E+03 0. -1.
     100001    1    1    2    0    0 -0.14503554260E+03  0.50748268219E+02 -0.64964404911E+04  0.65000000000E+04  0.15050000000E+03 0. -1.
     100001    1    1    2    0    0  0.14503554260E+03 -0.50748268219E+02  0.64964404911E+04  0.65000000000E+04  0.15050000000E+03 0. -1.
</event>
<event>
 4    1  0.5143956E-004  0.6500000E+04  0.7818608E-02  0.7223770E-01
         52   -1    0    0    0    0  0.00000000000E+00  0.00000000000E+00  0.64930732323E+04  0.65000000000E+04  0.30000000000E+03 0. -1.
        -52   -1    0    0    0    0 -0.00000000000E+00 -0.00000000000E+00 -0.64930732323E+04  0.65000000000E+04  0.30000000000E+03 0.  1.
     100001    1    1    2    0    0  0.11420402398E+04  0.45778106684E+03  0.63807155034E+04  0.65000000000E+04  0.15050000000E+03 0. -1.
     100001    1    1    2    0    0 -0.11420402398E+04 -0.45778106684E+03 -0.63807155034E+04  0.65000000000E+04  0.15050000000E+03 0.  1.
</event>
<event>
 4    1  0.5143956E-004  0.6500000E+04  0.7818608E-02  0.7223770E-01
         52   -1    0    0    0    0  0.00000000000E+00  0.00000000000E+00  0.64930732323E+04  0.65000000000E+04  0.30000000000E+03 0.  1.
        -52   -1    0    0    0    0 -0.00000000000E+00 -0.00000000000E+00 -0.64930732323E+04  0.65000000000E+04  0.30000000000E+03 0.  1.
     100001    1    1    2    0    0 -0.27117429191E+02  0.55693660848E+03  0.64742903865E+04  0.65000000000E+04  0.15050000000E+03 0.  1.
     100001    1    1    2    0    0  0.27117429191E+02 -0.55693660848E+03 -0.64742903865E+04  0.65000000000E+04  0.15050000000E+03 0.  1.
</event>
<event>
 4    1  0.5143956E-004  0.6500000E+04  0.7818608E-02  0.7223770E-01
         52   -1    0    0    0    0  0.00000000000E+00  0.00000000000E+00  0.64930732323E+04  0.65000000000E+04  0.30000000000E+03 0. -1.
        -52   -1    0    0    0    0 -0.00000000000E+00 -0.00000000000E+00 -0.64930732323E+04  0.65000000000E+04  0.30000000000E+03 0.  1.
     100001    1    1    2    0    0 -0.43578054876E+04  0.21594577787E+04  0.43097126568E+04  0.65000000000E+04  0.15050000000E+03 0. -1.
     100001    1    1    2    0    0  0.43578054876E+04 -0.21594577787E+04 -0.43097126568E+04  0.65000000000E+04  0.15050000000E+03 0.  1.
</event>
<event>
 4    1  0.5143956E-004  0.6500000E+04  0.7818608E-02  0.7223770E-01
         52   -1    0    0    0    0  0.00000000000E+00  0.00000000000E+00  0.64930732323E+04  0.65000000000E+04  0.30000000000E+03 0.  1.
        -52   -1    0    0    0    0 -0.00000000000E+00 -0.00000000000E+00 -0.64930732323E+04  0.65000000000E+04  0.30000000000E+03 0. -1.
     100001    1    1    2    0    0  0.15656206173E+03 -0.58807440361E+03 -0.64696991094E+04  0.65000000000E+04  0.15050000000E+03 0. -1.
     100001    1    1    2    0    0 -0.15656206173E+03  0.58807440361E+03  0.64696991094E+04  0.65000000000E+04  0.15050000000E+03 0.  1.
</event>
<event>
 4    1  0.5143956E-004  0.6500000E+04  0.7818608E-02  0.7223770E-01
         52   -1    0    0    0    0  0.00000000000E+00  0.00000000000E+00  0.64930732323E+04  0.65000000000E+04  0.30000000000E+03 0. -1.
        -52   -1    0    0    0    0 -0.00000000000E+00 -0.00000000000E+00 -0.64930732323E+04  0.65000000000E+04  0.30000000000E+03 0.  1.
     100001    1    1    2    0    0 -0.90360226530E+03  0.92270567220E+03 -0.63686314808E+04  0.65000000000E+04  0.15050000000E+03 0.  1.
     100001    1    1    2    0    0  0.90360226530E+03 -0.92270567220E+03  0.63686314808E+04  0.65000000000E+04  0.15050000000E+03 0. -1.
</event>
<event>
 4    1  0.5143956E-004  0.6500000E+04  0.7818608E-02  0.7223770E-01
         52   -1    0    0    0    0  0.00000000000E+00  0.00000000000E+00  0.64930732323E+04  0.65000000000E+04  0.30000000000E+03 0. -1.
        -52   -1    0    0    0    0 -0.00000000000E+00 -0.00000000000E+00 -0.64930732323E+04  0.65000000000E+04  0.30000000000E+03 0.  1.
     100001    1    1    2    0    0  0.20823993477E+03  0.17119677873E+04 -0.62652336090E+04  0.65000000000E+04  0.15050000000E+03 0.  1.
     100001    1    1    2    0    0 -0.20823993477E+03 -0.17119677873E+04  0.62652336090E+04  0.65000000000E+04  0.15050000000E+03 0. -1.
</event>
<event>
 4    1  0.5143956E-004  0.6500000E+04  0.7818608E-02  0.7223770E-01
         52   -1    0    0    0    0  0.00000000000E+00  0.00000000000E+00  0.64930732323E+04  0.65000000000E+04  0.30000000000E+03 0. -1.
        -52   -1    0    0    0    0 -0.00000000000E+00 -0.00000000000E+00 -0.64930732323E+04  0.65000000000E+04  0.30000000000E+03 0.  1.
     100001    1    1    2    0    0  0.12792163358E+04  0.21384939171E+04  0.60014830736E+04  0.65000000000E+04  0.15050000000E+03 0. -1.
     100001    1    1    2    0    0 -0.12792163358E+04 -0.21384939171E+04 -0.60014830736E+04  0.65000000000E+04  0.15050000000E+03 0.  1.
</event>
<event>
 4    1  0.5143956E-004  0.6500000E+04  0.7818608E-02  0.7223770E-01
         52   -1    0    0    0    0  0.00000000000E+00  0.00000000000E+00  0.64930732323E+04  0.65000000000E+04  0.30000000000E+03 0. -1.
        -52   -1    0    0    0    0 -0.00000000000E+00 -0.00000000000E+00 -0.64930732323E+04  0.65000000000E+04  0.30000000000E+03 0.  1.
     100001    1    1    2    0    0 -0.92772682979E+02  0.15649019330E+04 -0.63063321289E+04  0.65000000000E+04  0.15050000000E+03 0.  1.
     100001    1    1    2    0    0  0.92772682979E+02 -0.15649019330E+04  0.63063321289E+04  0.65000000000E+04  0.15050000000E+03 0. -1.
</event>
<event>
 4    1  0.5143956E-004  0.6500000E+04  0.7818608E-02  0.7223770E-01
         52   -1    0    0    0    0  0.00000000000E+00  0.00000000000E+00  0.64930732323E+04  0.65000000000E+04  0.30000000000E+03 0.  1.
        -52   -1    0    0    0    0 -0.00000000000E+00 -0.00000000000E+00 -0.64930732323E+04  0.65000000000E+04  0.30000000000E+03 0. -1.
     100001    1    1    2    0    0 -0.10539702439E+04  0.68411531145E+02 -0.64118496814E+04  0.65000000000E+04  0.15050000000E+03 0. -1.
     100001    1    1    2    0    0  0.10539702439E+04 -0.68411531145E+02  0.64118496814E+04  0.65000000000E+04  0.15050000000E+03 0.  1.
</event>
<event>
 4    1  0.5143956E-004  0.6500000E+04  0.7818608E-02  0.7223770E-01
         52   -1    0    0    0    0  0.00000000000E+00  0.00000000000E+00  0.64930732323E+04  0.65000000000E+04  0.30000000000E+03 0.  1.
        -52   -1    0    0    0    0 -0.00000000000E+00 -0.00000000000E+00 -0.64930732323E+04  0.65000000000E+04  0.30000000000E+03 0. -1.
     100001    1    1    2    0    0 -0.42806141259E+04 -0.22785731051E+04 -0.43257134741E+04  0.65000000000E+04  0.15050000000E+03 0. -1.
     100001    1    1    2    0    0  0.42806141259E+04  0.22785731051E+04  0.43257134741E+04  0.65000000000E+04  0.15050000000E+03 0.  1.
</event>
<event>
 4    1  0.5143956E-004  0.6500000E+04  0.7818608E-02  0.7223770E-01
         52   -1    0    0    0    0  0.00000000000E+00  0.00000000000E+00  0.64930732323E+04  0.65000000000E+04  0.30000000000E+03 0.  1.
        -52   -1    0    0    0    0 -0.00000000000E+00 -0.00000000000E+00 -0.64930732323E+04  0.65000000000E+04  0.30000000000E+03 0. -1.
     100001    1    1    2    0    0 -0.19883430797E+04 -0.10610557040E+03  0.61856756426E+04  0.65000000000E+04  0.15050000000E+03 0.  1.
     100001    1    1    2    0    0  0.19883430797E+04  0.10610557040E+03 -0.61856756426E+04  0.65000000000E+04  0.15050000000E+03 0. -1.
</event>
<event>
 4    1  0.5143956E-004  0.6500000E+04  0.7818608E-02  0.7223770E-01
         52   -1    0    0    0    0  0.00000000000E+00  0.00000000000E+00  0.64930732323E+04  0.65000000000E+04  0.30000000000E+03 0.  1.
        -52   -1    0    0    0    0 -0.00000000000E+00 -0.00000000000E+00 -0.64930732323E+04  0.65000000000E+04  0.30000000000E+03 0. -1.
     100001    1    1    2    0    0 -0.11298181692E+03 -0.63977892477E+03 -0.64656993269E+04  0.65000000000E+04  0.15050000000E+03 0. -1.
     100001    1    1    2    0    0  0.11298181692E+03  0.63977892477E+03  0.64656993269E+04  0.65000000000E+04  0.15050000000E+03 0.  1.
</event>
<event>
 4    1  0.5143956E-004  0.6500000E+04  0.7818608E-02  0.7223770E-01
         52   -1    0    0    0    0  0.00000000000E+00  0.00000000000E+00  0.64930732323E+04  0.65000000000E+04  0.30000000000E+03 0.  1.
        -52   -1    0    0    0    0 -0.00000000000E+00 -0.00000000000E+00 -0.64930732323E+04  0.65000000000E+04  0.30000000000E+03 0. -1.
     100001    1    1    2    0    0  0.39172365278E+03  0.20418689841E+03 -0.64832252807E+04  0.65000000000E+04  0.15050000000E+03 0. -1.
     100001    1    1    2    0    0 -0.39172365278E+03 -0.20418689841E+03  0.64832252807E+04  0.65000000000E+04  0.15050000000E+03 0.  1.
</event>
<event>
 4    1  0.5143956E-004  0.6500000E+04  0.7818608E-02  0.7223770E-01
         52   -1    0    0    0    0  0.00000000000E+00  0.00000000000E+00  0.64930732323E+04  0.65000000000E+04  0.30000000000E+03 0.  1.
        -52   -1    0    0    0    0 -0.00000000000E+00 -0.00000000000E+00 -0.64930732323E+04  0.65000000000E+04  0.30000000000E+03 0. -1.
     100001    1    1    2    0    0  0.11439225079E+04  0.10453252587E+04 -0.63107912459E+04  0.65000000000E+04  0.15050000000E+03 0. -1.
     100001    1    1    2    0    0 -0.11439225079E+04 -0.10453252587E+04  0.63107912459E+04  0.65000000000E+04  0.15050000000E+03 0.  1.
</event>
<event>
 4    1  0.5143956E-004  0.6500000E+04  0.7818608E-02  0.7223770E-01
         52   -1    0    0    0    0  0.00000000000E+00  0.00000000000E+00  0.64930732323E+04  0.65000000000E+04  0.30000000000E+03 0. -1.
        -52   -1    0    0    0    0 -0.00000000000E+00 -0.00000000000E+00 -0.64930732323E+04  0.65000000000E+04  0.30000000000E+03 0.  1.
     100001    1    1    2    0    0  0.31060425454E+03 -0.22659401168E+03 -0.64868736616E+04  0.65000000000E+04  0.15050000000E+03 0.  1.
     100001    1    1    2    0    0 -0.31060425454E+03  0.22659401168E+03  0.64868736616E+04  0.65000000000E+04  0.15050000000E+03 0. -1.
</event>
<event>
 4    1  0.5143956E-004  0.6500000E+04  0.7818608E-02  0.7223770E-01
         52   -1    0    0    0    0  0.00000000000E+00  0.00000000000E+00  0.64930732323E+04  0.65000000000E+04  0.30000000000E+03 0. -1.
        -52   -1    0    0    0    0 -0.00000000000E+00 -0.00000000000E+00 -0.64930732323E+04  0.65000000000E+04  0.30000000000E+03 0.  1.
     100001    1    1    2    0    0  0.59746041926E+04  0.19969193883E+04 -0.15949192608E+04  0.65000000000E+04  0.15050000000E+03 0.  1.
     100001    1    1    2    0    0 -0.59746041926E+04 -0.19969193883E+04  0.15949192608E+04  0.65000000000E+04  0.15050000000E+03 0. -1.
</event>
<event>
 4    1  0.5143956E-004  0.6500000E+04  0.7818608E-02  0.7223770E-01
         52   -1    0    0    0    0  0.00000000000E+00  0.00000000000E+00  0.64930732323E+04  0.65000000000E+04  0.30000000000E+03 0.  1.
        -52   -1    0    0    0    0 -0.00000000000E+00 -0.00000000000E+00 -0.64930732323E+04  0.65000000000E+04  0.30000000000E+03 0. -1.
     100001    1    1    2    0    0  0.43026875132E+03  0.48895451764E+04  0.42584699741E+04  0.65000000000E+04  0.15050000000E+03 0.  1.
     100001    1    1    2    0    0 -0.43026875132E+03 -0.48895451764E+04 -0.42584699741E+04  0.65000000000E+04  0.15050000000E+03 0. -1.
</event>
<event>
 4    1  0.5143956E-004  0.6500000E+04  0.7818608E-02  0.7223770E-01
         52   -1    0    0    0    0  0.00000000000E+00  0.00000000000E+00  0.64930732323E+04  0.65000000000E+04  0.30000000000E+03 0.  1.
        -52   -1    0    0    0    0 -0.00000000000E+00 -0.00000000000E+00 -0.64930732323E+04  0.65000000000E+04  0.30000000000E+03 0. -1.
     100001    1    1    2    0    0  0.75796429661E+03  0.95954573142E+02  0.64531877855E+04  0.65000000000E+04  0.15050000000E+03 0.  1.
     100001    1    1    2    0    0 -0.75796429661E+03 -0.95954573142E+02 -0.64531877855E+04  0.65000000000E+04  0.15050000000E+03 0. -1.
</event>
<event>
 4    1  0.5143956E-004  0.6500000E+04  0.7818608E-02  0.7223770E-01
         52   -1    0    0    0    0  0.00000000000E+00  0.00000000000E+00  0.64930732323E+04  0.65000000000E+04  0.30000000000E+03 0. -1.
        -52   -1    0    0    0    0 -0.00000000000E+00 -0.00000000000E+00 -0.64930732323E+04  0.65000000000E+04  0.30000000000E+03 0.  1.
     100001    1    1    2    0    0 -0.10214370600E+03  0.84738018897E+03  0.64419611322E+04  0.65000000000E+04  0.15050000000E+03 0. -1.
     100001    1    1    2    0    0  0.10214370600E+03 -0.84738018897E+03 -0.64419611322E+04  0.65000000000E+04  0.15050000000E+03 0.  1.
</event>
<event>
 4    1  0.5143956E-004  0.6500000E+04  0.7818608E-02  0.7223770E-01
         52   -1    0    0    0    0  0.00000000000E+00  0.00000000000E+00  0.64930732323E+04  0.65000000000E+04  0.30000000000E+03 0.  1.
        -52   -1    0    0    0    0 -0.00000000000E+00 -0.00000000000E+00 -0.64930732323E+04  0.65000000000E+04  0.30000000000E+03 0.  1.
     100001    1    1    2    0    0  0.85814767591E+03  0.35353950302E+03  0.64316360388E+04  0.65000000000E+04  0.15050000000E+03 0.  1.
     100001    1    1    2    0    0 -0.85814767591E+03 -0.35353950302E+03 -0.64316360388E+04  0.65000000000E+04  0.15050000000E+03 0.  1.
</event>
<event>
 4    1  0.5143956E-004  0.6500000E+04  0.7818608E-02  0.7223770E-01
         52   -1    0    0    0    0  0.00000000000E+00  0.00000000000E+00  0.64930732323E+04  0.65000000000E+04  0.30000000000E+03 0. -1.
        -52   -1    0    0    0    0 -0.00000000000E+00 -0.00000000000E+00 -0.64930732323E+04  0.65000000000E+04  0.30000000000E+03 0.  1.
     100001    1    1    2    0    0  0.31968296191E+03 -0.61031549070E+04 -0.22083144558E+04  0.65000000000E+04  0.15050000000E+03 0.  1.
     100001    1    1    2    0    0 -0.31968296191E+03  0.61031549070E+04  0.22083144558E+04  0.65000000000E+04  0.15050000000E+03 0. -1.
</event>
<event>
 4    1  0.5143956E-004  0.6500000E+04  0.7818608E-02  0.7223770E-01
         52   -1    0    0    0    0  0.00000000000E+00  0.00000000000E+00  0.64930732323E+04  0.65000000000E+04  0.30000000000E+03 0.  1.
        -52   -1    0    0    0    0 -0.00000000000E+00 -0.00000000000E+00 -0.64930732323E+04  0.65000000000E+04  0.30000000000E+03 0. -1.
     100001    1    1    2    0    0  0.13711334320E+03 -0.78952698413E+03 -0.64486585289E+04  0.65000000000E+04  0.15050000000E+03 0. -1.
     100001    1    1    2    0    0 -0.13711334320E+03  0.78952698413E+03  0.64486585289E+04  0.65000000000E+04  0.15050000000E+03 0.  1.
</event>
<event>
 4    1  0.5143956E-004  0.6500000E+04  0.7818608E-02  0.7223770E-01
         52   -1    0    0    0    0  0.00000000000E+00  0.00000000000E+00  0.64930732323E+04  0.65000000000E+04  0.30000000000E+03 0. -1.
        -52   -1    0    0    0    0 -0.00000000000E+00 -0.00000000000E+00 -0.64930732323E+04  0.65000000000E+04  0.30000000000E+03 0.  1.
     100001    1    1    2    0    0  0.40164599702E+04 -0.35573906186E+04  0.36661111609E+04  0.65000000000E+04  0.15050000000E+03 0. -1.
     100001    1    1    2    0    0 -0.40164599702E+04  0.35573906186E+04 -0.36661111609E+04  0.65000000000E+04  0.15050000000E+03 0.  1.
</event>
<event>
 4    1  0.5143956E-004  0.6500000E+04  0.7818608E-02  0.7223770E-01
         52   -1    0    0    0    0  0.00000000000E+00  0.00000000000E+00  0.64930732323E+04  0.65000000000E+04  0.30000000000E+03 0. -1.
        -52   -1    0    0    0    0 -0.00000000000E+00 -0.00000000000E+00 -0.64930732323E+04  0.65000000000E+04  0.30000000000E+03 0.  1.
     100001    1    1    2    0    0  0.46219892541E+03 -0.47324536323E+03  0.64645000371E+04  0.65000000000E+04  0.15050000000E+03 0. -1.
     100001    1    1    2    0    0 -0.46219892541E+03  0.47324536323E+03 -0.64645000371E+04  0.65000000000E+04  0.15050000000E+03 0.  1.
</event>
<event>
 4    1  0.5143956E-004  0.6500000E+04  0.7818608E-02  0.7223770E-01
         52   -1    0    0    0    0  0.00000000000E+00  0.00000000000E+00  0.64930732323E+04  0.65000000000E+04  0.30000000000E+03 0. -1.
        -52   -1    0    0    0    0 -0.00000000000E+00 -0.00000000000E+00 -0.64930732323E+04  0.65000000000E+04  0.30000000000E+03 0.  1.
     100001    1    1    2    0    0  0.77368390266E+03 -0.21373606820E+04  0.60877296494E+04  0.65000000000E+04  0.15050000000E+03 0. -1.
     100001    1    1    2    0    0 -0.77368390266E+03  0.21373606820E+04 -0.60877296494E+04  0.65000000000E+04  0.15050000000E+03 0.  1.
</event>
<event>
 4    1  0.5143956E-004  0.6500000E+04  0.7818608E-02  0.7223770E-01
         52   -1    0    0    0    0  0.00000000000E+00  0.00000000000E+00  0.64930732323E+04  0.65000000000E+04  0.30000000000E+03 0. -1.
        -52   -1    0    0    0    0 -0.00000000000E+00 -0.00000000000E+00 -0.64930732323E+04  0.65000000000E+04  0.30000000000E+03 0.  1.
     100001    1    1    2    0    0 -0.38462134311E+04  0.43172741080E+03 -0.52199237001E+04  0.65000000000E+04  0.15050000000E+03 0.  1.
     100001    1    1    2    0    0  0.38462134311E+04 -0.43172741080E+03  0.52199237001E+04  0.65000000000E+04  0.15050000000E+03 0. -1.
</event>
<event>
 4    1  0.5143956E-004  0.6500000E+04  0.7818608E-02  0.7223770E-01
         52   -1    0    0    0    0  0.00000000000E+00  0.00000000000E+00  0.64930732323E+04  0.65000000000E+04  0.30000000000E+03 0. -1.
        -52   -1    0    0    0    0 -0.00000000000E+00 -0.00000000000E+00 -0.64930732323E+04  0.65000000000E+04  0.30000000000E+03 0.  1.
     100001    1    1    2    0    0 -0.36299863113E+03 -0.30628337886E+03  0.64808774279E+04  0.65000000000E+04  0.15050000000E+03 0. -1.
     100001    1    1    2    0    0  0.36299863113E+03  0.30628337886E+03 -0.64808774279E+04  0.65000000000E+04  0.15050000000E+03 0.  1.
</event>
<event>
 4    1  0.5143956E-004  0.6500000E+04  0.7818608E-02  0.7223770E-01
         52   -1    0    0    0    0  0.00000000000E+00  0.00000000000E+00  0.64930732323E+04  0.65000000000E+04  0.30000000000E+03 0. -1.
        -52   -1    0    0    0    0 -0.00000000000E+00 -0.00000000000E+00 -0.64930732323E+04  0.65000000000E+04  0.30000000000E+03 0.  1.
     100001    1    1    2    0    0 -0.87450857323E+02  0.17571246267E+04  0.62555747253E+04  0.65000000000E+04  0.15050000000E+03 0. -1.
     100001    1    1    2    0    0  0.87450857323E+02 -0.17571246267E+04 -0.62555747253E+04  0.65000000000E+04  0.15050000000E+03 0.  1.
</event>
<event>
 4    1  0.5143956E-004  0.6500000E+04  0.7818608E-02  0.7223770E-01
         52   -1    0    0    0    0  0.00000000000E+00  0.00000000000E+00  0.64930732323E+04  0.65000000000E+04  0.30000000000E+03 0.  1.
        -52   -1    0    0    0    0 -0.00000000000E+00 -0.00000000000E+00 -0.64930732323E+04  0.65000000000E+04  0.30000000000E+03 0. -1.
     100001    1    1    2    0    0  0.35369881427E+04 -0.12399886763E+04 -0.53084359948E+04  0.65000000000E+04  0.15050000000E+03 0. -1.
     100001    1    1    2    0    0 -0.35369881427E+04  0.12399886763E+04  0.53084359948E+04  0.65000000000E+04  0.15050000000E+03 0.  1.
</event>
<event>
 4    1  0.5143956E-004  0.6500000E+04  0.7818608E-02  0.7223770E-01
         52   -1    0    0    0    0  0.00000000000E+00  0.00000000000E+00  0.64930732323E+04  0.65000000000E+04  0.30000000000E+03 0. -1.
        -52   -1    0    0    0    0 -0.00000000000E+00 -0.00000000000E+00 -0.64930732323E+04  0.65000000000E+04  0.30000000000E+03 0.  1.
     100001    1    1    2    0    0 -0.93140670064E+03 -0.42912500776E+03  0.64168281133E+04  0.65000000000E+04  0.15050000000E+03 0. -1.
     100001    1    1    2    0    0  0.93140670064E+03  0.42912500776E+03 -0.64168281133E+04  0.65000000000E+04  0.15050000000E+03 0.  1.
</event>
<event>
 4    1  0.5143956E-004  0.6500000E+04  0.7818608E-02  0.7223770E-01
         52   -1    0    0    0    0  0.00000000000E+00  0.00000000000E+00  0.64930732323E+04  0.65000000000E+04  0.30000000000E+03 0. -1.
        -52   -1    0    0    0    0 -0.00000000000E+00 -0.00000000000E+00 -0.64930732323E+04  0.65000000000E+04  0.30000000000E+03 0.  1.
     100001    1    1    2    0    0 -0.33904845246E+04 -0.17822990411E+04 -0.52493213434E+04  0.65000000000E+04  0.15050000000E+03 0.  1.
     100001    1    1    2    0    0  0.33904845246E+04  0.17822990411E+04  0.52493213434E+04  0.65000000000E+04  0.15050000000E+03 0. -1.
</event>
<event>
 4    1  0.5143956E-004  0.6500000E+04  0.7818608E-02  0.7223770E-01
         52   -1    0    0    0    0  0.00000000000E+00  0.00000000000E+00  0.64930732323E+04  0.65000000000E+04  0.30000000000E+03 0.  1.
        -52   -1    0    0    0    0 -0.00000000000E+00 -0.00000000000E+00 -0.64930732323E+04  0.65000000000E+04  0.30000000000E+03 0. -1.
     100001    1    1    2    0    0 -0.44286367492E+04  0.21552084408E+03  0.47505870226E+04  0.65000000000E+04  0.15050000000E+03 0.  1.
     100001    1    1    2    0    0  0.44286367492E+04 -0.21552084408E+03 -0.47505870226E+04  0.65000000000E+04  0.15050000000E+03 0. -1.
</event>
<event>
 4    1  0.5143956E-004  0.6500000E+04  0.7818608E-02  0.7223770E-01
         52   -1    0    0    0    0  0.00000000000E+00  0.00000000000E+00  0.64930732323E+04  0.65000000000E+04  0.30000000000E+03 0.  1.
        -52   -1    0    0    0    0 -0.00000000000E+00 -0.00000000000E+00 -0.64930732323E+04  0.65000000000E+04  0.30000000000E+03 0. -1.
     100001    1    1    2    0    0  0.78320652424E+03  0.14393263247E+04  0.62882650247E+04  0.65000000000E+04  0.15050000000E+03 0.  1.
     100001    1    1    2    0    0 -0.78320652424E+03 -0.14393263247E+04 -0.62882650247E+04  0.65000000000E+04  0.15050000000E+03 0. -1.
</event>
<event>
 4    1  0.5143956E-004  0.6500000E+04  0.7818608E-02  0.7223770E-01
         52   -1    0    0    0    0  0.00000000000E+00  0.00000000000E+00  0.64930732323E+04  0.65000000000E+04  0.30000000000E+03 0. -1.
        -52   -1    0    0    0    0 -0.00000000000E+00 -0.00000000000E+00 -0.64930732323E+04  0.65000000000E+04  0.30000000000E+03 0.  1.
     100001    1    1    2    0    0 -0.17855485469E+04 -0.16546951186E+01  0.62481327930E+04  0.65000000000E+04  0.15050000000E+03 0. -1.
     100001    1    1    2    0    0  0.17855485469E+04  0.16546951186E+01 -0.62481327930E+04  0.65000000000E+04  0.15050000000E+03 0.  1.
</event>
<event>
 4    1  0.5143956E-004  0.6500000E+04  0.7818608E-02  0.7223770E-01
         52   -1    0    0    0    0  0.00000000000E+00  0.00000000000E+00  0.64930732323E+04  0.65000000000E+04  0.30000000000E+03 0. -1.
        -52   -1    0    0    0    0 -0.00000000000E+00 -0.00000000000E+00 -0.64930732323E+04  0.65000000000E+04  0.30000000000E+03 0.  1.
     100001    1    1    2    0    0 -0.29935051934E+04 -0.55125249872E+04 -0.16965684992E+04  0.65000000000E+04  0.15050000000E+03 0.  1.
     100001    1    1    2    0    0  0.29935051934E+04  0.55125249872E+04  0.16965684992E+04  0.65000000000E+04  0.15050000000E+03 0. -1.
</event>
<event>
 4    1  0.5143956E-004  0.6500000E+04  0.7818608E-02  0.7223770E-01
         52   -1    0    0    0    0  0.00000000000E+00  0.00000000000E+00  0.64930732323E+04  0.65000000000E+04  0.30000000000E+03 0.  1.
        -52   -1    0    0    0    0 -0.00000000000E+00 -0.00000000000E+00 -0.64930732323E+04  0.65000000000E+04  0.30000000000E+03 0. -1.
     100001    1    1    2    0    0  0.22067435064E+03 -0.63365901241E+04 -0.14234739828E+04  0.65000000000E+04  0.15050000000E+03 0. -1.
     100001    1    1    2    0    0 -0.22067435064E+03  0.63365901241E+04  0.14234739828E+04  0.65000000000E+04  0.15050000000E+03 0.  1.
</event>
<event>
 4    1  0.5143956E-004  0.6500000E+04  0.7818608E-02  0.7223770E-01
         52   -1    0    0    0    0  0.00000000000E+00  0.00000000000E+00  0.64930732323E+04  0.65000000000E+04  0.30000000000E+03 0. -1.
        -52   -1    0    0    0    0 -0.00000000000E+00 -0.00000000000E+00 -0.64930732323E+04  0.65000000000E+04  0.30000000000E+03 0.  1.
     100001    1    1    2    0    0 -0.10724514355E+04 -0.92329000640E+03  0.63422971574E+04  0.65000000000E+04  0.15050000000E+03 0. -1.
     100001    1    1    2    0    0  0.10724514355E+04  0.92329000640E+03 -0.63422971574E+04  0.65000000000E+04  0.15050000000E+03 0.  1.
</event>
<event>
 4    1  0.5143956E-004  0.6500000E+04  0.7818608E-02  0.7223770E-01
         52   -1    0    0    0    0  0.00000000000E+00  0.00000000000E+00  0.64930732323E+04  0.65000000000E+04  0.30000000000E+03 0.  1.
        -52   -1    0    0    0    0 -0.00000000000E+00 -0.00000000000E+00 -0.64930732323E+04  0.65000000000E+04  0.30000000000E+03 0. -1.
     100001    1    1    2    0    0 -0.20794990853E+04  0.27508401509E+04 -0.55078046233E+04  0.65000000000E+04  0.15050000000E+03 0. -1.
     100001    1    1    2    0    0  0.20794990853E+04 -0.27508401509E+04  0.55078046233E+04  0.65000000000E+04  0.15050000000E+03 0.  1.
</event>
<event>
 4    1  0.5143956E-004  0.6500000E+04  0.7818608E-02  0.7223770E-01
         52   -1    0    0    0    0  0.00000000000E+00  0.00000000000E+00  0.64930732323E+04  0.65000000000E+04  0.30000000000E+03 0. -1.
        -52   -1    0    0    0    0 -0.00000000000E+00 -0.00000000000E+00 -0.64930732323E+04  0.65000000000E+04  0.30000000000E+03 0.  1.
     100001    1    1    2    0    0  0.17956774988E+04 -0.51930116866E+04  0.34692249412E+04  0.65000000000E+04  0.15050000000E+03 0. -1.
     100001    1    1    2    0    0 -0.17956774988E+04  0.51930116866E+04 -0.34692249412E+04  0.65000000000E+04  0.15050000000E+03 0.  1.
</event>
<event>
 4    1  0.7139423E-004  0.6500000E+04  0.7818608E-02  0.7223770E-01
         52   -1    0    0    0    0  0.00000000000E+00  0.00000000000E+00  0.64930732323E+04  0.65000000000E+04  0.30000000000E+03 0. -1.
        -52   -1    0    0    0    0 -0.00000000000E+00 -0.00000000000E+00 -0.64930732323E+04  0.65000000000E+04  0.30000000000E+03 0. -1.
     100001    1    1    2    0    0  0.66605608160E+02 -0.15016698942E+03 -0.64961806716E+04  0.65000000000E+04  0.15050000000E+03 0. -1.
     100001    1    1    2    0    0 -0.66605608160E+02  0.15016698942E+03  0.64961806716E+04  0.65000000000E+04  0.15050000000E+03 0. -1.
</event>
<event>
 4    1  0.5143956E-004  0.6500000E+04  0.7818608E-02  0.7223770E-01
         52   -1    0    0    0    0  0.00000000000E+00  0.00000000000E+00  0.64930732323E+04  0.65000000000E+04  0.30000000000E+03 0.  1.
        -52   -1    0    0    0    0 -0.00000000000E+00 -0.00000000000E+00 -0.64930732323E+04  0.65000000000E+04  0.30000000000E+03 0. -1.
     100001    1    1    2    0    0  0.28756433400E+03 -0.33064665121E+03  0.64834658398E+04  0.65000000000E+04  0.15050000000E+03 0.  1.
     100001    1    1    2    0    0 -0.28756433400E+03  0.33064665121E+03 -0.64834658398E+04  0.65000000000E+04  0.15050000000E+03 0. -1.
</event>
<event>
 4    1  0.5143956E-004  0.6500000E+04  0.7818608E-02  0.7223770E-01
         52   -1    0    0    0    0  0.00000000000E+00  0.00000000000E+00  0.64930732323E+04  0.65000000000E+04  0.30000000000E+03 0. -1.
        -52   -1    0    0    0    0 -0.00000000000E+00 -0.00000000000E+00 -0.64930732323E+04  0.65000000000E+04  0.30000000000E+03 0.  1.
     100001    1    1    2    0    0  0.41677178824E+03 -0.85001811221E+03  0.64289283894E+04  0.65000000000E+04  0.15050000000E+03 0. -1.
     100001    1    1    2    0    0 -0.41677178824E+03  0.85001811221E+03 -0.64289283894E+04  0.65000000000E+04  0.15050000000E+03 0.  1.
</event>
<event>
 4    1  0.5143956E-004  0.6500000E+04  0.7818608E-02  0.7223770E-01
         52   -1    0    0    0    0  0.00000000000E+00  0.00000000000E+00  0.64930732323E+04  0.65000000000E+04  0.30000000000E+03 0.  1.
        -52   -1    0    0    0    0 -0.00000000000E+00 -0.00000000000E+00 -0.64930732323E+04  0.65000000000E+04  0.30000000000E+03 0. -1.
     100001    1    1    2    0    0 -0.63107973516E+03  0.41916392368E+04  0.49253678671E+04  0.65000000000E+04  0.15050000000E+03 0.  1.
     100001    1    1    2    0    0  0.63107973516E+03 -0.41916392368E+04 -0.49253678671E+04  0.65000000000E+04  0.15050000000E+03 0. -1.
</event>
<event>
 4    1  0.5143956E-004  0.6500000E+04  0.7818608E-02  0.7223770E-01
         52   -1    0    0    0    0  0.00000000000E+00  0.00000000000E+00  0.64930732323E+04  0.65000000000E+04  0.30000000000E+03 0.  1.
        -52   -1    0    0    0    0 -0.00000000000E+00 -0.00000000000E+00 -0.64930732323E+04  0.65000000000E+04  0.30000000000E+03 0. -1.
     100001    1    1    2    0    0  0.25103260318E+04  0.52866199259E+04  0.28244048440E+04  0.65000000000E+04  0.15050000000E+03 0. -1.
     100001    1    1    2    0    0 -0.25103260318E+04 -0.52866199259E+04 -0.28244048440E+04  0.65000000000E+04  0.15050000000E+03 0.  1.
</event>
<event>
 4    1  0.5143956E-004  0.6500000E+04  0.7818608E-02  0.7223770E-01
         52   -1    0    0    0    0  0.00000000000E+00  0.00000000000E+00  0.64930732323E+04  0.65000000000E+04  0.30000000000E+03 0.  1.
        -52   -1    0    0    0    0 -0.00000000000E+00 -0.00000000000E+00 -0.64930732323E+04  0.65000000000E+04  0.30000000000E+03 0. -1.
     100001    1    1    2    0    0  0.41929311962E+04 -0.14918730144E+04  0.47350810598E+04  0.65000000000E+04  0.15050000000E+03 0.  1.
     100001    1    1    2    0    0 -0.41929311962E+04  0.14918730144E+04 -0.47350810598E+04  0.65000000000E+04  0.15050000000E+03 0. -1.
</event>
<event>
 4    1  0.5143956E-004  0.6500000E+04  0.7818608E-02  0.7223770E-01
         52   -1    0    0    0    0  0.00000000000E+00  0.00000000000E+00  0.64930732323E+04  0.65000000000E+04  0.30000000000E+03 0.  1.
        -52   -1    0    0    0    0 -0.00000000000E+00 -0.00000000000E+00 -0.64930732323E+04  0.65000000000E+04  0.30000000000E+03 0. -1.
     100001    1    1    2    0    0 -0.30508412977E+04  0.16075179111E+03 -0.57353182987E+04  0.65000000000E+04  0.15050000000E+03 0. -1.
     100001    1    1    2    0    0  0.30508412977E+04 -0.16075179111E+03  0.57353182987E+04  0.65000000000E+04  0.15050000000E+03 0.  1.
</event>
<event>
 4    1  0.5143956E-004  0.6500000E+04  0.7818608E-02  0.7223770E-01
         52   -1    0    0    0    0  0.00000000000E+00  0.00000000000E+00  0.64930732323E+04  0.65000000000E+04  0.30000000000E+03 0.  1.
        -52   -1    0    0    0    0 -0.00000000000E+00 -0.00000000000E+00 -0.64930732323E+04  0.65000000000E+04  0.30000000000E+03 0. -1.
     100001    1    1    2    0    0  0.85063485180E+03 -0.15106622136E+02  0.64423242614E+04  0.65000000000E+04  0.15050000000E+03 0.  1.
     100001    1    1    2    0    0 -0.85063485180E+03  0.15106622136E+02 -0.64423242614E+04  0.65000000000E+04  0.15050000000E+03 0. -1.
</event>
<event>
 4    1  0.5143956E-004  0.6500000E+04  0.7818608E-02  0.7223770E-01
         52   -1    0    0    0    0  0.00000000000E+00  0.00000000000E+00  0.64930732323E+04  0.65000000000E+04  0.30000000000E+03 0. -1.
        -52   -1    0    0    0    0 -0.00000000000E+00 -0.00000000000E+00 -0.64930732323E+04  0.65000000000E+04  0.30000000000E+03 0.  1.
     100001    1    1    2    0    0  0.42984441080E+04 -0.48444203910E+04 -0.53133706394E+03  0.65000000000E+04  0.15050000000E+03 0.  1.
     100001    1    1    2    0    0 -0.42984441080E+04  0.48444203910E+04  0.53133706394E+03  0.65000000000E+04  0.15050000000E+03 0. -1.
</event>
<event>
 4    1  0.5143956E-004  0.6500000E+04  0.7818608E-02  0.7223770E-01
         52   -1    0    0    0    0  0.00000000000E+00  0.00000000000E+00  0.64930732323E+04  0.65000000000E+04  0.30000000000E+03 0.  1.
        -52   -1    0    0    0    0 -0.00000000000E+00 -0.00000000000E+00 -0.64930732323E+04  0.65000000000E+04  0.30000000000E+03 0. -1.
     100001    1    1    2    0    0  0.16248488169E+04  0.28600740646E+04  0.56042120246E+04  0.65000000000E+04  0.15050000000E+03 0.  1.
     100001    1    1    2    0    0 -0.16248488169E+04 -0.28600740646E+04 -0.56042120246E+04  0.65000000000E+04  0.15050000000E+03 0. -1.
</event>
<event>
 4    1  0.5143956E-004  0.6500000E+04  0.7818608E-02  0.7223770E-01
         52   -1    0    0    0    0  0.00000000000E+00  0.00000000000E+00  0.64930732323E+04  0.65000000000E+04  0.30000000000E+03 0.  1.
        -52   -1    0    0    0    0 -0.00000000000E+00 -0.00000000000E+00 -0.64930732323E+04  0.65000000000E+04  0.30000000000E+03 0. -1.
     100001    1    1    2    0    0 -0.18603307208E+03 -0.28593828362E+03  0.64892973999E+04  0.65000000000E+04  0.15050000000E+03 0.  1.
     100001    1    1    2    0    0  0.18603307208E+03  0.28593828362E+03 -0.64892973999E+04  0.65000000000E+04  0.15050000000E+03 0. -1.
</event>
<event>
 4    1  0.5143956E-004  0.6500000E+04  0.7818608E-02  0.7223770E-01
         52   -1    0    0    0    0  0.00000000000E+00  0.00000000000E+00  0.64930732323E+04  0.65000000000E+04  0.30000000000E+03 0. -1.
        -52   -1    0    0    0    0 -0.00000000000E+00 -0.00000000000E+00 -0.64930732323E+04  0.65000000000E+04  0.30000000000E+03 0.  1.
     100001    1    1    2    0    0  0.36882652399E+04 -0.28583468155E+04  0.45225991148E+04  0.65000000000E+04  0.15050000000E+03 0. -1.
     100001    1    1    2    0    0 -0.36882652399E+04  0.28583468155E+04 -0.45225991148E+04  0.65000000000E+04  0.15050000000E+03 0.  1.
</event>
<event>
 4    1  0.5143956E-004  0.6500000E+04  0.7818608E-02  0.7223770E-01
         52   -1    0    0    0    0  0.00000000000E+00  0.00000000000E+00  0.64930732323E+04  0.65000000000E+04  0.30000000000E+03 0.  1.
        -52   -1    0    0    0    0 -0.00000000000E+00 -0.00000000000E+00 -0.64930732323E+04  0.65000000000E+04  0.30000000000E+03 0. -1.
     100001    1    1    2    0    0  0.39543577572E+03 -0.16214371675E+03 -0.64841876679E+04  0.65000000000E+04  0.15050000000E+03 0. -1.
     100001    1    1    2    0    0 -0.39543577572E+03  0.16214371675E+03  0.64841876679E+04  0.65000000000E+04  0.15050000000E+03 0.  1.
</event>
<event>
 4    1  0.5143956E-004  0.6500000E+04  0.7818608E-02  0.7223770E-01
         52   -1    0    0    0    0  0.00000000000E+00  0.00000000000E+00  0.64930732323E+04  0.65000000000E+04  0.30000000000E+03 0.  1.
        -52   -1    0    0    0    0 -0.00000000000E+00 -0.00000000000E+00 -0.64930732323E+04  0.65000000000E+04  0.30000000000E+03 0. -1.
     100001    1    1    2    0    0  0.49581420657E+03 -0.51505181331E+03 -0.64588110092E+04  0.65000000000E+04  0.15050000000E+03 0. -1.
     100001    1    1    2    0    0 -0.49581420657E+03  0.51505181331E+03  0.64588110092E+04  0.65000000000E+04  0.15050000000E+03 0.  1.
</event>
<event>
 4    1  0.5143956E-004  0.6500000E+04  0.7818608E-02  0.7223770E-01
         52   -1    0    0    0    0  0.00000000000E+00  0.00000000000E+00  0.64930732323E+04  0.65000000000E+04  0.30000000000E+03 0.  1.
        -52   -1    0    0    0    0 -0.00000000000E+00 -0.00000000000E+00 -0.64930732323E+04  0.65000000000E+04  0.30000000000E+03 0. -1.
     100001    1    1    2    0    0 -0.89914247397E+03 -0.72699811855E+02 -0.64353404960E+04  0.65000000000E+04  0.15050000000E+03 0. -1.
     100001    1    1    2    0    0  0.89914247397E+03  0.72699811855E+02  0.64353404960E+04  0.65000000000E+04  0.15050000000E+03 0.  1.
</event>
<event>
 4    1  0.5143956E-004  0.6500000E+04  0.7818608E-02  0.7223770E-01
         52   -1    0    0    0    0  0.00000000000E+00  0.00000000000E+00  0.64930732323E+04  0.65000000000E+04  0.30000000000E+03 0. -1.
        -52   -1    0    0    0    0 -0.00000000000E+00 -0.00000000000E+00 -0.64930732323E+04  0.65000000000E+04  0.30000000000E+03 0. -1.
     100001    1    1    2    0    0  0.15838285516E+03  0.10966282446E+03  0.64954013491E+04  0.65000000000E+04  0.15050000000E+03 0. -1.
     100001    1    1    2    0    0 -0.15838285516E+03 -0.10966282446E+03 -0.64954013491E+04  0.65000000000E+04  0.15050000000E+03 0. -1.
</event>
<event>
 4    1  0.5143956E-004  0.6500000E+04  0.7818608E-02  0.7223770E-01
         52   -1    0    0    0    0  0.00000000000E+00  0.00000000000E+00  0.64930732323E+04  0.65000000000E+04  0.30000000000E+03 0.  1.
        -52   -1    0    0    0    0 -0.00000000000E+00 -0.00000000000E+00 -0.64930732323E+04  0.65000000000E+04  0.30000000000E+03 0. -1.
     100001    1    1    2    0    0  0.86891344833E+02 -0.25268109723E+04 -0.59862363764E+04  0.65000000000E+04  0.15050000000E+03 0. -1.
     100001    1    1    2    0    0 -0.86891344833E+02  0.25268109723E+04  0.59862363764E+04  0.65000000000E+04  0.15050000000E+03 0.  1.
</event>
<event>
 4    1  0.5143956E-004  0.6500000E+04  0.7818608E-02  0.7223770E-01
         52   -1    0    0    0    0  0.00000000000E+00  0.00000000000E+00  0.64930732323E+04  0.65000000000E+04  0.30000000000E+03 0. -1.
        -52   -1    0    0    0    0 -0.00000000000E+00 -0.00000000000E+00 -0.64930732323E+04  0.65000000000E+04  0.30000000000E+03 0.  1.
     100001    1    1    2    0    0  0.36356001427E+03  0.15199055696E+03  0.64862988473E+04  0.65000000000E+04  0.15050000000E+03 0. -1.
     100001    1    1    2    0    0 -0.36356001427E+03 -0.15199055696E+03 -0.64862988473E+04  0.65000000000E+04  0.15050000000E+03 0.  1.
</event>
<event>
 4    1  0.5143956E-004  0.6500000E+04  0.7818608E-02  0.7223770E-01
         52   -1    0    0    0    0  0.00000000000E+00  0.00000000000E+00  0.64930732323E+04  0.65000000000E+04  0.30000000000E+03 0. -1.
        -52   -1    0    0    0    0 -0.00000000000E+00 -0.00000000000E+00 -0.64930732323E+04  0.65000000000E+04  0.30000000000E+03 0.  1.
     100001    1    1    2    0    0  0.44315343453E+03  0.15581635412E+03  0.64812565176E+04  0.65000000000E+04  0.15050000000E+03 0. -1.
     100001    1    1    2    0    0 -0.44315343453E+03 -0.15581635412E+03 -0.64812565176E+04  0.65000000000E+04  0.15050000000E+03 0.  1.
</event>
<event>
 4    1  0.5143956E-004  0.6500000E+04  0.7818608E-02  0.7223770E-01
         52   -1    0    0    0    0  0.00000000000E+00  0.00000000000E+00  0.64930732323E+04  0.65000000000E+04  0.30000000000E+03 0.  1.
        -52   -1    0    0    0    0 -0.00000000000E+00 -0.00000000000E+00 -0.64930732323E+04  0.65000000000E+04  0.30000000000E+03 0.  1.
     100001    1    1    2    0    0  0.51280976965E+02 -0.79308487911E+02 -0.64975710981E+04  0.65000000000E+04  0.15050000000E+03 0.  1.
     100001    1    1    2    0    0 -0.51280976965E+02  0.79308487911E+02  0.64975710981E+04  0.65000000000E+04  0.15050000000E+03 0.  1.
</event>
<event>
 4    1  0.5143956E-004  0.6500000E+04  0.7818608E-02  0.7223770E-01
         52   -1    0    0    0    0  0.00000000000E+00  0.00000000000E+00  0.64930732323E+04  0.65000000000E+04  0.30000000000E+03 0. -1.
        -52   -1    0    0    0    0 -0.00000000000E+00 -0.00000000000E+00 -0.64930732323E+04  0.65000000000E+04  0.30000000000E+03 0.  1.
     100001    1    1    2    0    0  0.31966208587E+04  0.15640520902E+04  0.54371597268E+04  0.65000000000E+04  0.15050000000E+03 0. -1.
     100001    1    1    2    0    0 -0.31966208587E+04 -0.15640520902E+04 -0.54371597268E+04  0.65000000000E+04  0.15050000000E+03 0.  1.
</event>
<event>
 4    1  0.5143956E-004  0.6500000E+04  0.7818608E-02  0.7223770E-01
         52   -1    0    0    0    0  0.00000000000E+00  0.00000000000E+00  0.64930732323E+04  0.65000000000E+04  0.30000000000E+03 0. -1.
        -52   -1    0    0    0    0 -0.00000000000E+00 -0.00000000000E+00 -0.64930732323E+04  0.65000000000E+04  0.30000000000E+03 0.  1.
     100001    1    1    2    0    0  0.27595632326E+04  0.73184658845E+03  0.58375132622E+04  0.65000000000E+04  0.15050000000E+03 0. -1.
     100001    1    1    2    0    0 -0.27595632326E+04 -0.73184658845E+03 -0.58375132622E+04  0.65000000000E+04  0.15050000000E+03 0.  1.
</event>
<event>
 4    1  0.5143956E-004  0.6500000E+04  0.7818608E-02  0.7223770E-01
         52   -1    0    0    0    0  0.00000000000E+00  0.00000000000E+00  0.64930732323E+04  0.65000000000E+04  0.30000000000E+03 0.  1.
        -52   -1    0    0    0    0 -0.00000000000E+00 -0.00000000000E+00 -0.64930732323E+04  0.65000000000E+04  0.30000000000E+03 0. -1.
     100001    1    1    2    0    0 -0.14285509587E+03  0.13303605611E+03 -0.64953247478E+04  0.65000000000E+04  0.15050000000E+03 0. -1.
     100001    1    1    2    0    0  0.14285509587E+03 -0.13303605611E+03  0.64953247478E+04  0.65000000000E+04  0.15050000000E+03 0.  1.
</event>
<event>
 4    1  0.5143956E-004  0.6500000E+04  0.7818608E-02  0.7223770E-01
         52   -1    0    0    0    0  0.00000000000E+00  0.00000000000E+00  0.64930732323E+04  0.65000000000E+04  0.30000000000E+03 0.  1.
        -52   -1    0    0    0    0 -0.00000000000E+00 -0.00000000000E+00 -0.64930732323E+04  0.65000000000E+04  0.30000000000E+03 0.  1.
     100001    1    1    2    0    0  0.18472153615E+04  0.13483512829E+02  0.62301655960E+04  0.65000000000E+04  0.15050000000E+03 0.  1.
     100001    1    1    2    0    0 -0.18472153615E+04 -0.13483512829E+02 -0.62301655960E+04  0.65000000000E+04  0.15050000000E+03 0.  1.
</event>
<event>
 4    1  0.5143956E-004  0.6500000E+04  0.7818608E-02  0.7223770E-01
         52   -1    0    0    0    0  0.00000000000E+00  0.00000000000E+00  0.64930732323E+04  0.65000000000E+04  0.30000000000E+03 0. -1.
        -52   -1    0    0    0    0 -0.00000000000E+00 -0.00000000000E+00 -0.64930732323E+04  0.65000000000E+04  0.30000000000E+03 0.  1.
     100001    1    1    2    0    0  0.56730051691E+04 -0.12754950131E+04  0.29012884333E+04  0.65000000000E+04  0.15050000000E+03 0. -1.
     100001    1    1    2    0    0 -0.56730051691E+04  0.12754950131E+04 -0.29012884333E+04  0.65000000000E+04  0.15050000000E+03 0.  1.
</event>
<event>
 4    1  0.5143956E-004  0.6500000E+04  0.7818608E-02  0.7223770E-01
         52   -1    0    0    0    0  0.00000000000E+00  0.00000000000E+00  0.64930732323E+04  0.65000000000E+04  0.30000000000E+03 0. -1.
        -52   -1    0    0    0    0 -0.00000000000E+00 -0.00000000000E+00 -0.64930732323E+04  0.65000000000E+04  0.30000000000E+03 0.  1.
     100001    1    1    2    0    0  0.37904642009E+03 -0.69485790036E+03  0.64498717863E+04  0.65000000000E+04  0.15050000000E+03 0. -1.
     100001    1    1    2    0    0 -0.37904642009E+03  0.69485790036E+03 -0.64498717863E+04  0.65000000000E+04  0.15050000000E+03 0.  1.
</event>
<event>
 4    1  0.5143956E-004  0.6500000E+04  0.7818608E-02  0.7223770E-01
         52   -1    0    0    0    0  0.00000000000E+00  0.00000000000E+00  0.64930732323E+04  0.65000000000E+04  0.30000000000E+03 0.  1.
        -52   -1    0    0    0    0 -0.00000000000E+00 -0.00000000000E+00 -0.64930732323E+04  0.65000000000E+04  0.30000000000E+03 0. -1.
     100001    1    1    2    0    0 -0.41555893272E+04  0.47965308344E+04  0.13970393866E+04  0.65000000000E+04  0.15050000000E+03 0.  1.
     100001    1    1    2    0    0  0.41555893272E+04 -0.47965308344E+04 -0.13970393866E+04  0.65000000000E+04  0.15050000000E+03 0. -1.
</event>
<event>
 4    1  0.5143956E-004  0.6500000E+04  0.7818608E-02  0.7223770E-01
         52   -1    0    0    0    0  0.00000000000E+00  0.00000000000E+00  0.64930732323E+04  0.65000000000E+04  0.30000000000E+03 0.  1.
        -52   -1    0    0    0    0 -0.00000000000E+00 -0.00000000000E+00 -0.64930732323E+04  0.65000000000E+04  0.30000000000E+03 0. -1.
     100001    1    1    2    0    0 -0.36284412766E+02 -0.30108641209E+04  0.57585354420E+04  0.65000000000E+04  0.15050000000E+03 0.  1.
     100001    1    1    2    0    0  0.36284412766E+02  0.30108641209E+04 -0.57585354420E+04  0.65000000000E+04  0.15050000000E+03 0. -1.
</event>
<event>
 4    1  0.5143956E-004  0.6500000E+04  0.7818608E-02  0.7223770E-01
         52   -1    0    0    0    0  0.00000000000E+00  0.00000000000E+00  0.64930732323E+04  0.65000000000E+04  0.30000000000E+03 0. -1.
        -52   -1    0    0    0    0 -0.00000000000E+00 -0.00000000000E+00 -0.64930732323E+04  0.65000000000E+04  0.30000000000E+03 0.  1.
     100001    1    1    2    0    0 -0.50237109615E+03  0.38481686456E+03  0.64673711052E+04  0.65000000000E+04  0.15050000000E+03 0. -1.
     100001    1    1    2    0    0  0.50237109615E+03 -0.38481686456E+03 -0.64673711052E+04  0.65000000000E+04  0.15050000000E+03 0.  1.
</event>
<event>
 4    1  0.5143956E-004  0.6500000E+04  0.7818608E-02  0.7223770E-01
         52   -1    0    0    0    0  0.00000000000E+00  0.00000000000E+00  0.64930732323E+04  0.65000000000E+04  0.30000000000E+03 0.  1.
        -52   -1    0    0    0    0 -0.00000000000E+00 -0.00000000000E+00 -0.64930732323E+04  0.65000000000E+04  0.30000000000E+03 0. -1.
     100001    1    1    2    0    0  0.18803150989E+04  0.59955823370E+04 -0.16567309133E+04  0.65000000000E+04  0.15050000000E+03 0. -1.
     100001    1    1    2    0    0 -0.18803150989E+04 -0.59955823370E+04  0.16567309133E+04  0.65000000000E+04  0.15050000000E+03 0.  1.
</event>
<event>
 4    1  0.5143956E-004  0.6500000E+04  0.7818608E-02  0.7223770E-01
         52   -1    0    0    0    0  0.00000000000E+00  0.00000000000E+00  0.64930732323E+04  0.65000000000E+04  0.30000000000E+03 0.  1.
        -52   -1    0    0    0    0 -0.00000000000E+00 -0.00000000000E+00 -0.64930732323E+04  0.65000000000E+04  0.30000000000E+03 0. -1.
     100001    1    1    2    0    0  0.16223773889E+04  0.23180106161E+04  0.58499630889E+04  0.65000000000E+04  0.15050000000E+03 0.  1.
     100001    1    1    2    0    0 -0.16223773889E+04 -0.23180106161E+04 -0.58499630889E+04  0.65000000000E+04  0.15050000000E+03 0. -1.
</event>
<event>
 4    1  0.8128835E-004  0.6500000E+04  0.7818608E-02  0.7223770E-01
         52   -1    0    0    0    0  0.00000000000E+00  0.00000000000E+00  0.64930732323E+04  0.65000000000E+04  0.30000000000E+03 0.  1.
        -52   -1    0    0    0    0 -0.00000000000E+00 -0.00000000000E+00 -0.64930732323E+04  0.65000000000E+04  0.30000000000E+03 0.  1.
     100001    1    1    2    0    0 -0.44751793091E+02  0.72598819794E+00 -0.64981033002E+04  0.65000000000E+04  0.15050000000E+03 0.  1.
     100001    1    1    2    0    0  0.44751793091E+02 -0.72598819794E+00  0.64981033002E+04  0.65000000000E+04  0.15050000000E+03 0.  1.
</event>
<event>
 4    1  0.5143956E-004  0.6500000E+04  0.7818608E-02  0.7223770E-01
         52   -1    0    0    0    0  0.00000000000E+00  0.00000000000E+00  0.64930732323E+04  0.65000000000E+04  0.30000000000E+03 0. -1.
        -52   -1    0    0    0    0 -0.00000000000E+00 -0.00000000000E+00 -0.64930732323E+04  0.65000000000E+04  0.30000000000E+03 0.  1.
     100001    1    1    2    0    0 -0.16045561817E+03 -0.19605681245E+04  0.61933655127E+04  0.65000000000E+04  0.15050000000E+03 0. -1.
     100001    1    1    2    0    0  0.16045561817E+03  0.19605681245E+04 -0.61933655127E+04  0.65000000000E+04  0.15050000000E+03 0.  1.
</event>
<event>
 4    1  0.5143956E-004  0.6500000E+04  0.7818608E-02  0.7223770E-01
         52   -1    0    0    0    0  0.00000000000E+00  0.00000000000E+00  0.64930732323E+04  0.65000000000E+04  0.30000000000E+03 0.  1.
        -52   -1    0    0    0    0 -0.00000000000E+00 -0.00000000000E+00 -0.64930732323E+04  0.65000000000E+04  0.30000000000E+03 0. -1.
     100001    1    1    2    0    0 -0.42615277382E+04 -0.10644018381E+04 -0.47889226151E+04  0.65000000000E+04  0.15050000000E+03 0. -1.
     100001    1    1    2    0    0  0.42615277382E+04  0.10644018381E+04  0.47889226151E+04  0.65000000000E+04  0.15050000000E+03 0.  1.
</event>
<event>
 4    1  0.5143956E-004  0.6500000E+04  0.7818608E-02  0.7223770E-01
         52   -1    0    0    0    0  0.00000000000E+00  0.00000000000E+00  0.64930732323E+04  0.65000000000E+04  0.30000000000E+03 0. -1.
        -52   -1    0    0    0    0 -0.00000000000E+00 -0.00000000000E+00 -0.64930732323E+04  0.65000000000E+04  0.30000000000E+03 0.  1.
     100001    1    1    2    0    0 -0.96613029010E+03 -0.70668357463E+03  0.63870603831E+04  0.65000000000E+04  0.15050000000E+03 0. -1.
     100001    1    1    2    0    0  0.96613029010E+03  0.70668357463E+03 -0.63870603831E+04  0.65000000000E+04  0.15050000000E+03 0.  1.
</event>
<event>
 4    1  0.5143956E-004  0.6500000E+04  0.7818608E-02  0.7223770E-01
         52   -1    0    0    0    0  0.00000000000E+00  0.00000000000E+00  0.64930732323E+04  0.65000000000E+04  0.30000000000E+03 0.  1.
        -52   -1    0    0    0    0 -0.00000000000E+00 -0.00000000000E+00 -0.64930732323E+04  0.65000000000E+04  0.30000000000E+03 0. -1.
     100001    1    1    2    0    0 -0.25969795692E+04 -0.44228333484E+04  0.39901869680E+04  0.65000000000E+04  0.15050000000E+03 0.  1.
     100001    1    1    2    0    0  0.25969795692E+04  0.44228333484E+04 -0.39901869680E+04  0.65000000000E+04  0.15050000000E+03 0. -1.
</event>
<event>
 4    1  0.5143956E-004  0.6500000E+04  0.7818608E-02  0.7223770E-01
         52   -1    0    0    0    0  0.00000000000E+00  0.00000000000E+00  0.64930732323E+04  0.65000000000E+04  0.30000000000E+03 0. -1.
        -52   -1    0    0    0    0 -0.00000000000E+00 -0.00000000000E+00 -0.64930732323E+04  0.65000000000E+04  0.30000000000E+03 0.  1.
     100001    1    1    2    0    0  0.18763829968E+04 -0.49921062361E+04  0.37128711164E+04  0.65000000000E+04  0.15050000000E+03 0. -1.
     100001    1    1    2    0    0 -0.18763829968E+04  0.49921062361E+04 -0.37128711164E+04  0.65000000000E+04  0.15050000000E+03 0.  1.
</event>
<event>
 4    1  0.5143956E-004  0.6500000E+04  0.7818608E-02  0.7223770E-01
         52   -1    0    0    0    0  0.00000000000E+00  0.00000000000E+00  0.64930732323E+04  0.65000000000E+04  0.30000000000E+03 0. -1.
        -52   -1    0    0    0    0 -0.00000000000E+00 -0.00000000000E+00 -0.64930732323E+04  0.65000000000E+04  0.30000000000E+03 0.  1.
     100001    1    1    2    0    0  0.50032648776E+04 -0.69943592185E+03  0.40872337474E+04  0.65000000000E+04  0.15050000000E+03 0. -1.
     100001    1    1    2    0    0 -0.50032648776E+04  0.69943592185E+03 -0.40872337474E+04  0.65000000000E+04  0.15050000000E+03 0.  1.
</event>
<event>
 4    1  0.5143956E-004  0.6500000E+04  0.7818608E-02  0.7223770E-01
         52   -1    0    0    0    0  0.00000000000E+00  0.00000000000E+00  0.64930732323E+04  0.65000000000E+04  0.30000000000E+03 0.  1.
        -52   -1    0    0    0    0 -0.00000000000E+00 -0.00000000000E+00 -0.64930732323E+04  0.65000000000E+04  0.30000000000E+03 0. -1.
     100001    1    1    2    0    0 -0.92238425785E+03  0.61794906695E+03  0.64027100498E+04  0.65000000000E+04  0.15050000000E+03 0.  1.
     100001    1    1    2    0    0  0.92238425785E+03 -0.61794906695E+03 -0.64027100498E+04  0.65000000000E+04  0.15050000000E+03 0. -1.
</event>
<event>
 4    1  0.5143956E-004  0.6500000E+04  0.7818608E-02  0.7223770E-01
         52   -1    0    0    0    0  0.00000000000E+00  0.00000000000E+00  0.64930732323E+04  0.65000000000E+04  0.30000000000E+03 0.  1.
        -52   -1    0    0    0    0 -0.00000000000E+00 -0.00000000000E+00 -0.64930732323E+04  0.65000000000E+04  0.30000000000E+03 0.  1.
     100001    1    1    2    0    0  0.21330192187E+03 -0.22847703860E+03 -0.64907357274E+04  0.65000000000E+04  0.15050000000E+03 0.  1.
     100001    1    1    2    0    0 -0.21330192187E+03  0.22847703860E+03  0.64907357274E+04  0.65000000000E+04  0.15050000000E+03 0.  1.
</event>
<event>
 4    1  0.5143956E-004  0.6500000E+04  0.7818608E-02  0.7223770E-01
         52   -1    0    0    0    0  0.00000000000E+00  0.00000000000E+00  0.64930732323E+04  0.65000000000E+04  0.30000000000E+03 0.  1.
        -52   -1    0    0    0    0 -0.00000000000E+00 -0.00000000000E+00 -0.64930732323E+04  0.65000000000E+04  0.30000000000E+03 0. -1.
     100001    1    1    2    0    0  0.42662894823E+03 -0.13414035045E+04  0.63439714792E+04  0.65000000000E+04  0.15050000000E+03 0.  1.
     100001    1    1    2    0    0 -0.42662894823E+03  0.13414035045E+04 -0.63439714792E+04  0.65000000000E+04  0.15050000000E+03 0. -1.
</event>
<event>
 4    1  0.5143956E-004  0.6500000E+04  0.7818608E-02  0.7223770E-01
         52   -1    0    0    0    0  0.00000000000E+00  0.00000000000E+00  0.64930732323E+04  0.65000000000E+04  0.30000000000E+03 0.  1.
        -52   -1    0    0    0    0 -0.00000000000E+00 -0.00000000000E+00 -0.64930732323E+04  0.65000000000E+04  0.30000000000E+03 0. -1.
     100001    1    1    2    0    0  0.10824640554E+04 -0.16075897567E+04 -0.62025217850E+04  0.65000000000E+04  0.15050000000E+03 0. -1.
     100001    1    1    2    0    0 -0.10824640554E+04  0.16075897567E+04  0.62025217850E+04  0.65000000000E+04  0.15050000000E+03 0.  1.
</event>
<event>
 4    1  0.5143956E-004  0.6500000E+04  0.7818608E-02  0.7223770E-01
         52   -1    0    0    0    0  0.00000000000E+00  0.00000000000E+00  0.64930732323E+04  0.65000000000E+04  0.30000000000E+03 0.  1.
        -52   -1    0    0    0    0 -0.00000000000E+00 -0.00000000000E+00 -0.64930732323E+04  0.65000000000E+04  0.30000000000E+03 0. -1.
     100001    1    1    2    0    0 -0.85248498584E+03  0.68814841553E+03 -0.64052377674E+04  0.65000000000E+04  0.15050000000E+03 0. -1.
     100001    1    1    2    0    0  0.85248498584E+03 -0.68814841553E+03  0.64052377674E+04  0.65000000000E+04  0.15050000000E+03 0.  1.
</event>
<event>
 4    1  0.5143956E-004  0.6500000E+04  0.7818608E-02  0.7223770E-01
         52   -1    0    0    0    0  0.00000000000E+00  0.00000000000E+00  0.64930732323E+04  0.65000000000E+04  0.30000000000E+03 0. -1.
        -52   -1    0    0    0    0 -0.00000000000E+00 -0.00000000000E+00 -0.64930732323E+04  0.65000000000E+04  0.30000000000E+03 0.  1.
     100001    1    1    2    0    0 -0.25148576410E+04 -0.14501770827E+04 -0.58137618823E+04  0.65000000000E+04  0.15050000000E+03 0.  1.
     100001    1    1    2    0    0  0.25148576410E+04  0.14501770827E+04  0.58137618823E+04  0.65000000000E+04  0.15050000000E+03 0. -1.
</event>
<event>
 4    1  0.5143956E-004  0.6500000E+04  0.7818608E-02  0.7223770E-01
         52   -1    0    0    0    0  0.00000000000E+00  0.00000000000E+00  0.64930732323E+04  0.65000000000E+04  0.30000000000E+03 0. -1.
        -52   -1    0    0    0    0 -0.00000000000E+00 -0.00000000000E+00 -0.64930732323E+04  0.65000000000E+04  0.30000000000E+03 0.  1.
     100001    1    1    2    0    0 -0.45945603923E+03 -0.15947865669E+03 -0.64800321339E+04  0.65000000000E+04  0.15050000000E+03 0.  1.
     100001    1    1    2    0    0  0.45945603923E+03  0.15947865669E+03  0.64800321339E+04  0.65000000000E+04  0.15050000000E+03 0. -1.
</event>
<event>
 4    1  0.5143956E-004  0.6500000E+04  0.7818608E-02  0.7223770E-01
         52   -1    0    0    0    0  0.00000000000E+00  0.00000000000E+00  0.64930732323E+04  0.65000000000E+04  0.30000000000E+03 0.  1.
        -52   -1    0    0    0    0 -0.00000000000E+00 -0.00000000000E+00 -0.64930732323E+04  0.65000000000E+04  0.30000000000E+03 0. -1.
     100001    1    1    2    0    0  0.30631377366E+04 -0.19159757092E+04 -0.54012567092E+04  0.65000000000E+04  0.15050000000E+03 0. -1.
     100001    1    1    2    0    0 -0.30631377366E+04  0.19159757092E+04  0.54012567092E+04  0.65000000000E+04  0.15050000000E+03 0.  1.
</event>
<event>
 4    1  0.5143956E-004  0.6500000E+04  0.7818608E-02  0.7223770E-01
         52   -1    0    0    0    0  0.00000000000E+00  0.00000000000E+00  0.64930732323E+04  0.65000000000E+04  0.30000000000E+03 0. -1.
        -52   -1    0    0    0    0 -0.00000000000E+00 -0.00000000000E+00 -0.64930732323E+04  0.65000000000E+04  0.30000000000E+03 0.  1.
     100001    1    1    2    0    0 -0.10049910238E+04  0.15803725395E+04  0.62225208259E+04  0.65000000000E+04  0.15050000000E+03 0. -1.
     100001    1    1    2    0    0  0.10049910238E+04 -0.15803725395E+04 -0.62225208259E+04  0.65000000000E+04  0.15050000000E+03 0.  1.
</event>
<event>
 4    1  0.5143956E-004  0.6500000E+04  0.7818608E-02  0.7223770E-01
         52   -1    0    0    0    0  0.00000000000E+00  0.00000000000E+00  0.64930732323E+04  0.65000000000E+04  0.30000000000E+03 0.  1.
        -52   -1    0    0    0    0 -0.00000000000E+00 -0.00000000000E+00 -0.64930732323E+04  0.65000000000E+04  0.30000000000E+03 0. -1.
     100001    1    1    2    0    0 -0.39342852079E+04  0.24649510422E+02  0.51718605989E+04  0.65000000000E+04  0.15050000000E+03 0.  1.
     100001    1    1    2    0    0  0.39342852079E+04 -0.24649510422E+02 -0.51718605989E+04  0.65000000000E+04  0.15050000000E+03 0. -1.
</event>
<event>
 4    1  0.5143956E-004  0.6500000E+04  0.7818608E-02  0.7223770E-01
         52   -1    0    0    0    0  0.00000000000E+00  0.00000000000E+00  0.64930732323E+04  0.65000000000E+04  0.30000000000E+03 0. -1.
        -52   -1    0    0    0    0 -0.00000000000E+00 -0.00000000000E+00 -0.64930732323E+04  0.65000000000E+04  0.30000000000E+03 0. -1.
     100001    1    1    2    0    0 -0.23755276426E+03 -0.37726620342E+03 -0.64829459851E+04  0.65000000000E+04  0.15050000000E+03 0. -1.
     100001    1    1    2    0    0  0.23755276426E+03  0.37726620342E+03  0.64829459851E+04  0.65000000000E+04  0.15050000000E+03 0. -1.
</event>
<event>
 4    1  0.5143956E-004  0.6500000E+04  0.7818608E-02  0.7223770E-01
         52   -1    0    0    0    0  0.00000000000E+00  0.00000000000E+00  0.64930732323E+04  0.65000000000E+04  0.30000000000E+03 0.  1.
        -52   -1    0    0    0    0 -0.00000000000E+00 -0.00000000000E+00 -0.64930732323E+04  0.65000000000E+04  0.30000000000E+03 0. -1.
     100001    1    1    2    0    0  0.11260836464E+03  0.75006414435E+03 -0.64538417153E+04  0.65000000000E+04  0.15050000000E+03 0. -1.
     100001    1    1    2    0    0 -0.11260836464E+03 -0.75006414435E+03  0.64538417153E+04  0.65000000000E+04  0.15050000000E+03 0.  1.
</event>
<event>
 4    1  0.5143956E-004  0.6500000E+04  0.7818608E-02  0.7223770E-01
         52   -1    0    0    0    0  0.00000000000E+00  0.00000000000E+00  0.64930732323E+04  0.65000000000E+04  0.30000000000E+03 0. -1.
        -52   -1    0    0    0    0 -0.00000000000E+00 -0.00000000000E+00 -0.64930732323E+04  0.65000000000E+04  0.30000000000E+03 0.  1.
     100001    1    1    2    0    0  0.36469158385E+04  0.26920003630E+03  0.53716744091E+04  0.65000000000E+04  0.15050000000E+03 0. -1.
     100001    1    1    2    0    0 -0.36469158385E+04 -0.26920003630E+03 -0.53716744091E+04  0.65000000000E+04  0.15050000000E+03 0.  1.
</event>
<event>
 4    1  0.5143956E-004  0.6500000E+04  0.7818608E-02  0.7223770E-01
         52   -1    0    0    0    0  0.00000000000E+00  0.00000000000E+00  0.64930732323E+04  0.65000000000E+04  0.30000000000E+03 0.  1.
        -52   -1    0    0    0    0 -0.00000000000E+00 -0.00000000000E+00 -0.64930732323E+04  0.65000000000E+04  0.30000000000E+03 0. -1.
     100001    1    1    2    0    0 -0.19021487705E+04 -0.55917910772E+04  0.27094376452E+04  0.65000000000E+04  0.15050000000E+03 0.  1.
     100001    1    1    2    0    0  0.19021487705E+04  0.55917910772E+04 -0.27094376452E+04  0.65000000000E+04  0.15050000000E+03 0. -1.
</event>
<event>
 4    1  0.5143956E-004  0.6500000E+04  0.7818608E-02  0.7223770E-01
         52   -1    0    0    0    0  0.00000000000E+00  0.00000000000E+00  0.64930732323E+04  0.65000000000E+04  0.30000000000E+03 0.  1.
        -52   -1    0    0    0    0 -0.00000000000E+00 -0.00000000000E+00 -0.64930732323E+04  0.65000000000E+04  0.30000000000E+03 0. -1.
     100001    1    1    2    0    0  0.66961041042E+02  0.17432840598E+03  0.64955735371E+04  0.65000000000E+04  0.15050000000E+03 0.  1.
     100001    1    1    2    0    0 -0.66961041042E+02 -0.17432840598E+03 -0.64955735371E+04  0.65000000000E+04  0.15050000000E+03 0. -1.
</event>
<event>
 4    1  0.5143956E-004  0.6500000E+04  0.7818608E-02  0.7223770E-01
         52   -1    0    0    0    0  0.00000000000E+00  0.00000000000E+00  0.64930732323E+04  0.65000000000E+04  0.30000000000E+03 0. -1.
        -52   -1    0    0    0    0 -0.00000000000E+00 -0.00000000000E+00 -0.64930732323E+04  0.65000000000E+04  0.30000000000E+03 0. -1.
     100001    1    1    2    0    0 -0.52154052787E+03 -0.25397281774E+03  0.64723135767E+04  0.65000000000E+04  0.15050000000E+03 0. -1.
     100001    1    1    2    0    0  0.52154052787E+03  0.25397281774E+03 -0.64723135767E+04  0.65000000000E+04  0.15050000000E+03 0. -1.
</event>
<event>
 4    1  0.5268804E-004  0.6500000E+04  0.7818608E-02  0.7223770E-01
         52   -1    0    0    0    0  0.00000000000E+00  0.00000000000E+00  0.64930732323E+04  0.65000000000E+04  0.30000000000E+03 0. -1.
        -52   -1    0    0    0    0 -0.00000000000E+00 -0.00000000000E+00 -0.64930732323E+04  0.65000000000E+04  0.30000000000E+03 0.  1.
     100001    1    1    2    0    0 -0.18844470471E+03  0.13580699851E+03  0.64941046190E+04  0.65000000000E+04  0.15050000000E+03 0. -1.
     100001    1    1    2    0    0  0.18844470471E+03 -0.13580699851E+03 -0.64941046190E+04  0.65000000000E+04  0.15050000000E+03 0.  1.
</event>
<event>
 4    1  0.5143956E-004  0.6500000E+04  0.7818608E-02  0.7223770E-01
         52   -1    0    0    0    0  0.00000000000E+00  0.00000000000E+00  0.64930732323E+04  0.65000000000E+04  0.30000000000E+03 0.  1.
        -52   -1    0    0    0    0 -0.00000000000E+00 -0.00000000000E+00 -0.64930732323E+04  0.65000000000E+04  0.30000000000E+03 0. -1.
     100001    1    1    2    0    0  0.30453134729E+04  0.71477731838E+03  0.56958325982E+04  0.65000000000E+04  0.15050000000E+03 0.  1.
     100001    1    1    2    0    0 -0.30453134729E+04 -0.71477731838E+03 -0.56958325982E+04  0.65000000000E+04  0.15050000000E+03 0. -1.
</event>
<event>
 4    1  0.5143956E-004  0.6500000E+04  0.7818608E-02  0.7223770E-01
         52   -1    0    0    0    0  0.00000000000E+00  0.00000000000E+00  0.64930732323E+04  0.65000000000E+04  0.30000000000E+03 0.  1.
        -52   -1    0    0    0    0 -0.00000000000E+00 -0.00000000000E+00 -0.64930732323E+04  0.65000000000E+04  0.30000000000E+03 0. -1.
     100001    1    1    2    0    0 -0.72585372317E+03  0.15085530900E+04 -0.62789134169E+04  0.65000000000E+04  0.15050000000E+03 0. -1.
     100001    1    1    2    0    0  0.72585372317E+03 -0.15085530900E+04  0.62789134169E+04  0.65000000000E+04  0.15050000000E+03 0.  1.
</event>
<event>
 4    1  0.5143956E-004  0.6500000E+04  0.7818608E-02  0.7223770E-01
         52   -1    0    0    0    0  0.00000000000E+00  0.00000000000E+00  0.64930732323E+04  0.65000000000E+04  0.30000000000E+03 0. -1.
        -52   -1    0    0    0    0 -0.00000000000E+00 -0.00000000000E+00 -0.64930732323E+04  0.65000000000E+04  0.30000000000E+03 0.  1.
     100001    1    1    2    0    0  0.39237259260E+04 -0.18487616888E+04  0.48387813369E+04  0.65000000000E+04  0.15050000000E+03 0. -1.
     100001    1    1    2    0    0 -0.39237259260E+04  0.18487616888E+04 -0.48387813369E+04  0.65000000000E+04  0.15050000000E+03 0.  1.
</event>
<event>
 4    1  0.5143956E-004  0.6500000E+04  0.7818608E-02  0.7223770E-01
         52   -1    0    0    0    0  0.00000000000E+00  0.00000000000E+00  0.64930732323E+04  0.65000000000E+04  0.30000000000E+03 0.  1.
        -52   -1    0    0    0    0 -0.00000000000E+00 -0.00000000000E+00 -0.64930732323E+04  0.65000000000E+04  0.30000000000E+03 0. -1.
     100001    1    1    2    0    0 -0.25120874279E+04 -0.16669120748E+03 -0.59907412351E+04  0.65000000000E+04  0.15050000000E+03 0. -1.
     100001    1    1    2    0    0  0.25120874279E+04  0.16669120748E+03  0.59907412351E+04  0.65000000000E+04  0.15050000000E+03 0.  1.
</event>
<event>
 4    1  0.5143956E-004  0.6500000E+04  0.7818608E-02  0.7223770E-01
         52   -1    0    0    0    0  0.00000000000E+00  0.00000000000E+00  0.64930732323E+04  0.65000000000E+04  0.30000000000E+03 0.  1.
        -52   -1    0    0    0    0 -0.00000000000E+00 -0.00000000000E+00 -0.64930732323E+04  0.65000000000E+04  0.30000000000E+03 0.  1.
     100001    1    1    2    0    0 -0.10037047786E+04 -0.96040539157E+03 -0.63480349677E+04  0.65000000000E+04  0.15050000000E+03 0.  1.
     100001    1    1    2    0    0  0.10037047786E+04  0.96040539157E+03  0.63480349677E+04  0.65000000000E+04  0.15050000000E+03 0.  1.
</event>
<event>
 4    1  0.5143956E-004  0.6500000E+04  0.7818608E-02  0.7223770E-01
         52   -1    0    0    0    0  0.00000000000E+00  0.00000000000E+00  0.64930732323E+04  0.65000000000E+04  0.30000000000E+03 0.  1.
        -52   -1    0    0    0    0 -0.00000000000E+00 -0.00000000000E+00 -0.64930732323E+04  0.65000000000E+04  0.30000000000E+03 0. -1.
     100001    1    1    2    0    0  0.59258564897E+03 -0.17958612885E+04 -0.62169988122E+04  0.65000000000E+04  0.15050000000E+03 0. -1.
     100001    1    1    2    0    0 -0.59258564897E+03  0.17958612885E+04  0.62169988122E+04  0.65000000000E+04  0.15050000000E+03 0.  1.
</event>
<event>
 4    1  0.5143956E-004  0.6500000E+04  0.7818608E-02  0.7223770E-01
         52   -1    0    0    0    0  0.00000000000E+00  0.00000000000E+00  0.64930732323E+04  0.65000000000E+04  0.30000000000E+03 0. -1.
        -52   -1    0    0    0    0 -0.00000000000E+00 -0.00000000000E+00 -0.64930732323E+04  0.65000000000E+04  0.30000000000E+03 0.  1.
     100001    1    1    2    0    0  0.10502618663E+04  0.11331498172E+04  0.63119150227E+04  0.65000000000E+04  0.15050000000E+03 0. -1.
     100001    1    1    2    0    0 -0.10502618663E+04 -0.11331498172E+04 -0.63119150227E+04  0.65000000000E+04  0.15050000000E+03 0.  1.
</event>
<event>
 4    1  0.5143956E-004  0.6500000E+04  0.7818608E-02  0.7223770E-01
         52   -1    0    0    0    0  0.00000000000E+00  0.00000000000E+00  0.64930732323E+04  0.65000000000E+04  0.30000000000E+03 0.  1.
        -52   -1    0    0    0    0 -0.00000000000E+00 -0.00000000000E+00 -0.64930732323E+04  0.65000000000E+04  0.30000000000E+03 0.  1.
     100001    1    1    2    0    0  0.46736432082E+03  0.38498568120E+03  0.64699850361E+04  0.65000000000E+04  0.15050000000E+03 0.  1.
     100001    1    1    2    0    0 -0.46736432082E+03 -0.38498568120E+03 -0.64699850361E+04  0.65000000000E+04  0.15050000000E+03 0.  1.
</event>
<event>
 4    1  0.5143956E-004  0.6500000E+04  0.7818608E-02  0.7223770E-01
         52   -1    0    0    0    0  0.00000000000E+00  0.00000000000E+00  0.64930732323E+04  0.65000000000E+04  0.30000000000E+03 0.  1.
        -52   -1    0    0    0    0 -0.00000000000E+00 -0.00000000000E+00 -0.64930732323E+04  0.65000000000E+04  0.30000000000E+03 0. -1.
     100001    1    1    2    0    0  0.19298759835E+03 -0.35082621689E+03 -0.64859098438E+04  0.65000000000E+04  0.15050000000E+03 0. -1.
     100001    1    1    2    0    0 -0.19298759835E+03  0.35082621689E+03  0.64859098438E+04  0.65000000000E+04  0.15050000000E+03 0.  1.
</event>
<event>
 4    1  0.5143956E-004  0.6500000E+04  0.7818608E-02  0.7223770E-01
         52   -1    0    0    0    0  0.00000000000E+00  0.00000000000E+00  0.64930732323E+04  0.65000000000E+04  0.30000000000E+03 0.  1.
        -52   -1    0    0    0    0 -0.00000000000E+00 -0.00000000000E+00 -0.64930732323E+04  0.65000000000E+04  0.30000000000E+03 0. -1.
     100001    1    1    2    0    0 -0.45054065775E+04  0.75382376026E+03 -0.46217324738E+04  0.65000000000E+04  0.15050000000E+03 0. -1.
     100001    1    1    2    0    0  0.45054065775E+04 -0.75382376026E+03  0.46217324738E+04  0.65000000000E+04  0.15050000000E+03 0.  1.
</event>
<event>
 4    1  0.5143956E-004  0.6500000E+04  0.7818608E-02  0.7223770E-01
         52   -1    0    0    0    0  0.00000000000E+00  0.00000000000E+00  0.64930732323E+04  0.65000000000E+04  0.30000000000E+03 0.  1.
        -52   -1    0    0    0    0 -0.00000000000E+00 -0.00000000000E+00 -0.64930732323E+04  0.65000000000E+04  0.30000000000E+03 0. -1.
     100001    1    1    2    0    0 -0.45201430133E+04  0.33925454703E+03  0.46562391736E+04  0.65000000000E+04  0.15050000000E+03 0.  1.
     100001    1    1    2    0    0  0.45201430133E+04 -0.33925454703E+03 -0.46562391736E+04  0.65000000000E+04  0.15050000000E+03 0. -1.
</event>
<event>
 4    1  0.5143956E-004  0.6500000E+04  0.7818608E-02  0.7223770E-01
         52   -1    0    0    0    0  0.00000000000E+00  0.00000000000E+00  0.64930732323E+04  0.65000000000E+04  0.30000000000E+03 0.  1.
        -52   -1    0    0    0    0 -0.00000000000E+00 -0.00000000000E+00 -0.64930732323E+04  0.65000000000E+04  0.30000000000E+03 0. -1.
     100001    1    1    2    0    0  0.11877646947E+01  0.24571837785E+03  0.64936099989E+04  0.65000000000E+04  0.15050000000E+03 0.  1.
     100001    1    1    2    0    0 -0.11877646947E+01 -0.24571837785E+03 -0.64936099989E+04  0.65000000000E+04  0.15050000000E+03 0. -1.
</event>
<event>
 4    1  0.5143956E-004  0.6500000E+04  0.7818608E-02  0.7223770E-01
         52   -1    0    0    0    0  0.00000000000E+00  0.00000000000E+00  0.64930732323E+04  0.65000000000E+04  0.30000000000E+03 0. -1.
        -52   -1    0    0    0    0 -0.00000000000E+00 -0.00000000000E+00 -0.64930732323E+04  0.65000000000E+04  0.30000000000E+03 0.  1.
     100001    1    1    2    0    0 -0.10787904719E+04  0.14539791950E+04  0.62409538829E+04  0.65000000000E+04  0.15050000000E+03 0. -1.
     100001    1    1    2    0    0  0.10787904719E+04 -0.14539791950E+04 -0.62409538829E+04  0.65000000000E+04  0.15050000000E+03 0.  1.
</event>
<event>
 4    1  0.5143956E-004  0.6500000E+04  0.7818608E-02  0.7223770E-01
         52   -1    0    0    0    0  0.00000000000E+00  0.00000000000E+00  0.64930732323E+04  0.65000000000E+04  0.30000000000E+03 0. -1.
        -52   -1    0    0    0    0 -0.00000000000E+00 -0.00000000000E+00 -0.64930732323E+04  0.65000000000E+04  0.30000000000E+03 0.  1.
     100001    1    1    2    0    0  0.23621242479E+03 -0.85477194842E+03 -0.64374621053E+04  0.65000000000E+04  0.15050000000E+03 0.  1.
     100001    1    1    2    0    0 -0.23621242479E+03  0.85477194842E+03  0.64374621053E+04  0.65000000000E+04  0.15050000000E+03 0. -1.
</event>
<event>
 4    1  0.5143956E-004  0.6500000E+04  0.7818608E-02  0.7223770E-01
         52   -1    0    0    0    0  0.00000000000E+00  0.00000000000E+00  0.64930732323E+04  0.65000000000E+04  0.30000000000E+03 0. -1.
        -52   -1    0    0    0    0 -0.00000000000E+00 -0.00000000000E+00 -0.64930732323E+04  0.65000000000E+04  0.30000000000E+03 0.  1.
     100001    1    1    2    0    0  0.36797564740E+04 -0.37702510134E+04  0.38042015374E+04  0.65000000000E+04  0.15050000000E+03 0. -1.
     100001    1    1    2    0    0 -0.36797564740E+04  0.37702510134E+04 -0.38042015374E+04  0.65000000000E+04  0.15050000000E+03 0.  1.
</event>
<event>
 4    1  0.5143956E-004  0.6500000E+04  0.7818608E-02  0.7223770E-01
         52   -1    0    0    0    0  0.00000000000E+00  0.00000000000E+00  0.64930732323E+04  0.65000000000E+04  0.30000000000E+03 0.  1.
        -52   -1    0    0    0    0 -0.00000000000E+00 -0.00000000000E+00 -0.64930732323E+04  0.65000000000E+04  0.30000000000E+03 0. -1.
     100001    1    1    2    0    0 -0.16897366319E+04  0.44354233116E+03  0.62590262873E+04  0.65000000000E+04  0.15050000000E+03 0.  1.
     100001    1    1    2    0    0  0.16897366319E+04 -0.44354233116E+03 -0.62590262873E+04  0.65000000000E+04  0.15050000000E+03 0. -1.
</event>
<event>
 4    1  0.5143956E-004  0.6500000E+04  0.7818608E-02  0.7223770E-01
         52   -1    0    0    0    0  0.00000000000E+00  0.00000000000E+00  0.64930732323E+04  0.65000000000E+04  0.30000000000E+03 0.  1.
        -52   -1    0    0    0    0 -0.00000000000E+00 -0.00000000000E+00 -0.64930732323E+04  0.65000000000E+04  0.30000000000E+03 0. -1.
     100001    1    1    2    0    0  0.19081656301E+04 -0.33819181990E+03  0.62025704326E+04  0.65000000000E+04  0.15050000000E+03 0.  1.
     100001    1    1    2    0    0 -0.19081656301E+04  0.33819181990E+03 -0.62025704326E+04  0.65000000000E+04  0.15050000000E+03 0. -1.
</event>
<event>
 4    1  0.5143956E-004  0.6500000E+04  0.7818608E-02  0.7223770E-01
         52   -1    0    0    0    0  0.00000000000E+00  0.00000000000E+00  0.64930732323E+04  0.65000000000E+04  0.30000000000E+03 0.  1.
        -52   -1    0    0    0    0 -0.00000000000E+00 -0.00000000000E+00 -0.64930732323E+04  0.65000000000E+04  0.30000000000E+03 0.  1.
     100001    1    1    2    0    0  0.49409128114E+02 -0.51523222804E+03  0.64776109978E+04  0.65000000000E+04  0.15050000000E+03 0.  1.
     100001    1    1    2    0    0 -0.49409128114E+02  0.51523222804E+03 -0.64776109978E+04  0.65000000000E+04  0.15050000000E+03 0.  1.
</event>
<event>
 4    1  0.5143956E-004  0.6500000E+04  0.7818608E-02  0.7223770E-01
         52   -1    0    0    0    0  0.00000000000E+00  0.00000000000E+00  0.64930732323E+04  0.65000000000E+04  0.30000000000E+03 0.  1.
        -52   -1    0    0    0    0 -0.00000000000E+00 -0.00000000000E+00 -0.64930732323E+04  0.65000000000E+04  0.30000000000E+03 0. -1.
     100001    1    1    2    0    0  0.96571469478E+03 -0.36327573265E+03 -0.64158222872E+04  0.65000000000E+04  0.15050000000E+03 0. -1.
     100001    1    1    2    0    0 -0.96571469478E+03  0.36327573265E+03  0.64158222872E+04  0.65000000000E+04  0.15050000000E+03 0.  1.
</event>
<event>
 4    1  0.5143956E-004  0.6500000E+04  0.7818608E-02  0.7223770E-01
         52   -1    0    0    0    0  0.00000000000E+00  0.00000000000E+00  0.64930732323E+04  0.65000000000E+04  0.30000000000E+03 0.  1.
        -52   -1    0    0    0    0 -0.00000000000E+00 -0.00000000000E+00 -0.64930732323E+04  0.65000000000E+04  0.30000000000E+03 0. -1.
     100001    1    1    2    0    0 -0.60123310049E+03 -0.22556942540E+04  0.60644630382E+04  0.65000000000E+04  0.15050000000E+03 0.  1.
     100001    1    1    2    0    0  0.60123310049E+03  0.22556942540E+04 -0.60644630382E+04  0.65000000000E+04  0.15050000000E+03 0. -1.
</event>
<event>
 4    1  0.5143956E-004  0.6500000E+04  0.7818608E-02  0.7223770E-01
         52   -1    0    0    0    0  0.00000000000E+00  0.00000000000E+00  0.64930732323E+04  0.65000000000E+04  0.30000000000E+03 0.  1.
        -52   -1    0    0    0    0 -0.00000000000E+00 -0.00000000000E+00 -0.64930732323E+04  0.65000000000E+04  0.30000000000E+03 0. -1.
     100001    1    1    2    0    0  0.33247883764E+04  0.18141153738E+04  0.52803520160E+04  0.65000000000E+04  0.15050000000E+03 0.  1.
     100001    1    1    2    0    0 -0.33247883764E+04 -0.18141153738E+04 -0.52803520160E+04  0.65000000000E+04  0.15050000000E+03 0. -1.
</event>
<event>
 4    1  0.5143956E-004  0.6500000E+04  0.7818608E-02  0.7223770E-01
         52   -1    0    0    0    0  0.00000000000E+00  0.00000000000E+00  0.64930732323E+04  0.65000000000E+04  0.30000000000E+03 0.  1.
        -52   -1    0    0    0    0 -0.00000000000E+00 -0.00000000000E+00 -0.64930732323E+04  0.65000000000E+04  0.30000000000E+03 0. -1.
     100001    1    1    2    0    0  0.25374065915E+03 -0.14722559334E+03  0.64916323103E+04  0.65000000000E+04  0.15050000000E+03 0.  1.
     100001    1    1    2    0    0 -0.25374065915E+03  0.14722559334E+03 -0.64916323103E+04  0.65000000000E+04  0.15050000000E+03 0. -1.
</event>
<event>
 4    1  0.5143956E-004  0.6500000E+04  0.7818608E-02  0.7223770E-01
         52   -1    0    0    0    0  0.00000000000E+00  0.00000000000E+00  0.64930732323E+04  0.65000000000E+04  0.30000000000E+03 0.  1.
        -52   -1    0    0    0    0 -0.00000000000E+00 -0.00000000000E+00 -0.64930732323E+04  0.65000000000E+04  0.30000000000E+03 0.  1.
     100001    1    1    2    0    0  0.14735082579E+01  0.66732341662E+02  0.64979146173E+04  0.65000000000E+04  0.15050000000E+03 0.  1.
     100001    1    1    2    0    0 -0.14735082579E+01 -0.66732341662E+02 -0.64979146173E+04  0.65000000000E+04  0.15050000000E+03 0.  1.
</event>
<event>
 4    1  0.5143956E-004  0.6500000E+04  0.7818608E-02  0.7223770E-01
         52   -1    0    0    0    0  0.00000000000E+00  0.00000000000E+00  0.64930732323E+04  0.65000000000E+04  0.30000000000E+03 0.  1.
        -52   -1    0    0    0    0 -0.00000000000E+00 -0.00000000000E+00 -0.64930732323E+04  0.65000000000E+04  0.30000000000E+03 0. -1.
     100001    1    1    2    0    0  0.12910059248E+04  0.14858001557E+04  0.61929840424E+04  0.65000000000E+04  0.15050000000E+03 0.  1.
     100001    1    1    2    0    0 -0.12910059248E+04 -0.14858001557E+04 -0.61929840424E+04  0.65000000000E+04  0.15050000000E+03 0. -1.
</event>
<event>
 4    1  0.5143956E-004  0.6500000E+04  0.7818608E-02  0.7223770E-01
         52   -1    0    0    0    0  0.00000000000E+00  0.00000000000E+00  0.64930732323E+04  0.65000000000E+04  0.30000000000E+03 0.  1.
        -52   -1    0    0    0    0 -0.00000000000E+00 -0.00000000000E+00 -0.64930732323E+04  0.65000000000E+04  0.30000000000E+03 0.  1.
     100001    1    1    2    0    0  0.11988408236E+03 -0.50645208680E+02 -0.64969541032E+04  0.65000000000E+04  0.15050000000E+03 0.  1.
     100001    1    1    2    0    0 -0.11988408236E+03  0.50645208680E+02  0.64969541032E+04  0.65000000000E+04  0.15050000000E+03 0.  1.
</event>
<event>
 4    1  0.5143956E-004  0.6500000E+04  0.7818608E-02  0.7223770E-01
         52   -1    0    0    0    0  0.00000000000E+00  0.00000000000E+00  0.64930732323E+04  0.65000000000E+04  0.30000000000E+03 0. -1.
        -52   -1    0    0    0    0 -0.00000000000E+00 -0.00000000000E+00 -0.64930732323E+04  0.65000000000E+04  0.30000000000E+03 0.  1.
     100001    1    1    2    0    0  0.62680539707E+03  0.14895820388E+04  0.62940932702E+04  0.65000000000E+04  0.15050000000E+03 0. -1.
     100001    1    1    2    0    0 -0.62680539707E+03 -0.14895820388E+04 -0.62940932702E+04  0.65000000000E+04  0.15050000000E+03 0.  1.
</event>
<event>
 4    1  0.5143956E-004  0.6500000E+04  0.7818608E-02  0.7223770E-01
         52   -1    0    0    0    0  0.00000000000E+00  0.00000000000E+00  0.64930732323E+04  0.65000000000E+04  0.30000000000E+03 0.  1.
        -52   -1    0    0    0    0 -0.00000000000E+00 -0.00000000000E+00 -0.64930732323E+04  0.65000000000E+04  0.30000000000E+03 0. -1.
     100001    1    1    2    0    0  0.18590361621E+04 -0.12531910794E+04 -0.60992496601E+04  0.65000000000E+04  0.15050000000E+03 0. -1.
     100001    1    1    2    0    0 -0.18590361621E+04  0.12531910794E+04  0.60992496601E+04  0.65000000000E+04  0.15050000000E+03 0.  1.
</event>
<event>
 4    1  0.5143956E-004  0.6500000E+04  0.7818608E-02  0.7223770E-01
         52   -1    0    0    0    0  0.00000000000E+00  0.00000000000E+00  0.64930732323E+04  0.65000000000E+04  0.30000000000E+03 0.  1.
        -52   -1    0    0    0    0 -0.00000000000E+00 -0.00000000000E+00 -0.64930732323E+04  0.65000000000E+04  0.30000000000E+03 0. -1.
     100001    1    1    2    0    0 -0.10055374611E+04 -0.26692478115E+03  0.64144364776E+04  0.65000000000E+04  0.15050000000E+03 0.  1.
     100001    1    1    2    0    0  0.10055374611E+04  0.26692478115E+03 -0.64144364776E+04  0.65000000000E+04  0.15050000000E+03 0. -1.
</event>
<event>
 4    1  0.5143956E-004  0.6500000E+04  0.7818608E-02  0.7223770E-01
         52   -1    0    0    0    0  0.00000000000E+00  0.00000000000E+00  0.64930732323E+04  0.65000000000E+04  0.30000000000E+03 0. -1.
        -52   -1    0    0    0    0 -0.00000000000E+00 -0.00000000000E+00 -0.64930732323E+04  0.65000000000E+04  0.30000000000E+03 0.  1.
     100001    1    1    2    0    0 -0.45820255043E+04  0.37534632093E+04  0.26728086285E+04  0.65000000000E+04  0.15050000000E+03 0. -1.
     100001    1    1    2    0    0  0.45820255043E+04 -0.37534632093E+04 -0.26728086285E+04  0.65000000000E+04  0.15050000000E+03 0.  1.
</event>
<event>
 4    1  0.5143956E-004  0.6500000E+04  0.7818608E-02  0.7223770E-01
         52   -1    0    0    0    0  0.00000000000E+00  0.00000000000E+00  0.64930732323E+04  0.65000000000E+04  0.30000000000E+03 0.  1.
        -52   -1    0    0    0    0 -0.00000000000E+00 -0.00000000000E+00 -0.64930732323E+04  0.65000000000E+04  0.30000000000E+03 0. -1.
     100001    1    1    2    0    0 -0.14207401896E+03  0.32865351017E+03  0.64883859005E+04  0.65000000000E+04  0.15050000000E+03 0.  1.
     100001    1    1    2    0    0  0.14207401896E+03 -0.32865351017E+03 -0.64883859005E+04  0.65000000000E+04  0.15050000000E+03 0. -1.
</event>
<event>
 4    1  0.5143956E-004  0.6500000E+04  0.7818608E-02  0.7223770E-01
         52   -1    0    0    0    0  0.00000000000E+00  0.00000000000E+00  0.64930732323E+04  0.65000000000E+04  0.30000000000E+03 0.  1.
        -52   -1    0    0    0    0 -0.00000000000E+00 -0.00000000000E+00 -0.64930732323E+04  0.65000000000E+04  0.30000000000E+03 0.  1.
     100001    1    1    2    0    0 -0.65525863532E+02 -0.34447577226E+03  0.64887897603E+04  0.65000000000E+04  0.15050000000E+03 0.  1.
     100001    1    1    2    0    0  0.65525863532E+02  0.34447577226E+03 -0.64887897603E+04  0.65000000000E+04  0.15050000000E+03 0.  1.
</event>
<event>
 4    1  0.5143956E-004  0.6500000E+04  0.7818608E-02  0.7223770E-01
         52   -1    0    0    0    0  0.00000000000E+00  0.00000000000E+00  0.64930732323E+04  0.65000000000E+04  0.30000000000E+03 0. -1.
        -52   -1    0    0    0    0 -0.00000000000E+00 -0.00000000000E+00 -0.64930732323E+04  0.65000000000E+04  0.30000000000E+03 0.  1.
     100001    1    1    2    0    0  0.56319841883E+04  0.24776225302E+04 -0.20903326173E+04  0.65000000000E+04  0.15050000000E+03 0.  1.
     100001    1    1    2    0    0 -0.56319841883E+04 -0.24776225302E+04  0.20903326173E+04  0.65000000000E+04  0.15050000000E+03 0. -1.
</event>
<event>
 4    1  0.5143956E-004  0.6500000E+04  0.7818608E-02  0.7223770E-01
         52   -1    0    0    0    0  0.00000000000E+00  0.00000000000E+00  0.64930732323E+04  0.65000000000E+04  0.30000000000E+03 0.  1.
        -52   -1    0    0    0    0 -0.00000000000E+00 -0.00000000000E+00 -0.64930732323E+04  0.65000000000E+04  0.30000000000E+03 0. -1.
     100001    1    1    2    0    0  0.35928126910E+01 -0.40213982325E+04  0.51044777497E+04  0.65000000000E+04  0.15050000000E+03 0.  1.
     100001    1    1    2    0    0 -0.35928126910E+01  0.40213982325E+04 -0.51044777497E+04  0.65000000000E+04  0.15050000000E+03 0. -1.
</event>
<event>
 4    1  0.5143956E-004  0.6500000E+04  0.7818608E-02  0.7223770E-01
         52   -1    0    0    0    0  0.00000000000E+00  0.00000000000E+00  0.64930732323E+04  0.65000000000E+04  0.30000000000E+03 0. -1.
        -52   -1    0    0    0    0 -0.00000000000E+00 -0.00000000000E+00 -0.64930732323E+04  0.65000000000E+04  0.30000000000E+03 0.  1.
     100001    1    1    2    0    0  0.12930958137E+04 -0.67608253112E+03 -0.63323112193E+04  0.65000000000E+04  0.15050000000E+03 0.  1.
     100001    1    1    2    0    0 -0.12930958137E+04  0.67608253112E+03  0.63323112193E+04  0.65000000000E+04  0.15050000000E+03 0. -1.
</event>
<event>
 4    1  0.5143956E-004  0.6500000E+04  0.7818608E-02  0.7223770E-01
         52   -1    0    0    0    0  0.00000000000E+00  0.00000000000E+00  0.64930732323E+04  0.65000000000E+04  0.30000000000E+03 0.  1.
        -52   -1    0    0    0    0 -0.00000000000E+00 -0.00000000000E+00 -0.64930732323E+04  0.65000000000E+04  0.30000000000E+03 0. -1.
     100001    1    1    2    0    0  0.18845037269E+04 -0.79346484825E+03 -0.61681771203E+04  0.65000000000E+04  0.15050000000E+03 0. -1.
     100001    1    1    2    0    0 -0.18845037269E+04  0.79346484825E+03  0.61681771203E+04  0.65000000000E+04  0.15050000000E+03 0.  1.
</event>
<event>
 4    1  0.5143956E-004  0.6500000E+04  0.7818608E-02  0.7223770E-01
         52   -1    0    0    0    0  0.00000000000E+00  0.00000000000E+00  0.64930732323E+04  0.65000000000E+04  0.30000000000E+03 0.  1.
        -52   -1    0    0    0    0 -0.00000000000E+00 -0.00000000000E+00 -0.64930732323E+04  0.65000000000E+04  0.30000000000E+03 0. -1.
     100001    1    1    2    0    0 -0.19118163402E+04  0.34528564595E+04 -0.51623725458E+04  0.65000000000E+04  0.15050000000E+03 0. -1.
     100001    1    1    2    0    0  0.19118163402E+04 -0.34528564595E+04  0.51623725458E+04  0.65000000000E+04  0.15050000000E+03 0.  1.
</event>
<event>
 4    1  0.5143956E-004  0.6500000E+04  0.7818608E-02  0.7223770E-01
         52   -1    0    0    0    0  0.00000000000E+00  0.00000000000E+00  0.64930732323E+04  0.65000000000E+04  0.30000000000E+03 0.  1.
        -52   -1    0    0    0    0 -0.00000000000E+00 -0.00000000000E+00 -0.64930732323E+04  0.65000000000E+04  0.30000000000E+03 0. -1.
     100001    1    1    2    0    0 -0.11356150460E+03 -0.69885523616E+03  0.64595707979E+04  0.65000000000E+04  0.15050000000E+03 0.  1.
     100001    1    1    2    0    0  0.11356150460E+03  0.69885523616E+03 -0.64595707979E+04  0.65000000000E+04  0.15050000000E+03 0. -1.
</event>
<event>
 4    1  0.5143956E-004  0.6500000E+04  0.7818608E-02  0.7223770E-01
         52   -1    0    0    0    0  0.00000000000E+00  0.00000000000E+00  0.64930732323E+04  0.65000000000E+04  0.30000000000E+03 0.  1.
        -52   -1    0    0    0    0 -0.00000000000E+00 -0.00000000000E+00 -0.64930732323E+04  0.65000000000E+04  0.30000000000E+03 0. -1.
     100001    1    1    2    0    0 -0.66261322249E+03 -0.11168340690E+04 -0.63671795271E+04  0.65000000000E+04  0.15050000000E+03 0. -1.
     100001    1    1    2    0    0  0.66261322249E+03  0.11168340690E+04  0.63671795271E+04  0.65000000000E+04  0.15050000000E+03 0.  1.
</event>
<event>
 4    1  0.5330173E-004  0.6500000E+04  0.7818608E-02  0.7223770E-01
         52   -1    0    0    0    0  0.00000000000E+00  0.00000000000E+00  0.64930732323E+04  0.65000000000E+04  0.30000000000E+03 0.  1.
        -52   -1    0    0    0    0 -0.00000000000E+00 -0.00000000000E+00 -0.64930732323E+04  0.65000000000E+04  0.30000000000E+03 0.  1.
     100001    1    1    2    0    0  0.86272400937E+02  0.23992512557E+03  0.64932536341E+04  0.65000000000E+04  0.15050000000E+03 0.  1.
     100001    1    1    2    0    0 -0.86272400937E+02 -0.23992512557E+03 -0.64932536341E+04  0.65000000000E+04  0.15050000000E+03 0.  1.
</event>
<event>
 4    1  0.5143956E-004  0.6500000E+04  0.7818608E-02  0.7223770E-01
         52   -1    0    0    0    0  0.00000000000E+00  0.00000000000E+00  0.64930732323E+04  0.65000000000E+04  0.30000000000E+03 0. -1.
        -52   -1    0    0    0    0 -0.00000000000E+00 -0.00000000000E+00 -0.64930732323E+04  0.65000000000E+04  0.30000000000E+03 0.  1.
     100001    1    1    2    0    0  0.10465301402E+03 -0.74128624515E+03  0.64549897133E+04  0.65000000000E+04  0.15050000000E+03 0. -1.
     100001    1    1    2    0    0 -0.10465301402E+03  0.74128624515E+03 -0.64549897133E+04  0.65000000000E+04  0.15050000000E+03 0.  1.
</event>
<event>
 4    1  0.5143956E-004  0.6500000E+04  0.7818608E-02  0.7223770E-01
         52   -1    0    0    0    0  0.00000000000E+00  0.00000000000E+00  0.64930732323E+04  0.65000000000E+04  0.30000000000E+03 0.  1.
        -52   -1    0    0    0    0 -0.00000000000E+00 -0.00000000000E+00 -0.64930732323E+04  0.65000000000E+04  0.30000000000E+03 0. -1.
     100001    1    1    2    0    0  0.31815133601E+04 -0.17080100486E+04  0.54025942068E+04  0.65000000000E+04  0.15050000000E+03 0.  1.
     100001    1    1    2    0    0 -0.31815133601E+04  0.17080100486E+04 -0.54025942068E+04  0.65000000000E+04  0.15050000000E+03 0. -1.
</event>
<event>
 4    1  0.5143956E-004  0.6500000E+04  0.7818608E-02  0.7223770E-01
         52   -1    0    0    0    0  0.00000000000E+00  0.00000000000E+00  0.64930732323E+04  0.65000000000E+04  0.30000000000E+03 0. -1.
        -52   -1    0    0    0    0 -0.00000000000E+00 -0.00000000000E+00 -0.64930732323E+04  0.65000000000E+04  0.30000000000E+03 0.  1.
     100001    1    1    2    0    0 -0.22193607574E+04 -0.80278563884E+03  0.60545291144E+04  0.65000000000E+04  0.15050000000E+03 0. -1.
     100001    1    1    2    0    0  0.22193607574E+04  0.80278563884E+03 -0.60545291144E+04  0.65000000000E+04  0.15050000000E+03 0.  1.
</event>
<event>
 4    1  0.5143956E-004  0.6500000E+04  0.7818608E-02  0.7223770E-01
         52   -1    0    0    0    0  0.00000000000E+00  0.00000000000E+00  0.64930732323E+04  0.65000000000E+04  0.30000000000E+03 0. -1.
        -52   -1    0    0    0    0 -0.00000000000E+00 -0.00000000000E+00 -0.64930732323E+04  0.65000000000E+04  0.30000000000E+03 0.  1.
     100001    1    1    2    0    0 -0.25457955195E+04 -0.57825662936E+04 -0.15192767962E+04  0.65000000000E+04  0.15050000000E+03 0. -1.
     100001    1    1    2    0    0  0.25457955195E+04  0.57825662936E+04  0.15192767962E+04  0.65000000000E+04  0.15050000000E+03 0.  1.
</event>
<event>
 4    1  0.5143956E-004  0.6500000E+04  0.7818608E-02  0.7223770E-01
         52   -1    0    0    0    0  0.00000000000E+00  0.00000000000E+00  0.64930732323E+04  0.65000000000E+04  0.30000000000E+03 0.  1.
        -52   -1    0    0    0    0 -0.00000000000E+00 -0.00000000000E+00 -0.64930732323E+04  0.65000000000E+04  0.30000000000E+03 0. -1.
     100001    1    1    2    0    0 -0.29291152853E+03 -0.42135757403E+04  0.49383531736E+04  0.65000000000E+04  0.15050000000E+03 0. -1.
     100001    1    1    2    0    0  0.29291152853E+03  0.42135757403E+04 -0.49383531736E+04  0.65000000000E+04  0.15050000000E+03 0.  1.
</event>
<event>
 4    1  0.5143956E-004  0.6500000E+04  0.7818608E-02  0.7223770E-01
         52   -1    0    0    0    0  0.00000000000E+00  0.00000000000E+00  0.64930732323E+04  0.65000000000E+04  0.30000000000E+03 0.  1.
        -52   -1    0    0    0    0 -0.00000000000E+00 -0.00000000000E+00 -0.64930732323E+04  0.65000000000E+04  0.30000000000E+03 0.  1.
     100001    1    1    2    0    0 -0.26118770721E+03  0.27768199673E+03 -0.64870658576E+04  0.65000000000E+04  0.15050000000E+03 0.  1.
     100001    1    1    2    0    0  0.26118770721E+03 -0.27768199673E+03  0.64870658576E+04  0.65000000000E+04  0.15050000000E+03 0.  1.
</event>
<event>
 4    1  0.5143956E-004  0.6500000E+04  0.7818608E-02  0.7223770E-01
         52   -1    0    0    0    0  0.00000000000E+00  0.00000000000E+00  0.64930732323E+04  0.65000000000E+04  0.30000000000E+03 0. -1.
        -52   -1    0    0    0    0 -0.00000000000E+00 -0.00000000000E+00 -0.64930732323E+04  0.65000000000E+04  0.30000000000E+03 0.  1.
     100001    1    1    2    0    0 -0.40956827160E+04  0.20801573200E+04 -0.45962678734E+04  0.65000000000E+04  0.15050000000E+03 0.  1.
     100001    1    1    2    0    0  0.40956827160E+04 -0.20801573200E+04  0.45962678734E+04  0.65000000000E+04  0.15050000000E+03 0. -1.
</event>
<event>
 4    1  0.7199155E-004  0.6500000E+04  0.7818608E-02  0.7223770E-01
         52   -1    0    0    0    0  0.00000000000E+00  0.00000000000E+00  0.64930732323E+04  0.65000000000E+04  0.30000000000E+03 0. -1.
        -52   -1    0    0    0    0 -0.00000000000E+00 -0.00000000000E+00 -0.64930732323E+04  0.65000000000E+04  0.30000000000E+03 0. -1.
     100001    1    1    2    0    0 -0.11500413912E+03 -0.41283437490E+02 -0.64971085473E+04  0.65000000000E+04  0.15050000000E+03 0. -1.
     100001    1    1    2    0    0  0.11500413912E+03  0.41283437490E+02  0.64971085473E+04  0.65000000000E+04  0.15050000000E+03 0. -1.
</event>
<event>
 4    1  0.5143956E-004  0.6500000E+04  0.7818608E-02  0.7223770E-01
         52   -1    0    0    0    0  0.00000000000E+00  0.00000000000E+00  0.64930732323E+04  0.65000000000E+04  0.30000000000E+03 0.  1.
        -52   -1    0    0    0    0 -0.00000000000E+00 -0.00000000000E+00 -0.64930732323E+04  0.65000000000E+04  0.30000000000E+03 0. -1.
     100001    1    1    2    0    0  0.16451762823E+03  0.37074367337E+03  0.64855865447E+04  0.65000000000E+04  0.15050000000E+03 0.  1.
     100001    1    1    2    0    0 -0.16451762823E+03 -0.37074367337E+03 -0.64855865447E+04  0.65000000000E+04  0.15050000000E+03 0. -1.
</event>
<event>
 4    1  0.5143956E-004  0.6500000E+04  0.7818608E-02  0.7223770E-01
         52   -1    0    0    0    0  0.00000000000E+00  0.00000000000E+00  0.64930732323E+04  0.65000000000E+04  0.30000000000E+03 0.  1.
        -52   -1    0    0    0    0 -0.00000000000E+00 -0.00000000000E+00 -0.64930732323E+04  0.65000000000E+04  0.30000000000E+03 0. -1.
     100001    1    1    2    0    0 -0.98990484009E+03  0.74604734660E+03 -0.63789381181E+04  0.65000000000E+04  0.15050000000E+03 0. -1.
     100001    1    1    2    0    0  0.98990484009E+03 -0.74604734660E+03  0.63789381181E+04  0.65000000000E+04  0.15050000000E+03 0.  1.
</event>
<event>
 4    1  0.5143956E-004  0.6500000E+04  0.7818608E-02  0.7223770E-01
         52   -1    0    0    0    0  0.00000000000E+00  0.00000000000E+00  0.64930732323E+04  0.65000000000E+04  0.30000000000E+03 0. -1.
        -52   -1    0    0    0    0 -0.00000000000E+00 -0.00000000000E+00 -0.64930732323E+04  0.65000000000E+04  0.30000000000E+03 0.  1.
     100001    1    1    2    0    0  0.23206249999E+03  0.15774535040E+02 -0.64940933093E+04  0.65000000000E+04  0.15050000000E+03 0.  1.
     100001    1    1    2    0    0 -0.23206249999E+03 -0.15774535040E+02  0.64940933093E+04  0.65000000000E+04  0.15050000000E+03 0. -1.
</event>
<event>
 4    1  0.5143956E-004  0.6500000E+04  0.7818608E-02  0.7223770E-01
         52   -1    0    0    0    0  0.00000000000E+00  0.00000000000E+00  0.64930732323E+04  0.65000000000E+04  0.30000000000E+03 0. -1.
        -52   -1    0    0    0    0 -0.00000000000E+00 -0.00000000000E+00 -0.64930732323E+04  0.65000000000E+04  0.30000000000E+03 0.  1.
     100001    1    1    2    0    0  0.23415497322E+04 -0.54534559533E+03  0.60371427665E+04  0.65000000000E+04  0.15050000000E+03 0. -1.
     100001    1    1    2    0    0 -0.23415497322E+04  0.54534559533E+03 -0.60371427665E+04  0.65000000000E+04  0.15050000000E+03 0.  1.
</event>
<event>
 4    1  0.5143956E-004  0.6500000E+04  0.7818608E-02  0.7223770E-01
         52   -1    0    0    0    0  0.00000000000E+00  0.00000000000E+00  0.64930732323E+04  0.65000000000E+04  0.30000000000E+03 0.  1.
        -52   -1    0    0    0    0 -0.00000000000E+00 -0.00000000000E+00 -0.64930732323E+04  0.65000000000E+04  0.30000000000E+03 0. -1.
     100001    1    1    2    0    0 -0.35616524126E+03  0.24132380972E+03  0.64840002228E+04  0.65000000000E+04  0.15050000000E+03 0.  1.
     100001    1    1    2    0    0  0.35616524126E+03 -0.24132380972E+03 -0.64840002228E+04  0.65000000000E+04  0.15050000000E+03 0. -1.
</event>
<event>
 4    1  0.5143956E-004  0.6500000E+04  0.7818608E-02  0.7223770E-01
         52   -1    0    0    0    0  0.00000000000E+00  0.00000000000E+00  0.64930732323E+04  0.65000000000E+04  0.30000000000E+03 0. -1.
        -52   -1    0    0    0    0 -0.00000000000E+00 -0.00000000000E+00 -0.64930732323E+04  0.65000000000E+04  0.30000000000E+03 0.  1.
     100001    1    1    2    0    0 -0.27906028528E+03 -0.39575685266E+03 -0.64801891655E+04  0.65000000000E+04  0.15050000000E+03 0.  1.
     100001    1    1    2    0    0  0.27906028528E+03  0.39575685266E+03  0.64801891655E+04  0.65000000000E+04  0.15050000000E+03 0. -1.
</event>
<event>
 4    1  0.5143956E-004  0.6500000E+04  0.7818608E-02  0.7223770E-01
         52   -1    0    0    0    0  0.00000000000E+00  0.00000000000E+00  0.64930732323E+04  0.65000000000E+04  0.30000000000E+03 0.  1.
        -52   -1    0    0    0    0 -0.00000000000E+00 -0.00000000000E+00 -0.64930732323E+04  0.65000000000E+04  0.30000000000E+03 0. -1.
     100001    1    1    2    0    0  0.56238812840E+04  0.69744601979E+03 -0.31800751726E+04  0.65000000000E+04  0.15050000000E+03 0. -1.
     100001    1    1    2    0    0 -0.56238812840E+04 -0.69744601979E+03  0.31800751726E+04  0.65000000000E+04  0.15050000000E+03 0.  1.
</event>
<event>
 4    1  0.5143956E-004  0.6500000E+04  0.7818608E-02  0.7223770E-01
         52   -1    0    0    0    0  0.00000000000E+00  0.00000000000E+00  0.64930732323E+04  0.65000000000E+04  0.30000000000E+03 0. -1.
        -52   -1    0    0    0    0 -0.00000000000E+00 -0.00000000000E+00 -0.64930732323E+04  0.65000000000E+04  0.30000000000E+03 0. -1.
     100001    1    1    2    0    0 -0.56669834568E+01 -0.75827396743E+02  0.64978125428E+04  0.65000000000E+04  0.15050000000E+03 0. -1.
     100001    1    1    2    0    0  0.56669834568E+01  0.75827396743E+02 -0.64978125428E+04  0.65000000000E+04  0.15050000000E+03 0. -1.
</event>
<event>
 4    1  0.5143956E-004  0.6500000E+04  0.7818608E-02  0.7223770E-01
         52   -1    0    0    0    0  0.00000000000E+00  0.00000000000E+00  0.64930732323E+04  0.65000000000E+04  0.30000000000E+03 0.  1.
        -52   -1    0    0    0    0 -0.00000000000E+00 -0.00000000000E+00 -0.64930732323E+04  0.65000000000E+04  0.30000000000E+03 0. -1.
     100001    1    1    2    0    0 -0.27425584977E+04  0.56040502425E+04 -0.18166847595E+04  0.65000000000E+04  0.15050000000E+03 0. -1.
     100001    1    1    2    0    0  0.27425584977E+04 -0.56040502425E+04  0.18166847595E+04  0.65000000000E+04  0.15050000000E+03 0.  1.
</event>
<event>
 4    1  0.5143956E-004  0.6500000E+04  0.7818608E-02  0.7223770E-01
         52   -1    0    0    0    0  0.00000000000E+00  0.00000000000E+00  0.64930732323E+04  0.65000000000E+04  0.30000000000E+03 0. -1.
        -52   -1    0    0    0    0 -0.00000000000E+00 -0.00000000000E+00 -0.64930732323E+04  0.65000000000E+04  0.30000000000E+03 0.  1.
     100001    1    1    2    0    0  0.21996712731E+04  0.10291843247E+04 -0.60274020661E+04  0.65000000000E+04  0.15050000000E+03 0.  1.
     100001    1    1    2    0    0 -0.21996712731E+04 -0.10291843247E+04  0.60274020661E+04  0.65000000000E+04  0.15050000000E+03 0. -1.
</event>
<event>
 4    1  0.5143956E-004  0.6500000E+04  0.7818608E-02  0.7223770E-01
         52   -1    0    0    0    0  0.00000000000E+00  0.00000000000E+00  0.64930732323E+04  0.65000000000E+04  0.30000000000E+03 0. -1.
        -52   -1    0    0    0    0 -0.00000000000E+00 -0.00000000000E+00 -0.64930732323E+04  0.65000000000E+04  0.30000000000E+03 0.  1.
     100001    1    1    2    0    0 -0.13083339524E+03  0.35019056226E+03  0.64874955833E+04  0.65000000000E+04  0.15050000000E+03 0. -1.
     100001    1    1    2    0    0  0.13083339524E+03 -0.35019056226E+03 -0.64874955833E+04  0.65000000000E+04  0.15050000000E+03 0.  1.
</event>
<event>
 4    1  0.5143956E-004  0.6500000E+04  0.7818608E-02  0.7223770E-01
         52   -1    0    0    0    0  0.00000000000E+00  0.00000000000E+00  0.64930732323E+04  0.65000000000E+04  0.30000000000E+03 0. -1.
        -52   -1    0    0    0    0 -0.00000000000E+00 -0.00000000000E+00 -0.64930732323E+04  0.65000000000E+04  0.30000000000E+03 0.  1.
     100001    1    1    2    0    0  0.10803220746E+04 -0.10808505275E+04 -0.63160126743E+04  0.65000000000E+04  0.15050000000E+03 0.  1.
     100001    1    1    2    0    0 -0.10803220746E+04  0.10808505275E+04  0.63160126743E+04  0.65000000000E+04  0.15050000000E+03 0. -1.
</event>
<event>
 4    1  0.5143956E-004  0.6500000E+04  0.7818608E-02  0.7223770E-01
         52   -1    0    0    0    0  0.00000000000E+00  0.00000000000E+00  0.64930732323E+04  0.65000000000E+04  0.30000000000E+03 0.  1.
        -52   -1    0    0    0    0 -0.00000000000E+00 -0.00000000000E+00 -0.64930732323E+04  0.65000000000E+04  0.30000000000E+03 0. -1.
     100001    1    1    2    0    0  0.22555876347E+04  0.93134088310E+03  0.60226471200E+04  0.65000000000E+04  0.15050000000E+03 0.  1.
     100001    1    1    2    0    0 -0.22555876347E+04 -0.93134088310E+03 -0.60226471200E+04  0.65000000000E+04  0.15050000000E+03 0. -1.
</event>
<event>
 4    1  0.5143956E-004  0.6500000E+04  0.7818608E-02  0.7223770E-01
         52   -1    0    0    0    0  0.00000000000E+00  0.00000000000E+00  0.64930732323E+04  0.65000000000E+04  0.30000000000E+03 0. -1.
        -52   -1    0    0    0    0 -0.00000000000E+00 -0.00000000000E+00 -0.64930732323E+04  0.65000000000E+04  0.30000000000E+03 0.  1.
     100001    1    1    2    0    0 -0.27978872718E+04 -0.83466987166E+03 -0.58053856693E+04  0.65000000000E+04  0.15050000000E+03 0.  1.
     100001    1    1    2    0    0  0.27978872718E+04  0.83466987166E+03  0.58053856693E+04  0.65000000000E+04  0.15050000000E+03 0. -1.
</event>
<event>
 4    1  0.5143956E-004  0.6500000E+04  0.7818608E-02  0.7223770E-01
         52   -1    0    0    0    0  0.00000000000E+00  0.00000000000E+00  0.64930732323E+04  0.65000000000E+04  0.30000000000E+03 0.  1.
        -52   -1    0    0    0    0 -0.00000000000E+00 -0.00000000000E+00 -0.64930732323E+04  0.65000000000E+04  0.30000000000E+03 0. -1.
     100001    1    1    2    0    0 -0.11482857306E+04  0.93401528668E+03 -0.63274327397E+04  0.65000000000E+04  0.15050000000E+03 0. -1.
     100001    1    1    2    0    0  0.11482857306E+04 -0.93401528668E+03  0.63274327397E+04  0.65000000000E+04  0.15050000000E+03 0.  1.
</event>
<event>
 4    1  0.5143956E-004  0.6500000E+04  0.7818608E-02  0.7223770E-01
         52   -1    0    0    0    0  0.00000000000E+00  0.00000000000E+00  0.64930732323E+04  0.65000000000E+04  0.30000000000E+03 0. -1.
        -52   -1    0    0    0    0 -0.00000000000E+00 -0.00000000000E+00 -0.64930732323E+04  0.65000000000E+04  0.30000000000E+03 0.  1.
     100001    1    1    2    0    0 -0.90726101843E+03 -0.86596198676E+03  0.63760753628E+04  0.65000000000E+04  0.15050000000E+03 0. -1.
     100001    1    1    2    0    0  0.90726101843E+03  0.86596198676E+03 -0.63760753628E+04  0.65000000000E+04  0.15050000000E+03 0.  1.
</event>
<event>
 4    1  0.5143956E-004  0.6500000E+04  0.7818608E-02  0.7223770E-01
         52   -1    0    0    0    0  0.00000000000E+00  0.00000000000E+00  0.64930732323E+04  0.65000000000E+04  0.30000000000E+03 0.  1.
        -52   -1    0    0    0    0 -0.00000000000E+00 -0.00000000000E+00 -0.64930732323E+04  0.65000000000E+04  0.30000000000E+03 0. -1.
     100001    1    1    2    0    0  0.59036834474E+03  0.64718507454E+03  0.64389414073E+04  0.65000000000E+04  0.15050000000E+03 0.  1.
     100001    1    1    2    0    0 -0.59036834474E+03 -0.64718507454E+03 -0.64389414073E+04  0.65000000000E+04  0.15050000000E+03 0. -1.
</event>
<event>
 4    1  0.5143956E-004  0.6500000E+04  0.7818608E-02  0.7223770E-01
         52   -1    0    0    0    0  0.00000000000E+00  0.00000000000E+00  0.64930732323E+04  0.65000000000E+04  0.30000000000E+03 0. -1.
        -52   -1    0    0    0    0 -0.00000000000E+00 -0.00000000000E+00 -0.64930732323E+04  0.65000000000E+04  0.30000000000E+03 0.  1.
     100001    1    1    2    0    0 -0.48232137784E+03 -0.64396782671E+02 -0.64800130318E+04  0.65000000000E+04  0.15050000000E+03 0.  1.
     100001    1    1    2    0    0  0.48232137784E+03  0.64396782671E+02  0.64800130318E+04  0.65000000000E+04  0.15050000000E+03 0. -1.
</event>
<event>
 4    1  0.5143956E-004  0.6500000E+04  0.7818608E-02  0.7223770E-01
         52   -1    0    0    0    0  0.00000000000E+00  0.00000000000E+00  0.64930732323E+04  0.65000000000E+04  0.30000000000E+03 0.  1.
        -52   -1    0    0    0    0 -0.00000000000E+00 -0.00000000000E+00 -0.64930732323E+04  0.65000000000E+04  0.30000000000E+03 0. -1.
     100001    1    1    2    0    0 -0.13022584099E+04  0.13144934859E+04 -0.62292519342E+04  0.65000000000E+04  0.15050000000E+03 0. -1.
     100001    1    1    2    0    0  0.13022584099E+04 -0.13144934859E+04  0.62292519342E+04  0.65000000000E+04  0.15050000000E+03 0.  1.
</event>
<event>
 4    1  0.5143956E-004  0.6500000E+04  0.7818608E-02  0.7223770E-01
         52   -1    0    0    0    0  0.00000000000E+00  0.00000000000E+00  0.64930732323E+04  0.65000000000E+04  0.30000000000E+03 0.  1.
        -52   -1    0    0    0    0 -0.00000000000E+00 -0.00000000000E+00 -0.64930732323E+04  0.65000000000E+04  0.30000000000E+03 0. -1.
     100001    1    1    2    0    0  0.73330076862E+03  0.77280907751E+03 -0.64103343019E+04  0.65000000000E+04  0.15050000000E+03 0. -1.
     100001    1    1    2    0    0 -0.73330076862E+03 -0.77280907751E+03  0.64103343019E+04  0.65000000000E+04  0.15050000000E+03 0.  1.
</event>
<event>
 4    1  0.5143956E-004  0.6500000E+04  0.7818608E-02  0.7223770E-01
         52   -1    0    0    0    0  0.00000000000E+00  0.00000000000E+00  0.64930732323E+04  0.65000000000E+04  0.30000000000E+03 0. -1.
        -52   -1    0    0    0    0 -0.00000000000E+00 -0.00000000000E+00 -0.64930732323E+04  0.65000000000E+04  0.30000000000E+03 0.  1.
     100001    1    1    2    0    0  0.14286503528E+04  0.16207244974E+04 -0.61285854830E+04  0.65000000000E+04  0.15050000000E+03 0.  1.
     100001    1    1    2    0    0 -0.14286503528E+04 -0.16207244974E+04  0.61285854830E+04  0.65000000000E+04  0.15050000000E+03 0. -1.
</event>
<event>
 4    1  0.5143956E-004  0.6500000E+04  0.7818608E-02  0.7223770E-01
         52   -1    0    0    0    0  0.00000000000E+00  0.00000000000E+00  0.64930732323E+04  0.65000000000E+04  0.30000000000E+03 0. -1.
        -52   -1    0    0    0    0 -0.00000000000E+00 -0.00000000000E+00 -0.64930732323E+04  0.65000000000E+04  0.30000000000E+03 0.  1.
     100001    1    1    2    0    0  0.91413015598E+03  0.18992953629E+03 -0.64308352940E+04  0.65000000000E+04  0.15050000000E+03 0.  1.
     100001    1    1    2    0    0 -0.91413015598E+03 -0.18992953629E+03  0.64308352940E+04  0.65000000000E+04  0.15050000000E+03 0. -1.
</event>
<event>
 4    1  0.5143956E-004  0.6500000E+04  0.7818608E-02  0.7223770E-01
         52   -1    0    0    0    0  0.00000000000E+00  0.00000000000E+00  0.64930732323E+04  0.65000000000E+04  0.30000000000E+03 0. -1.
        -52   -1    0    0    0    0 -0.00000000000E+00 -0.00000000000E+00 -0.64930732323E+04  0.65000000000E+04  0.30000000000E+03 0.  1.
     100001    1    1    2    0    0 -0.19350280415E+03  0.27994563605E+03 -0.64893402481E+04  0.65000000000E+04  0.15050000000E+03 0.  1.
     100001    1    1    2    0    0  0.19350280415E+03 -0.27994563605E+03  0.64893402481E+04  0.65000000000E+04  0.15050000000E+03 0. -1.
</event>
<event>
 4    1  0.9344226E-004  0.6500000E+04  0.7818608E-02  0.7223770E-01
         52   -1    0    0    0    0  0.00000000000E+00  0.00000000000E+00  0.64930732323E+04  0.65000000000E+04  0.30000000000E+03 0.  1.
        -52   -1    0    0    0    0 -0.00000000000E+00 -0.00000000000E+00 -0.64930732323E+04  0.65000000000E+04  0.30000000000E+03 0.  1.
     100001    1    1    2    0    0 -0.61798013454E+01  0.93437183561E+01 -0.64982477834E+04  0.65000000000E+04  0.15050000000E+03 0.  1.
     100001    1    1    2    0    0  0.61798013454E+01 -0.93437183561E+01  0.64982477834E+04  0.65000000000E+04  0.15050000000E+03 0.  1.
</event>
<event>
 4    1  0.5143956E-004  0.6500000E+04  0.7818608E-02  0.7223770E-01
         52   -1    0    0    0    0  0.00000000000E+00  0.00000000000E+00  0.64930732323E+04  0.65000000000E+04  0.30000000000E+03 0.  1.
        -52   -1    0    0    0    0 -0.00000000000E+00 -0.00000000000E+00 -0.64930732323E+04  0.65000000000E+04  0.30000000000E+03 0. -1.
     100001    1    1    2    0    0  0.47804086411E+02 -0.37621251893E+03 -0.64871818735E+04  0.65000000000E+04  0.15050000000E+03 0. -1.
     100001    1    1    2    0    0 -0.47804086411E+02  0.37621251893E+03  0.64871818735E+04  0.65000000000E+04  0.15050000000E+03 0.  1.
</event>
<event>
 4    1  0.5936295E-004  0.6500000E+04  0.7818608E-02  0.7223770E-01
         52   -1    0    0    0    0  0.00000000000E+00  0.00000000000E+00  0.64930732323E+04  0.65000000000E+04  0.30000000000E+03 0.  1.
        -52   -1    0    0    0    0 -0.00000000000E+00 -0.00000000000E+00 -0.64930732323E+04  0.65000000000E+04  0.30000000000E+03 0.  1.
     100001    1    1    2    0    0 -0.17752928120E+03 -0.12974562497E+03  0.64945361018E+04  0.65000000000E+04  0.15050000000E+03 0.  1.
     100001    1    1    2    0    0  0.17752928120E+03  0.12974562497E+03 -0.64945361018E+04  0.65000000000E+04  0.15050000000E+03 0.  1.
</event>
<event>
 4    1  0.5143956E-004  0.6500000E+04  0.7818608E-02  0.7223770E-01
         52   -1    0    0    0    0  0.00000000000E+00  0.00000000000E+00  0.64930732323E+04  0.65000000000E+04  0.30000000000E+03 0. -1.
        -52   -1    0    0    0    0 -0.00000000000E+00 -0.00000000000E+00 -0.64930732323E+04  0.65000000000E+04  0.30000000000E+03 0.  1.
     100001    1    1    2    0    0 -0.22158799760E+03 -0.29372381356E+03  0.64878328300E+04  0.65000000000E+04  0.15050000000E+03 0. -1.
     100001    1    1    2    0    0  0.22158799760E+03  0.29372381356E+03 -0.64878328300E+04  0.65000000000E+04  0.15050000000E+03 0.  1.
</event>
<event>
 4    1  0.5143956E-004  0.6500000E+04  0.7818608E-02  0.7223770E-01
         52   -1    0    0    0    0  0.00000000000E+00  0.00000000000E+00  0.64930732323E+04  0.65000000000E+04  0.30000000000E+03 0.  1.
        -52   -1    0    0    0    0 -0.00000000000E+00 -0.00000000000E+00 -0.64930732323E+04  0.65000000000E+04  0.30000000000E+03 0. -1.
     100001    1    1    2    0    0 -0.43194925807E+04  0.45982125118E+04  0.15574900616E+04  0.65000000000E+04  0.15050000000E+03 0. -1.
     100001    1    1    2    0    0  0.43194925807E+04 -0.45982125118E+04 -0.15574900616E+04  0.65000000000E+04  0.15050000000E+03 0.  1.
</event>
<event>
 4    1  0.5143956E-004  0.6500000E+04  0.7818608E-02  0.7223770E-01
         52   -1    0    0    0    0  0.00000000000E+00  0.00000000000E+00  0.64930732323E+04  0.65000000000E+04  0.30000000000E+03 0.  1.
        -52   -1    0    0    0    0 -0.00000000000E+00 -0.00000000000E+00 -0.64930732323E+04  0.65000000000E+04  0.30000000000E+03 0. -1.
     100001    1    1    2    0    0  0.36488621393E+04 -0.41099175057E+01 -0.53770938198E+04  0.65000000000E+04  0.15050000000E+03 0. -1.
     100001    1    1    2    0    0 -0.36488621393E+04  0.41099175057E+01  0.53770938198E+04  0.65000000000E+04  0.15050000000E+03 0.  1.
</event>
<event>
 4    1  0.5143956E-004  0.6500000E+04  0.7818608E-02  0.7223770E-01
         52   -1    0    0    0    0  0.00000000000E+00  0.00000000000E+00  0.64930732323E+04  0.65000000000E+04  0.30000000000E+03 0.  1.
        -52   -1    0    0    0    0 -0.00000000000E+00 -0.00000000000E+00 -0.64930732323E+04  0.65000000000E+04  0.30000000000E+03 0.  1.
     100001    1    1    2    0    0  0.44351949957E+03  0.13543828320E+03  0.64816893380E+04  0.65000000000E+04  0.15050000000E+03 0.  1.
     100001    1    1    2    0    0 -0.44351949957E+03 -0.13543828320E+03 -0.64816893380E+04  0.65000000000E+04  0.15050000000E+03 0.  1.
</event>
<event>
 4    1  0.5143956E-004  0.6500000E+04  0.7818608E-02  0.7223770E-01
         52   -1    0    0    0    0  0.00000000000E+00  0.00000000000E+00  0.64930732323E+04  0.65000000000E+04  0.30000000000E+03 0. -1.
        -52   -1    0    0    0    0 -0.00000000000E+00 -0.00000000000E+00 -0.64930732323E+04  0.65000000000E+04  0.30000000000E+03 0.  1.
     100001    1    1    2    0    0 -0.12024050762E+04  0.34828531742E+04 -0.53526914304E+04  0.65000000000E+04  0.15050000000E+03 0.  1.
     100001    1    1    2    0    0  0.12024050762E+04 -0.34828531742E+04  0.53526914304E+04  0.65000000000E+04  0.15050000000E+03 0. -1.
</event>
<event>
 4    1  0.5143956E-004  0.6500000E+04  0.7818608E-02  0.7223770E-01
         52   -1    0    0    0    0  0.00000000000E+00  0.00000000000E+00  0.64930732323E+04  0.65000000000E+04  0.30000000000E+03 0. -1.
        -52   -1    0    0    0    0 -0.00000000000E+00 -0.00000000000E+00 -0.64930732323E+04  0.65000000000E+04  0.30000000000E+03 0.  1.
     100001    1    1    2    0    0  0.31355075318E+03  0.12789860411E+04  0.63634291370E+04  0.65000000000E+04  0.15050000000E+03 0. -1.
     100001    1    1    2    0    0 -0.31355075318E+03 -0.12789860411E+04 -0.63634291370E+04  0.65000000000E+04  0.15050000000E+03 0.  1.
</event>
<event>
 4    1  0.5143956E-004  0.6500000E+04  0.7818608E-02  0.7223770E-01
         52   -1    0    0    0    0  0.00000000000E+00  0.00000000000E+00  0.64930732323E+04  0.65000000000E+04  0.30000000000E+03 0. -1.
        -52   -1    0    0    0    0 -0.00000000000E+00 -0.00000000000E+00 -0.64930732323E+04  0.65000000000E+04  0.30000000000E+03 0.  1.
     100001    1    1    2    0    0  0.24401585533E+04  0.20417219864E+04 -0.56660698297E+04  0.65000000000E+04  0.15050000000E+03 0.  1.
     100001    1    1    2    0    0 -0.24401585533E+04 -0.20417219864E+04  0.56660698297E+04  0.65000000000E+04  0.15050000000E+03 0. -1.
</event>
<event>
 4    1  0.5143956E-004  0.6500000E+04  0.7818608E-02  0.7223770E-01
         52   -1    0    0    0    0  0.00000000000E+00  0.00000000000E+00  0.64930732323E+04  0.65000000000E+04  0.30000000000E+03 0.  1.
        -52   -1    0    0    0    0 -0.00000000000E+00 -0.00000000000E+00 -0.64930732323E+04  0.65000000000E+04  0.30000000000E+03 0. -1.
     100001    1    1    2    0    0  0.29054259307E+03  0.12169447274E+03  0.64906182454E+04  0.65000000000E+04  0.15050000000E+03 0.  1.
     100001    1    1    2    0    0 -0.29054259307E+03 -0.12169447274E+03 -0.64906182454E+04  0.65000000000E+04  0.15050000000E+03 0. -1.
</event>
<event>
 4    1  0.5143956E-004  0.6500000E+04  0.7818608E-02  0.7223770E-01
         52   -1    0    0    0    0  0.00000000000E+00  0.00000000000E+00  0.64930732323E+04  0.65000000000E+04  0.30000000000E+03 0.  1.
        -52   -1    0    0    0    0 -0.00000000000E+00 -0.00000000000E+00 -0.64930732323E+04  0.65000000000E+04  0.30000000000E+03 0. -1.
     100001    1    1    2    0    0  0.35272678612E+04 -0.19040285898E+04  0.51147244612E+04  0.65000000000E+04  0.15050000000E+03 0.  1.
     100001    1    1    2    0    0 -0.35272678612E+04  0.19040285898E+04 -0.51147244612E+04  0.65000000000E+04  0.15050000000E+03 0. -1.
</event>
<event>
 4    1  0.5143956E-004  0.6500000E+04  0.7818608E-02  0.7223770E-01
         52   -1    0    0    0    0  0.00000000000E+00  0.00000000000E+00  0.64930732323E+04  0.65000000000E+04  0.30000000000E+03 0. -1.
        -52   -1    0    0    0    0 -0.00000000000E+00 -0.00000000000E+00 -0.64930732323E+04  0.65000000000E+04  0.30000000000E+03 0.  1.
     100001    1    1    2    0    0 -0.12973890168E+04 -0.49340290267E+03 -0.63482820562E+04  0.65000000000E+04  0.15050000000E+03 0.  1.
     100001    1    1    2    0    0  0.12973890168E+04  0.49340290267E+03  0.63482820562E+04  0.65000000000E+04  0.15050000000E+03 0. -1.
</event>
<event>
 4    1  0.5143956E-004  0.6500000E+04  0.7818608E-02  0.7223770E-01
         52   -1    0    0    0    0  0.00000000000E+00  0.00000000000E+00  0.64930732323E+04  0.65000000000E+04  0.30000000000E+03 0. -1.
        -52   -1    0    0    0    0 -0.00000000000E+00 -0.00000000000E+00 -0.64930732323E+04  0.65000000000E+04  0.30000000000E+03 0.  1.
     100001    1    1    2    0    0  0.51473331946E+03 -0.14785643112E+04  0.63068412805E+04  0.65000000000E+04  0.15050000000E+03 0. -1.
     100001    1    1    2    0    0 -0.51473331946E+03  0.14785643112E+04 -0.63068412805E+04  0.65000000000E+04  0.15050000000E+03 0.  1.
</event>
<event>
 4    1  0.5143956E-004  0.6500000E+04  0.7818608E-02  0.7223770E-01
         52   -1    0    0    0    0  0.00000000000E+00  0.00000000000E+00  0.64930732323E+04  0.65000000000E+04  0.30000000000E+03 0.  1.
        -52   -1    0    0    0    0 -0.00000000000E+00 -0.00000000000E+00 -0.64930732323E+04  0.65000000000E+04  0.30000000000E+03 0. -1.
     100001    1    1    2    0    0 -0.63522419642E+04 -0.98627559514E-01 -0.13698072010E+04  0.65000000000E+04  0.15050000000E+03 0.  1.
     100001    1    1    2    0    0  0.63522419642E+04  0.98627559514E-01  0.13698072010E+04  0.65000000000E+04  0.15050000000E+03 0. -1.
</event>
<event>
 4    1  0.5143956E-004  0.6500000E+04  0.7818608E-02  0.7223770E-01
         52   -1    0    0    0    0  0.00000000000E+00  0.00000000000E+00  0.64930732323E+04  0.65000000000E+04  0.30000000000E+03 0.  1.
        -52   -1    0    0    0    0 -0.00000000000E+00 -0.00000000000E+00 -0.64930732323E+04  0.65000000000E+04  0.30000000000E+03 0. -1.
     100001    1    1    2    0    0  0.18438106633E+04 -0.31343352892E+04  0.53855040881E+04  0.65000000000E+04  0.15050000000E+03 0.  1.
     100001    1    1    2    0    0 -0.18438106633E+04  0.31343352892E+04 -0.53855040881E+04  0.65000000000E+04  0.15050000000E+03 0. -1.
</event>
<event>
 4    1  0.5143956E-004  0.6500000E+04  0.7818608E-02  0.7223770E-01
         52   -1    0    0    0    0  0.00000000000E+00  0.00000000000E+00  0.64930732323E+04  0.65000000000E+04  0.30000000000E+03 0.  1.
        -52   -1    0    0    0    0 -0.00000000000E+00 -0.00000000000E+00 -0.64930732323E+04  0.65000000000E+04  0.30000000000E+03 0. -1.
     100001    1    1    2    0    0 -0.12407648584E+04  0.14956695752E+04 -0.62008729094E+04  0.65000000000E+04  0.15050000000E+03 0. -1.
     100001    1    1    2    0    0  0.12407648584E+04 -0.14956695752E+04  0.62008729094E+04  0.65000000000E+04  0.15050000000E+03 0.  1.
</event>
<event>
 4    1  0.5143956E-004  0.6500000E+04  0.7818608E-02  0.7223770E-01
         52   -1    0    0    0    0  0.00000000000E+00  0.00000000000E+00  0.64930732323E+04  0.65000000000E+04  0.30000000000E+03 0. -1.
        -52   -1    0    0    0    0 -0.00000000000E+00 -0.00000000000E+00 -0.64930732323E+04  0.65000000000E+04  0.30000000000E+03 0.  1.
     100001    1    1    2    0    0 -0.18660968526E+04  0.23670916635E+04 -0.57569010190E+04  0.65000000000E+04  0.15050000000E+03 0.  1.
     100001    1    1    2    0    0  0.18660968526E+04 -0.23670916635E+04  0.57569010190E+04  0.65000000000E+04  0.15050000000E+03 0. -1.
</event>
<event>
 4    1  0.5143956E-004  0.6500000E+04  0.7818608E-02  0.7223770E-01
         52   -1    0    0    0    0  0.00000000000E+00  0.00000000000E+00  0.64930732323E+04  0.65000000000E+04  0.30000000000E+03 0.  1.
        -52   -1    0    0    0    0 -0.00000000000E+00 -0.00000000000E+00 -0.64930732323E+04  0.65000000000E+04  0.30000000000E+03 0. -1.
     100001    1    1    2    0    0 -0.55047259571E+03 -0.69643700043E+03 -0.64373368077E+04  0.65000000000E+04  0.15050000000E+03 0. -1.
     100001    1    1    2    0    0  0.55047259571E+03  0.69643700043E+03  0.64373368077E+04  0.65000000000E+04  0.15050000000E+03 0.  1.
</event>
<event>
 4    1  0.5143956E-004  0.6500000E+04  0.7818608E-02  0.7223770E-01
         52   -1    0    0    0    0  0.00000000000E+00  0.00000000000E+00  0.64930732323E+04  0.65000000000E+04  0.30000000000E+03 0. -1.
        -52   -1    0    0    0    0 -0.00000000000E+00 -0.00000000000E+00 -0.64930732323E+04  0.65000000000E+04  0.30000000000E+03 0.  1.
     100001    1    1    2    0    0  0.44948963184E+03 -0.21231697520E+04  0.61251497145E+04  0.65000000000E+04  0.15050000000E+03 0. -1.
     100001    1    1    2    0    0 -0.44948963184E+03  0.21231697520E+04 -0.61251497145E+04  0.65000000000E+04  0.15050000000E+03 0.  1.
</event>
<event>
 4    1  0.5143956E-004  0.6500000E+04  0.7818608E-02  0.7223770E-01
         52   -1    0    0    0    0  0.00000000000E+00  0.00000000000E+00  0.64930732323E+04  0.65000000000E+04  0.30000000000E+03 0. -1.
        -52   -1    0    0    0    0 -0.00000000000E+00 -0.00000000000E+00 -0.64930732323E+04  0.65000000000E+04  0.30000000000E+03 0.  1.
     100001    1    1    2    0    0  0.56105349337E+04 -0.17860041015E+04 -0.27494430085E+04  0.65000000000E+04  0.15050000000E+03 0.  1.
     100001    1    1    2    0    0 -0.56105349337E+04  0.17860041015E+04  0.27494430085E+04  0.65000000000E+04  0.15050000000E+03 0. -1.
</event>
<event>
 4    1  0.5143956E-004  0.6500000E+04  0.7818608E-02  0.7223770E-01
         52   -1    0    0    0    0  0.00000000000E+00  0.00000000000E+00  0.64930732323E+04  0.65000000000E+04  0.30000000000E+03 0.  1.
        -52   -1    0    0    0    0 -0.00000000000E+00 -0.00000000000E+00 -0.64930732323E+04  0.65000000000E+04  0.30000000000E+03 0. -1.
     100001    1    1    2    0    0 -0.62107108770E+03 -0.60037774161E+03  0.64405874749E+04  0.65000000000E+04  0.15050000000E+03 0.  1.
     100001    1    1    2    0    0  0.62107108770E+03  0.60037774161E+03 -0.64405874749E+04  0.65000000000E+04  0.15050000000E+03 0. -1.
</event>
<event>
 4    1  0.5143956E-004  0.6500000E+04  0.7818608E-02  0.7223770E-01
         52   -1    0    0    0    0  0.00000000000E+00  0.00000000000E+00  0.64930732323E+04  0.65000000000E+04  0.30000000000E+03 0.  1.
        -52   -1    0    0    0    0 -0.00000000000E+00 -0.00000000000E+00 -0.64930732323E+04  0.65000000000E+04  0.30000000000E+03 0. -1.
     100001    1    1    2    0    0  0.40539145523E+04  0.12715252906E+04 -0.49169451887E+04  0.65000000000E+04  0.15050000000E+03 0. -1.
     100001    1    1    2    0    0 -0.40539145523E+04 -0.12715252906E+04  0.49169451887E+04  0.65000000000E+04  0.15050000000E+03 0.  1.
</event>
<event>
 4    1  0.5143956E-004  0.6500000E+04  0.7818608E-02  0.7223770E-01
         52   -1    0    0    0    0  0.00000000000E+00  0.00000000000E+00  0.64930732323E+04  0.65000000000E+04  0.30000000000E+03 0. -1.
        -52   -1    0    0    0    0 -0.00000000000E+00 -0.00000000000E+00 -0.64930732323E+04  0.65000000000E+04  0.30000000000E+03 0. -1.
     100001    1    1    2    0    0 -0.12724870280E+03  0.84964829813E+02 -0.64964558411E+04  0.65000000000E+04  0.15050000000E+03 0. -1.
     100001    1    1    2    0    0  0.12724870280E+03 -0.84964829813E+02  0.64964558411E+04  0.65000000000E+04  0.15050000000E+03 0. -1.
</event>
<event>
 4    1  0.5143956E-004  0.6500000E+04  0.7818608E-02  0.7223770E-01
         52   -1    0    0    0    0  0.00000000000E+00  0.00000000000E+00  0.64930732323E+04  0.65000000000E+04  0.30000000000E+03 0.  1.
        -52   -1    0    0    0    0 -0.00000000000E+00 -0.00000000000E+00 -0.64930732323E+04  0.65000000000E+04  0.30000000000E+03 0. -1.
     100001    1    1    2    0    0  0.25189472916E+03 -0.30605298980E+04  0.57268713569E+04  0.65000000000E+04  0.15050000000E+03 0.  1.
     100001    1    1    2    0    0 -0.25189472916E+03  0.30605298980E+04 -0.57268713569E+04  0.65000000000E+04  0.15050000000E+03 0. -1.
</event>
<event>
 4    1  0.5143956E-004  0.6500000E+04  0.7818608E-02  0.7223770E-01
         52   -1    0    0    0    0  0.00000000000E+00  0.00000000000E+00  0.64930732323E+04  0.65000000000E+04  0.30000000000E+03 0.  1.
        -52   -1    0    0    0    0 -0.00000000000E+00 -0.00000000000E+00 -0.64930732323E+04  0.65000000000E+04  0.30000000000E+03 0. -1.
     100001    1    1    2    0    0  0.70947379158E+03  0.77870275124E+02  0.64589420890E+04  0.65000000000E+04  0.15050000000E+03 0.  1.
     100001    1    1    2    0    0 -0.70947379158E+03 -0.77870275124E+02 -0.64589420890E+04  0.65000000000E+04  0.15050000000E+03 0. -1.
</event>
<event>
 4    1  0.5143956E-004  0.6500000E+04  0.7818608E-02  0.7223770E-01
         52   -1    0    0    0    0  0.00000000000E+00  0.00000000000E+00  0.64930732323E+04  0.65000000000E+04  0.30000000000E+03 0. -1.
        -52   -1    0    0    0    0 -0.00000000000E+00 -0.00000000000E+00 -0.64930732323E+04  0.65000000000E+04  0.30000000000E+03 0.  1.
     100001    1    1    2    0    0 -0.21780386720E+04 -0.33779154365E+04  0.51061908109E+04  0.65000000000E+04  0.15050000000E+03 0. -1.
     100001    1    1    2    0    0  0.21780386720E+04  0.33779154365E+04 -0.51061908109E+04  0.65000000000E+04  0.15050000000E+03 0.  1.
</event>
<event>
 4    1  0.5143956E-004  0.6500000E+04  0.7818608E-02  0.7223770E-01
         52   -1    0    0    0    0  0.00000000000E+00  0.00000000000E+00  0.64930732323E+04  0.65000000000E+04  0.30000000000E+03 0. -1.
        -52   -1    0    0    0    0 -0.00000000000E+00 -0.00000000000E+00 -0.64930732323E+04  0.65000000000E+04  0.30000000000E+03 0.  1.
     100001    1    1    2    0    0 -0.13758241024E+04  0.26919865683E+04  0.57521879407E+04  0.65000000000E+04  0.15050000000E+03 0. -1.
     100001    1    1    2    0    0  0.13758241024E+04 -0.26919865683E+04 -0.57521879407E+04  0.65000000000E+04  0.15050000000E+03 0.  1.
</event>
<event>
 4    1  0.5143956E-004  0.6500000E+04  0.7818608E-02  0.7223770E-01
         52   -1    0    0    0    0  0.00000000000E+00  0.00000000000E+00  0.64930732323E+04  0.65000000000E+04  0.30000000000E+03 0.  1.
        -52   -1    0    0    0    0 -0.00000000000E+00 -0.00000000000E+00 -0.64930732323E+04  0.65000000000E+04  0.30000000000E+03 0. -1.
     100001    1    1    2    0    0  0.16034066396E+03 -0.46471508250E+03 -0.64796358319E+04  0.65000000000E+04  0.15050000000E+03 0. -1.
     100001    1    1    2    0    0 -0.16034066396E+03  0.46471508250E+03  0.64796358319E+04  0.65000000000E+04  0.15050000000E+03 0.  1.
</event>
<event>
 4    1  0.5143956E-004  0.6500000E+04  0.7818608E-02  0.7223770E-01
         52   -1    0    0    0    0  0.00000000000E+00  0.00000000000E+00  0.64930732323E+04  0.65000000000E+04  0.30000000000E+03 0.  1.
        -52   -1    0    0    0    0 -0.00000000000E+00 -0.00000000000E+00 -0.64930732323E+04  0.65000000000E+04  0.30000000000E+03 0. -1.
     100001    1    1    2    0    0 -0.57633782295E+03  0.26172701210E+02  0.64725960366E+04  0.65000000000E+04  0.15050000000E+03 0.  1.
     100001    1    1    2    0    0  0.57633782295E+03 -0.26172701210E+02 -0.64725960366E+04  0.65000000000E+04  0.15050000000E+03 0. -1.
</event>
<event>
 4    1  0.5143956E-004  0.6500000E+04  0.7818608E-02  0.7223770E-01
         52   -1    0    0    0    0  0.00000000000E+00  0.00000000000E+00  0.64930732323E+04  0.65000000000E+04  0.30000000000E+03 0. -1.
        -52   -1    0    0    0    0 -0.00000000000E+00 -0.00000000000E+00 -0.64930732323E+04  0.65000000000E+04  0.30000000000E+03 0.  1.
     100001    1    1    2    0    0  0.10660727267E+03 -0.62503951828E+04 -0.17744139028E+04  0.65000000000E+04  0.15050000000E+03 0.  1.
     100001    1    1    2    0    0 -0.10660727267E+03  0.62503951828E+04  0.17744139028E+04  0.65000000000E+04  0.15050000000E+03 0. -1.
</event>
<event>
 4    1  0.5143956E-004  0.6500000E+04  0.7818608E-02  0.7223770E-01
         52   -1    0    0    0    0  0.00000000000E+00  0.00000000000E+00  0.64930732323E+04  0.65000000000E+04  0.30000000000E+03 0.  1.
        -52   -1    0    0    0    0 -0.00000000000E+00 -0.00000000000E+00 -0.64930732323E+04  0.65000000000E+04  0.30000000000E+03 0. -1.
     100001    1    1    2    0    0 -0.38442559038E+03 -0.10436711324E+04 -0.64023680996E+04  0.65000000000E+04  0.15050000000E+03 0. -1.
     100001    1    1    2    0    0  0.38442559038E+03  0.10436711324E+04  0.64023680996E+04  0.65000000000E+04  0.15050000000E+03 0.  1.
</event>
<event>
 4    1  0.5143956E-004  0.6500000E+04  0.7818608E-02  0.7223770E-01
         52   -1    0    0    0    0  0.00000000000E+00  0.00000000000E+00  0.64930732323E+04  0.65000000000E+04  0.30000000000E+03 0. -1.
        -52   -1    0    0    0    0 -0.00000000000E+00 -0.00000000000E+00 -0.64930732323E+04  0.65000000000E+04  0.30000000000E+03 0.  1.
     100001    1    1    2    0    0  0.61077575902E+03 -0.11657172224E+04 -0.63636000880E+04  0.65000000000E+04  0.15050000000E+03 0.  1.
     100001    1    1    2    0    0 -0.61077575902E+03  0.11657172224E+04  0.63636000880E+04  0.65000000000E+04  0.15050000000E+03 0. -1.
</event>
<event>
 4    1  0.5143956E-004  0.6500000E+04  0.7818608E-02  0.7223770E-01
         52   -1    0    0    0    0  0.00000000000E+00  0.00000000000E+00  0.64930732323E+04  0.65000000000E+04  0.30000000000E+03 0.  1.
        -52   -1    0    0    0    0 -0.00000000000E+00 -0.00000000000E+00 -0.64930732323E+04  0.65000000000E+04  0.30000000000E+03 0. -1.
     100001    1    1    2    0    0  0.23494747087E+03  0.62757499488E+03 -0.64636134678E+04  0.65000000000E+04  0.15050000000E+03 0. -1.
     100001    1    1    2    0    0 -0.23494747087E+03 -0.62757499488E+03  0.64636134678E+04  0.65000000000E+04  0.15050000000E+03 0.  1.
</event>
<event>
 4    1  0.5143956E-004  0.6500000E+04  0.7818608E-02  0.7223770E-01
         52   -1    0    0    0    0  0.00000000000E+00  0.00000000000E+00  0.64930732323E+04  0.65000000000E+04  0.30000000000E+03 0. -1.
        -52   -1    0    0    0    0 -0.00000000000E+00 -0.00000000000E+00 -0.64930732323E+04  0.65000000000E+04  0.30000000000E+03 0.  1.
     100001    1    1    2    0    0 -0.43354087510E+04 -0.10952440862E+04 -0.47150844217E+04  0.65000000000E+04  0.15050000000E+03 0.  1.
     100001    1    1    2    0    0  0.43354087510E+04  0.10952440862E+04  0.47150844217E+04  0.65000000000E+04  0.15050000000E+03 0. -1.
</event>
<event>
 4    1  0.5143956E-004  0.6500000E+04  0.7818608E-02  0.7223770E-01
         52   -1    0    0    0    0  0.00000000000E+00  0.00000000000E+00  0.64930732323E+04  0.65000000000E+04  0.30000000000E+03 0. -1.
        -52   -1    0    0    0    0 -0.00000000000E+00 -0.00000000000E+00 -0.64930732323E+04  0.65000000000E+04  0.30000000000E+03 0. -1.
     100001    1    1    2    0    0 -0.47188331977E+03 -0.57360346354E+03  0.64556684355E+04  0.65000000000E+04  0.15050000000E+03 0. -1.
     100001    1    1    2    0    0  0.47188331977E+03  0.57360346354E+03 -0.64556684355E+04  0.65000000000E+04  0.15050000000E+03 0. -1.
</event>
<event>
 4    1  0.5143956E-004  0.6500000E+04  0.7818608E-02  0.7223770E-01
         52   -1    0    0    0    0  0.00000000000E+00  0.00000000000E+00  0.64930732323E+04  0.65000000000E+04  0.30000000000E+03 0. -1.
        -52   -1    0    0    0    0 -0.00000000000E+00 -0.00000000000E+00 -0.64930732323E+04  0.65000000000E+04  0.30000000000E+03 0.  1.
     100001    1    1    2    0    0 -0.49030138138E+03  0.80729011701E+03  0.64292485543E+04  0.65000000000E+04  0.15050000000E+03 0. -1.
     100001    1    1    2    0    0  0.49030138138E+03 -0.80729011701E+03 -0.64292485543E+04  0.65000000000E+04  0.15050000000E+03 0.  1.
</event>
<event>
 4    1  0.5143956E-004  0.6500000E+04  0.7818608E-02  0.7223770E-01
         52   -1    0    0    0    0  0.00000000000E+00  0.00000000000E+00  0.64930732323E+04  0.65000000000E+04  0.30000000000E+03 0. -1.
        -52   -1    0    0    0    0 -0.00000000000E+00 -0.00000000000E+00 -0.64930732323E+04  0.65000000000E+04  0.30000000000E+03 0.  1.
     100001    1    1    2    0    0  0.56612511840E+04  0.24769807358E+03 -0.31806022143E+04  0.65000000000E+04  0.15050000000E+03 0.  1.
     100001    1    1    2    0    0 -0.56612511840E+04 -0.24769807358E+03  0.31806022143E+04  0.65000000000E+04  0.15050000000E+03 0. -1.
</event>
<event>
 4    1  0.5143956E-004  0.6500000E+04  0.7818608E-02  0.7223770E-01
         52   -1    0    0    0    0  0.00000000000E+00  0.00000000000E+00  0.64930732323E+04  0.65000000000E+04  0.30000000000E+03 0.  1.
        -52   -1    0    0    0    0 -0.00000000000E+00 -0.00000000000E+00 -0.64930732323E+04  0.65000000000E+04  0.30000000000E+03 0. -1.
     100001    1    1    2    0    0  0.43252554604E+04  0.99101565439E+03 -0.47473574676E+04  0.65000000000E+04  0.15050000000E+03 0. -1.
     100001    1    1    2    0    0 -0.43252554604E+04 -0.99101565439E+03  0.47473574676E+04  0.65000000000E+04  0.15050000000E+03 0.  1.
</event>
<event>
 4    1  0.5143956E-004  0.6500000E+04  0.7818608E-02  0.7223770E-01
         52   -1    0    0    0    0  0.00000000000E+00  0.00000000000E+00  0.64930732323E+04  0.65000000000E+04  0.30000000000E+03 0.  1.
        -52   -1    0    0    0    0 -0.00000000000E+00 -0.00000000000E+00 -0.64930732323E+04  0.65000000000E+04  0.30000000000E+03 0. -1.
     100001    1    1    2    0    0  0.11645635146E+04 -0.81363909524E+03 -0.63410671809E+04  0.65000000000E+04  0.15050000000E+03 0. -1.
     100001    1    1    2    0    0 -0.11645635146E+04  0.81363909524E+03  0.63410671809E+04  0.65000000000E+04  0.15050000000E+03 0.  1.
</event>
<event>
 4    1  0.5143956E-004  0.6500000E+04  0.7818608E-02  0.7223770E-01
         52   -1    0    0    0    0  0.00000000000E+00  0.00000000000E+00  0.64930732323E+04  0.65000000000E+04  0.30000000000E+03 0.  1.
        -52   -1    0    0    0    0 -0.00000000000E+00 -0.00000000000E+00 -0.64930732323E+04  0.65000000000E+04  0.30000000000E+03 0.  1.
     100001    1    1    2    0    0  0.29007676060E+03 -0.47362247798E+03 -0.64744796680E+04  0.65000000000E+04  0.15050000000E+03 0.  1.
     100001    1    1    2    0    0 -0.29007676060E+03  0.47362247798E+03  0.64744796680E+04  0.65000000000E+04  0.15050000000E+03 0.  1.
</event>
<event>
 4    1  0.5143956E-004  0.6500000E+04  0.7818608E-02  0.7223770E-01
         52   -1    0    0    0    0  0.00000000000E+00  0.00000000000E+00  0.64930732323E+04  0.65000000000E+04  0.30000000000E+03 0.  1.
        -52   -1    0    0    0    0 -0.00000000000E+00 -0.00000000000E+00 -0.64930732323E+04  0.65000000000E+04  0.30000000000E+03 0. -1.
     100001    1    1    2    0    0 -0.30028060394E+03 -0.37859364481E+03 -0.64802660563E+04  0.65000000000E+04  0.15050000000E+03 0. -1.
     100001    1    1    2    0    0  0.30028060394E+03  0.37859364481E+03  0.64802660563E+04  0.65000000000E+04  0.15050000000E+03 0.  1.
</event>
<event>
 4    1  0.5143956E-004  0.6500000E+04  0.7818608E-02  0.7223770E-01
         52   -1    0    0    0    0  0.00000000000E+00  0.00000000000E+00  0.64930732323E+04  0.65000000000E+04  0.30000000000E+03 0. -1.
        -52   -1    0    0    0    0 -0.00000000000E+00 -0.00000000000E+00 -0.64930732323E+04  0.65000000000E+04  0.30000000000E+03 0.  1.
     100001    1    1    2    0    0 -0.72922566274E+03  0.97803678773E+03  0.63827128813E+04  0.65000000000E+04  0.15050000000E+03 0. -1.
     100001    1    1    2    0    0  0.72922566274E+03 -0.97803678773E+03 -0.63827128813E+04  0.65000000000E+04  0.15050000000E+03 0.  1.
</event>
<event>
 4    1  0.5143956E-004  0.6500000E+04  0.7818608E-02  0.7223770E-01
         52   -1    0    0    0    0  0.00000000000E+00  0.00000000000E+00  0.64930732323E+04  0.65000000000E+04  0.30000000000E+03 0. -1.
        -52   -1    0    0    0    0 -0.00000000000E+00 -0.00000000000E+00 -0.64930732323E+04  0.65000000000E+04  0.30000000000E+03 0.  1.
     100001    1    1    2    0    0  0.89500969002E+02 -0.97829750766E+03  0.64235716944E+04  0.65000000000E+04  0.15050000000E+03 0. -1.
     100001    1    1    2    0    0 -0.89500969002E+02  0.97829750766E+03 -0.64235716944E+04  0.65000000000E+04  0.15050000000E+03 0.  1.
</event>
<event>
 4    1  0.5143956E-004  0.6500000E+04  0.7818608E-02  0.7223770E-01
         52   -1    0    0    0    0  0.00000000000E+00  0.00000000000E+00  0.64930732323E+04  0.65000000000E+04  0.30000000000E+03 0.  1.
        -52   -1    0    0    0    0 -0.00000000000E+00 -0.00000000000E+00 -0.64930732323E+04  0.65000000000E+04  0.30000000000E+03 0. -1.
     100001    1    1    2    0    0  0.19952389394E+04 -0.16329167628E+04 -0.59648934752E+04  0.65000000000E+04  0.15050000000E+03 0. -1.
     100001    1    1    2    0    0 -0.19952389394E+04  0.16329167628E+04  0.59648934752E+04  0.65000000000E+04  0.15050000000E+03 0.  1.
</event>
<event>
 4    1  0.5143956E-004  0.6500000E+04  0.7818608E-02  0.7223770E-01
         52   -1    0    0    0    0  0.00000000000E+00  0.00000000000E+00  0.64930732323E+04  0.65000000000E+04  0.30000000000E+03 0. -1.
        -52   -1    0    0    0    0 -0.00000000000E+00 -0.00000000000E+00 -0.64930732323E+04  0.65000000000E+04  0.30000000000E+03 0.  1.
     100001    1    1    2    0    0  0.35817796292E+03 -0.39805964526E+04 -0.51238569631E+04  0.65000000000E+04  0.15050000000E+03 0.  1.
     100001    1    1    2    0    0 -0.35817796292E+03  0.39805964526E+04  0.51238569631E+04  0.65000000000E+04  0.15050000000E+03 0. -1.
</event>
<event>
 4    1  0.5143956E-004  0.6500000E+04  0.7818608E-02  0.7223770E-01
         52   -1    0    0    0    0  0.00000000000E+00  0.00000000000E+00  0.64930732323E+04  0.65000000000E+04  0.30000000000E+03 0.  1.
        -52   -1    0    0    0    0 -0.00000000000E+00 -0.00000000000E+00 -0.64930732323E+04  0.65000000000E+04  0.30000000000E+03 0. -1.
     100001    1    1    2    0    0 -0.11058167998E+04  0.12324431737E+04  0.62837570592E+04  0.65000000000E+04  0.15050000000E+03 0.  1.
     100001    1    1    2    0    0  0.11058167998E+04 -0.12324431737E+04 -0.62837570592E+04  0.65000000000E+04  0.15050000000E+03 0. -1.
</event>
<event>
 4    1  0.5143956E-004  0.6500000E+04  0.7818608E-02  0.7223770E-01
         52   -1    0    0    0    0  0.00000000000E+00  0.00000000000E+00  0.64930732323E+04  0.65000000000E+04  0.30000000000E+03 0.  1.
        -52   -1    0    0    0    0 -0.00000000000E+00 -0.00000000000E+00 -0.64930732323E+04  0.65000000000E+04  0.30000000000E+03 0. -1.
     100001    1    1    2    0    0  0.12706897092E+04  0.22308767339E+03  0.63689033046E+04  0.65000000000E+04  0.15050000000E+03 0.  1.
     100001    1    1    2    0    0 -0.12706897092E+04 -0.22308767339E+03 -0.63689033046E+04  0.65000000000E+04  0.15050000000E+03 0. -1.
</event>
<event>
 4    1  0.5143956E-004  0.6500000E+04  0.7818608E-02  0.7223770E-01
         52   -1    0    0    0    0  0.00000000000E+00  0.00000000000E+00  0.64930732323E+04  0.65000000000E+04  0.30000000000E+03 0.  1.
        -52   -1    0    0    0    0 -0.00000000000E+00 -0.00000000000E+00 -0.64930732323E+04  0.65000000000E+04  0.30000000000E+03 0.  1.
     100001    1    1    2    0    0  0.74656432443E+02 -0.52989267606E+03 -0.64761863715E+04  0.65000000000E+04  0.15050000000E+03 0.  1.
     100001    1    1    2    0    0 -0.74656432443E+02  0.52989267606E+03  0.64761863715E+04  0.65000000000E+04  0.15050000000E+03 0.  1.
</event>
<event>
 4    1  0.5143956E-004  0.6500000E+04  0.7818608E-02  0.7223770E-01
         52   -1    0    0    0    0  0.00000000000E+00  0.00000000000E+00  0.64930732323E+04  0.65000000000E+04  0.30000000000E+03 0.  1.
        -52   -1    0    0    0    0 -0.00000000000E+00 -0.00000000000E+00 -0.64930732323E+04  0.65000000000E+04  0.30000000000E+03 0. -1.
     100001    1    1    2    0    0  0.14585161401E+03 -0.10150226593E+03  0.64958274567E+04  0.65000000000E+04  0.15050000000E+03 0.  1.
     100001    1    1    2    0    0 -0.14585161401E+03  0.10150226593E+03 -0.64958274567E+04  0.65000000000E+04  0.15050000000E+03 0. -1.
</event>
<event>
 4    1  0.5143956E-004  0.6500000E+04  0.7818608E-02  0.7223770E-01
         52   -1    0    0    0    0  0.00000000000E+00  0.00000000000E+00  0.64930732323E+04  0.65000000000E+04  0.30000000000E+03 0.  1.
        -52   -1    0    0    0    0 -0.00000000000E+00 -0.00000000000E+00 -0.64930732323E+04  0.65000000000E+04  0.30000000000E+03 0. -1.
     100001    1    1    2    0    0  0.47965437124E+03 -0.28983092760E+04 -0.57962992309E+04  0.65000000000E+04  0.15050000000E+03 0. -1.
     100001    1    1    2    0    0 -0.47965437124E+03  0.28983092760E+04  0.57962992309E+04  0.65000000000E+04  0.15050000000E+03 0.  1.
</event>
<event>
 4    1  0.5143956E-004  0.6500000E+04  0.7818608E-02  0.7223770E-01
         52   -1    0    0    0    0  0.00000000000E+00  0.00000000000E+00  0.64930732323E+04  0.65000000000E+04  0.30000000000E+03 0. -1.
        -52   -1    0    0    0    0 -0.00000000000E+00 -0.00000000000E+00 -0.64930732323E+04  0.65000000000E+04  0.30000000000E+03 0.  1.
     100001    1    1    2    0    0 -0.41059074922E+04  0.50108199558E+04 -0.51044763288E+03  0.65000000000E+04  0.15050000000E+03 0.  1.
     100001    1    1    2    0    0  0.41059074922E+04 -0.50108199558E+04  0.51044763288E+03  0.65000000000E+04  0.15050000000E+03 0. -1.
</event>
<event>
 4    1  0.5143956E-004  0.6500000E+04  0.7818608E-02  0.7223770E-01
         52   -1    0    0    0    0  0.00000000000E+00  0.00000000000E+00  0.64930732323E+04  0.65000000000E+04  0.30000000000E+03 0. -1.
        -52   -1    0    0    0    0 -0.00000000000E+00 -0.00000000000E+00 -0.64930732323E+04  0.65000000000E+04  0.30000000000E+03 0.  1.
     100001    1    1    2    0    0  0.12966425018E+03  0.31129467248E+03 -0.64895017189E+04  0.65000000000E+04  0.15050000000E+03 0.  1.
     100001    1    1    2    0    0 -0.12966425018E+03 -0.31129467248E+03  0.64895017189E+04  0.65000000000E+04  0.15050000000E+03 0. -1.
</event>
<event>
 4    1  0.5143956E-004  0.6500000E+04  0.7818608E-02  0.7223770E-01
         52   -1    0    0    0    0  0.00000000000E+00  0.00000000000E+00  0.64930732323E+04  0.65000000000E+04  0.30000000000E+03 0.  1.
        -52   -1    0    0    0    0 -0.00000000000E+00 -0.00000000000E+00 -0.64930732323E+04  0.65000000000E+04  0.30000000000E+03 0. -1.
     100001    1    1    2    0    0  0.57444585993E+03 -0.65631615166E+03 -0.64394573384E+04  0.65000000000E+04  0.15050000000E+03 0. -1.
     100001    1    1    2    0    0 -0.57444585993E+03  0.65631615166E+03  0.64394573384E+04  0.65000000000E+04  0.15050000000E+03 0.  1.
</event>
<event>
 4    1  0.5143956E-004  0.6500000E+04  0.7818608E-02  0.7223770E-01
         52   -1    0    0    0    0  0.00000000000E+00  0.00000000000E+00  0.64930732323E+04  0.65000000000E+04  0.30000000000E+03 0.  1.
        -52   -1    0    0    0    0 -0.00000000000E+00 -0.00000000000E+00 -0.64930732323E+04  0.65000000000E+04  0.30000000000E+03 0. -1.
     100001    1    1    2    0    0  0.17600559157E+03  0.34154676163E+04  0.55254821277E+04  0.65000000000E+04  0.15050000000E+03 0.  1.
     100001    1    1    2    0    0 -0.17600559157E+03 -0.34154676163E+04 -0.55254821277E+04  0.65000000000E+04  0.15050000000E+03 0. -1.
</event>
<event>
 4    1  0.5143956E-004  0.6500000E+04  0.7818608E-02  0.7223770E-01
         52   -1    0    0    0    0  0.00000000000E+00  0.00000000000E+00  0.64930732323E+04  0.65000000000E+04  0.30000000000E+03 0.  1.
        -52   -1    0    0    0    0 -0.00000000000E+00 -0.00000000000E+00 -0.64930732323E+04  0.65000000000E+04  0.30000000000E+03 0. -1.
     100001    1    1    2    0    0 -0.33790198736E+04 -0.56103703238E+03  0.55222107794E+04  0.65000000000E+04  0.15050000000E+03 0.  1.
     100001    1    1    2    0    0  0.33790198736E+04  0.56103703238E+03 -0.55222107794E+04  0.65000000000E+04  0.15050000000E+03 0. -1.
</event>
<event>
 4    1  0.5143956E-004  0.6500000E+04  0.7818608E-02  0.7223770E-01
         52   -1    0    0    0    0  0.00000000000E+00  0.00000000000E+00  0.64930732323E+04  0.65000000000E+04  0.30000000000E+03 0. -1.
        -52   -1    0    0    0    0 -0.00000000000E+00 -0.00000000000E+00 -0.64930732323E+04  0.65000000000E+04  0.30000000000E+03 0.  1.
     100001    1    1    2    0    0  0.13875108359E+04 -0.10571896294E+04 -0.62597534710E+04  0.65000000000E+04  0.15050000000E+03 0.  1.
     100001    1    1    2    0    0 -0.13875108359E+04  0.10571896294E+04  0.62597534710E+04  0.65000000000E+04  0.15050000000E+03 0. -1.
</event>
<event>
 4    1  0.6325816E-004  0.6500000E+04  0.7818608E-02  0.7223770E-01
         52   -1    0    0    0    0  0.00000000000E+00  0.00000000000E+00  0.64930732323E+04  0.65000000000E+04  0.30000000000E+03 0.  1.
        -52   -1    0    0    0    0 -0.00000000000E+00 -0.00000000000E+00 -0.64930732323E+04  0.65000000000E+04  0.30000000000E+03 0.  1.
     100001    1    1    2    0    0 -0.58587733618E+02  0.16327897913E+03  0.64959415948E+04  0.65000000000E+04  0.15050000000E+03 0.  1.
     100001    1    1    2    0    0  0.58587733618E+02 -0.16327897913E+03 -0.64959415948E+04  0.65000000000E+04  0.15050000000E+03 0.  1.
</event>
<event>
 4    1  0.5143956E-004  0.6500000E+04  0.7818608E-02  0.7223770E-01
         52   -1    0    0    0    0  0.00000000000E+00  0.00000000000E+00  0.64930732323E+04  0.65000000000E+04  0.30000000000E+03 0.  1.
        -52   -1    0    0    0    0 -0.00000000000E+00 -0.00000000000E+00 -0.64930732323E+04  0.65000000000E+04  0.30000000000E+03 0. -1.
     100001    1    1    2    0    0  0.44842042031E+04  0.64887162396E+03 -0.46581356818E+04  0.65000000000E+04  0.15050000000E+03 0. -1.
     100001    1    1    2    0    0 -0.44842042031E+04 -0.64887162396E+03  0.46581356818E+04  0.65000000000E+04  0.15050000000E+03 0.  1.
</event>
<event>
 4    1  0.5143956E-004  0.6500000E+04  0.7818608E-02  0.7223770E-01
         52   -1    0    0    0    0  0.00000000000E+00  0.00000000000E+00  0.64930732323E+04  0.65000000000E+04  0.30000000000E+03 0.  1.
        -52   -1    0    0    0    0 -0.00000000000E+00 -0.00000000000E+00 -0.64930732323E+04  0.65000000000E+04  0.30000000000E+03 0. -1.
     100001    1    1    2    0    0  0.12942503998E+04 -0.55341904770E+04  0.31503970252E+04  0.65000000000E+04  0.15050000000E+03 0. -1.
     100001    1    1    2    0    0 -0.12942503998E+04  0.55341904770E+04 -0.31503970252E+04  0.65000000000E+04  0.15050000000E+03 0.  1.
</event>
<event>
 4    1  0.5143956E-004  0.6500000E+04  0.7818608E-02  0.7223770E-01
         52   -1    0    0    0    0  0.00000000000E+00  0.00000000000E+00  0.64930732323E+04  0.65000000000E+04  0.30000000000E+03 0.  1.
        -52   -1    0    0    0    0 -0.00000000000E+00 -0.00000000000E+00 -0.64930732323E+04  0.65000000000E+04  0.30000000000E+03 0. -1.
     100001    1    1    2    0    0 -0.25761660303E+04  0.43686863034E+04 -0.40626713277E+04  0.65000000000E+04  0.15050000000E+03 0. -1.
     100001    1    1    2    0    0  0.25761660303E+04 -0.43686863034E+04  0.40626713277E+04  0.65000000000E+04  0.15050000000E+03 0.  1.
</event>
<event>
 4    1  0.5143956E-004  0.6500000E+04  0.7818608E-02  0.7223770E-01
         52   -1    0    0    0    0  0.00000000000E+00  0.00000000000E+00  0.64930732323E+04  0.65000000000E+04  0.30000000000E+03 0. -1.
        -52   -1    0    0    0    0 -0.00000000000E+00 -0.00000000000E+00 -0.64930732323E+04  0.65000000000E+04  0.30000000000E+03 0.  1.
     100001    1    1    2    0    0  0.37275324579E+04 -0.45607763707E+04 -0.27444799911E+04  0.65000000000E+04  0.15050000000E+03 0. -1.
     100001    1    1    2    0    0 -0.37275324579E+04  0.45607763707E+04  0.27444799911E+04  0.65000000000E+04  0.15050000000E+03 0.  1.
</event>
<event>
 4    1  0.5143956E-004  0.6500000E+04  0.7818608E-02  0.7223770E-01
         52   -1    0    0    0    0  0.00000000000E+00  0.00000000000E+00  0.64930732323E+04  0.65000000000E+04  0.30000000000E+03 0.  1.
        -52   -1    0    0    0    0 -0.00000000000E+00 -0.00000000000E+00 -0.64930732323E+04  0.65000000000E+04  0.30000000000E+03 0. -1.
     100001    1    1    2    0    0  0.22438466899E+02 -0.18890129560E+04  0.62175940940E+04  0.65000000000E+04  0.15050000000E+03 0.  1.
     100001    1    1    2    0    0 -0.22438466899E+02  0.18890129560E+04 -0.62175940940E+04  0.65000000000E+04  0.15050000000E+03 0. -1.
</event>
<event>
 4    1  0.5143956E-004  0.6500000E+04  0.7818608E-02  0.7223770E-01
         52   -1    0    0    0    0  0.00000000000E+00  0.00000000000E+00  0.64930732323E+04  0.65000000000E+04  0.30000000000E+03 0.  1.
        -52   -1    0    0    0    0 -0.00000000000E+00 -0.00000000000E+00 -0.64930732323E+04  0.65000000000E+04  0.30000000000E+03 0. -1.
     100001    1    1    2    0    0 -0.17173391459E+04  0.54978305037E+04  0.30086468322E+04  0.65000000000E+04  0.15050000000E+03 0.  1.
     100001    1    1    2    0    0  0.17173391459E+04 -0.54978305037E+04 -0.30086468322E+04  0.65000000000E+04  0.15050000000E+03 0. -1.
</event>
<event>
 4    1  0.5143956E-004  0.6500000E+04  0.7818608E-02  0.7223770E-01
         52   -1    0    0    0    0  0.00000000000E+00  0.00000000000E+00  0.64930732323E+04  0.65000000000E+04  0.30000000000E+03 0.  1.
        -52   -1    0    0    0    0 -0.00000000000E+00 -0.00000000000E+00 -0.64930732323E+04  0.65000000000E+04  0.30000000000E+03 0. -1.
     100001    1    1    2    0    0 -0.18935644321E+03  0.90992501881E+03  0.64314485419E+04  0.65000000000E+04  0.15050000000E+03 0.  1.
     100001    1    1    2    0    0  0.18935644321E+03 -0.90992501881E+03 -0.64314485419E+04  0.65000000000E+04  0.15050000000E+03 0. -1.
</event>
<event>
 4    1  0.5143956E-004  0.6500000E+04  0.7818608E-02  0.7223770E-01
         52   -1    0    0    0    0  0.00000000000E+00  0.00000000000E+00  0.64930732323E+04  0.65000000000E+04  0.30000000000E+03 0. -1.
        -52   -1    0    0    0    0 -0.00000000000E+00 -0.00000000000E+00 -0.64930732323E+04  0.65000000000E+04  0.30000000000E+03 0.  1.
     100001    1    1    2    0    0  0.30245824710E+04  0.37850442550E+04  0.43304376931E+04  0.65000000000E+04  0.15050000000E+03 0. -1.
     100001    1    1    2    0    0 -0.30245824710E+04 -0.37850442550E+04 -0.43304376931E+04  0.65000000000E+04  0.15050000000E+03 0.  1.
</event>
<event>
 4    1  0.5143956E-004  0.6500000E+04  0.7818608E-02  0.7223770E-01
         52   -1    0    0    0    0  0.00000000000E+00  0.00000000000E+00  0.64930732323E+04  0.65000000000E+04  0.30000000000E+03 0. -1.
        -52   -1    0    0    0    0 -0.00000000000E+00 -0.00000000000E+00 -0.64930732323E+04  0.65000000000E+04  0.30000000000E+03 0.  1.
     100001    1    1    2    0    0 -0.50877524434E+03 -0.12767767592E+03  0.64770514829E+04  0.65000000000E+04  0.15050000000E+03 0. -1.
     100001    1    1    2    0    0  0.50877524434E+03  0.12767767592E+03 -0.64770514829E+04  0.65000000000E+04  0.15050000000E+03 0.  1.
</event>
<event>
 4    1  0.5143956E-004  0.6500000E+04  0.7818608E-02  0.7223770E-01
         52   -1    0    0    0    0  0.00000000000E+00  0.00000000000E+00  0.64930732323E+04  0.65000000000E+04  0.30000000000E+03 0.  1.
        -52   -1    0    0    0    0 -0.00000000000E+00 -0.00000000000E+00 -0.64930732323E+04  0.65000000000E+04  0.30000000000E+03 0. -1.
     100001    1    1    2    0    0 -0.64125421715E+02 -0.21033856600E+04  0.61480896582E+04  0.65000000000E+04  0.15050000000E+03 0.  1.
     100001    1    1    2    0    0  0.64125421715E+02  0.21033856600E+04 -0.61480896582E+04  0.65000000000E+04  0.15050000000E+03 0. -1.
</event>
<event>
 4    1  0.5143956E-004  0.6500000E+04  0.7818608E-02  0.7223770E-01
         52   -1    0    0    0    0  0.00000000000E+00  0.00000000000E+00  0.64930732323E+04  0.65000000000E+04  0.30000000000E+03 0. -1.
        -52   -1    0    0    0    0 -0.00000000000E+00 -0.00000000000E+00 -0.64930732323E+04  0.65000000000E+04  0.30000000000E+03 0.  1.
     100001    1    1    2    0    0 -0.16086022708E+04 -0.43682733046E+04  0.45340861064E+04  0.65000000000E+04  0.15050000000E+03 0. -1.
     100001    1    1    2    0    0  0.16086022708E+04  0.43682733046E+04 -0.45340861064E+04  0.65000000000E+04  0.15050000000E+03 0.  1.
</event>
<event>
 4    1  0.5143956E-004  0.6500000E+04  0.7818608E-02  0.7223770E-01
         52   -1    0    0    0    0  0.00000000000E+00  0.00000000000E+00  0.64930732323E+04  0.65000000000E+04  0.30000000000E+03 0. -1.
        -52   -1    0    0    0    0 -0.00000000000E+00 -0.00000000000E+00 -0.64930732323E+04  0.65000000000E+04  0.30000000000E+03 0.  1.
     100001    1    1    2    0    0  0.56962318098E+03 -0.28608796231E+03 -0.64669183433E+04  0.65000000000E+04  0.15050000000E+03 0.  1.
     100001    1    1    2    0    0 -0.56962318098E+03  0.28608796231E+03  0.64669183433E+04  0.65000000000E+04  0.15050000000E+03 0. -1.
</event>
<event>
 4    1  0.5143956E-004  0.6500000E+04  0.7818608E-02  0.7223770E-01
         52   -1    0    0    0    0  0.00000000000E+00  0.00000000000E+00  0.64930732323E+04  0.65000000000E+04  0.30000000000E+03 0. -1.
        -52   -1    0    0    0    0 -0.00000000000E+00 -0.00000000000E+00 -0.64930732323E+04  0.65000000000E+04  0.30000000000E+03 0.  1.
     100001    1    1    2    0    0 -0.30672539882E+04 -0.39818810232E+04  0.41187287164E+04  0.65000000000E+04  0.15050000000E+03 0. -1.
     100001    1    1    2    0    0  0.30672539882E+04  0.39818810232E+04 -0.41187287164E+04  0.65000000000E+04  0.15050000000E+03 0.  1.
</event>
<event>
 4    1  0.5143956E-004  0.6500000E+04  0.7818608E-02  0.7223770E-01
         52   -1    0    0    0    0  0.00000000000E+00  0.00000000000E+00  0.64930732323E+04  0.65000000000E+04  0.30000000000E+03 0.  1.
        -52   -1    0    0    0    0 -0.00000000000E+00 -0.00000000000E+00 -0.64930732323E+04  0.65000000000E+04  0.30000000000E+03 0. -1.
     100001    1    1    2    0    0 -0.80430385150E+03 -0.82076386647E+03  0.63958417538E+04  0.65000000000E+04  0.15050000000E+03 0.  1.
     100001    1    1    2    0    0  0.80430385150E+03  0.82076386647E+03 -0.63958417538E+04  0.65000000000E+04  0.15050000000E+03 0. -1.
</event>
<event>
 4    1  0.5143956E-004  0.6500000E+04  0.7818608E-02  0.7223770E-01
         52   -1    0    0    0    0  0.00000000000E+00  0.00000000000E+00  0.64930732323E+04  0.65000000000E+04  0.30000000000E+03 0.  1.
        -52   -1    0    0    0    0 -0.00000000000E+00 -0.00000000000E+00 -0.64930732323E+04  0.65000000000E+04  0.30000000000E+03 0. -1.
     100001    1    1    2    0    0  0.50752868849E+03  0.16293322605E+04 -0.62701707126E+04  0.65000000000E+04  0.15050000000E+03 0. -1.
     100001    1    1    2    0    0 -0.50752868849E+03 -0.16293322605E+04  0.62701707126E+04  0.65000000000E+04  0.15050000000E+03 0.  1.
</event>
<event>
 4    1  0.5143956E-004  0.6500000E+04  0.7818608E-02  0.7223770E-01
         52   -1    0    0    0    0  0.00000000000E+00  0.00000000000E+00  0.64930732323E+04  0.65000000000E+04  0.30000000000E+03 0.  1.
        -52   -1    0    0    0    0 -0.00000000000E+00 -0.00000000000E+00 -0.64930732323E+04  0.65000000000E+04  0.30000000000E+03 0. -1.
     100001    1    1    2    0    0 -0.35657772284E+03 -0.65684656946E+03  0.64551339771E+04  0.65000000000E+04  0.15050000000E+03 0.  1.
     100001    1    1    2    0    0  0.35657772284E+03  0.65684656946E+03 -0.64551339771E+04  0.65000000000E+04  0.15050000000E+03 0. -1.
</event>
<event>
 4    1  0.6117206E-004  0.6500000E+04  0.7818608E-02  0.7223770E-01
         52   -1    0    0    0    0  0.00000000000E+00  0.00000000000E+00  0.64930732323E+04  0.65000000000E+04  0.30000000000E+03 0. -1.
        -52   -1    0    0    0    0 -0.00000000000E+00 -0.00000000000E+00 -0.64930732323E+04  0.65000000000E+04  0.30000000000E+03 0. -1.
     100001    1    1    2    0    0 -0.65640446306E+02  0.17364129214E+03  0.64956054209E+04  0.65000000000E+04  0.15050000000E+03 0. -1.
     100001    1    1    2    0    0  0.65640446306E+02 -0.17364129214E+03 -0.64956054209E+04  0.65000000000E+04  0.15050000000E+03 0. -1.
</event>
<event>
 4    1  0.5143956E-004  0.6500000E+04  0.7818608E-02  0.7223770E-01
         52   -1    0    0    0    0  0.00000000000E+00  0.00000000000E+00  0.64930732323E+04  0.65000000000E+04  0.30000000000E+03 0. -1.
        -52   -1    0    0    0    0 -0.00000000000E+00 -0.00000000000E+00 -0.64930732323E+04  0.65000000000E+04  0.30000000000E+03 0.  1.
     100001    1    1    2    0    0 -0.13947668953E+04  0.51254507076E+04  0.37432245594E+04  0.65000000000E+04  0.15050000000E+03 0. -1.
     100001    1    1    2    0    0  0.13947668953E+04 -0.51254507076E+04 -0.37432245594E+04  0.65000000000E+04  0.15050000000E+03 0.  1.
</event>
<event>
 4    1  0.5143956E-004  0.6500000E+04  0.7818608E-02  0.7223770E-01
         52   -1    0    0    0    0  0.00000000000E+00  0.00000000000E+00  0.64930732323E+04  0.65000000000E+04  0.30000000000E+03 0. -1.
        -52   -1    0    0    0    0 -0.00000000000E+00 -0.00000000000E+00 -0.64930732323E+04  0.65000000000E+04  0.30000000000E+03 0.  1.
     100001    1    1    2    0    0  0.54085691379E+03 -0.31458324435E+04 -0.56602616359E+04  0.65000000000E+04  0.15050000000E+03 0.  1.
     100001    1    1    2    0    0 -0.54085691379E+03  0.31458324435E+04  0.56602616359E+04  0.65000000000E+04  0.15050000000E+03 0. -1.
</event>
<event>
 4    1  0.5143956E-004  0.6500000E+04  0.7818608E-02  0.7223770E-01
         52   -1    0    0    0    0  0.00000000000E+00  0.00000000000E+00  0.64930732323E+04  0.65000000000E+04  0.30000000000E+03 0. -1.
        -52   -1    0    0    0    0 -0.00000000000E+00 -0.00000000000E+00 -0.64930732323E+04  0.65000000000E+04  0.30000000000E+03 0.  1.
     100001    1    1    2    0    0  0.83616680631E+03 -0.12167369139E+04  0.63283272754E+04  0.65000000000E+04  0.15050000000E+03 0. -1.
     100001    1    1    2    0    0 -0.83616680631E+03  0.12167369139E+04 -0.63283272754E+04  0.65000000000E+04  0.15050000000E+03 0.  1.
</event>
<event>
 4    1  0.5143956E-004  0.6500000E+04  0.7818608E-02  0.7223770E-01
         52   -1    0    0    0    0  0.00000000000E+00  0.00000000000E+00  0.64930732323E+04  0.65000000000E+04  0.30000000000E+03 0.  1.
        -52   -1    0    0    0    0 -0.00000000000E+00 -0.00000000000E+00 -0.64930732323E+04  0.65000000000E+04  0.30000000000E+03 0. -1.
     100001    1    1    2    0    0  0.34324875346E+04 -0.19658274874E+04 -0.51556669175E+04  0.65000000000E+04  0.15050000000E+03 0. -1.
     100001    1    1    2    0    0 -0.34324875346E+04  0.19658274874E+04  0.51556669175E+04  0.65000000000E+04  0.15050000000E+03 0.  1.
</event>
<event>
 4    1  0.5143956E-004  0.6500000E+04  0.7818608E-02  0.7223770E-01
         52   -1    0    0    0    0  0.00000000000E+00  0.00000000000E+00  0.64930732323E+04  0.65000000000E+04  0.30000000000E+03 0.  1.
        -52   -1    0    0    0    0 -0.00000000000E+00 -0.00000000000E+00 -0.64930732323E+04  0.65000000000E+04  0.30000000000E+03 0. -1.
     100001    1    1    2    0    0  0.64420186292E+03  0.10384077037E+03 -0.64654134287E+04  0.65000000000E+04  0.15050000000E+03 0. -1.
     100001    1    1    2    0    0 -0.64420186292E+03 -0.10384077037E+03  0.64654134287E+04  0.65000000000E+04  0.15050000000E+03 0.  1.
</event>
<event>
 4    1  0.5143956E-004  0.6500000E+04  0.7818608E-02  0.7223770E-01
         52   -1    0    0    0    0  0.00000000000E+00  0.00000000000E+00  0.64930732323E+04  0.65000000000E+04  0.30000000000E+03 0.  1.
        -52   -1    0    0    0    0 -0.00000000000E+00 -0.00000000000E+00 -0.64930732323E+04  0.65000000000E+04  0.30000000000E+03 0. -1.
     100001    1    1    2    0    0 -0.24087924198E+03  0.28242308570E+04  0.58474821083E+04  0.65000000000E+04  0.15050000000E+03 0.  1.
     100001    1    1    2    0    0  0.24087924198E+03 -0.28242308570E+04 -0.58474821083E+04  0.65000000000E+04  0.15050000000E+03 0. -1.
</event>
<event>
 4    1  0.5143956E-004  0.6500000E+04  0.7818608E-02  0.7223770E-01
         52   -1    0    0    0    0  0.00000000000E+00  0.00000000000E+00  0.64930732323E+04  0.65000000000E+04  0.30000000000E+03 0. -1.
        -52   -1    0    0    0    0 -0.00000000000E+00 -0.00000000000E+00 -0.64930732323E+04  0.65000000000E+04  0.30000000000E+03 0.  1.
     100001    1    1    2    0    0  0.19005092901E+04  0.42786680708E+04 -0.45064857403E+04  0.65000000000E+04  0.15050000000E+03 0.  1.
     100001    1    1    2    0    0 -0.19005092901E+04 -0.42786680708E+04  0.45064857403E+04  0.65000000000E+04  0.15050000000E+03 0. -1.
</event>
<event>
 4    1  0.5143956E-004  0.6500000E+04  0.7818608E-02  0.7223770E-01
         52   -1    0    0    0    0  0.00000000000E+00  0.00000000000E+00  0.64930732323E+04  0.65000000000E+04  0.30000000000E+03 0. -1.
        -52   -1    0    0    0    0 -0.00000000000E+00 -0.00000000000E+00 -0.64930732323E+04  0.65000000000E+04  0.30000000000E+03 0.  1.
     100001    1    1    2    0    0  0.35596737927E+04 -0.15036197620E+04  0.52244808212E+04  0.65000000000E+04  0.15050000000E+03 0. -1.
     100001    1    1    2    0    0 -0.35596737927E+04  0.15036197620E+04 -0.52244808212E+04  0.65000000000E+04  0.15050000000E+03 0.  1.
</event>
<event>
 4    1  0.5143956E-004  0.6500000E+04  0.7818608E-02  0.7223770E-01
         52   -1    0    0    0    0  0.00000000000E+00  0.00000000000E+00  0.64930732323E+04  0.65000000000E+04  0.30000000000E+03 0. -1.
        -52   -1    0    0    0    0 -0.00000000000E+00 -0.00000000000E+00 -0.64930732323E+04  0.65000000000E+04  0.30000000000E+03 0.  1.
     100001    1    1    2    0    0 -0.96516188767E+03  0.35277425752E+03  0.64164914559E+04  0.65000000000E+04  0.15050000000E+03 0. -1.
     100001    1    1    2    0    0  0.96516188767E+03 -0.35277425752E+03 -0.64164914559E+04  0.65000000000E+04  0.15050000000E+03 0.  1.
</event>
<event>
 4    1  0.5143956E-004  0.6500000E+04  0.7818608E-02  0.7223770E-01
         52   -1    0    0    0    0  0.00000000000E+00  0.00000000000E+00  0.64930732323E+04  0.65000000000E+04  0.30000000000E+03 0. -1.
        -52   -1    0    0    0    0 -0.00000000000E+00 -0.00000000000E+00 -0.64930732323E+04  0.65000000000E+04  0.30000000000E+03 0.  1.
     100001    1    1    2    0    0  0.36074745096E+03 -0.36511705775E+04 -0.53634097775E+04  0.65000000000E+04  0.15050000000E+03 0.  1.
     100001    1    1    2    0    0 -0.36074745096E+03  0.36511705775E+04  0.53634097775E+04  0.65000000000E+04  0.15050000000E+03 0. -1.
</event>
<event>
 4    1  0.5143956E-004  0.6500000E+04  0.7818608E-02  0.7223770E-01
         52   -1    0    0    0    0  0.00000000000E+00  0.00000000000E+00  0.64930732323E+04  0.65000000000E+04  0.30000000000E+03 0.  1.
        -52   -1    0    0    0    0 -0.00000000000E+00 -0.00000000000E+00 -0.64930732323E+04  0.65000000000E+04  0.30000000000E+03 0. -1.
     100001    1    1    2    0    0  0.91909628196E+02 -0.10259653073E+04  0.64160967541E+04  0.65000000000E+04  0.15050000000E+03 0.  1.
     100001    1    1    2    0    0 -0.91909628196E+02  0.10259653073E+04 -0.64160967541E+04  0.65000000000E+04  0.15050000000E+03 0. -1.
</event>
<event>
 4    1  0.5143956E-004  0.6500000E+04  0.7818608E-02  0.7223770E-01
         52   -1    0    0    0    0  0.00000000000E+00  0.00000000000E+00  0.64930732323E+04  0.65000000000E+04  0.30000000000E+03 0. -1.
        -52   -1    0    0    0    0 -0.00000000000E+00 -0.00000000000E+00 -0.64930732323E+04  0.65000000000E+04  0.30000000000E+03 0.  1.
     100001    1    1    2    0    0  0.65978049554E+03  0.20549450128E+04 -0.61293752081E+04  0.65000000000E+04  0.15050000000E+03 0.  1.
     100001    1    1    2    0    0 -0.65978049554E+03 -0.20549450128E+04  0.61293752081E+04  0.65000000000E+04  0.15050000000E+03 0. -1.
</event>
<event>
 4    1  0.5143956E-004  0.6500000E+04  0.7818608E-02  0.7223770E-01
         52   -1    0    0    0    0  0.00000000000E+00  0.00000000000E+00  0.64930732323E+04  0.65000000000E+04  0.30000000000E+03 0. -1.
        -52   -1    0    0    0    0 -0.00000000000E+00 -0.00000000000E+00 -0.64930732323E+04  0.65000000000E+04  0.30000000000E+03 0.  1.
     100001    1    1    2    0    0  0.74197193126E+03 -0.26316127936E+04 -0.58950353271E+04  0.65000000000E+04  0.15050000000E+03 0.  1.
     100001    1    1    2    0    0 -0.74197193126E+03  0.26316127936E+04  0.58950353271E+04  0.65000000000E+04  0.15050000000E+03 0. -1.
</event>
<event>
 4    1  0.5143956E-004  0.6500000E+04  0.7818608E-02  0.7223770E-01
         52   -1    0    0    0    0  0.00000000000E+00  0.00000000000E+00  0.64930732323E+04  0.65000000000E+04  0.30000000000E+03 0. -1.
        -52   -1    0    0    0    0 -0.00000000000E+00 -0.00000000000E+00 -0.64930732323E+04  0.65000000000E+04  0.30000000000E+03 0.  1.
     100001    1    1    2    0    0  0.62195095138E+03 -0.60012855275E+03  0.64405257925E+04  0.65000000000E+04  0.15050000000E+03 0. -1.
     100001    1    1    2    0    0 -0.62195095138E+03  0.60012855275E+03 -0.64405257925E+04  0.65000000000E+04  0.15050000000E+03 0.  1.
</event>
<event>
 4    1  0.5143956E-004  0.6500000E+04  0.7818608E-02  0.7223770E-01
         52   -1    0    0    0    0  0.00000000000E+00  0.00000000000E+00  0.64930732323E+04  0.65000000000E+04  0.30000000000E+03 0. -1.
        -52   -1    0    0    0    0 -0.00000000000E+00 -0.00000000000E+00 -0.64930732323E+04  0.65000000000E+04  0.30000000000E+03 0.  1.
     100001    1    1    2    0    0 -0.22390808151E+04 -0.38737285456E+04  0.47125464463E+04  0.65000000000E+04  0.15050000000E+03 0. -1.
     100001    1    1    2    0    0  0.22390808151E+04  0.38737285456E+04 -0.47125464463E+04  0.65000000000E+04  0.15050000000E+03 0.  1.
</event>
<event>
 4    1  0.5143956E-004  0.6500000E+04  0.7818608E-02  0.7223770E-01
         52   -1    0    0    0    0  0.00000000000E+00  0.00000000000E+00  0.64930732323E+04  0.65000000000E+04  0.30000000000E+03 0.  1.
        -52   -1    0    0    0    0 -0.00000000000E+00 -0.00000000000E+00 -0.64930732323E+04  0.65000000000E+04  0.30000000000E+03 0. -1.
     100001    1    1    2    0    0  0.64393028006E+03  0.22188597389E+03  0.64624662598E+04  0.65000000000E+04  0.15050000000E+03 0.  1.
     100001    1    1    2    0    0 -0.64393028006E+03 -0.22188597389E+03 -0.64624662598E+04  0.65000000000E+04  0.15050000000E+03 0. -1.
</event>
<event>
 4    1  0.5143956E-004  0.6500000E+04  0.7818608E-02  0.7223770E-01
         52   -1    0    0    0    0  0.00000000000E+00  0.00000000000E+00  0.64930732323E+04  0.65000000000E+04  0.30000000000E+03 0.  1.
        -52   -1    0    0    0    0 -0.00000000000E+00 -0.00000000000E+00 -0.64930732323E+04  0.65000000000E+04  0.30000000000E+03 0. -1.
     100001    1    1    2    0    0  0.20111911400E+04  0.17377561285E+04  0.59298114292E+04  0.65000000000E+04  0.15050000000E+03 0.  1.
     100001    1    1    2    0    0 -0.20111911400E+04 -0.17377561285E+04 -0.59298114292E+04  0.65000000000E+04  0.15050000000E+03 0. -1.
</event>
<event>
 4    1  0.5143956E-004  0.6500000E+04  0.7818608E-02  0.7223770E-01
         52   -1    0    0    0    0  0.00000000000E+00  0.00000000000E+00  0.64930732323E+04  0.65000000000E+04  0.30000000000E+03 0.  1.
        -52   -1    0    0    0    0 -0.00000000000E+00 -0.00000000000E+00 -0.64930732323E+04  0.65000000000E+04  0.30000000000E+03 0.  1.
     100001    1    1    2    0    0 -0.11092472039E+03  0.18709062635E+03  0.64946164285E+04  0.65000000000E+04  0.15050000000E+03 0.  1.
     100001    1    1    2    0    0  0.11092472039E+03 -0.18709062635E+03 -0.64946164285E+04  0.65000000000E+04  0.15050000000E+03 0.  1.
</event>
<event>
 4    1  0.5143956E-004  0.6500000E+04  0.7818608E-02  0.7223770E-01
         52   -1    0    0    0    0  0.00000000000E+00  0.00000000000E+00  0.64930732323E+04  0.65000000000E+04  0.30000000000E+03 0. -1.
        -52   -1    0    0    0    0 -0.00000000000E+00 -0.00000000000E+00 -0.64930732323E+04  0.65000000000E+04  0.30000000000E+03 0.  1.
     100001    1    1    2    0    0 -0.12962403619E+03  0.98517752499E+03  0.64218356101E+04  0.65000000000E+04  0.15050000000E+03 0. -1.
     100001    1    1    2    0    0  0.12962403619E+03 -0.98517752499E+03 -0.64218356101E+04  0.65000000000E+04  0.15050000000E+03 0.  1.
</event>
<event>
 4    1  0.5143956E-004  0.6500000E+04  0.7818608E-02  0.7223770E-01
         52   -1    0    0    0    0  0.00000000000E+00  0.00000000000E+00  0.64930732323E+04  0.65000000000E+04  0.30000000000E+03 0. -1.
        -52   -1    0    0    0    0 -0.00000000000E+00 -0.00000000000E+00 -0.64930732323E+04  0.65000000000E+04  0.30000000000E+03 0.  1.
     100001    1    1    2    0    0 -0.13026580223E+04 -0.11665827027E+04  0.62585554743E+04  0.65000000000E+04  0.15050000000E+03 0. -1.
     100001    1    1    2    0    0  0.13026580223E+04  0.11665827027E+04 -0.62585554743E+04  0.65000000000E+04  0.15050000000E+03 0.  1.
</event>
<event>
 4    1  0.5143956E-004  0.6500000E+04  0.7818608E-02  0.7223770E-01
         52   -1    0    0    0    0  0.00000000000E+00  0.00000000000E+00  0.64930732323E+04  0.65000000000E+04  0.30000000000E+03 0.  1.
        -52   -1    0    0    0    0 -0.00000000000E+00 -0.00000000000E+00 -0.64930732323E+04  0.65000000000E+04  0.30000000000E+03 0. -1.
     100001    1    1    2    0    0 -0.20717853732E+04 -0.37932295942E+04  0.48524699240E+04  0.65000000000E+04  0.15050000000E+03 0.  1.
     100001    1    1    2    0    0  0.20717853732E+04  0.37932295942E+04 -0.48524699240E+04  0.65000000000E+04  0.15050000000E+03 0. -1.
</event>
<event>
 4    1  0.5143956E-004  0.6500000E+04  0.7818608E-02  0.7223770E-01
         52   -1    0    0    0    0  0.00000000000E+00  0.00000000000E+00  0.64930732323E+04  0.65000000000E+04  0.30000000000E+03 0.  1.
        -52   -1    0    0    0    0 -0.00000000000E+00 -0.00000000000E+00 -0.64930732323E+04  0.65000000000E+04  0.30000000000E+03 0. -1.
     100001    1    1    2    0    0  0.11855748769E+04  0.77685733179E+03  0.63417863924E+04  0.65000000000E+04  0.15050000000E+03 0.  1.
     100001    1    1    2    0    0 -0.11855748769E+04 -0.77685733179E+03 -0.63417863924E+04  0.65000000000E+04  0.15050000000E+03 0. -1.
</event>
<event>
 4    1  0.5143956E-004  0.6500000E+04  0.7818608E-02  0.7223770E-01
         52   -1    0    0    0    0  0.00000000000E+00  0.00000000000E+00  0.64930732323E+04  0.65000000000E+04  0.30000000000E+03 0.  1.
        -52   -1    0    0    0    0 -0.00000000000E+00 -0.00000000000E+00 -0.64930732323E+04  0.65000000000E+04  0.30000000000E+03 0.  1.
     100001    1    1    2    0    0 -0.75770768147E+02 -0.97350452114E+03  0.64244764369E+04  0.65000000000E+04  0.15050000000E+03 0.  1.
     100001    1    1    2    0    0  0.75770768147E+02  0.97350452114E+03 -0.64244764369E+04  0.65000000000E+04  0.15050000000E+03 0.  1.
</event>
<event>
 4    1  0.5143956E-004  0.6500000E+04  0.7818608E-02  0.7223770E-01
         52   -1    0    0    0    0  0.00000000000E+00  0.00000000000E+00  0.64930732323E+04  0.65000000000E+04  0.30000000000E+03 0. -1.
        -52   -1    0    0    0    0 -0.00000000000E+00 -0.00000000000E+00 -0.64930732323E+04  0.65000000000E+04  0.30000000000E+03 0.  1.
     100001    1    1    2    0    0  0.87003192352E+03 -0.10898962779E+03  0.64388287338E+04  0.65000000000E+04  0.15050000000E+03 0. -1.
     100001    1    1    2    0    0 -0.87003192352E+03  0.10898962779E+03 -0.64388287338E+04  0.65000000000E+04  0.15050000000E+03 0.  1.
</event>
<event>
 4    1  0.5143956E-004  0.6500000E+04  0.7818608E-02  0.7223770E-01
         52   -1    0    0    0    0  0.00000000000E+00  0.00000000000E+00  0.64930732323E+04  0.65000000000E+04  0.30000000000E+03 0. -1.
        -52   -1    0    0    0    0 -0.00000000000E+00 -0.00000000000E+00 -0.64930732323E+04  0.65000000000E+04  0.30000000000E+03 0.  1.
     100001    1    1    2    0    0  0.23134465236E+04 -0.12034393559E+03 -0.60713122362E+04  0.65000000000E+04  0.15050000000E+03 0.  1.
     100001    1    1    2    0    0 -0.23134465236E+04  0.12034393559E+03  0.60713122362E+04  0.65000000000E+04  0.15050000000E+03 0. -1.
</event>
<event>
 4    1  0.5143956E-004  0.6500000E+04  0.7818608E-02  0.7223770E-01
         52   -1    0    0    0    0  0.00000000000E+00  0.00000000000E+00  0.64930732323E+04  0.65000000000E+04  0.30000000000E+03 0.  1.
        -52   -1    0    0    0    0 -0.00000000000E+00 -0.00000000000E+00 -0.64930732323E+04  0.65000000000E+04  0.30000000000E+03 0. -1.
     100001    1    1    2    0    0  0.25371536748E+04  0.11850462075E+04 -0.58639463219E+04  0.65000000000E+04  0.15050000000E+03 0. -1.
     100001    1    1    2    0    0 -0.25371536748E+04 -0.11850462075E+04  0.58639463219E+04  0.65000000000E+04  0.15050000000E+03 0.  1.
</event>
<event>
 4    1  0.8675419E-004  0.6500000E+04  0.7818608E-02  0.7223770E-01
         52   -1    0    0    0    0  0.00000000000E+00  0.00000000000E+00  0.64930732323E+04  0.65000000000E+04  0.30000000000E+03 0.  1.
        -52   -1    0    0    0    0 -0.00000000000E+00 -0.00000000000E+00 -0.64930732323E+04  0.65000000000E+04  0.30000000000E+03 0.  1.
     100001    1    1    2    0    0 -0.51574354274E+02 -0.31883348325E+02  0.64979745527E+04  0.65000000000E+04  0.15050000000E+03 0.  1.
     100001    1    1    2    0    0  0.51574354274E+02  0.31883348325E+02 -0.64979745527E+04  0.65000000000E+04  0.15050000000E+03 0.  1.
</event>
<event>
 4    1  0.5143956E-004  0.6500000E+04  0.7818608E-02  0.7223770E-01
         52   -1    0    0    0    0  0.00000000000E+00  0.00000000000E+00  0.64930732323E+04  0.65000000000E+04  0.30000000000E+03 0. -1.
        -52   -1    0    0    0    0 -0.00000000000E+00 -0.00000000000E+00 -0.64930732323E+04  0.65000000000E+04  0.30000000000E+03 0.  1.
     100001    1    1    2    0    0 -0.46891877863E+03  0.10964370404E+04  0.63879019048E+04  0.65000000000E+04  0.15050000000E+03 0. -1.
     100001    1    1    2    0    0  0.46891877863E+03 -0.10964370404E+04 -0.63879019048E+04  0.65000000000E+04  0.15050000000E+03 0.  1.
</event>
<event>
 4    1  0.5143956E-004  0.6500000E+04  0.7818608E-02  0.7223770E-01
         52   -1    0    0    0    0  0.00000000000E+00  0.00000000000E+00  0.64930732323E+04  0.65000000000E+04  0.30000000000E+03 0. -1.
        -52   -1    0    0    0    0 -0.00000000000E+00 -0.00000000000E+00 -0.64930732323E+04  0.65000000000E+04  0.30000000000E+03 0.  1.
     100001    1    1    2    0    0 -0.28274080608E+04 -0.13885250054E+04  0.56837585907E+04  0.65000000000E+04  0.15050000000E+03 0. -1.
     100001    1    1    2    0    0  0.28274080608E+04  0.13885250054E+04 -0.56837585907E+04  0.65000000000E+04  0.15050000000E+03 0.  1.
</event>
<event>
 4    1  0.5143956E-004  0.6500000E+04  0.7818608E-02  0.7223770E-01
         52   -1    0    0    0    0  0.00000000000E+00  0.00000000000E+00  0.64930732323E+04  0.65000000000E+04  0.30000000000E+03 0.  1.
        -52   -1    0    0    0    0 -0.00000000000E+00 -0.00000000000E+00 -0.64930732323E+04  0.65000000000E+04  0.30000000000E+03 0. -1.
     100001    1    1    2    0    0  0.44721412806E+04  0.32849444617E+04 -0.33817808918E+04  0.65000000000E+04  0.15050000000E+03 0. -1.
     100001    1    1    2    0    0 -0.44721412806E+04 -0.32849444617E+04  0.33817808918E+04  0.65000000000E+04  0.15050000000E+03 0.  1.
</event>
<event>
 4    1  0.5143956E-004  0.6500000E+04  0.7818608E-02  0.7223770E-01
         52   -1    0    0    0    0  0.00000000000E+00  0.00000000000E+00  0.64930732323E+04  0.65000000000E+04  0.30000000000E+03 0.  1.
        -52   -1    0    0    0    0 -0.00000000000E+00 -0.00000000000E+00 -0.64930732323E+04  0.65000000000E+04  0.30000000000E+03 0.  1.
     100001    1    1    2    0    0 -0.32276853648E+03 -0.37383370435E+03 -0.64794612881E+04  0.65000000000E+04  0.15050000000E+03 0.  1.
     100001    1    1    2    0    0  0.32276853648E+03  0.37383370435E+03  0.64794612881E+04  0.65000000000E+04  0.15050000000E+03 0.  1.
</event>
<event>
 4    1  0.5143956E-004  0.6500000E+04  0.7818608E-02  0.7223770E-01
         52   -1    0    0    0    0  0.00000000000E+00  0.00000000000E+00  0.64930732323E+04  0.65000000000E+04  0.30000000000E+03 0.  1.
        -52   -1    0    0    0    0 -0.00000000000E+00 -0.00000000000E+00 -0.64930732323E+04  0.65000000000E+04  0.30000000000E+03 0.  1.
     100001    1    1    2    0    0 -0.21792743159E+03  0.90306403759E+02  0.64939742945E+04  0.65000000000E+04  0.15050000000E+03 0.  1.
     100001    1    1    2    0    0  0.21792743159E+03 -0.90306403759E+02 -0.64939742945E+04  0.65000000000E+04  0.15050000000E+03 0.  1.
</event>
<event>
 4    1  0.5143956E-004  0.6500000E+04  0.7818608E-02  0.7223770E-01
         52   -1    0    0    0    0  0.00000000000E+00  0.00000000000E+00  0.64930732323E+04  0.65000000000E+04  0.30000000000E+03 0.  1.
        -52   -1    0    0    0    0 -0.00000000000E+00 -0.00000000000E+00 -0.64930732323E+04  0.65000000000E+04  0.30000000000E+03 0. -1.
     100001    1    1    2    0    0 -0.15299930588E+04  0.52224619423E+03 -0.62939439069E+04  0.65000000000E+04  0.15050000000E+03 0. -1.
     100001    1    1    2    0    0  0.15299930588E+04 -0.52224619423E+03  0.62939439069E+04  0.65000000000E+04  0.15050000000E+03 0.  1.
</event>
<event>
 4    1  0.5143956E-004  0.6500000E+04  0.7818608E-02  0.7223770E-01
         52   -1    0    0    0    0  0.00000000000E+00  0.00000000000E+00  0.64930732323E+04  0.65000000000E+04  0.30000000000E+03 0. -1.
        -52   -1    0    0    0    0 -0.00000000000E+00 -0.00000000000E+00 -0.64930732323E+04  0.65000000000E+04  0.30000000000E+03 0.  1.
     100001    1    1    2    0    0  0.22410189582E+04  0.57134701970E+03 -0.60727873635E+04  0.65000000000E+04  0.15050000000E+03 0.  1.
     100001    1    1    2    0    0 -0.22410189582E+04 -0.57134701970E+03  0.60727873635E+04  0.65000000000E+04  0.15050000000E+03 0. -1.
</event>
<event>
 4    1  0.5143956E-004  0.6500000E+04  0.7818608E-02  0.7223770E-01
         52   -1    0    0    0    0  0.00000000000E+00  0.00000000000E+00  0.64930732323E+04  0.65000000000E+04  0.30000000000E+03 0.  1.
        -52   -1    0    0    0    0 -0.00000000000E+00 -0.00000000000E+00 -0.64930732323E+04  0.65000000000E+04  0.30000000000E+03 0. -1.
     100001    1    1    2    0    0 -0.37142618735E+03 -0.32464543634E+03 -0.64795059748E+04  0.65000000000E+04  0.15050000000E+03 0. -1.
     100001    1    1    2    0    0  0.37142618735E+03  0.32464543634E+03  0.64795059748E+04  0.65000000000E+04  0.15050000000E+03 0.  1.
</event>
<event>
 4    1  0.5143956E-004  0.6500000E+04  0.7818608E-02  0.7223770E-01
         52   -1    0    0    0    0  0.00000000000E+00  0.00000000000E+00  0.64930732323E+04  0.65000000000E+04  0.30000000000E+03 0.  1.
        -52   -1    0    0    0    0 -0.00000000000E+00 -0.00000000000E+00 -0.64930732323E+04  0.65000000000E+04  0.30000000000E+03 0. -1.
     100001    1    1    2    0    0 -0.38283262976E+04  0.16262809200E+04 -0.49926423744E+04  0.65000000000E+04  0.15050000000E+03 0. -1.
     100001    1    1    2    0    0  0.38283262976E+04 -0.16262809200E+04  0.49926423744E+04  0.65000000000E+04  0.15050000000E+03 0.  1.
</event>
<event>
 4    1  0.5143956E-004  0.6500000E+04  0.7818608E-02  0.7223770E-01
         52   -1    0    0    0    0  0.00000000000E+00  0.00000000000E+00  0.64930732323E+04  0.65000000000E+04  0.30000000000E+03 0. -1.
        -52   -1    0    0    0    0 -0.00000000000E+00 -0.00000000000E+00 -0.64930732323E+04  0.65000000000E+04  0.30000000000E+03 0.  1.
     100001    1    1    2    0    0  0.12590982238E+03  0.20949951901E+04  0.61499993187E+04  0.65000000000E+04  0.15050000000E+03 0. -1.
     100001    1    1    2    0    0 -0.12590982238E+03 -0.20949951901E+04 -0.61499993187E+04  0.65000000000E+04  0.15050000000E+03 0.  1.
</event>
<event>
 4    1  0.5143956E-004  0.6500000E+04  0.7818608E-02  0.7223770E-01
         52   -1    0    0    0    0  0.00000000000E+00  0.00000000000E+00  0.64930732323E+04  0.65000000000E+04  0.30000000000E+03 0. -1.
        -52   -1    0    0    0    0 -0.00000000000E+00 -0.00000000000E+00 -0.64930732323E+04  0.65000000000E+04  0.30000000000E+03 0. -1.
     100001    1    1    2    0    0 -0.30441743228E+03  0.12209306307E+03  0.64899748120E+04  0.65000000000E+04  0.15050000000E+03 0. -1.
     100001    1    1    2    0    0  0.30441743228E+03 -0.12209306307E+03 -0.64899748120E+04  0.65000000000E+04  0.15050000000E+03 0. -1.
</event>
<event>
 4    1  0.5143956E-004  0.6500000E+04  0.7818608E-02  0.7223770E-01
         52   -1    0    0    0    0  0.00000000000E+00  0.00000000000E+00  0.64930732323E+04  0.65000000000E+04  0.30000000000E+03 0. -1.
        -52   -1    0    0    0    0 -0.00000000000E+00 -0.00000000000E+00 -0.64930732323E+04  0.65000000000E+04  0.30000000000E+03 0.  1.
     100001    1    1    2    0    0  0.58904987971E+03  0.34513586124E+01  0.64715035407E+04  0.65000000000E+04  0.15050000000E+03 0. -1.
     100001    1    1    2    0    0 -0.58904987971E+03 -0.34513586124E+01 -0.64715035407E+04  0.65000000000E+04  0.15050000000E+03 0.  1.
</event>
<event>
 4    1  0.5143956E-004  0.6500000E+04  0.7818608E-02  0.7223770E-01
         52   -1    0    0    0    0  0.00000000000E+00  0.00000000000E+00  0.64930732323E+04  0.65000000000E+04  0.30000000000E+03 0. -1.
        -52   -1    0    0    0    0 -0.00000000000E+00 -0.00000000000E+00 -0.64930732323E+04  0.65000000000E+04  0.30000000000E+03 0.  1.
     100001    1    1    2    0    0 -0.13467366715E+04  0.20879513582E+04 -0.60045074081E+04  0.65000000000E+04  0.15050000000E+03 0.  1.
     100001    1    1    2    0    0  0.13467366715E+04 -0.20879513582E+04  0.60045074081E+04  0.65000000000E+04  0.15050000000E+03 0. -1.
</event>
<event>
 4    1  0.5143956E-004  0.6500000E+04  0.7818608E-02  0.7223770E-01
         52   -1    0    0    0    0  0.00000000000E+00  0.00000000000E+00  0.64930732323E+04  0.65000000000E+04  0.30000000000E+03 0.  1.
        -52   -1    0    0    0    0 -0.00000000000E+00 -0.00000000000E+00 -0.64930732323E+04  0.65000000000E+04  0.30000000000E+03 0. -1.
     100001    1    1    2    0    0 -0.22803239676E+04 -0.58044038217E+04 -0.18265729186E+04  0.65000000000E+04  0.15050000000E+03 0.  1.
     100001    1    1    2    0    0  0.22803239676E+04  0.58044038217E+04  0.18265729186E+04  0.65000000000E+04  0.15050000000E+03 0. -1.
</event>
<event>
 4    1  0.5143956E-004  0.6500000E+04  0.7818608E-02  0.7223770E-01
         52   -1    0    0    0    0  0.00000000000E+00  0.00000000000E+00  0.64930732323E+04  0.65000000000E+04  0.30000000000E+03 0.  1.
        -52   -1    0    0    0    0 -0.00000000000E+00 -0.00000000000E+00 -0.64930732323E+04  0.65000000000E+04  0.30000000000E+03 0. -1.
     100001    1    1    2    0    0 -0.12059897350E+04  0.69757816290E+03  0.63471507951E+04  0.65000000000E+04  0.15050000000E+03 0.  1.
     100001    1    1    2    0    0  0.12059897350E+04 -0.69757816290E+03 -0.63471507951E+04  0.65000000000E+04  0.15050000000E+03 0. -1.
</event>
<event>
 4    1  0.5143956E-004  0.6500000E+04  0.7818608E-02  0.7223770E-01
         52   -1    0    0    0    0  0.00000000000E+00  0.00000000000E+00  0.64930732323E+04  0.65000000000E+04  0.30000000000E+03 0. -1.
        -52   -1    0    0    0    0 -0.00000000000E+00 -0.00000000000E+00 -0.64930732323E+04  0.65000000000E+04  0.30000000000E+03 0. -1.
     100001    1    1    2    0    0  0.37124892090E+03 -0.13553608572E+03 -0.64862280224E+04  0.65000000000E+04  0.15050000000E+03 0. -1.
     100001    1    1    2    0    0 -0.37124892090E+03  0.13553608572E+03  0.64862280224E+04  0.65000000000E+04  0.15050000000E+03 0. -1.
</event>
<event>
 4    1  0.5143956E-004  0.6500000E+04  0.7818608E-02  0.7223770E-01
         52   -1    0    0    0    0  0.00000000000E+00  0.00000000000E+00  0.64930732323E+04  0.65000000000E+04  0.30000000000E+03 0. -1.
        -52   -1    0    0    0    0 -0.00000000000E+00 -0.00000000000E+00 -0.64930732323E+04  0.65000000000E+04  0.30000000000E+03 0.  1.
     100001    1    1    2    0    0  0.84761916017E+03 -0.36631894935E+03 -0.64323169960E+04  0.65000000000E+04  0.15050000000E+03 0.  1.
     100001    1    1    2    0    0 -0.84761916017E+03  0.36631894935E+03  0.64323169960E+04  0.65000000000E+04  0.15050000000E+03 0. -1.
</event>
<event>
 4    1  0.5143956E-004  0.6500000E+04  0.7818608E-02  0.7223770E-01
         52   -1    0    0    0    0  0.00000000000E+00  0.00000000000E+00  0.64930732323E+04  0.65000000000E+04  0.30000000000E+03 0.  1.
        -52   -1    0    0    0    0 -0.00000000000E+00 -0.00000000000E+00 -0.64930732323E+04  0.65000000000E+04  0.30000000000E+03 0. -1.
     100001    1    1    2    0    0  0.38323628443E+03  0.13522957501E+03  0.64855371915E+04  0.65000000000E+04  0.15050000000E+03 0.  1.
     100001    1    1    2    0    0 -0.38323628443E+03 -0.13522957501E+03 -0.64855371915E+04  0.65000000000E+04  0.15050000000E+03 0. -1.
</event>
<event>
 4    1  0.5143956E-004  0.6500000E+04  0.7818608E-02  0.7223770E-01
         52   -1    0    0    0    0  0.00000000000E+00  0.00000000000E+00  0.64930732323E+04  0.65000000000E+04  0.30000000000E+03 0.  1.
        -52   -1    0    0    0    0 -0.00000000000E+00 -0.00000000000E+00 -0.64930732323E+04  0.65000000000E+04  0.30000000000E+03 0. -1.
     100001    1    1    2    0    0 -0.58303568064E+03 -0.21445006942E+04 -0.61064339772E+04  0.65000000000E+04  0.15050000000E+03 0. -1.
     100001    1    1    2    0    0  0.58303568064E+03  0.21445006942E+04  0.61064339772E+04  0.65000000000E+04  0.15050000000E+03 0.  1.
</event>
<event>
 4    1  0.5143956E-004  0.6500000E+04  0.7818608E-02  0.7223770E-01
         52   -1    0    0    0    0  0.00000000000E+00  0.00000000000E+00  0.64930732323E+04  0.65000000000E+04  0.30000000000E+03 0.  1.
        -52   -1    0    0    0    0 -0.00000000000E+00 -0.00000000000E+00 -0.64930732323E+04  0.65000000000E+04  0.30000000000E+03 0. -1.
     100001    1    1    2    0    0 -0.92708684942E+02  0.73395610379E+03 -0.64560098581E+04  0.65000000000E+04  0.15050000000E+03 0. -1.
     100001    1    1    2    0    0  0.92708684942E+02 -0.73395610379E+03  0.64560098581E+04  0.65000000000E+04  0.15050000000E+03 0.  1.
</event>
<event>
 4    1  0.5143956E-004  0.6500000E+04  0.7818608E-02  0.7223770E-01
         52   -1    0    0    0    0  0.00000000000E+00  0.00000000000E+00  0.64930732323E+04  0.65000000000E+04  0.30000000000E+03 0. -1.
        -52   -1    0    0    0    0 -0.00000000000E+00 -0.00000000000E+00 -0.64930732323E+04  0.65000000000E+04  0.30000000000E+03 0.  1.
     100001    1    1    2    0    0  0.54582500925E+04 -0.17812951859E+04 -0.30433276423E+04  0.65000000000E+04  0.15050000000E+03 0.  1.
     100001    1    1    2    0    0 -0.54582500925E+04  0.17812951859E+04  0.30433276423E+04  0.65000000000E+04  0.15050000000E+03 0. -1.
</event>
<event>
 4    1  0.5143956E-004  0.6500000E+04  0.7818608E-02  0.7223770E-01
         52   -1    0    0    0    0  0.00000000000E+00  0.00000000000E+00  0.64930732323E+04  0.65000000000E+04  0.30000000000E+03 0.  1.
        -52   -1    0    0    0    0 -0.00000000000E+00 -0.00000000000E+00 -0.64930732323E+04  0.65000000000E+04  0.30000000000E+03 0. -1.
     100001    1    1    2    0    0 -0.58266974900E+03  0.25564787195E+04 -0.59457768433E+04  0.65000000000E+04  0.15050000000E+03 0. -1.
     100001    1    1    2    0    0  0.58266974900E+03 -0.25564787195E+04  0.59457768433E+04  0.65000000000E+04  0.15050000000E+03 0.  1.
</event>
<event>
 4    1  0.5143956E-004  0.6500000E+04  0.7818608E-02  0.7223770E-01
         52   -1    0    0    0    0  0.00000000000E+00  0.00000000000E+00  0.64930732323E+04  0.65000000000E+04  0.30000000000E+03 0. -1.
        -52   -1    0    0    0    0 -0.00000000000E+00 -0.00000000000E+00 -0.64930732323E+04  0.65000000000E+04  0.30000000000E+03 0.  1.
     100001    1    1    2    0    0  0.25614518863E+02 -0.69804317849E+03  0.64606059598E+04  0.65000000000E+04  0.15050000000E+03 0. -1.
     100001    1    1    2    0    0 -0.25614518863E+02  0.69804317849E+03 -0.64606059598E+04  0.65000000000E+04  0.15050000000E+03 0.  1.
</event>
<event>
 4    1  0.5143956E-004  0.6500000E+04  0.7818608E-02  0.7223770E-01
         52   -1    0    0    0    0  0.00000000000E+00  0.00000000000E+00  0.64930732323E+04  0.65000000000E+04  0.30000000000E+03 0. -1.
        -52   -1    0    0    0    0 -0.00000000000E+00 -0.00000000000E+00 -0.64930732323E+04  0.65000000000E+04  0.30000000000E+03 0.  1.
     100001    1    1    2    0    0 -0.28227481224E+03 -0.23996395788E+04  0.60323627686E+04  0.65000000000E+04  0.15050000000E+03 0. -1.
     100001    1    1    2    0    0  0.28227481224E+03  0.23996395788E+04 -0.60323627686E+04  0.65000000000E+04  0.15050000000E+03 0.  1.
</event>
<event>
 4    1  0.5143956E-004  0.6500000E+04  0.7818608E-02  0.7223770E-01
         52   -1    0    0    0    0  0.00000000000E+00  0.00000000000E+00  0.64930732323E+04  0.65000000000E+04  0.30000000000E+03 0. -1.
        -52   -1    0    0    0    0 -0.00000000000E+00 -0.00000000000E+00 -0.64930732323E+04  0.65000000000E+04  0.30000000000E+03 0.  1.
     100001    1    1    2    0    0 -0.95612662091E+02  0.49780298766E+03  0.64784566182E+04  0.65000000000E+04  0.15050000000E+03 0. -1.
     100001    1    1    2    0    0  0.95612662091E+02 -0.49780298766E+03 -0.64784566182E+04  0.65000000000E+04  0.15050000000E+03 0.  1.
</event>
<event>
 4    1  0.5143956E-004  0.6500000E+04  0.7818608E-02  0.7223770E-01
         52   -1    0    0    0    0  0.00000000000E+00  0.00000000000E+00  0.64930732323E+04  0.65000000000E+04  0.30000000000E+03 0. -1.
        -52   -1    0    0    0    0 -0.00000000000E+00 -0.00000000000E+00 -0.64930732323E+04  0.65000000000E+04  0.30000000000E+03 0.  1.
     100001    1    1    2    0    0  0.15223715697E+04  0.19875371406E+03  0.63142878866E+04  0.65000000000E+04  0.15050000000E+03 0. -1.
     100001    1    1    2    0    0 -0.15223715697E+04 -0.19875371406E+03 -0.63142878866E+04  0.65000000000E+04  0.15050000000E+03 0.  1.
</event>
<event>
 4    1  0.5143956E-004  0.6500000E+04  0.7818608E-02  0.7223770E-01
         52   -1    0    0    0    0  0.00000000000E+00  0.00000000000E+00  0.64930732323E+04  0.65000000000E+04  0.30000000000E+03 0.  1.
        -52   -1    0    0    0    0 -0.00000000000E+00 -0.00000000000E+00 -0.64930732323E+04  0.65000000000E+04  0.30000000000E+03 0. -1.
     100001    1    1    2    0    0  0.32152492625E+03  0.31510469261E+03  0.64826445610E+04  0.65000000000E+04  0.15050000000E+03 0.  1.
     100001    1    1    2    0    0 -0.32152492625E+03 -0.31510469261E+03 -0.64826445610E+04  0.65000000000E+04  0.15050000000E+03 0. -1.
</event>
<event>
 4    1  0.5143956E-004  0.6500000E+04  0.7818608E-02  0.7223770E-01
         52   -1    0    0    0    0  0.00000000000E+00  0.00000000000E+00  0.64930732323E+04  0.65000000000E+04  0.30000000000E+03 0.  1.
        -52   -1    0    0    0    0 -0.00000000000E+00 -0.00000000000E+00 -0.64930732323E+04  0.65000000000E+04  0.30000000000E+03 0. -1.
     100001    1    1    2    0    0  0.43879573067E+02  0.23921130081E+04 -0.60417894443E+04  0.65000000000E+04  0.15050000000E+03 0. -1.
     100001    1    1    2    0    0 -0.43879573067E+02 -0.23921130081E+04  0.60417894443E+04  0.65000000000E+04  0.15050000000E+03 0.  1.
</event>
<event>
 4    1  0.5471202E-004  0.6500000E+04  0.7818608E-02  0.7223770E-01
         52   -1    0    0    0    0  0.00000000000E+00  0.00000000000E+00  0.64930732323E+04  0.65000000000E+04  0.30000000000E+03 0.  1.
        -52   -1    0    0    0    0 -0.00000000000E+00 -0.00000000000E+00 -0.64930732323E+04  0.65000000000E+04  0.30000000000E+03 0. -1.
     100001    1    1    2    0    0  0.19298497004E+03  0.15852566120E+03 -0.64934564113E+04  0.65000000000E+04  0.15050000000E+03 0. -1.
     100001    1    1    2    0    0 -0.19298497004E+03 -0.15852566120E+03  0.64934564113E+04  0.65000000000E+04  0.15050000000E+03 0.  1.
</event>
<event>
 4    1  0.5143956E-004  0.6500000E+04  0.7818608E-02  0.7223770E-01
         52   -1    0    0    0    0  0.00000000000E+00  0.00000000000E+00  0.64930732323E+04  0.65000000000E+04  0.30000000000E+03 0. -1.
        -52   -1    0    0    0    0 -0.00000000000E+00 -0.00000000000E+00 -0.64930732323E+04  0.65000000000E+04  0.30000000000E+03 0.  1.
     100001    1    1    2    0    0 -0.10574509834E+04  0.21523639798E+04  0.60395758515E+04  0.65000000000E+04  0.15050000000E+03 0. -1.
     100001    1    1    2    0    0  0.10574509834E+04 -0.21523639798E+04 -0.60395758515E+04  0.65000000000E+04  0.15050000000E+03 0.  1.
</event>
<event>
 4    1  0.5143956E-004  0.6500000E+04  0.7818608E-02  0.7223770E-01
         52   -1    0    0    0    0  0.00000000000E+00  0.00000000000E+00  0.64930732323E+04  0.65000000000E+04  0.30000000000E+03 0. -1.
        -52   -1    0    0    0    0 -0.00000000000E+00 -0.00000000000E+00 -0.64930732323E+04  0.65000000000E+04  0.30000000000E+03 0.  1.
     100001    1    1    2    0    0  0.26391446718E+04  0.13344797486E+03  0.59367042026E+04  0.65000000000E+04  0.15050000000E+03 0. -1.
     100001    1    1    2    0    0 -0.26391446718E+04 -0.13344797486E+03 -0.59367042026E+04  0.65000000000E+04  0.15050000000E+03 0.  1.
</event>
<event>
 4    1  0.5143956E-004  0.6500000E+04  0.7818608E-02  0.7223770E-01
         52   -1    0    0    0    0  0.00000000000E+00  0.00000000000E+00  0.64930732323E+04  0.65000000000E+04  0.30000000000E+03 0. -1.
        -52   -1    0    0    0    0 -0.00000000000E+00 -0.00000000000E+00 -0.64930732323E+04  0.65000000000E+04  0.30000000000E+03 0.  1.
     100001    1    1    2    0    0 -0.10915034952E+04  0.60627168434E+03  0.63771784133E+04  0.65000000000E+04  0.15050000000E+03 0. -1.
     100001    1    1    2    0    0  0.10915034952E+04 -0.60627168434E+03 -0.63771784133E+04  0.65000000000E+04  0.15050000000E+03 0.  1.
</event>
<event>
 4    1  0.5143956E-004  0.6500000E+04  0.7818608E-02  0.7223770E-01
         52   -1    0    0    0    0  0.00000000000E+00  0.00000000000E+00  0.64930732323E+04  0.65000000000E+04  0.30000000000E+03 0. -1.
        -52   -1    0    0    0    0 -0.00000000000E+00 -0.00000000000E+00 -0.64930732323E+04  0.65000000000E+04  0.30000000000E+03 0.  1.
     100001    1    1    2    0    0 -0.32435681478E+03  0.55953436618E+03 -0.64659928626E+04  0.65000000000E+04  0.15050000000E+03 0.  1.
     100001    1    1    2    0    0  0.32435681478E+03 -0.55953436618E+03  0.64659928626E+04  0.65000000000E+04  0.15050000000E+03 0. -1.
</event>
<event>
 4    1  0.5143956E-004  0.6500000E+04  0.7818608E-02  0.7223770E-01
         52   -1    0    0    0    0  0.00000000000E+00  0.00000000000E+00  0.64930732323E+04  0.65000000000E+04  0.30000000000E+03 0. -1.
        -52   -1    0    0    0    0 -0.00000000000E+00 -0.00000000000E+00 -0.64930732323E+04  0.65000000000E+04  0.30000000000E+03 0. -1.
     100001    1    1    2    0    0 -0.57614142349E+03 -0.36938283881E+03  0.64621178516E+04  0.65000000000E+04  0.15050000000E+03 0. -1.
     100001    1    1    2    0    0  0.57614142349E+03  0.36938283881E+03 -0.64621178516E+04  0.65000000000E+04  0.15050000000E+03 0. -1.
</event>
<event>
 4    1  0.5143956E-004  0.6500000E+04  0.7818608E-02  0.7223770E-01
         52   -1    0    0    0    0  0.00000000000E+00  0.00000000000E+00  0.64930732323E+04  0.65000000000E+04  0.30000000000E+03 0.  1.
        -52   -1    0    0    0    0 -0.00000000000E+00 -0.00000000000E+00 -0.64930732323E+04  0.65000000000E+04  0.30000000000E+03 0.  1.
     100001    1    1    2    0    0  0.17484132317E+03  0.17012180420E+03  0.64936768347E+04  0.65000000000E+04  0.15050000000E+03 0.  1.
     100001    1    1    2    0    0 -0.17484132317E+03 -0.17012180420E+03 -0.64936768347E+04  0.65000000000E+04  0.15050000000E+03 0.  1.
</event>
<event>
 4    1  0.5143956E-004  0.6500000E+04  0.7818608E-02  0.7223770E-01
         52   -1    0    0    0    0  0.00000000000E+00  0.00000000000E+00  0.64930732323E+04  0.65000000000E+04  0.30000000000E+03 0.  1.
        -52   -1    0    0    0    0 -0.00000000000E+00 -0.00000000000E+00 -0.64930732323E+04  0.65000000000E+04  0.30000000000E+03 0. -1.
     100001    1    1    2    0    0 -0.74559242766E+03 -0.10393311099E+04 -0.63711249027E+04  0.65000000000E+04  0.15050000000E+03 0. -1.
     100001    1    1    2    0    0  0.74559242766E+03  0.10393311099E+04  0.63711249027E+04  0.65000000000E+04  0.15050000000E+03 0.  1.
</event>
<event>
 4    1  0.5143956E-004  0.6500000E+04  0.7818608E-02  0.7223770E-01
         52   -1    0    0    0    0  0.00000000000E+00  0.00000000000E+00  0.64930732323E+04  0.65000000000E+04  0.30000000000E+03 0. -1.
        -52   -1    0    0    0    0 -0.00000000000E+00 -0.00000000000E+00 -0.64930732323E+04  0.65000000000E+04  0.30000000000E+03 0.  1.
     100001    1    1    2    0    0  0.27100729969E+04  0.46228169302E+03  0.58880514381E+04  0.65000000000E+04  0.15050000000E+03 0. -1.
     100001    1    1    2    0    0 -0.27100729969E+04 -0.46228169302E+03 -0.58880514381E+04  0.65000000000E+04  0.15050000000E+03 0.  1.
</event>
<event>
 4    1  0.5143956E-004  0.6500000E+04  0.7818608E-02  0.7223770E-01
         52   -1    0    0    0    0  0.00000000000E+00  0.00000000000E+00  0.64930732323E+04  0.65000000000E+04  0.30000000000E+03 0.  1.
        -52   -1    0    0    0    0 -0.00000000000E+00 -0.00000000000E+00 -0.64930732323E+04  0.65000000000E+04  0.30000000000E+03 0.  1.
     100001    1    1    2    0    0 -0.26586015350E+03  0.10176578583E+03 -0.64920190891E+04  0.65000000000E+04  0.15050000000E+03 0.  1.
     100001    1    1    2    0    0  0.26586015350E+03 -0.10176578583E+03  0.64920190891E+04  0.65000000000E+04  0.15050000000E+03 0.  1.
</event>
<event>
 4    1  0.5143956E-004  0.6500000E+04  0.7818608E-02  0.7223770E-01
         52   -1    0    0    0    0  0.00000000000E+00  0.00000000000E+00  0.64930732323E+04  0.65000000000E+04  0.30000000000E+03 0.  1.
        -52   -1    0    0    0    0 -0.00000000000E+00 -0.00000000000E+00 -0.64930732323E+04  0.65000000000E+04  0.30000000000E+03 0. -1.
     100001    1    1    2    0    0  0.26477964507E+04  0.13342782501E+04 -0.57824065282E+04  0.65000000000E+04  0.15050000000E+03 0. -1.
     100001    1    1    2    0    0 -0.26477964507E+04 -0.13342782501E+04  0.57824065282E+04  0.65000000000E+04  0.15050000000E+03 0.  1.
</event>
<event>
 4    1  0.5143956E-004  0.6500000E+04  0.7818608E-02  0.7223770E-01
         52   -1    0    0    0    0  0.00000000000E+00  0.00000000000E+00  0.64930732323E+04  0.65000000000E+04  0.30000000000E+03 0. -1.
        -52   -1    0    0    0    0 -0.00000000000E+00 -0.00000000000E+00 -0.64930732323E+04  0.65000000000E+04  0.30000000000E+03 0.  1.
     100001    1    1    2    0    0 -0.87010570955E+03 -0.12842937840E+04 -0.63103767939E+04  0.65000000000E+04  0.15050000000E+03 0.  1.
     100001    1    1    2    0    0  0.87010570955E+03  0.12842937840E+04  0.63103767939E+04  0.65000000000E+04  0.15050000000E+03 0. -1.
</event>
<event>
 4    1  0.5143956E-004  0.6500000E+04  0.7818608E-02  0.7223770E-01
         52   -1    0    0    0    0  0.00000000000E+00  0.00000000000E+00  0.64930732323E+04  0.65000000000E+04  0.30000000000E+03 0.  1.
        -52   -1    0    0    0    0 -0.00000000000E+00 -0.00000000000E+00 -0.64930732323E+04  0.65000000000E+04  0.30000000000E+03 0. -1.
     100001    1    1    2    0    0 -0.21783165848E+03 -0.29434085059E+03 -0.64879320729E+04  0.65000000000E+04  0.15050000000E+03 0. -1.
     100001    1    1    2    0    0  0.21783165848E+03  0.29434085059E+03  0.64879320729E+04  0.65000000000E+04  0.15050000000E+03 0.  1.
</event>
<event>
 4    1  0.5143956E-004  0.6500000E+04  0.7818608E-02  0.7223770E-01
         52   -1    0    0    0    0  0.00000000000E+00  0.00000000000E+00  0.64930732323E+04  0.65000000000E+04  0.30000000000E+03 0.  1.
        -52   -1    0    0    0    0 -0.00000000000E+00 -0.00000000000E+00 -0.64930732323E+04  0.65000000000E+04  0.30000000000E+03 0. -1.
     100001    1    1    2    0    0 -0.17768055715E+04  0.24024614396E+04  0.57704844461E+04  0.65000000000E+04  0.15050000000E+03 0.  1.
     100001    1    1    2    0    0  0.17768055715E+04 -0.24024614396E+04 -0.57704844461E+04  0.65000000000E+04  0.15050000000E+03 0. -1.
</event>
<event>
 4    1  0.5143956E-004  0.6500000E+04  0.7818608E-02  0.7223770E-01
         52   -1    0    0    0    0  0.00000000000E+00  0.00000000000E+00  0.64930732323E+04  0.65000000000E+04  0.30000000000E+03 0.  1.
        -52   -1    0    0    0    0 -0.00000000000E+00 -0.00000000000E+00 -0.64930732323E+04  0.65000000000E+04  0.30000000000E+03 0. -1.
     100001    1    1    2    0    0  0.18148075289E+04 -0.20377275921E+03 -0.62363691396E+04  0.65000000000E+04  0.15050000000E+03 0. -1.
     100001    1    1    2    0    0 -0.18148075289E+04  0.20377275921E+03  0.62363691396E+04  0.65000000000E+04  0.15050000000E+03 0.  1.
</event>
<event>
 4    1  0.5143956E-004  0.6500000E+04  0.7818608E-02  0.7223770E-01
         52   -1    0    0    0    0  0.00000000000E+00  0.00000000000E+00  0.64930732323E+04  0.65000000000E+04  0.30000000000E+03 0. -1.
        -52   -1    0    0    0    0 -0.00000000000E+00 -0.00000000000E+00 -0.64930732323E+04  0.65000000000E+04  0.30000000000E+03 0. -1.
     100001    1    1    2    0    0  0.30525951130E+03 -0.53096281859E+02 -0.64908664418E+04  0.65000000000E+04  0.15050000000E+03 0. -1.
     100001    1    1    2    0    0 -0.30525951130E+03  0.53096281859E+02  0.64908664418E+04  0.65000000000E+04  0.15050000000E+03 0. -1.
</event>
<event>
 4    1  0.5143956E-004  0.6500000E+04  0.7818608E-02  0.7223770E-01
         52   -1    0    0    0    0  0.00000000000E+00  0.00000000000E+00  0.64930732323E+04  0.65000000000E+04  0.30000000000E+03 0. -1.
        -52   -1    0    0    0    0 -0.00000000000E+00 -0.00000000000E+00 -0.64930732323E+04  0.65000000000E+04  0.30000000000E+03 0.  1.
     100001    1    1    2    0    0 -0.22305583145E+04  0.16280371498E+04 -0.58823000939E+04  0.65000000000E+04  0.15050000000E+03 0.  1.
     100001    1    1    2    0    0  0.22305583145E+04 -0.16280371498E+04  0.58823000939E+04  0.65000000000E+04  0.15050000000E+03 0. -1.
</event>
<event>
 4    1  0.5143956E-004  0.6500000E+04  0.7818608E-02  0.7223770E-01
         52   -1    0    0    0    0  0.00000000000E+00  0.00000000000E+00  0.64930732323E+04  0.65000000000E+04  0.30000000000E+03 0. -1.
        -52   -1    0    0    0    0 -0.00000000000E+00 -0.00000000000E+00 -0.64930732323E+04  0.65000000000E+04  0.30000000000E+03 0.  1.
     100001    1    1    2    0    0 -0.13514715459E+04  0.83872977090E+02  0.63556148195E+04  0.65000000000E+04  0.15050000000E+03 0. -1.
     100001    1    1    2    0    0  0.13514715459E+04 -0.83872977090E+02 -0.63556148195E+04  0.65000000000E+04  0.15050000000E+03 0.  1.
</event>
<event>
 4    1  0.6731839E-004  0.6500000E+04  0.7818608E-02  0.7223770E-01
         52   -1    0    0    0    0  0.00000000000E+00  0.00000000000E+00  0.64930732323E+04  0.65000000000E+04  0.30000000000E+03 0.  1.
        -52   -1    0    0    0    0 -0.00000000000E+00 -0.00000000000E+00 -0.64930732323E+04  0.65000000000E+04  0.30000000000E+03 0.  1.
     100001    1    1    2    0    0  0.33502793565E+02  0.15306600891E+03 -0.64963680707E+04  0.65000000000E+04  0.15050000000E+03 0.  1.
     100001    1    1    2    0    0 -0.33502793565E+02 -0.15306600891E+03  0.64963680707E+04  0.65000000000E+04  0.15050000000E+03 0.  1.
</event>
<event>
 4    1  0.5143956E-004  0.6500000E+04  0.7818608E-02  0.7223770E-01
         52   -1    0    0    0    0  0.00000000000E+00  0.00000000000E+00  0.64930732323E+04  0.65000000000E+04  0.30000000000E+03 0.  1.
        -52   -1    0    0    0    0 -0.00000000000E+00 -0.00000000000E+00 -0.64930732323E+04  0.65000000000E+04  0.30000000000E+03 0. -1.
     100001    1    1    2    0    0  0.47111513094E+03 -0.10333905744E+04  0.63982422746E+04  0.65000000000E+04  0.15050000000E+03 0.  1.
     100001    1    1    2    0    0 -0.47111513094E+03  0.10333905744E+04 -0.63982422746E+04  0.65000000000E+04  0.15050000000E+03 0. -1.
</event>
<event>
 4    1  0.5143956E-004  0.6500000E+04  0.7818608E-02  0.7223770E-01
         52   -1    0    0    0    0  0.00000000000E+00  0.00000000000E+00  0.64930732323E+04  0.65000000000E+04  0.30000000000E+03 0.  1.
        -52   -1    0    0    0    0 -0.00000000000E+00 -0.00000000000E+00 -0.64930732323E+04  0.65000000000E+04  0.30000000000E+03 0. -1.
     100001    1    1    2    0    0  0.12667876463E+03  0.37996561642E+04 -0.52700963250E+04  0.65000000000E+04  0.15050000000E+03 0. -1.
     100001    1    1    2    0    0 -0.12667876463E+03 -0.37996561642E+04  0.52700963250E+04  0.65000000000E+04  0.15050000000E+03 0.  1.
</event>
<event>
 4    1  0.5143956E-004  0.6500000E+04  0.7818608E-02  0.7223770E-01
         52   -1    0    0    0    0  0.00000000000E+00  0.00000000000E+00  0.64930732323E+04  0.65000000000E+04  0.30000000000E+03 0. -1.
        -52   -1    0    0    0    0 -0.00000000000E+00 -0.00000000000E+00 -0.64930732323E+04  0.65000000000E+04  0.30000000000E+03 0.  1.
     100001    1    1    2    0    0 -0.55688056602E+04  0.73055278991E+03  0.32683399288E+04  0.65000000000E+04  0.15050000000E+03 0. -1.
     100001    1    1    2    0    0  0.55688056602E+04 -0.73055278991E+03 -0.32683399288E+04  0.65000000000E+04  0.15050000000E+03 0.  1.
</event>
<event>
 4    1  0.5143956E-004  0.6500000E+04  0.7818608E-02  0.7223770E-01
         52   -1    0    0    0    0  0.00000000000E+00  0.00000000000E+00  0.64930732323E+04  0.65000000000E+04  0.30000000000E+03 0. -1.
        -52   -1    0    0    0    0 -0.00000000000E+00 -0.00000000000E+00 -0.64930732323E+04  0.65000000000E+04  0.30000000000E+03 0.  1.
     100001    1    1    2    0    0 -0.27010947483E+03 -0.91700298704E+03  0.64275575566E+04  0.65000000000E+04  0.15050000000E+03 0. -1.
     100001    1    1    2    0    0  0.27010947483E+03  0.91700298704E+03 -0.64275575566E+04  0.65000000000E+04  0.15050000000E+03 0.  1.
</event>
<event>
 4    1  0.5143956E-004  0.6500000E+04  0.7818608E-02  0.7223770E-01
         52   -1    0    0    0    0  0.00000000000E+00  0.00000000000E+00  0.64930732323E+04  0.65000000000E+04  0.30000000000E+03 0.  1.
        -52   -1    0    0    0    0 -0.00000000000E+00 -0.00000000000E+00 -0.64930732323E+04  0.65000000000E+04  0.30000000000E+03 0. -1.
     100001    1    1    2    0    0 -0.14669015579E+04  0.71109088417E+03  0.62904609787E+04  0.65000000000E+04  0.15050000000E+03 0.  1.
     100001    1    1    2    0    0  0.14669015579E+04 -0.71109088417E+03 -0.62904609787E+04  0.65000000000E+04  0.15050000000E+03 0. -1.
</event>
<event>
 4    1  0.5143956E-004  0.6500000E+04  0.7818608E-02  0.7223770E-01
         52   -1    0    0    0    0  0.00000000000E+00  0.00000000000E+00  0.64930732323E+04  0.65000000000E+04  0.30000000000E+03 0. -1.
        -52   -1    0    0    0    0 -0.00000000000E+00 -0.00000000000E+00 -0.64930732323E+04  0.65000000000E+04  0.30000000000E+03 0.  1.
     100001    1    1    2    0    0 -0.23930197175E+04  0.11376819831E+04  0.59335053794E+04  0.65000000000E+04  0.15050000000E+03 0. -1.
     100001    1    1    2    0    0  0.23930197175E+04 -0.11376819831E+04 -0.59335053794E+04  0.65000000000E+04  0.15050000000E+03 0.  1.
</event>
<event>
 4    1  0.5143956E-004  0.6500000E+04  0.7818608E-02  0.7223770E-01
         52   -1    0    0    0    0  0.00000000000E+00  0.00000000000E+00  0.64930732323E+04  0.65000000000E+04  0.30000000000E+03 0. -1.
        -52   -1    0    0    0    0 -0.00000000000E+00 -0.00000000000E+00 -0.64930732323E+04  0.65000000000E+04  0.30000000000E+03 0.  1.
     100001    1    1    2    0    0 -0.64897103447E+03  0.32807921307E+04 -0.55715876859E+04  0.65000000000E+04  0.15050000000E+03 0.  1.
     100001    1    1    2    0    0  0.64897103447E+03 -0.32807921307E+04  0.55715876859E+04  0.65000000000E+04  0.15050000000E+03 0. -1.
</event>
<event>
 4    1  0.5143956E-004  0.6500000E+04  0.7818608E-02  0.7223770E-01
         52   -1    0    0    0    0  0.00000000000E+00  0.00000000000E+00  0.64930732323E+04  0.65000000000E+04  0.30000000000E+03 0. -1.
        -52   -1    0    0    0    0 -0.00000000000E+00 -0.00000000000E+00 -0.64930732323E+04  0.65000000000E+04  0.30000000000E+03 0.  1.
     100001    1    1    2    0    0  0.39531039551E+04  0.96902450837E+03 -0.50656993962E+04  0.65000000000E+04  0.15050000000E+03 0.  1.
     100001    1    1    2    0    0 -0.39531039551E+04 -0.96902450837E+03  0.50656993962E+04  0.65000000000E+04  0.15050000000E+03 0. -1.
</event>
<event>
 4    1  0.5143956E-004  0.6500000E+04  0.7818608E-02  0.7223770E-01
         52   -1    0    0    0    0  0.00000000000E+00  0.00000000000E+00  0.64930732323E+04  0.65000000000E+04  0.30000000000E+03 0.  1.
        -52   -1    0    0    0    0 -0.00000000000E+00 -0.00000000000E+00 -0.64930732323E+04  0.65000000000E+04  0.30000000000E+03 0. -1.
     100001    1    1    2    0    0  0.61578504826E+03 -0.12546747334E+04 -0.63461760012E+04  0.65000000000E+04  0.15050000000E+03 0. -1.
     100001    1    1    2    0    0 -0.61578504826E+03  0.12546747334E+04  0.63461760012E+04  0.65000000000E+04  0.15050000000E+03 0.  1.
</event>
<event>
 4    1  0.5143956E-004  0.6500000E+04  0.7818608E-02  0.7223770E-01
         52   -1    0    0    0    0  0.00000000000E+00  0.00000000000E+00  0.64930732323E+04  0.65000000000E+04  0.30000000000E+03 0.  1.
        -52   -1    0    0    0    0 -0.00000000000E+00 -0.00000000000E+00 -0.64930732323E+04  0.65000000000E+04  0.30000000000E+03 0. -1.
     100001    1    1    2    0    0 -0.76950756416E+03  0.69394291252E+03  0.64151111520E+04  0.65000000000E+04  0.15050000000E+03 0.  1.
     100001    1    1    2    0    0  0.76950756416E+03 -0.69394291252E+03 -0.64151111520E+04  0.65000000000E+04  0.15050000000E+03 0. -1.
</event>
<event>
 4    1  0.7724889E-004  0.6500000E+04  0.7818608E-02  0.7223770E-01
         52   -1    0    0    0    0  0.00000000000E+00  0.00000000000E+00  0.64930732323E+04  0.65000000000E+04  0.30000000000E+03 0. -1.
        -52   -1    0    0    0    0 -0.00000000000E+00 -0.00000000000E+00 -0.64930732323E+04  0.65000000000E+04  0.30000000000E+03 0. -1.
     100001    1    1    2    0    0 -0.12214034184E+03  0.49912190245E+02 -0.64969177508E+04  0.65000000000E+04  0.15050000000E+03 0. -1.
     100001    1    1    2    0    0  0.12214034184E+03 -0.49912190245E+02  0.64969177508E+04  0.65000000000E+04  0.15050000000E+03 0. -1.
</event>
<event>
 4    1  0.5143956E-004  0.6500000E+04  0.7818608E-02  0.7223770E-01
         52   -1    0    0    0    0  0.00000000000E+00  0.00000000000E+00  0.64930732323E+04  0.65000000000E+04  0.30000000000E+03 0. -1.
        -52   -1    0    0    0    0 -0.00000000000E+00 -0.00000000000E+00 -0.64930732323E+04  0.65000000000E+04  0.30000000000E+03 0.  1.
     100001    1    1    2    0    0  0.33961841835E+04  0.31924973999E+04 -0.45278298437E+04  0.65000000000E+04  0.15050000000E+03 0.  1.
     100001    1    1    2    0    0 -0.33961841835E+04 -0.31924973999E+04  0.45278298437E+04  0.65000000000E+04  0.15050000000E+03 0. -1.
</event>
<event>
 4    1  0.5143956E-004  0.6500000E+04  0.7818608E-02  0.7223770E-01
         52   -1    0    0    0    0  0.00000000000E+00  0.00000000000E+00  0.64930732323E+04  0.65000000000E+04  0.30000000000E+03 0.  1.
        -52   -1    0    0    0    0 -0.00000000000E+00 -0.00000000000E+00 -0.64930732323E+04  0.65000000000E+04  0.30000000000E+03 0. -1.
     100001    1    1    2    0    0 -0.26294619421E+04  0.50518088638E+04 -0.31292981399E+04  0.65000000000E+04  0.15050000000E+03 0. -1.
     100001    1    1    2    0    0  0.26294619421E+04 -0.50518088638E+04  0.31292981399E+04  0.65000000000E+04  0.15050000000E+03 0.  1.
</event>
<event>
 4    1  0.5143956E-004  0.6500000E+04  0.7818608E-02  0.7223770E-01
         52   -1    0    0    0    0  0.00000000000E+00  0.00000000000E+00  0.64930732323E+04  0.65000000000E+04  0.30000000000E+03 0. -1.
        -52   -1    0    0    0    0 -0.00000000000E+00 -0.00000000000E+00 -0.64930732323E+04  0.65000000000E+04  0.30000000000E+03 0.  1.
     100001    1    1    2    0    0  0.53174736773E+04 -0.13596656718E+04  0.34789556914E+04  0.65000000000E+04  0.15050000000E+03 0. -1.
     100001    1    1    2    0    0 -0.53174736773E+04  0.13596656718E+04 -0.34789556914E+04  0.65000000000E+04  0.15050000000E+03 0.  1.
</event>
<event>
 4    1  0.5143956E-004  0.6500000E+04  0.7818608E-02  0.7223770E-01
         52   -1    0    0    0    0  0.00000000000E+00  0.00000000000E+00  0.64930732323E+04  0.65000000000E+04  0.30000000000E+03 0. -1.
        -52   -1    0    0    0    0 -0.00000000000E+00 -0.00000000000E+00 -0.64930732323E+04  0.65000000000E+04  0.30000000000E+03 0.  1.
     100001    1    1    2    0    0 -0.16277243601E+04  0.78919639689E+03  0.62413966550E+04  0.65000000000E+04  0.15050000000E+03 0. -1.
     100001    1    1    2    0    0  0.16277243601E+04 -0.78919639689E+03 -0.62413966550E+04  0.65000000000E+04  0.15050000000E+03 0.  1.
</event>
<event>
 4    1  0.5143956E-004  0.6500000E+04  0.7818608E-02  0.7223770E-01
         52   -1    0    0    0    0  0.00000000000E+00  0.00000000000E+00  0.64930732323E+04  0.65000000000E+04  0.30000000000E+03 0. -1.
        -52   -1    0    0    0    0 -0.00000000000E+00 -0.00000000000E+00 -0.64930732323E+04  0.65000000000E+04  0.30000000000E+03 0.  1.
     100001    1    1    2    0    0  0.53732390541E+04 -0.33774570654E+04 -0.13958637429E+04  0.65000000000E+04  0.15050000000E+03 0.  1.
     100001    1    1    2    0    0 -0.53732390541E+04  0.33774570654E+04  0.13958637429E+04  0.65000000000E+04  0.15050000000E+03 0. -1.
</event>
<event>
 4    1  0.5143956E-004  0.6500000E+04  0.7818608E-02  0.7223770E-01
         52   -1    0    0    0    0  0.00000000000E+00  0.00000000000E+00  0.64930732323E+04  0.65000000000E+04  0.30000000000E+03 0.  1.
        -52   -1    0    0    0    0 -0.00000000000E+00 -0.00000000000E+00 -0.64930732323E+04  0.65000000000E+04  0.30000000000E+03 0. -1.
     100001    1    1    2    0    0 -0.23262739621E+04 -0.53789832312E+03  0.60437128156E+04  0.65000000000E+04  0.15050000000E+03 0.  1.
     100001    1    1    2    0    0  0.23262739621E+04  0.53789832312E+03 -0.60437128156E+04  0.65000000000E+04  0.15050000000E+03 0. -1.
</event>
<event>
 4    1  0.5143956E-004  0.6500000E+04  0.7818608E-02  0.7223770E-01
         52   -1    0    0    0    0  0.00000000000E+00  0.00000000000E+00  0.64930732323E+04  0.65000000000E+04  0.30000000000E+03 0. -1.
        -52   -1    0    0    0    0 -0.00000000000E+00 -0.00000000000E+00 -0.64930732323E+04  0.65000000000E+04  0.30000000000E+03 0. -1.
     100001    1    1    2    0    0  0.16608715427E+03 -0.39608859688E+03  0.64840480127E+04  0.65000000000E+04  0.15050000000E+03 0. -1.
     100001    1    1    2    0    0 -0.16608715427E+03  0.39608859688E+03 -0.64840480127E+04  0.65000000000E+04  0.15050000000E+03 0. -1.
</event>
<event>
 4    1  0.5143956E-004  0.6500000E+04  0.7818608E-02  0.7223770E-01
         52   -1    0    0    0    0  0.00000000000E+00  0.00000000000E+00  0.64930732323E+04  0.65000000000E+04  0.30000000000E+03 0. -1.
        -52   -1    0    0    0    0 -0.00000000000E+00 -0.00000000000E+00 -0.64930732323E+04  0.65000000000E+04  0.30000000000E+03 0.  1.
     100001    1    1    2    0    0  0.16901319023E+04  0.18519043497E+04  0.59951025164E+04  0.65000000000E+04  0.15050000000E+03 0. -1.
     100001    1    1    2    0    0 -0.16901319023E+04 -0.18519043497E+04 -0.59951025164E+04  0.65000000000E+04  0.15050000000E+03 0.  1.
</event>
<event>
 4    1  0.5143956E-004  0.6500000E+04  0.7818608E-02  0.7223770E-01
         52   -1    0    0    0    0  0.00000000000E+00  0.00000000000E+00  0.64930732323E+04  0.65000000000E+04  0.30000000000E+03 0.  1.
        -52   -1    0    0    0    0 -0.00000000000E+00 -0.00000000000E+00 -0.64930732323E+04  0.65000000000E+04  0.30000000000E+03 0.  1.
     100001    1    1    2    0    0 -0.20378122115E+04 -0.59569199049E+04 -0.16092782192E+04  0.65000000000E+04  0.15050000000E+03 0.  1.
     100001    1    1    2    0    0  0.20378122115E+04  0.59569199049E+04  0.16092782192E+04  0.65000000000E+04  0.15050000000E+03 0. -1.
</event>
<event>
 4    1  0.5143956E-004  0.6500000E+04  0.7818608E-02  0.7223770E-01
         52   -1    0    0    0    0  0.00000000000E+00  0.00000000000E+00  0.64930732323E+04  0.65000000000E+04  0.30000000000E+03 0.  1.
        -52   -1    0    0    0    0 -0.00000000000E+00 -0.00000000000E+00 -0.64930732323E+04  0.65000000000E+04  0.30000000000E+03 0.  1.
     100001    1    1    2    0    0  0.39245608930E+03 -0.56379253296E+03  0.64618469456E+04  0.65000000000E+04  0.15050000000E+03 0.  1.
     100001    1    1    2    0    0 -0.39245608930E+03  0.56379253296E+03 -0.64618469456E+04  0.65000000000E+04  0.15050000000E+03 0.  1.
</event>
<event>
 4    1  0.5143956E-004  0.6500000E+04  0.7818608E-02  0.7223770E-01
         52   -1    0    0    0    0  0.00000000000E+00  0.00000000000E+00  0.64930732323E+04  0.65000000000E+04  0.30000000000E+03 0.  1.
        -52   -1    0    0    0    0 -0.00000000000E+00 -0.00000000000E+00 -0.64930732323E+04  0.65000000000E+04  0.30000000000E+03 0. -1.
     100001    1    1    2    0    0  0.13523604733E+03  0.27122835870E+03 -0.64911860348E+04  0.65000000000E+04  0.15050000000E+03 0. -1.
     100001    1    1    2    0    0 -0.13523604733E+03 -0.27122835870E+03  0.64911860348E+04  0.65000000000E+04  0.15050000000E+03 0.  1.
</event>
<event>
 4    1  0.5143956E-004  0.6500000E+04  0.7818608E-02  0.7223770E-01
         52   -1    0    0    0    0  0.00000000000E+00  0.00000000000E+00  0.64930732323E+04  0.65000000000E+04  0.30000000000E+03 0. -1.
        -52   -1    0    0    0    0 -0.00000000000E+00 -0.00000000000E+00 -0.64930732323E+04  0.65000000000E+04  0.30000000000E+03 0.  1.
     100001    1    1    2    0    0 -0.20007725945E+04 -0.17800543576E+04 -0.59207824871E+04  0.65000000000E+04  0.15050000000E+03 0.  1.
     100001    1    1    2    0    0  0.20007725945E+04  0.17800543576E+04  0.59207824871E+04  0.65000000000E+04  0.15050000000E+03 0. -1.
</event>
<event>
 4    1  0.5143956E-004  0.6500000E+04  0.7818608E-02  0.7223770E-01
         52   -1    0    0    0    0  0.00000000000E+00  0.00000000000E+00  0.64930732323E+04  0.65000000000E+04  0.30000000000E+03 0.  1.
        -52   -1    0    0    0    0 -0.00000000000E+00 -0.00000000000E+00 -0.64930732323E+04  0.65000000000E+04  0.30000000000E+03 0. -1.
     100001    1    1    2    0    0  0.56182101068E+03  0.80365317059E+03  0.64238499736E+04  0.65000000000E+04  0.15050000000E+03 0.  1.
     100001    1    1    2    0    0 -0.56182101068E+03 -0.80365317059E+03 -0.64238499736E+04  0.65000000000E+04  0.15050000000E+03 0. -1.
</event>
<event>
 4    1  0.5143956E-004  0.6500000E+04  0.7818608E-02  0.7223770E-01
         52   -1    0    0    0    0  0.00000000000E+00  0.00000000000E+00  0.64930732323E+04  0.65000000000E+04  0.30000000000E+03 0.  1.
        -52   -1    0    0    0    0 -0.00000000000E+00 -0.00000000000E+00 -0.64930732323E+04  0.65000000000E+04  0.30000000000E+03 0. -1.
     100001    1    1    2    0    0  0.14847660886E+03  0.10275969532E+04  0.64147758299E+04  0.65000000000E+04  0.15050000000E+03 0.  1.
     100001    1    1    2    0    0 -0.14847660886E+03 -0.10275969532E+04 -0.64147758299E+04  0.65000000000E+04  0.15050000000E+03 0. -1.
</event>
<event>
 4    1  0.5143956E-004  0.6500000E+04  0.7818608E-02  0.7223770E-01
         52   -1    0    0    0    0  0.00000000000E+00  0.00000000000E+00  0.64930732323E+04  0.65000000000E+04  0.30000000000E+03 0. -1.
        -52   -1    0    0    0    0 -0.00000000000E+00 -0.00000000000E+00 -0.64930732323E+04  0.65000000000E+04  0.30000000000E+03 0.  1.
     100001    1    1    2    0    0  0.27873857930E+04  0.44377460530E+04 -0.38424263376E+04  0.65000000000E+04  0.15050000000E+03 0.  1.
     100001    1    1    2    0    0 -0.27873857930E+04 -0.44377460530E+04  0.38424263376E+04  0.65000000000E+04  0.15050000000E+03 0. -1.
</event>
<event>
 4    1  0.5143956E-004  0.6500000E+04  0.7818608E-02  0.7223770E-01
         52   -1    0    0    0    0  0.00000000000E+00  0.00000000000E+00  0.64930732323E+04  0.65000000000E+04  0.30000000000E+03 0. -1.
        -52   -1    0    0    0    0 -0.00000000000E+00 -0.00000000000E+00 -0.64930732323E+04  0.65000000000E+04  0.30000000000E+03 0.  1.
     100001    1    1    2    0    0 -0.12037279171E+04  0.79152228255E+03  0.63365512172E+04  0.65000000000E+04  0.15050000000E+03 0. -1.
     100001    1    1    2    0    0  0.12037279171E+04 -0.79152228255E+03 -0.63365512172E+04  0.65000000000E+04  0.15050000000E+03 0.  1.
</event>
<event>
 4    1  0.5143956E-004  0.6500000E+04  0.7818608E-02  0.7223770E-01
         52   -1    0    0    0    0  0.00000000000E+00  0.00000000000E+00  0.64930732323E+04  0.65000000000E+04  0.30000000000E+03 0.  1.
        -52   -1    0    0    0    0 -0.00000000000E+00 -0.00000000000E+00 -0.64930732323E+04  0.65000000000E+04  0.30000000000E+03 0. -1.
     100001    1    1    2    0    0 -0.38347512445E+04  0.29253947823E+04 -0.43547787556E+04  0.65000000000E+04  0.15050000000E+03 0. -1.
     100001    1    1    2    0    0  0.38347512445E+04 -0.29253947823E+04  0.43547787556E+04  0.65000000000E+04  0.15050000000E+03 0.  1.
</event>
<event>
 4    1  0.5143956E-004  0.6500000E+04  0.7818608E-02  0.7223770E-01
         52   -1    0    0    0    0  0.00000000000E+00  0.00000000000E+00  0.64930732323E+04  0.65000000000E+04  0.30000000000E+03 0.  1.
        -52   -1    0    0    0    0 -0.00000000000E+00 -0.00000000000E+00 -0.64930732323E+04  0.65000000000E+04  0.30000000000E+03 0. -1.
     100001    1    1    2    0    0 -0.23227262763E+04 -0.23124752691E+04  0.56111273845E+04  0.65000000000E+04  0.15050000000E+03 0.  1.
     100001    1    1    2    0    0  0.23227262763E+04  0.23124752691E+04 -0.56111273845E+04  0.65000000000E+04  0.15050000000E+03 0. -1.
</event>
<event>
 4    1  0.5143956E-004  0.6500000E+04  0.7818608E-02  0.7223770E-01
         52   -1    0    0    0    0  0.00000000000E+00  0.00000000000E+00  0.64930732323E+04  0.65000000000E+04  0.30000000000E+03 0. -1.
        -52   -1    0    0    0    0 -0.00000000000E+00 -0.00000000000E+00 -0.64930732323E+04  0.65000000000E+04  0.30000000000E+03 0.  1.
     100001    1    1    2    0    0 -0.74358443144E+02 -0.75109677596E+03  0.64542756530E+04  0.65000000000E+04  0.15050000000E+03 0. -1.
     100001    1    1    2    0    0  0.74358443144E+02  0.75109677596E+03 -0.64542756530E+04  0.65000000000E+04  0.15050000000E+03 0.  1.
</event>
<event>
 4    1  0.5143956E-004  0.6500000E+04  0.7818608E-02  0.7223770E-01
         52   -1    0    0    0    0  0.00000000000E+00  0.00000000000E+00  0.64930732323E+04  0.65000000000E+04  0.30000000000E+03 0. -1.
        -52   -1    0    0    0    0 -0.00000000000E+00 -0.00000000000E+00 -0.64930732323E+04  0.65000000000E+04  0.30000000000E+03 0.  1.
     100001    1    1    2    0    0 -0.17891782822E+04  0.33769868201E+03  0.62379604379E+04  0.65000000000E+04  0.15050000000E+03 0. -1.
     100001    1    1    2    0    0  0.17891782822E+04 -0.33769868201E+03 -0.62379604379E+04  0.65000000000E+04  0.15050000000E+03 0.  1.
</event>
<event>
 4    1  0.5143956E-004  0.6500000E+04  0.7818608E-02  0.7223770E-01
         52   -1    0    0    0    0  0.00000000000E+00  0.00000000000E+00  0.64930732323E+04  0.65000000000E+04  0.30000000000E+03 0. -1.
        -52   -1    0    0    0    0 -0.00000000000E+00 -0.00000000000E+00 -0.64930732323E+04  0.65000000000E+04  0.30000000000E+03 0.  1.
     100001    1    1    2    0    0  0.29890942335E+04  0.21872986158E+03  0.57658323476E+04  0.65000000000E+04  0.15050000000E+03 0. -1.
     100001    1    1    2    0    0 -0.29890942335E+04 -0.21872986158E+03 -0.57658323476E+04  0.65000000000E+04  0.15050000000E+03 0.  1.
</event>
<event>
 4    1  0.5143956E-004  0.6500000E+04  0.7818608E-02  0.7223770E-01
         52   -1    0    0    0    0  0.00000000000E+00  0.00000000000E+00  0.64930732323E+04  0.65000000000E+04  0.30000000000E+03 0. -1.
        -52   -1    0    0    0    0 -0.00000000000E+00 -0.00000000000E+00 -0.64930732323E+04  0.65000000000E+04  0.30000000000E+03 0.  1.
     100001    1    1    2    0    0 -0.62270865061E+03 -0.35590106797E+03  0.64585538719E+04  0.65000000000E+04  0.15050000000E+03 0. -1.
     100001    1    1    2    0    0  0.62270865061E+03  0.35590106797E+03 -0.64585538719E+04  0.65000000000E+04  0.15050000000E+03 0.  1.
</event>
<event>
 4    1  0.5143956E-004  0.6500000E+04  0.7818608E-02  0.7223770E-01
         52   -1    0    0    0    0  0.00000000000E+00  0.00000000000E+00  0.64930732323E+04  0.65000000000E+04  0.30000000000E+03 0. -1.
        -52   -1    0    0    0    0 -0.00000000000E+00 -0.00000000000E+00 -0.64930732323E+04  0.65000000000E+04  0.30000000000E+03 0.  1.
     100001    1    1    2    0    0 -0.44079872991E+04 -0.98876478351E+03  0.46711178452E+04  0.65000000000E+04  0.15050000000E+03 0. -1.
     100001    1    1    2    0    0  0.44079872991E+04  0.98876478351E+03 -0.46711178452E+04  0.65000000000E+04  0.15050000000E+03 0.  1.
</event>
<event>
 4    1  0.5143956E-004  0.6500000E+04  0.7818608E-02  0.7223770E-01
         52   -1    0    0    0    0  0.00000000000E+00  0.00000000000E+00  0.64930732323E+04  0.65000000000E+04  0.30000000000E+03 0. -1.
        -52   -1    0    0    0    0 -0.00000000000E+00 -0.00000000000E+00 -0.64930732323E+04  0.65000000000E+04  0.30000000000E+03 0.  1.
     100001    1    1    2    0    0 -0.72275612906E+03  0.15288571729E+04 -0.62743580606E+04  0.65000000000E+04  0.15050000000E+03 0.  1.
     100001    1    1    2    0    0  0.72275612906E+03 -0.15288571729E+04  0.62743580606E+04  0.65000000000E+04  0.15050000000E+03 0. -1.
</event>
<event>
 4    1  0.5143956E-004  0.6500000E+04  0.7818608E-02  0.7223770E-01
         52   -1    0    0    0    0  0.00000000000E+00  0.00000000000E+00  0.64930732323E+04  0.65000000000E+04  0.30000000000E+03 0.  1.
        -52   -1    0    0    0    0 -0.00000000000E+00 -0.00000000000E+00 -0.64930732323E+04  0.65000000000E+04  0.30000000000E+03 0. -1.
     100001    1    1    2    0    0 -0.14992390374E+04  0.28731789533E+04 -0.56324483807E+04  0.65000000000E+04  0.15050000000E+03 0. -1.
     100001    1    1    2    0    0  0.14992390374E+04 -0.28731789533E+04  0.56324483807E+04  0.65000000000E+04  0.15050000000E+03 0.  1.
</event>
<event>
 4    1  0.5143956E-004  0.6500000E+04  0.7818608E-02  0.7223770E-01
         52   -1    0    0    0    0  0.00000000000E+00  0.00000000000E+00  0.64930732323E+04  0.65000000000E+04  0.30000000000E+03 0. -1.
        -52   -1    0    0    0    0 -0.00000000000E+00 -0.00000000000E+00 -0.64930732323E+04  0.65000000000E+04  0.30000000000E+03 0.  1.
     100001    1    1    2    0    0 -0.16377250714E+04 -0.24780923677E+04 -0.57796422517E+04  0.65000000000E+04  0.15050000000E+03 0.  1.
     100001    1    1    2    0    0  0.16377250714E+04  0.24780923677E+04  0.57796422517E+04  0.65000000000E+04  0.15050000000E+03 0. -1.
</event>
<event>
 4    1  0.5143956E-004  0.6500000E+04  0.7818608E-02  0.7223770E-01
         52   -1    0    0    0    0  0.00000000000E+00  0.00000000000E+00  0.64930732323E+04  0.65000000000E+04  0.30000000000E+03 0. -1.
        -52   -1    0    0    0    0 -0.00000000000E+00 -0.00000000000E+00 -0.64930732323E+04  0.65000000000E+04  0.30000000000E+03 0.  1.
     100001    1    1    2    0    0  0.34644042478E+03  0.46410653260E+03 -0.64723978484E+04  0.65000000000E+04  0.15050000000E+03 0.  1.
     100001    1    1    2    0    0 -0.34644042478E+03 -0.46410653260E+03  0.64723978484E+04  0.65000000000E+04  0.15050000000E+03 0. -1.
</event>
<event>
 4    1  0.5143956E-004  0.6500000E+04  0.7818608E-02  0.7223770E-01
         52   -1    0    0    0    0  0.00000000000E+00  0.00000000000E+00  0.64930732323E+04  0.65000000000E+04  0.30000000000E+03 0. -1.
        -52   -1    0    0    0    0 -0.00000000000E+00 -0.00000000000E+00 -0.64930732323E+04  0.65000000000E+04  0.30000000000E+03 0.  1.
     100001    1    1    2    0    0 -0.11787063731E+04  0.10849361702E+04  0.62976912073E+04  0.65000000000E+04  0.15050000000E+03 0. -1.
     100001    1    1    2    0    0  0.11787063731E+04 -0.10849361702E+04 -0.62976912073E+04  0.65000000000E+04  0.15050000000E+03 0.  1.
</event>
<event>
 4    1  0.5143956E-004  0.6500000E+04  0.7818608E-02  0.7223770E-01
         52   -1    0    0    0    0  0.00000000000E+00  0.00000000000E+00  0.64930732323E+04  0.65000000000E+04  0.30000000000E+03 0. -1.
        -52   -1    0    0    0    0 -0.00000000000E+00 -0.00000000000E+00 -0.64930732323E+04  0.65000000000E+04  0.30000000000E+03 0.  1.
     100001    1    1    2    0    0 -0.12325603941E+04  0.53136907723E+04 -0.35316901055E+04  0.65000000000E+04  0.15050000000E+03 0.  1.
     100001    1    1    2    0    0  0.12325603941E+04 -0.53136907723E+04  0.35316901055E+04  0.65000000000E+04  0.15050000000E+03 0. -1.
</event>
<event>
 4    1  0.5143956E-004  0.6500000E+04  0.7818608E-02  0.7223770E-01
         52   -1    0    0    0    0  0.00000000000E+00  0.00000000000E+00  0.64930732323E+04  0.65000000000E+04  0.30000000000E+03 0. -1.
        -52   -1    0    0    0    0 -0.00000000000E+00 -0.00000000000E+00 -0.64930732323E+04  0.65000000000E+04  0.30000000000E+03 0.  1.
     100001    1    1    2    0    0 -0.13996119752E+04  0.17184536766E+02 -0.63457183014E+04  0.65000000000E+04  0.15050000000E+03 0.  1.
     100001    1    1    2    0    0  0.13996119752E+04 -0.17184536766E+02  0.63457183014E+04  0.65000000000E+04  0.15050000000E+03 0. -1.
</event>
<event>
 4    1  0.5143956E-004  0.6500000E+04  0.7818608E-02  0.7223770E-01
         52   -1    0    0    0    0  0.00000000000E+00  0.00000000000E+00  0.64930732323E+04  0.65000000000E+04  0.30000000000E+03 0. -1.
        -52   -1    0    0    0    0 -0.00000000000E+00 -0.00000000000E+00 -0.64930732323E+04  0.65000000000E+04  0.30000000000E+03 0.  1.
     100001    1    1    2    0    0 -0.77225277621E+03 -0.36199269909E+03 -0.64420444492E+04  0.65000000000E+04  0.15050000000E+03 0.  1.
     100001    1    1    2    0    0  0.77225277621E+03  0.36199269909E+03  0.64420444492E+04  0.65000000000E+04  0.15050000000E+03 0. -1.
</event>
<event>
 4    1  0.5143956E-004  0.6500000E+04  0.7818608E-02  0.7223770E-01
         52   -1    0    0    0    0  0.00000000000E+00  0.00000000000E+00  0.64930732323E+04  0.65000000000E+04  0.30000000000E+03 0. -1.
        -52   -1    0    0    0    0 -0.00000000000E+00 -0.00000000000E+00 -0.64930732323E+04  0.65000000000E+04  0.30000000000E+03 0.  1.
     100001    1    1    2    0    0  0.26935569847E+04  0.72518376777E+02  0.59132767232E+04  0.65000000000E+04  0.15050000000E+03 0. -1.
     100001    1    1    2    0    0 -0.26935569847E+04 -0.72518376777E+02 -0.59132767232E+04  0.65000000000E+04  0.15050000000E+03 0.  1.
</event>
<event>
 4    1  0.5143956E-004  0.6500000E+04  0.7818608E-02  0.7223770E-01
         52   -1    0    0    0    0  0.00000000000E+00  0.00000000000E+00  0.64930732323E+04  0.65000000000E+04  0.30000000000E+03 0.  1.
        -52   -1    0    0    0    0 -0.00000000000E+00 -0.00000000000E+00 -0.64930732323E+04  0.65000000000E+04  0.30000000000E+03 0. -1.
     100001    1    1    2    0    0  0.32000846916E+03 -0.30747438689E+03 -0.64830859805E+04  0.65000000000E+04  0.15050000000E+03 0. -1.
     100001    1    1    2    0    0 -0.32000846916E+03  0.30747438689E+03  0.64830859805E+04  0.65000000000E+04  0.15050000000E+03 0.  1.
</event>
<event>
 4    1  0.5143956E-004  0.6500000E+04  0.7818608E-02  0.7223770E-01
         52   -1    0    0    0    0  0.00000000000E+00  0.00000000000E+00  0.64930732323E+04  0.65000000000E+04  0.30000000000E+03 0. -1.
        -52   -1    0    0    0    0 -0.00000000000E+00 -0.00000000000E+00 -0.64930732323E+04  0.65000000000E+04  0.30000000000E+03 0.  1.
     100001    1    1    2    0    0 -0.66772461126E+03  0.41406606601E+03 -0.64505846934E+04  0.65000000000E+04  0.15050000000E+03 0.  1.
     100001    1    1    2    0    0  0.66772461126E+03 -0.41406606601E+03  0.64505846934E+04  0.65000000000E+04  0.15050000000E+03 0. -1.
</event>
<event>
 4    1  0.5143956E-004  0.6500000E+04  0.7818608E-02  0.7223770E-01
         52   -1    0    0    0    0  0.00000000000E+00  0.00000000000E+00  0.64930732323E+04  0.65000000000E+04  0.30000000000E+03 0. -1.
        -52   -1    0    0    0    0 -0.00000000000E+00 -0.00000000000E+00 -0.64930732323E+04  0.65000000000E+04  0.30000000000E+03 0.  1.
     100001    1    1    2    0    0  0.11943278744E+04 -0.26585219582E+04  0.58080282090E+04  0.65000000000E+04  0.15050000000E+03 0. -1.
     100001    1    1    2    0    0 -0.11943278744E+04  0.26585219582E+04 -0.58080282090E+04  0.65000000000E+04  0.15050000000E+03 0.  1.
</event>
<event>
 4    1  0.5143956E-004  0.6500000E+04  0.7818608E-02  0.7223770E-01
         52   -1    0    0    0    0  0.00000000000E+00  0.00000000000E+00  0.64930732323E+04  0.65000000000E+04  0.30000000000E+03 0. -1.
        -52   -1    0    0    0    0 -0.00000000000E+00 -0.00000000000E+00 -0.64930732323E+04  0.65000000000E+04  0.30000000000E+03 0.  1.
     100001    1    1    2    0    0  0.62624867874E+04 -0.28478072433E+03  0.17109964720E+04  0.65000000000E+04  0.15050000000E+03 0.  1.
     100001    1    1    2    0    0 -0.62624867874E+04  0.28478072433E+03 -0.17109964720E+04  0.65000000000E+04  0.15050000000E+03 0. -1.
</event>
<event>
 4    1  0.5143956E-004  0.6500000E+04  0.7818608E-02  0.7223770E-01
         52   -1    0    0    0    0  0.00000000000E+00  0.00000000000E+00  0.64930732323E+04  0.65000000000E+04  0.30000000000E+03 0.  1.
        -52   -1    0    0    0    0 -0.00000000000E+00 -0.00000000000E+00 -0.64930732323E+04  0.65000000000E+04  0.30000000000E+03 0. -1.
     100001    1    1    2    0    0 -0.59273094225E+04 -0.26172347018E+04 -0.49440396036E+03  0.65000000000E+04  0.15050000000E+03 0. -1.
     100001    1    1    2    0    0  0.59273094225E+04  0.26172347018E+04  0.49440396036E+03  0.65000000000E+04  0.15050000000E+03 0.  1.
</event>
<event>
 4    1  0.5143956E-004  0.6500000E+04  0.7818608E-02  0.7223770E-01
         52   -1    0    0    0    0  0.00000000000E+00  0.00000000000E+00  0.64930732323E+04  0.65000000000E+04  0.30000000000E+03 0. -1.
        -52   -1    0    0    0    0 -0.00000000000E+00 -0.00000000000E+00 -0.64930732323E+04  0.65000000000E+04  0.30000000000E+03 0.  1.
     100001    1    1    2    0    0  0.23985073593E+03 -0.24567474945E+04 -0.60111740220E+04  0.65000000000E+04  0.15050000000E+03 0.  1.
     100001    1    1    2    0    0 -0.23985073593E+03  0.24567474945E+04  0.60111740220E+04  0.65000000000E+04  0.15050000000E+03 0. -1.
</event>
<event>
 4    1  0.5143956E-004  0.6500000E+04  0.7818608E-02  0.7223770E-01
         52   -1    0    0    0    0  0.00000000000E+00  0.00000000000E+00  0.64930732323E+04  0.65000000000E+04  0.30000000000E+03 0.  1.
        -52   -1    0    0    0    0 -0.00000000000E+00 -0.00000000000E+00 -0.64930732323E+04  0.65000000000E+04  0.30000000000E+03 0. -1.
     100001    1    1    2    0    0 -0.49814237718E+03 -0.10273470598E+04 -0.63971682752E+04  0.65000000000E+04  0.15050000000E+03 0. -1.
     100001    1    1    2    0    0  0.49814237718E+03  0.10273470598E+04  0.63971682752E+04  0.65000000000E+04  0.15050000000E+03 0.  1.
</event>
<event>
 4    1  0.5143956E-004  0.6500000E+04  0.7818608E-02  0.7223770E-01
         52   -1    0    0    0    0  0.00000000000E+00  0.00000000000E+00  0.64930732323E+04  0.65000000000E+04  0.30000000000E+03 0. -1.
        -52   -1    0    0    0    0 -0.00000000000E+00 -0.00000000000E+00 -0.64930732323E+04  0.65000000000E+04  0.30000000000E+03 0.  1.
     100001    1    1    2    0    0  0.23464312184E+04 -0.27217637884E+04 -0.54142046662E+04  0.65000000000E+04  0.15050000000E+03 0.  1.
     100001    1    1    2    0    0 -0.23464312184E+04  0.27217637884E+04  0.54142046662E+04  0.65000000000E+04  0.15050000000E+03 0. -1.
</event>
<event>
 4    1  0.5143956E-004  0.6500000E+04  0.7818608E-02  0.7223770E-01
         52   -1    0    0    0    0  0.00000000000E+00  0.00000000000E+00  0.64930732323E+04  0.65000000000E+04  0.30000000000E+03 0. -1.
        -52   -1    0    0    0    0 -0.00000000000E+00 -0.00000000000E+00 -0.64930732323E+04  0.65000000000E+04  0.30000000000E+03 0.  1.
     100001    1    1    2    0    0  0.51317509373E+04 -0.11201749524E+04 -0.38259234366E+04  0.65000000000E+04  0.15050000000E+03 0.  1.
     100001    1    1    2    0    0 -0.51317509373E+04  0.11201749524E+04  0.38259234366E+04  0.65000000000E+04  0.15050000000E+03 0. -1.
</event>
<event>
 4    1  0.5143956E-004  0.6500000E+04  0.7818608E-02  0.7223770E-01
         52   -1    0    0    0    0  0.00000000000E+00  0.00000000000E+00  0.64930732323E+04  0.65000000000E+04  0.30000000000E+03 0. -1.
        -52   -1    0    0    0    0 -0.00000000000E+00 -0.00000000000E+00 -0.64930732323E+04  0.65000000000E+04  0.30000000000E+03 0.  1.
     100001    1    1    2    0    0  0.42194344638E+03 -0.22429542793E+04  0.60842805309E+04  0.65000000000E+04  0.15050000000E+03 0. -1.
     100001    1    1    2    0    0 -0.42194344638E+03  0.22429542793E+04 -0.60842805309E+04  0.65000000000E+04  0.15050000000E+03 0.  1.
</event>
<event>
 4    1  0.5143956E-004  0.6500000E+04  0.7818608E-02  0.7223770E-01
         52   -1    0    0    0    0  0.00000000000E+00  0.00000000000E+00  0.64930732323E+04  0.65000000000E+04  0.30000000000E+03 0. -1.
        -52   -1    0    0    0    0 -0.00000000000E+00 -0.00000000000E+00 -0.64930732323E+04  0.65000000000E+04  0.30000000000E+03 0.  1.
     100001    1    1    2    0    0  0.51588293864E+02 -0.89737416550E+03 -0.64357911716E+04  0.65000000000E+04  0.15050000000E+03 0.  1.
     100001    1    1    2    0    0 -0.51588293864E+02  0.89737416550E+03  0.64357911716E+04  0.65000000000E+04  0.15050000000E+03 0. -1.
</event>
<event>
 4    1  0.5143956E-004  0.6500000E+04  0.7818608E-02  0.7223770E-01
         52   -1    0    0    0    0  0.00000000000E+00  0.00000000000E+00  0.64930732323E+04  0.65000000000E+04  0.30000000000E+03 0. -1.
        -52   -1    0    0    0    0 -0.00000000000E+00 -0.00000000000E+00 -0.64930732323E+04  0.65000000000E+04  0.30000000000E+03 0.  1.
     100001    1    1    2    0    0  0.84207154754E+03  0.23504537125E+04  0.59994693602E+04  0.65000000000E+04  0.15050000000E+03 0. -1.
     100001    1    1    2    0    0 -0.84207154754E+03 -0.23504537125E+04 -0.59994693602E+04  0.65000000000E+04  0.15050000000E+03 0.  1.
</event>
<event>
 4    1  0.5143956E-004  0.6500000E+04  0.7818608E-02  0.7223770E-01
         52   -1    0    0    0    0  0.00000000000E+00  0.00000000000E+00  0.64930732323E+04  0.65000000000E+04  0.30000000000E+03 0. -1.
        -52   -1    0    0    0    0 -0.00000000000E+00 -0.00000000000E+00 -0.64930732323E+04  0.65000000000E+04  0.30000000000E+03 0.  1.
     100001    1    1    2    0    0 -0.27039592331E+04 -0.40940098254E+04  0.42608728878E+04  0.65000000000E+04  0.15050000000E+03 0. -1.
     100001    1    1    2    0    0  0.27039592331E+04  0.40940098254E+04 -0.42608728878E+04  0.65000000000E+04  0.15050000000E+03 0.  1.
</event>
<event>
 4    1  0.5143956E-004  0.6500000E+04  0.7818608E-02  0.7223770E-01
         52   -1    0    0    0    0  0.00000000000E+00  0.00000000000E+00  0.64930732323E+04  0.65000000000E+04  0.30000000000E+03 0. -1.
        -52   -1    0    0    0    0 -0.00000000000E+00 -0.00000000000E+00 -0.64930732323E+04  0.65000000000E+04  0.30000000000E+03 0.  1.
     100001    1    1    2    0    0 -0.10659334408E+03  0.50508287168E+04  0.40871893622E+04  0.65000000000E+04  0.15050000000E+03 0. -1.
     100001    1    1    2    0    0  0.10659334408E+03 -0.50508287168E+04 -0.40871893622E+04  0.65000000000E+04  0.15050000000E+03 0.  1.
</event>
<event>
 4    1  0.5143956E-004  0.6500000E+04  0.7818608E-02  0.7223770E-01
         52   -1    0    0    0    0  0.00000000000E+00  0.00000000000E+00  0.64930732323E+04  0.65000000000E+04  0.30000000000E+03 0. -1.
        -52   -1    0    0    0    0 -0.00000000000E+00 -0.00000000000E+00 -0.64930732323E+04  0.65000000000E+04  0.30000000000E+03 0.  1.
     100001    1    1    2    0    0  0.63111074185E+03 -0.47094429281E+02  0.64673666276E+04  0.65000000000E+04  0.15050000000E+03 0. -1.
     100001    1    1    2    0    0 -0.63111074185E+03  0.47094429281E+02 -0.64673666276E+04  0.65000000000E+04  0.15050000000E+03 0.  1.
</event>
<event>
 4    1  0.5143956E-004  0.6500000E+04  0.7818608E-02  0.7223770E-01
         52   -1    0    0    0    0  0.00000000000E+00  0.00000000000E+00  0.64930732323E+04  0.65000000000E+04  0.30000000000E+03 0. -1.
        -52   -1    0    0    0    0 -0.00000000000E+00 -0.00000000000E+00 -0.64930732323E+04  0.65000000000E+04  0.30000000000E+03 0. -1.
     100001    1    1    2    0    0 -0.46844051303E+03  0.25596374404E+03 -0.64762949128E+04  0.65000000000E+04  0.15050000000E+03 0. -1.
     100001    1    1    2    0    0  0.46844051303E+03 -0.25596374404E+03  0.64762949128E+04  0.65000000000E+04  0.15050000000E+03 0. -1.
</event>
<event>
 4    1  0.5143956E-004  0.6500000E+04  0.7818608E-02  0.7223770E-01
         52   -1    0    0    0    0  0.00000000000E+00  0.00000000000E+00  0.64930732323E+04  0.65000000000E+04  0.30000000000E+03 0.  1.
        -52   -1    0    0    0    0 -0.00000000000E+00 -0.00000000000E+00 -0.64930732323E+04  0.65000000000E+04  0.30000000000E+03 0. -1.
     100001    1    1    2    0    0  0.55038722179E+03  0.18400572043E+04  0.62079475788E+04  0.65000000000E+04  0.15050000000E+03 0.  1.
     100001    1    1    2    0    0 -0.55038722179E+03 -0.18400572043E+04 -0.62079475788E+04  0.65000000000E+04  0.15050000000E+03 0. -1.
</event>
<event>
 4    1  0.5143956E-004  0.6500000E+04  0.7818608E-02  0.7223770E-01
         52   -1    0    0    0    0  0.00000000000E+00  0.00000000000E+00  0.64930732323E+04  0.65000000000E+04  0.30000000000E+03 0.  1.
        -52   -1    0    0    0    0 -0.00000000000E+00 -0.00000000000E+00 -0.64930732323E+04  0.65000000000E+04  0.30000000000E+03 0. -1.
     100001    1    1    2    0    0 -0.30890663531E+04  0.56811135828E+04  0.64028686948E+03  0.65000000000E+04  0.15050000000E+03 0.  1.
     100001    1    1    2    0    0  0.30890663531E+04 -0.56811135828E+04 -0.64028686948E+03  0.65000000000E+04  0.15050000000E+03 0. -1.
</event>
<event>
 4    1  0.5143956E-004  0.6500000E+04  0.7818608E-02  0.7223770E-01
         52   -1    0    0    0    0  0.00000000000E+00  0.00000000000E+00  0.64930732323E+04  0.65000000000E+04  0.30000000000E+03 0. -1.
        -52   -1    0    0    0    0 -0.00000000000E+00 -0.00000000000E+00 -0.64930732323E+04  0.65000000000E+04  0.30000000000E+03 0. -1.
     100001    1    1    2    0    0  0.17277080709E+03  0.29727834348E+03  0.64891544584E+04  0.65000000000E+04  0.15050000000E+03 0. -1.
     100001    1    1    2    0    0 -0.17277080709E+03 -0.29727834348E+03 -0.64891544584E+04  0.65000000000E+04  0.15050000000E+03 0. -1.
</event>
<event>
 4    1  0.5143956E-004  0.6500000E+04  0.7818608E-02  0.7223770E-01
         52   -1    0    0    0    0  0.00000000000E+00  0.00000000000E+00  0.64930732323E+04  0.65000000000E+04  0.30000000000E+03 0.  1.
        -52   -1    0    0    0    0 -0.00000000000E+00 -0.00000000000E+00 -0.64930732323E+04  0.65000000000E+04  0.30000000000E+03 0. -1.
     100001    1    1    2    0    0 -0.13997151759E+04  0.24006371540E+04  0.58741032023E+04  0.65000000000E+04  0.15050000000E+03 0.  1.
     100001    1    1    2    0    0  0.13997151759E+04 -0.24006371540E+04 -0.58741032023E+04  0.65000000000E+04  0.15050000000E+03 0. -1.
</event>
<event>
 4    1  0.5143956E-004  0.6500000E+04  0.7818608E-02  0.7223770E-01
         52   -1    0    0    0    0  0.00000000000E+00  0.00000000000E+00  0.64930732323E+04  0.65000000000E+04  0.30000000000E+03 0.  1.
        -52   -1    0    0    0    0 -0.00000000000E+00 -0.00000000000E+00 -0.64930732323E+04  0.65000000000E+04  0.30000000000E+03 0. -1.
     100001    1    1    2    0    0 -0.32485553037E+04 -0.33566322876E+04 -0.45174393050E+04  0.65000000000E+04  0.15050000000E+03 0. -1.
     100001    1    1    2    0    0  0.32485553037E+04  0.33566322876E+04  0.45174393050E+04  0.65000000000E+04  0.15050000000E+03 0.  1.
</event>
<event>
 4    1  0.5143956E-004  0.6500000E+04  0.7818608E-02  0.7223770E-01
         52   -1    0    0    0    0  0.00000000000E+00  0.00000000000E+00  0.64930732323E+04  0.65000000000E+04  0.30000000000E+03 0. -1.
        -52   -1    0    0    0    0 -0.00000000000E+00 -0.00000000000E+00 -0.64930732323E+04  0.65000000000E+04  0.30000000000E+03 0.  1.
     100001    1    1    2    0    0 -0.28553150257E+04  0.26957817963E+04  0.51775753361E+04  0.65000000000E+04  0.15050000000E+03 0. -1.
     100001    1    1    2    0    0  0.28553150257E+04 -0.26957817963E+04 -0.51775753361E+04  0.65000000000E+04  0.15050000000E+03 0.  1.
</event>
<event>
 4    1  0.5143956E-004  0.6500000E+04  0.7818608E-02  0.7223770E-01
         52   -1    0    0    0    0  0.00000000000E+00  0.00000000000E+00  0.64930732323E+04  0.65000000000E+04  0.30000000000E+03 0. -1.
        -52   -1    0    0    0    0 -0.00000000000E+00 -0.00000000000E+00 -0.64930732323E+04  0.65000000000E+04  0.30000000000E+03 0. -1.
     100001    1    1    2    0    0 -0.30724083323E+03 -0.55739533114E+03  0.64670134734E+04  0.65000000000E+04  0.15050000000E+03 0. -1.
     100001    1    1    2    0    0  0.30724083323E+03  0.55739533114E+03 -0.64670134734E+04  0.65000000000E+04  0.15050000000E+03 0. -1.
</event>
<event>
 4    1  0.5143956E-004  0.6500000E+04  0.7818608E-02  0.7223770E-01
         52   -1    0    0    0    0  0.00000000000E+00  0.00000000000E+00  0.64930732323E+04  0.65000000000E+04  0.30000000000E+03 0. -1.
        -52   -1    0    0    0    0 -0.00000000000E+00 -0.00000000000E+00 -0.64930732323E+04  0.65000000000E+04  0.30000000000E+03 0.  1.
     100001    1    1    2    0    0  0.23254061111E+03  0.50135981340E+03 -0.64747133490E+04  0.65000000000E+04  0.15050000000E+03 0.  1.
     100001    1    1    2    0    0 -0.23254061111E+03 -0.50135981340E+03  0.64747133490E+04  0.65000000000E+04  0.15050000000E+03 0. -1.
</event>
<event>
 4    1  0.5143956E-004  0.6500000E+04  0.7818608E-02  0.7223770E-01
         52   -1    0    0    0    0  0.00000000000E+00  0.00000000000E+00  0.64930732323E+04  0.65000000000E+04  0.30000000000E+03 0.  1.
        -52   -1    0    0    0    0 -0.00000000000E+00 -0.00000000000E+00 -0.64930732323E+04  0.65000000000E+04  0.30000000000E+03 0. -1.
     100001    1    1    2    0    0  0.21546208882E+04 -0.31287245118E+04 -0.52721951318E+04  0.65000000000E+04  0.15050000000E+03 0. -1.
     100001    1    1    2    0    0 -0.21546208882E+04  0.31287245118E+04  0.52721951318E+04  0.65000000000E+04  0.15050000000E+03 0.  1.
</event>
<event>
 4    1  0.5143956E-004  0.6500000E+04  0.7818608E-02  0.7223770E-01
         52   -1    0    0    0    0  0.00000000000E+00  0.00000000000E+00  0.64930732323E+04  0.65000000000E+04  0.30000000000E+03 0.  1.
        -52   -1    0    0    0    0 -0.00000000000E+00 -0.00000000000E+00 -0.64930732323E+04  0.65000000000E+04  0.30000000000E+03 0. -1.
     100001    1    1    2    0    0  0.12061284886E+02 -0.56044425484E+03 -0.64740332493E+04  0.65000000000E+04  0.15050000000E+03 0. -1.
     100001    1    1    2    0    0 -0.12061284886E+02  0.56044425484E+03  0.64740332493E+04  0.65000000000E+04  0.15050000000E+03 0.  1.
</event>
<event>
 4    1  0.5143956E-004  0.6500000E+04  0.7818608E-02  0.7223770E-01
         52   -1    0    0    0    0  0.00000000000E+00  0.00000000000E+00  0.64930732323E+04  0.65000000000E+04  0.30000000000E+03 0.  1.
        -52   -1    0    0    0    0 -0.00000000000E+00 -0.00000000000E+00 -0.64930732323E+04  0.65000000000E+04  0.30000000000E+03 0. -1.
     100001    1    1    2    0    0  0.28844887749E+04  0.57405264745E+03 -0.57946128270E+04  0.65000000000E+04  0.15050000000E+03 0. -1.
     100001    1    1    2    0    0 -0.28844887749E+04 -0.57405264745E+03  0.57946128270E+04  0.65000000000E+04  0.15050000000E+03 0.  1.
</event>
<event>
 4    1  0.5143956E-004  0.6500000E+04  0.7818608E-02  0.7223770E-01
         52   -1    0    0    0    0  0.00000000000E+00  0.00000000000E+00  0.64930732323E+04  0.65000000000E+04  0.30000000000E+03 0.  1.
        -52   -1    0    0    0    0 -0.00000000000E+00 -0.00000000000E+00 -0.64930732323E+04  0.65000000000E+04  0.30000000000E+03 0. -1.
     100001    1    1    2    0    0 -0.30181555740E+03 -0.22530537594E+03 -0.64873333972E+04  0.65000000000E+04  0.15050000000E+03 0. -1.
     100001    1    1    2    0    0  0.30181555740E+03  0.22530537594E+03  0.64873333972E+04  0.65000000000E+04  0.15050000000E+03 0.  1.
</event>
<event>
 4    1  0.5143956E-004  0.6500000E+04  0.7818608E-02  0.7223770E-01
         52   -1    0    0    0    0  0.00000000000E+00  0.00000000000E+00  0.64930732323E+04  0.65000000000E+04  0.30000000000E+03 0.  1.
        -52   -1    0    0    0    0 -0.00000000000E+00 -0.00000000000E+00 -0.64930732323E+04  0.65000000000E+04  0.30000000000E+03 0. -1.
     100001    1    1    2    0    0 -0.16622430388E+04  0.22576368232E+04  0.58623692996E+04  0.65000000000E+04  0.15050000000E+03 0.  1.
     100001    1    1    2    0    0  0.16622430388E+04 -0.22576368232E+04 -0.58623692996E+04  0.65000000000E+04  0.15050000000E+03 0. -1.
</event>
<event>
 4    1  0.5143956E-004  0.6500000E+04  0.7818608E-02  0.7223770E-01
         52   -1    0    0    0    0  0.00000000000E+00  0.00000000000E+00  0.64930732323E+04  0.65000000000E+04  0.30000000000E+03 0. -1.
        -52   -1    0    0    0    0 -0.00000000000E+00 -0.00000000000E+00 -0.64930732323E+04  0.65000000000E+04  0.30000000000E+03 0. -1.
     100001    1    1    2    0    0 -0.34479344410E+02  0.33585206768E+03  0.64894810512E+04  0.65000000000E+04  0.15050000000E+03 0. -1.
     100001    1    1    2    0    0  0.34479344410E+02 -0.33585206768E+03 -0.64894810512E+04  0.65000000000E+04  0.15050000000E+03 0. -1.
</event>
<event>
 4    1  0.5143956E-004  0.6500000E+04  0.7818608E-02  0.7223770E-01
         52   -1    0    0    0    0  0.00000000000E+00  0.00000000000E+00  0.64930732323E+04  0.65000000000E+04  0.30000000000E+03 0.  1.
        -52   -1    0    0    0    0 -0.00000000000E+00 -0.00000000000E+00 -0.64930732323E+04  0.65000000000E+04  0.30000000000E+03 0.  1.
     100001    1    1    2    0    0 -0.10168890265E+03  0.67500830553E+03  0.64623039935E+04  0.65000000000E+04  0.15050000000E+03 0.  1.
     100001    1    1    2    0    0  0.10168890265E+03 -0.67500830553E+03 -0.64623039935E+04  0.65000000000E+04  0.15050000000E+03 0.  1.
</event>
<event>
 4    1  0.5143956E-004  0.6500000E+04  0.7818608E-02  0.7223770E-01
         52   -1    0    0    0    0  0.00000000000E+00  0.00000000000E+00  0.64930732323E+04  0.65000000000E+04  0.30000000000E+03 0.  1.
        -52   -1    0    0    0    0 -0.00000000000E+00 -0.00000000000E+00 -0.64930732323E+04  0.65000000000E+04  0.30000000000E+03 0. -1.
     100001    1    1    2    0    0  0.19729015812E+04 -0.29161075182E+03 -0.61846561966E+04  0.65000000000E+04  0.15050000000E+03 0. -1.
     100001    1    1    2    0    0 -0.19729015812E+04  0.29161075182E+03  0.61846561966E+04  0.65000000000E+04  0.15050000000E+03 0.  1.
</event>
<event>
 4    1  0.5143956E-004  0.6500000E+04  0.7818608E-02  0.7223770E-01
         52   -1    0    0    0    0  0.00000000000E+00  0.00000000000E+00  0.64930732323E+04  0.65000000000E+04  0.30000000000E+03 0. -1.
        -52   -1    0    0    0    0 -0.00000000000E+00 -0.00000000000E+00 -0.64930732323E+04  0.65000000000E+04  0.30000000000E+03 0.  1.
     100001    1    1    2    0    0 -0.54950124155E+03 -0.67839066639E+03  0.64393465693E+04  0.65000000000E+04  0.15050000000E+03 0. -1.
     100001    1    1    2    0    0  0.54950124155E+03  0.67839066639E+03 -0.64393465693E+04  0.65000000000E+04  0.15050000000E+03 0.  1.
</event>
<event>
 4    1  0.5143956E-004  0.6500000E+04  0.7818608E-02  0.7223770E-01
         52   -1    0    0    0    0  0.00000000000E+00  0.00000000000E+00  0.64930732323E+04  0.65000000000E+04  0.30000000000E+03 0. -1.
        -52   -1    0    0    0    0 -0.00000000000E+00 -0.00000000000E+00 -0.64930732323E+04  0.65000000000E+04  0.30000000000E+03 0.  1.
     100001    1    1    2    0    0 -0.54810596965E+04  0.10262386702E+04  0.33364904534E+04  0.65000000000E+04  0.15050000000E+03 0. -1.
     100001    1    1    2    0    0  0.54810596965E+04 -0.10262386702E+04 -0.33364904534E+04  0.65000000000E+04  0.15050000000E+03 0.  1.
</event>
<event>
 4    1  0.5143956E-004  0.6500000E+04  0.7818608E-02  0.7223770E-01
         52   -1    0    0    0    0  0.00000000000E+00  0.00000000000E+00  0.64930732323E+04  0.65000000000E+04  0.30000000000E+03 0. -1.
        -52   -1    0    0    0    0 -0.00000000000E+00 -0.00000000000E+00 -0.64930732323E+04  0.65000000000E+04  0.30000000000E+03 0.  1.
     100001    1    1    2    0    0  0.11024023869E+04 -0.13875482568E+04 -0.62519411835E+04  0.65000000000E+04  0.15050000000E+03 0.  1.
     100001    1    1    2    0    0 -0.11024023869E+04  0.13875482568E+04  0.62519411835E+04  0.65000000000E+04  0.15050000000E+03 0. -1.
</event>
<event>
 4    1  0.5143956E-004  0.6500000E+04  0.7818608E-02  0.7223770E-01
         52   -1    0    0    0    0  0.00000000000E+00  0.00000000000E+00  0.64930732323E+04  0.65000000000E+04  0.30000000000E+03 0.  1.
        -52   -1    0    0    0    0 -0.00000000000E+00 -0.00000000000E+00 -0.64930732323E+04  0.65000000000E+04  0.30000000000E+03 0. -1.
     100001    1    1    2    0    0 -0.31149856932E+03 -0.40953741899E+04  0.50356954471E+04  0.65000000000E+04  0.15050000000E+03 0.  1.
     100001    1    1    2    0    0  0.31149856932E+03  0.40953741899E+04 -0.50356954471E+04  0.65000000000E+04  0.15050000000E+03 0. -1.
</event>
<event>
 4    1  0.5143956E-004  0.6500000E+04  0.7818608E-02  0.7223770E-01
         52   -1    0    0    0    0  0.00000000000E+00  0.00000000000E+00  0.64930732323E+04  0.65000000000E+04  0.30000000000E+03 0. -1.
        -52   -1    0    0    0    0 -0.00000000000E+00 -0.00000000000E+00 -0.64930732323E+04  0.65000000000E+04  0.30000000000E+03 0.  1.
     100001    1    1    2    0    0 -0.89527903144E+03 -0.13435179008E+04 -0.62945043376E+04  0.65000000000E+04  0.15050000000E+03 0.  1.
     100001    1    1    2    0    0  0.89527903144E+03  0.13435179008E+04  0.62945043376E+04  0.65000000000E+04  0.15050000000E+03 0. -1.
</event>
<event>
 4    1  0.5143956E-004  0.6500000E+04  0.7818608E-02  0.7223770E-01
         52   -1    0    0    0    0  0.00000000000E+00  0.00000000000E+00  0.64930732323E+04  0.65000000000E+04  0.30000000000E+03 0.  1.
        -52   -1    0    0    0    0 -0.00000000000E+00 -0.00000000000E+00 -0.64930732323E+04  0.65000000000E+04  0.30000000000E+03 0. -1.
     100001    1    1    2    0    0 -0.11435350408E+04 -0.40132934360E+03 -0.63842471849E+04  0.65000000000E+04  0.15050000000E+03 0. -1.
     100001    1    1    2    0    0  0.11435350408E+04  0.40132934360E+03  0.63842471849E+04  0.65000000000E+04  0.15050000000E+03 0.  1.
</event>
<event>
 4    1  0.5143956E-004  0.6500000E+04  0.7818608E-02  0.7223770E-01
         52   -1    0    0    0    0  0.00000000000E+00  0.00000000000E+00  0.64930732323E+04  0.65000000000E+04  0.30000000000E+03 0. -1.
        -52   -1    0    0    0    0 -0.00000000000E+00 -0.00000000000E+00 -0.64930732323E+04  0.65000000000E+04  0.30000000000E+03 0.  1.
     100001    1    1    2    0    0 -0.47712446699E+04 -0.32235457288E+02  0.44115229712E+04  0.65000000000E+04  0.15050000000E+03 0. -1.
     100001    1    1    2    0    0  0.47712446699E+04  0.32235457288E+02 -0.44115229712E+04  0.65000000000E+04  0.15050000000E+03 0.  1.
</event>
<event>
 4    1  0.5143956E-004  0.6500000E+04  0.7818608E-02  0.7223770E-01
         52   -1    0    0    0    0  0.00000000000E+00  0.00000000000E+00  0.64930732323E+04  0.65000000000E+04  0.30000000000E+03 0.  1.
        -52   -1    0    0    0    0 -0.00000000000E+00 -0.00000000000E+00 -0.64930732323E+04  0.65000000000E+04  0.30000000000E+03 0. -1.
     100001    1    1    2    0    0 -0.93244848040E+03 -0.92214153151E+03 -0.63645537610E+04  0.65000000000E+04  0.15050000000E+03 0. -1.
     100001    1    1    2    0    0  0.93244848040E+03  0.92214153151E+03  0.63645537610E+04  0.65000000000E+04  0.15050000000E+03 0.  1.
</event>
<event>
 4    1  0.5143956E-004  0.6500000E+04  0.7818608E-02  0.7223770E-01
         52   -1    0    0    0    0  0.00000000000E+00  0.00000000000E+00  0.64930732323E+04  0.65000000000E+04  0.30000000000E+03 0.  1.
        -52   -1    0    0    0    0 -0.00000000000E+00 -0.00000000000E+00 -0.64930732323E+04  0.65000000000E+04  0.30000000000E+03 0. -1.
     100001    1    1    2    0    0  0.12030110193E+04  0.61740742916E+04 -0.16312329322E+04  0.65000000000E+04  0.15050000000E+03 0. -1.
     100001    1    1    2    0    0 -0.12030110193E+04 -0.61740742916E+04  0.16312329322E+04  0.65000000000E+04  0.15050000000E+03 0.  1.
</event>
<event>
 4    1  0.5143956E-004  0.6500000E+04  0.7818608E-02  0.7223770E-01
         52   -1    0    0    0    0  0.00000000000E+00  0.00000000000E+00  0.64930732323E+04  0.65000000000E+04  0.30000000000E+03 0.  1.
        -52   -1    0    0    0    0 -0.00000000000E+00 -0.00000000000E+00 -0.64930732323E+04  0.65000000000E+04  0.30000000000E+03 0. -1.
     100001    1    1    2    0    0  0.29331152776E+03 -0.20857689422E+04 -0.61474292202E+04  0.65000000000E+04  0.15050000000E+03 0. -1.
     100001    1    1    2    0    0 -0.29331152776E+03  0.20857689422E+04  0.61474292202E+04  0.65000000000E+04  0.15050000000E+03 0.  1.
</event>
<event>
 4    1  0.5143956E-004  0.6500000E+04  0.7818608E-02  0.7223770E-01
         52   -1    0    0    0    0  0.00000000000E+00  0.00000000000E+00  0.64930732323E+04  0.65000000000E+04  0.30000000000E+03 0. -1.
        -52   -1    0    0    0    0 -0.00000000000E+00 -0.00000000000E+00 -0.64930732323E+04  0.65000000000E+04  0.30000000000E+03 0.  1.
     100001    1    1    2    0    0 -0.24320965573E+04 -0.40146337232E+04 -0.44938816356E+04  0.65000000000E+04  0.15050000000E+03 0.  1.
     100001    1    1    2    0    0  0.24320965573E+04  0.40146337232E+04  0.44938816356E+04  0.65000000000E+04  0.15050000000E+03 0. -1.
</event>
<event>
 4    1  0.5143956E-004  0.6500000E+04  0.7818608E-02  0.7223770E-01
         52   -1    0    0    0    0  0.00000000000E+00  0.00000000000E+00  0.64930732323E+04  0.65000000000E+04  0.30000000000E+03 0. -1.
        -52   -1    0    0    0    0 -0.00000000000E+00 -0.00000000000E+00 -0.64930732323E+04  0.65000000000E+04  0.30000000000E+03 0.  1.
     100001    1    1    2    0    0 -0.30710735384E+03 -0.84268920119E+03 -0.64360632170E+04  0.65000000000E+04  0.15050000000E+03 0.  1.
     100001    1    1    2    0    0  0.30710735384E+03  0.84268920119E+03  0.64360632170E+04  0.65000000000E+04  0.15050000000E+03 0. -1.
</event>
<event>
 4    1  0.5143956E-004  0.6500000E+04  0.7818608E-02  0.7223770E-01
         52   -1    0    0    0    0  0.00000000000E+00  0.00000000000E+00  0.64930732323E+04  0.65000000000E+04  0.30000000000E+03 0. -1.
        -52   -1    0    0    0    0 -0.00000000000E+00 -0.00000000000E+00 -0.64930732323E+04  0.65000000000E+04  0.30000000000E+03 0. -1.
     100001    1    1    2    0    0  0.20537873853E+02 -0.80023876270E+02 -0.64977322294E+04  0.65000000000E+04  0.15050000000E+03 0. -1.
     100001    1    1    2    0    0 -0.20537873853E+02  0.80023876270E+02  0.64977322294E+04  0.65000000000E+04  0.15050000000E+03 0. -1.
</event>
<event>
 4    1  0.5143956E-004  0.6500000E+04  0.7818608E-02  0.7223770E-01
         52   -1    0    0    0    0  0.00000000000E+00  0.00000000000E+00  0.64930732323E+04  0.65000000000E+04  0.30000000000E+03 0. -1.
        -52   -1    0    0    0    0 -0.00000000000E+00 -0.00000000000E+00 -0.64930732323E+04  0.65000000000E+04  0.30000000000E+03 0.  1.
     100001    1    1    2    0    0  0.93297102441E+02  0.49369223764E+04  0.42243866833E+04  0.65000000000E+04  0.15050000000E+03 0. -1.
     100001    1    1    2    0    0 -0.93297102441E+02 -0.49369223764E+04 -0.42243866833E+04  0.65000000000E+04  0.15050000000E+03 0.  1.
</event>
<event>
 4    1  0.5143956E-004  0.6500000E+04  0.7818608E-02  0.7223770E-01
         52   -1    0    0    0    0  0.00000000000E+00  0.00000000000E+00  0.64930732323E+04  0.65000000000E+04  0.30000000000E+03 0.  1.
        -52   -1    0    0    0    0 -0.00000000000E+00 -0.00000000000E+00 -0.64930732323E+04  0.65000000000E+04  0.30000000000E+03 0. -1.
     100001    1    1    2    0    0  0.14469889833E+04  0.15748297204E+04  0.61362434750E+04  0.65000000000E+04  0.15050000000E+03 0.  1.
     100001    1    1    2    0    0 -0.14469889833E+04 -0.15748297204E+04 -0.61362434750E+04  0.65000000000E+04  0.15050000000E+03 0. -1.
</event>
<event>
 4    1  0.5143956E-004  0.6500000E+04  0.7818608E-02  0.7223770E-01
         52   -1    0    0    0    0  0.00000000000E+00  0.00000000000E+00  0.64930732323E+04  0.65000000000E+04  0.30000000000E+03 0.  1.
        -52   -1    0    0    0    0 -0.00000000000E+00 -0.00000000000E+00 -0.64930732323E+04  0.65000000000E+04  0.30000000000E+03 0. -1.
     100001    1    1    2    0    0 -0.14953388362E+04 -0.58450918892E+03 -0.62967976403E+04  0.65000000000E+04  0.15050000000E+03 0. -1.
     100001    1    1    2    0    0  0.14953388362E+04  0.58450918892E+03  0.62967976403E+04  0.65000000000E+04  0.15050000000E+03 0.  1.
</event>
<event>
 4    1  0.5143956E-004  0.6500000E+04  0.7818608E-02  0.7223770E-01
         52   -1    0    0    0    0  0.00000000000E+00  0.00000000000E+00  0.64930732323E+04  0.65000000000E+04  0.30000000000E+03 0. -1.
        -52   -1    0    0    0    0 -0.00000000000E+00 -0.00000000000E+00 -0.64930732323E+04  0.65000000000E+04  0.30000000000E+03 0.  1.
     100001    1    1    2    0    0 -0.66106129715E+03 -0.21183511069E+04  0.61076129788E+04  0.65000000000E+04  0.15050000000E+03 0. -1.
     100001    1    1    2    0    0  0.66106129715E+03  0.21183511069E+04 -0.61076129788E+04  0.65000000000E+04  0.15050000000E+03 0.  1.
</event>
<event>
 4    1  0.5143956E-004  0.6500000E+04  0.7818608E-02  0.7223770E-01
         52   -1    0    0    0    0  0.00000000000E+00  0.00000000000E+00  0.64930732323E+04  0.65000000000E+04  0.30000000000E+03 0.  1.
        -52   -1    0    0    0    0 -0.00000000000E+00 -0.00000000000E+00 -0.64930732323E+04  0.65000000000E+04  0.30000000000E+03 0.  1.
     100001    1    1    2    0    0  0.25014273796E+03 -0.16064837175E+03  0.64914536478E+04  0.65000000000E+04  0.15050000000E+03 0.  1.
     100001    1    1    2    0    0 -0.25014273796E+03  0.16064837175E+03 -0.64914536478E+04  0.65000000000E+04  0.15050000000E+03 0.  1.
</event>
<event>
 4    1  0.5143956E-004  0.6500000E+04  0.7818608E-02  0.7223770E-01
         52   -1    0    0    0    0  0.00000000000E+00  0.00000000000E+00  0.64930732323E+04  0.65000000000E+04  0.30000000000E+03 0. -1.
        -52   -1    0    0    0    0 -0.00000000000E+00 -0.00000000000E+00 -0.64930732323E+04  0.65000000000E+04  0.30000000000E+03 0. -1.
     100001    1    1    2    0    0 -0.18488243935E+03  0.28148589346E+02 -0.64955658638E+04  0.65000000000E+04  0.15050000000E+03 0. -1.
     100001    1    1    2    0    0  0.18488243935E+03 -0.28148589346E+02  0.64955658638E+04  0.65000000000E+04  0.15050000000E+03 0. -1.
</event>
<event>
 4    1  0.5143956E-004  0.6500000E+04  0.7818608E-02  0.7223770E-01
         52   -1    0    0    0    0  0.00000000000E+00  0.00000000000E+00  0.64930732323E+04  0.65000000000E+04  0.30000000000E+03 0.  1.
        -52   -1    0    0    0    0 -0.00000000000E+00 -0.00000000000E+00 -0.64930732323E+04  0.65000000000E+04  0.30000000000E+03 0. -1.
     100001    1    1    2    0    0  0.85465250736E+03 -0.14910417911E+04 -0.62668742782E+04  0.65000000000E+04  0.15050000000E+03 0. -1.
     100001    1    1    2    0    0 -0.85465250736E+03  0.14910417911E+04  0.62668742782E+04  0.65000000000E+04  0.15050000000E+03 0.  1.
</event>
<event>
 4    1  0.5143956E-004  0.6500000E+04  0.7818608E-02  0.7223770E-01
         52   -1    0    0    0    0  0.00000000000E+00  0.00000000000E+00  0.64930732323E+04  0.65000000000E+04  0.30000000000E+03 0. -1.
        -52   -1    0    0    0    0 -0.00000000000E+00 -0.00000000000E+00 -0.64930732323E+04  0.65000000000E+04  0.30000000000E+03 0.  1.
     100001    1    1    2    0    0 -0.15009635469E+04 -0.62571956803E+04 -0.90662031715E+03  0.65000000000E+04  0.15050000000E+03 0. -1.
     100001    1    1    2    0    0  0.15009635469E+04  0.62571956803E+04  0.90662031715E+03  0.65000000000E+04  0.15050000000E+03 0.  1.
</event>
<event>
 4    1  0.5143956E-004  0.6500000E+04  0.7818608E-02  0.7223770E-01
         52   -1    0    0    0    0  0.00000000000E+00  0.00000000000E+00  0.64930732323E+04  0.65000000000E+04  0.30000000000E+03 0. -1.
        -52   -1    0    0    0    0 -0.00000000000E+00 -0.00000000000E+00 -0.64930732323E+04  0.65000000000E+04  0.30000000000E+03 0.  1.
     100001    1    1    2    0    0  0.62614094769E+03 -0.67680882120E+03 -0.64325132789E+04  0.65000000000E+04  0.15050000000E+03 0.  1.
     100001    1    1    2    0    0 -0.62614094769E+03  0.67680882120E+03  0.64325132789E+04  0.65000000000E+04  0.15050000000E+03 0. -1.
</event>
<event>
 4    1  0.5143956E-004  0.6500000E+04  0.7818608E-02  0.7223770E-01
         52   -1    0    0    0    0  0.00000000000E+00  0.00000000000E+00  0.64930732323E+04  0.65000000000E+04  0.30000000000E+03 0. -1.
        -52   -1    0    0    0    0 -0.00000000000E+00 -0.00000000000E+00 -0.64930732323E+04  0.65000000000E+04  0.30000000000E+03 0.  1.
     100001    1    1    2    0    0  0.11300105417E+03  0.42205680889E+03  0.64835521562E+04  0.65000000000E+04  0.15050000000E+03 0. -1.
     100001    1    1    2    0    0 -0.11300105417E+03 -0.42205680889E+03 -0.64835521562E+04  0.65000000000E+04  0.15050000000E+03 0.  1.
</event>
<event>
 4    1  0.5143956E-004  0.6500000E+04  0.7818608E-02  0.7223770E-01
         52   -1    0    0    0    0  0.00000000000E+00  0.00000000000E+00  0.64930732323E+04  0.65000000000E+04  0.30000000000E+03 0. -1.
        -52   -1    0    0    0    0 -0.00000000000E+00 -0.00000000000E+00 -0.64930732323E+04  0.65000000000E+04  0.30000000000E+03 0.  1.
     100001    1    1    2    0    0 -0.12318766565E+04  0.21029357828E+04 -0.60239099218E+04  0.65000000000E+04  0.15050000000E+03 0.  1.
     100001    1    1    2    0    0  0.12318766565E+04 -0.21029357828E+04  0.60239099218E+04  0.65000000000E+04  0.15050000000E+03 0. -1.
</event>
<event>
 4    1  0.5143956E-004  0.6500000E+04  0.7818608E-02  0.7223770E-01
         52   -1    0    0    0    0  0.00000000000E+00  0.00000000000E+00  0.64930732323E+04  0.65000000000E+04  0.30000000000E+03 0.  1.
        -52   -1    0    0    0    0 -0.00000000000E+00 -0.00000000000E+00 -0.64930732323E+04  0.65000000000E+04  0.30000000000E+03 0. -1.
     100001    1    1    2    0    0 -0.28964653399E+03 -0.12877098305E+04 -0.63628026865E+04  0.65000000000E+04  0.15050000000E+03 0. -1.
     100001    1    1    2    0    0  0.28964653399E+03  0.12877098305E+04  0.63628026865E+04  0.65000000000E+04  0.15050000000E+03 0.  1.
</event>
<event>
 4    1  0.5143956E-004  0.6500000E+04  0.7818608E-02  0.7223770E-01
         52   -1    0    0    0    0  0.00000000000E+00  0.00000000000E+00  0.64930732323E+04  0.65000000000E+04  0.30000000000E+03 0. -1.
        -52   -1    0    0    0    0 -0.00000000000E+00 -0.00000000000E+00 -0.64930732323E+04  0.65000000000E+04  0.30000000000E+03 0.  1.
     100001    1    1    2    0    0  0.13274094692E+04  0.24881485153E+03 -0.63563688550E+04  0.65000000000E+04  0.15050000000E+03 0.  1.
     100001    1    1    2    0    0 -0.13274094692E+04 -0.24881485153E+03  0.63563688550E+04  0.65000000000E+04  0.15050000000E+03 0. -1.
</event>
<event>
 4    1  0.7508363E-004  0.6500000E+04  0.7818608E-02  0.7223770E-01
         52   -1    0    0    0    0  0.00000000000E+00  0.00000000000E+00  0.64930732323E+04  0.65000000000E+04  0.30000000000E+03 0. -1.
        -52   -1    0    0    0    0 -0.00000000000E+00 -0.00000000000E+00 -0.64930732323E+04  0.65000000000E+04  0.30000000000E+03 0.  1.
     100001    1    1    2    0    0 -0.10564558377E+03 -0.12032436142E+03 -0.64962843848E+04  0.65000000000E+04  0.15050000000E+03 0.  1.
     100001    1    1    2    0    0  0.10564558377E+03  0.12032436142E+03  0.64962843848E+04  0.65000000000E+04  0.15050000000E+03 0. -1.
</event>
<event>
 4    1  0.5143956E-004  0.6500000E+04  0.7818608E-02  0.7223770E-01
         52   -1    0    0    0    0  0.00000000000E+00  0.00000000000E+00  0.64930732323E+04  0.65000000000E+04  0.30000000000E+03 0. -1.
        -52   -1    0    0    0    0 -0.00000000000E+00 -0.00000000000E+00 -0.64930732323E+04  0.65000000000E+04  0.30000000000E+03 0.  1.
     100001    1    1    2    0    0  0.22520137469E+04 -0.59812510398E+03  0.60661379966E+04  0.65000000000E+04  0.15050000000E+03 0. -1.
     100001    1    1    2    0    0 -0.22520137469E+04  0.59812510398E+03 -0.60661379966E+04  0.65000000000E+04  0.15050000000E+03 0.  1.
</event>
<event>
 4    1  0.5143956E-004  0.6500000E+04  0.7818608E-02  0.7223770E-01
         52   -1    0    0    0    0  0.00000000000E+00  0.00000000000E+00  0.64930732323E+04  0.65000000000E+04  0.30000000000E+03 0. -1.
        -52   -1    0    0    0    0 -0.00000000000E+00 -0.00000000000E+00 -0.64930732323E+04  0.65000000000E+04  0.30000000000E+03 0.  1.
     100001    1    1    2    0    0  0.47792002305E+04 -0.86746184564E+03  0.43167238565E+04  0.65000000000E+04  0.15050000000E+03 0. -1.
     100001    1    1    2    0    0 -0.47792002305E+04  0.86746184564E+03 -0.43167238565E+04  0.65000000000E+04  0.15050000000E+03 0.  1.
</event>
<event>
 4    1  0.5143956E-004  0.6500000E+04  0.7818608E-02  0.7223770E-01
         52   -1    0    0    0    0  0.00000000000E+00  0.00000000000E+00  0.64930732323E+04  0.65000000000E+04  0.30000000000E+03 0. -1.
        -52   -1    0    0    0    0 -0.00000000000E+00 -0.00000000000E+00 -0.64930732323E+04  0.65000000000E+04  0.30000000000E+03 0.  1.
     100001    1    1    2    0    0 -0.43082737205E+04 -0.55278211669E+03 -0.48332762419E+04  0.65000000000E+04  0.15050000000E+03 0.  1.
     100001    1    1    2    0    0  0.43082737205E+04  0.55278211669E+03  0.48332762419E+04  0.65000000000E+04  0.15050000000E+03 0. -1.
</event>
<event>
 4    1  0.5143956E-004  0.6500000E+04  0.7818608E-02  0.7223770E-01
         52   -1    0    0    0    0  0.00000000000E+00  0.00000000000E+00  0.64930732323E+04  0.65000000000E+04  0.30000000000E+03 0.  1.
        -52   -1    0    0    0    0 -0.00000000000E+00 -0.00000000000E+00 -0.64930732323E+04  0.65000000000E+04  0.30000000000E+03 0. -1.
     100001    1    1    2    0    0 -0.56745182465E+04  0.93941097488E+03 -0.30240204101E+04  0.65000000000E+04  0.15050000000E+03 0. -1.
     100001    1    1    2    0    0  0.56745182465E+04 -0.93941097488E+03  0.30240204101E+04  0.65000000000E+04  0.15050000000E+03 0.  1.
</event>
<event>
 4    1  0.5143956E-004  0.6500000E+04  0.7818608E-02  0.7223770E-01
         52   -1    0    0    0    0  0.00000000000E+00  0.00000000000E+00  0.64930732323E+04  0.65000000000E+04  0.30000000000E+03 0. -1.
        -52   -1    0    0    0    0 -0.00000000000E+00 -0.00000000000E+00 -0.64930732323E+04  0.65000000000E+04  0.30000000000E+03 0.  1.
     100001    1    1    2    0    0 -0.25952342732E+03 -0.31517644354E+04 -0.56768281888E+04  0.65000000000E+04  0.15050000000E+03 0.  1.
     100001    1    1    2    0    0  0.25952342732E+03  0.31517644354E+04  0.56768281888E+04  0.65000000000E+04  0.15050000000E+03 0. -1.
</event>
<event>
 4    1  0.5143956E-004  0.6500000E+04  0.7818608E-02  0.7223770E-01
         52   -1    0    0    0    0  0.00000000000E+00  0.00000000000E+00  0.64930732323E+04  0.65000000000E+04  0.30000000000E+03 0.  1.
        -52   -1    0    0    0    0 -0.00000000000E+00 -0.00000000000E+00 -0.64930732323E+04  0.65000000000E+04  0.30000000000E+03 0. -1.
     100001    1    1    2    0    0  0.46530913306E+03 -0.11626291334E+04 -0.63764512590E+04  0.65000000000E+04  0.15050000000E+03 0. -1.
     100001    1    1    2    0    0 -0.46530913306E+03  0.11626291334E+04  0.63764512590E+04  0.65000000000E+04  0.15050000000E+03 0.  1.
</event>
<event>
 4    1  0.5143956E-004  0.6500000E+04  0.7818608E-02  0.7223770E-01
         52   -1    0    0    0    0  0.00000000000E+00  0.00000000000E+00  0.64930732323E+04  0.65000000000E+04  0.30000000000E+03 0.  1.
        -52   -1    0    0    0    0 -0.00000000000E+00 -0.00000000000E+00 -0.64930732323E+04  0.65000000000E+04  0.30000000000E+03 0. -1.
     100001    1    1    2    0    0  0.15884100746E+04 -0.24639263066E+03 -0.62963158956E+04  0.65000000000E+04  0.15050000000E+03 0. -1.
     100001    1    1    2    0    0 -0.15884100746E+04  0.24639263066E+03  0.62963158956E+04  0.65000000000E+04  0.15050000000E+03 0.  1.
</event>
<event>
 4    1  0.5143956E-004  0.6500000E+04  0.7818608E-02  0.7223770E-01
         52   -1    0    0    0    0  0.00000000000E+00  0.00000000000E+00  0.64930732323E+04  0.65000000000E+04  0.30000000000E+03 0. -1.
        -52   -1    0    0    0    0 -0.00000000000E+00 -0.00000000000E+00 -0.64930732323E+04  0.65000000000E+04  0.30000000000E+03 0. -1.
     100001    1    1    2    0    0  0.15806836674E+03 -0.81346447891E+02  0.64958253438E+04  0.65000000000E+04  0.15050000000E+03 0. -1.
     100001    1    1    2    0    0 -0.15806836674E+03  0.81346447891E+02 -0.64958253438E+04  0.65000000000E+04  0.15050000000E+03 0. -1.
</event>
<event>
 4    1  0.5143956E-004  0.6500000E+04  0.7818608E-02  0.7223770E-01
         52   -1    0    0    0    0  0.00000000000E+00  0.00000000000E+00  0.64930732323E+04  0.65000000000E+04  0.30000000000E+03 0. -1.
        -52   -1    0    0    0    0 -0.00000000000E+00 -0.00000000000E+00 -0.64930732323E+04  0.65000000000E+04  0.30000000000E+03 0.  1.
     100001    1    1    2    0    0  0.41271802764E+04  0.12772304513E+04  0.48541132136E+04  0.65000000000E+04  0.15050000000E+03 0. -1.
     100001    1    1    2    0    0 -0.41271802764E+04 -0.12772304513E+04 -0.48541132136E+04  0.65000000000E+04  0.15050000000E+03 0.  1.
</event>
<event>
 4    1  0.5611031E-004  0.6500000E+04  0.7818608E-02  0.7223770E-01
         52   -1    0    0    0    0  0.00000000000E+00  0.00000000000E+00  0.64930732323E+04  0.65000000000E+04  0.30000000000E+03 0.  1.
        -52   -1    0    0    0    0 -0.00000000000E+00 -0.00000000000E+00 -0.64930732323E+04  0.65000000000E+04  0.30000000000E+03 0. -1.
     100001    1    1    2    0    0  0.13973640638E+03 -0.19301584764E+03  0.64938870000E+04  0.65000000000E+04  0.15050000000E+03 0.  1.
     100001    1    1    2    0    0 -0.13973640638E+03  0.19301584764E+03 -0.64938870000E+04  0.65000000000E+04  0.15050000000E+03 0. -1.
</event>
<event>
 4    1  0.5143956E-004  0.6500000E+04  0.7818608E-02  0.7223770E-01
         52   -1    0    0    0    0  0.00000000000E+00  0.00000000000E+00  0.64930732323E+04  0.65000000000E+04  0.30000000000E+03 0.  1.
        -52   -1    0    0    0    0 -0.00000000000E+00 -0.00000000000E+00 -0.64930732323E+04  0.65000000000E+04  0.30000000000E+03 0. -1.
     100001    1    1    2    0    0  0.57611864670E+03  0.68226388269E+03 -0.64366103695E+04  0.65000000000E+04  0.15050000000E+03 0. -1.
     100001    1    1    2    0    0 -0.57611864670E+03 -0.68226388269E+03  0.64366103695E+04  0.65000000000E+04  0.15050000000E+03 0.  1.
</event>
<event>
 4    1  0.5143956E-004  0.6500000E+04  0.7818608E-02  0.7223770E-01
         52   -1    0    0    0    0  0.00000000000E+00  0.00000000000E+00  0.64930732323E+04  0.65000000000E+04  0.30000000000E+03 0. -1.
        -52   -1    0    0    0    0 -0.00000000000E+00 -0.00000000000E+00 -0.64930732323E+04  0.65000000000E+04  0.30000000000E+03 0.  1.
     100001    1    1    2    0    0  0.51083025260E+03 -0.56366909772E+02  0.64779028222E+04  0.65000000000E+04  0.15050000000E+03 0. -1.
     100001    1    1    2    0    0 -0.51083025260E+03  0.56366909772E+02 -0.64779028222E+04  0.65000000000E+04  0.15050000000E+03 0.  1.
</event>
<event>
 4    1  0.5143956E-004  0.6500000E+04  0.7818608E-02  0.7223770E-01
         52   -1    0    0    0    0  0.00000000000E+00  0.00000000000E+00  0.64930732323E+04  0.65000000000E+04  0.30000000000E+03 0.  1.
        -52   -1    0    0    0    0 -0.00000000000E+00 -0.00000000000E+00 -0.64930732323E+04  0.65000000000E+04  0.30000000000E+03 0. -1.
     100001    1    1    2    0    0 -0.52410904839E+04 -0.38256648611E+04  0.35015519539E+03  0.65000000000E+04  0.15050000000E+03 0.  1.
     100001    1    1    2    0    0  0.52410904839E+04  0.38256648611E+04 -0.35015519539E+03  0.65000000000E+04  0.15050000000E+03 0. -1.
</event>
<event>
 4    1  0.5143956E-004  0.6500000E+04  0.7818608E-02  0.7223770E-01
         52   -1    0    0    0    0  0.00000000000E+00  0.00000000000E+00  0.64930732323E+04  0.65000000000E+04  0.30000000000E+03 0.  1.
        -52   -1    0    0    0    0 -0.00000000000E+00 -0.00000000000E+00 -0.64930732323E+04  0.65000000000E+04  0.30000000000E+03 0. -1.
     100001    1    1    2    0    0 -0.13945848940E+04  0.59906888781E+03 -0.63185124192E+04  0.65000000000E+04  0.15050000000E+03 0. -1.
     100001    1    1    2    0    0  0.13945848940E+04 -0.59906888781E+03  0.63185124192E+04  0.65000000000E+04  0.15050000000E+03 0.  1.
</event>
<event>
 4    1  0.5143956E-004  0.6500000E+04  0.7818608E-02  0.7223770E-01
         52   -1    0    0    0    0  0.00000000000E+00  0.00000000000E+00  0.64930732323E+04  0.65000000000E+04  0.30000000000E+03 0.  1.
        -52   -1    0    0    0    0 -0.00000000000E+00 -0.00000000000E+00 -0.64930732323E+04  0.65000000000E+04  0.30000000000E+03 0. -1.
     100001    1    1    2    0    0  0.46973871785E+03 -0.49778812709E+03  0.64621128331E+04  0.65000000000E+04  0.15050000000E+03 0.  1.
     100001    1    1    2    0    0 -0.46973871785E+03  0.49778812709E+03 -0.64621128331E+04  0.65000000000E+04  0.15050000000E+03 0. -1.
</event>
<event>
 4    1  0.5143956E-004  0.6500000E+04  0.7818608E-02  0.7223770E-01
         52   -1    0    0    0    0  0.00000000000E+00  0.00000000000E+00  0.64930732323E+04  0.65000000000E+04  0.30000000000E+03 0. -1.
        -52   -1    0    0    0    0 -0.00000000000E+00 -0.00000000000E+00 -0.64930732323E+04  0.65000000000E+04  0.30000000000E+03 0.  1.
     100001    1    1    2    0    0 -0.82287305606E+02 -0.97077215452E+02  0.64970112024E+04  0.65000000000E+04  0.15050000000E+03 0. -1.
     100001    1    1    2    0    0  0.82287305606E+02  0.97077215452E+02 -0.64970112024E+04  0.65000000000E+04  0.15050000000E+03 0.  1.
</event>
<event>
 4    1  0.5143956E-004  0.6500000E+04  0.7818608E-02  0.7223770E-01
         52   -1    0    0    0    0  0.00000000000E+00  0.00000000000E+00  0.64930732323E+04  0.65000000000E+04  0.30000000000E+03 0. -1.
        -52   -1    0    0    0    0 -0.00000000000E+00 -0.00000000000E+00 -0.64930732323E+04  0.65000000000E+04  0.30000000000E+03 0.  1.
     100001    1    1    2    0    0 -0.43932733667E+04 -0.25387721447E+04 -0.40596964015E+04  0.65000000000E+04  0.15050000000E+03 0.  1.
     100001    1    1    2    0    0  0.43932733667E+04  0.25387721447E+04  0.40596964015E+04  0.65000000000E+04  0.15050000000E+03 0. -1.
</event>
<event>
 4    1  0.5143956E-004  0.6500000E+04  0.7818608E-02  0.7223770E-01
         52   -1    0    0    0    0  0.00000000000E+00  0.00000000000E+00  0.64930732323E+04  0.65000000000E+04  0.30000000000E+03 0.  1.
        -52   -1    0    0    0    0 -0.00000000000E+00 -0.00000000000E+00 -0.64930732323E+04  0.65000000000E+04  0.30000000000E+03 0. -1.
     100001    1    1    2    0    0 -0.15536591394E+04 -0.35689011376E+03 -0.62996922524E+04  0.65000000000E+04  0.15050000000E+03 0. -1.
     100001    1    1    2    0    0  0.15536591394E+04  0.35689011376E+03  0.62996922524E+04  0.65000000000E+04  0.15050000000E+03 0.  1.
</event>
<event>
 4    1  0.5143956E-004  0.6500000E+04  0.7818608E-02  0.7223770E-01
         52   -1    0    0    0    0  0.00000000000E+00  0.00000000000E+00  0.64930732323E+04  0.65000000000E+04  0.30000000000E+03 0. -1.
        -52   -1    0    0    0    0 -0.00000000000E+00 -0.00000000000E+00 -0.64930732323E+04  0.65000000000E+04  0.30000000000E+03 0.  1.
     100001    1    1    2    0    0 -0.37571235109E+03  0.29026398662E+03  0.64808901238E+04  0.65000000000E+04  0.15050000000E+03 0. -1.
     100001    1    1    2    0    0  0.37571235109E+03 -0.29026398662E+03 -0.64808901238E+04  0.65000000000E+04  0.15050000000E+03 0.  1.
</event>
<event>
 4    1  0.5143956E-004  0.6500000E+04  0.7818608E-02  0.7223770E-01
         52   -1    0    0    0    0  0.00000000000E+00  0.00000000000E+00  0.64930732323E+04  0.65000000000E+04  0.30000000000E+03 0.  1.
        -52   -1    0    0    0    0 -0.00000000000E+00 -0.00000000000E+00 -0.64930732323E+04  0.65000000000E+04  0.30000000000E+03 0. -1.
     100001    1    1    2    0    0  0.28555413527E+04  0.57952146188E+04 -0.69908572811E+03  0.65000000000E+04  0.15050000000E+03 0.  1.
     100001    1    1    2    0    0 -0.28555413527E+04 -0.57952146188E+04  0.69908572811E+03  0.65000000000E+04  0.15050000000E+03 0. -1.
</event>
<event>
 4    1  0.5143956E-004  0.6500000E+04  0.7818608E-02  0.7223770E-01
         52   -1    0    0    0    0  0.00000000000E+00  0.00000000000E+00  0.64930732323E+04  0.65000000000E+04  0.30000000000E+03 0.  1.
        -52   -1    0    0    0    0 -0.00000000000E+00 -0.00000000000E+00 -0.64930732323E+04  0.65000000000E+04  0.30000000000E+03 0.  1.
     100001    1    1    2    0    0  0.63388504556E+03  0.24105296686E+03  0.64627728543E+04  0.65000000000E+04  0.15050000000E+03 0.  1.
     100001    1    1    2    0    0 -0.63388504556E+03 -0.24105296686E+03 -0.64627728543E+04  0.65000000000E+04  0.15050000000E+03 0.  1.
</event>
<event>
 4    1  0.5143956E-004  0.6500000E+04  0.7818608E-02  0.7223770E-01
         52   -1    0    0    0    0  0.00000000000E+00  0.00000000000E+00  0.64930732323E+04  0.65000000000E+04  0.30000000000E+03 0.  1.
        -52   -1    0    0    0    0 -0.00000000000E+00 -0.00000000000E+00 -0.64930732323E+04  0.65000000000E+04  0.30000000000E+03 0. -1.
     100001    1    1    2    0    0  0.11681997639E+03 -0.45481519365E+03 -0.64812688559E+04  0.65000000000E+04  0.15050000000E+03 0. -1.
     100001    1    1    2    0    0 -0.11681997639E+03  0.45481519365E+03  0.64812688559E+04  0.65000000000E+04  0.15050000000E+03 0.  1.
</event>
<event>
 4    1  0.5143956E-004  0.6500000E+04  0.7818608E-02  0.7223770E-01
         52   -1    0    0    0    0  0.00000000000E+00  0.00000000000E+00  0.64930732323E+04  0.65000000000E+04  0.30000000000E+03 0.  1.
        -52   -1    0    0    0    0 -0.00000000000E+00 -0.00000000000E+00 -0.64930732323E+04  0.65000000000E+04  0.30000000000E+03 0. -1.
     100001    1    1    2    0    0  0.54700441418E+03 -0.23410015132E+04 -0.60372053001E+04  0.65000000000E+04  0.15050000000E+03 0. -1.
     100001    1    1    2    0    0 -0.54700441418E+03  0.23410015132E+04  0.60372053001E+04  0.65000000000E+04  0.15050000000E+03 0.  1.
</event>
<event>
 4    1  0.5143956E-004  0.6500000E+04  0.7818608E-02  0.7223770E-01
         52   -1    0    0    0    0  0.00000000000E+00  0.00000000000E+00  0.64930732323E+04  0.65000000000E+04  0.30000000000E+03 0. -1.
        -52   -1    0    0    0    0 -0.00000000000E+00 -0.00000000000E+00 -0.64930732323E+04  0.65000000000E+04  0.30000000000E+03 0.  1.
     100001    1    1    2    0    0  0.12669923910E+04 -0.81193334094E+03 -0.63216172204E+04  0.65000000000E+04  0.15050000000E+03 0.  1.
     100001    1    1    2    0    0 -0.12669923910E+04  0.81193334094E+03  0.63216172204E+04  0.65000000000E+04  0.15050000000E+03 0. -1.
</event>
<event>
 4    1  0.5143956E-004  0.6500000E+04  0.7818608E-02  0.7223770E-01
         52   -1    0    0    0    0  0.00000000000E+00  0.00000000000E+00  0.64930732323E+04  0.65000000000E+04  0.30000000000E+03 0.  1.
        -52   -1    0    0    0    0 -0.00000000000E+00 -0.00000000000E+00 -0.64930732323E+04  0.65000000000E+04  0.30000000000E+03 0.  1.
     100001    1    1    2    0    0  0.16970642838E+03 -0.10118038552E+04 -0.64167594966E+04  0.65000000000E+04  0.15050000000E+03 0.  1.
     100001    1    1    2    0    0 -0.16970642838E+03  0.10118038552E+04  0.64167594966E+04  0.65000000000E+04  0.15050000000E+03 0.  1.
</event>
<event>
 4    1  0.5143956E-004  0.6500000E+04  0.7818608E-02  0.7223770E-01
         52   -1    0    0    0    0  0.00000000000E+00  0.00000000000E+00  0.64930732323E+04  0.65000000000E+04  0.30000000000E+03 0.  1.
        -52   -1    0    0    0    0 -0.00000000000E+00 -0.00000000000E+00 -0.64930732323E+04  0.65000000000E+04  0.30000000000E+03 0. -1.
     100001    1    1    2    0    0 -0.22889178976E+03  0.77022226972E+03  0.64483886323E+04  0.65000000000E+04  0.15050000000E+03 0.  1.
     100001    1    1    2    0    0  0.22889178976E+03 -0.77022226972E+03 -0.64483886323E+04  0.65000000000E+04  0.15050000000E+03 0. -1.
</event>
<event>
 4    1  0.5143956E-004  0.6500000E+04  0.7818608E-02  0.7223770E-01
         52   -1    0    0    0    0  0.00000000000E+00  0.00000000000E+00  0.64930732323E+04  0.65000000000E+04  0.30000000000E+03 0. -1.
        -52   -1    0    0    0    0 -0.00000000000E+00 -0.00000000000E+00 -0.64930732323E+04  0.65000000000E+04  0.30000000000E+03 0.  1.
     100001    1    1    2    0    0  0.19104084139E+04  0.50508601999E+04  0.36147614974E+04  0.65000000000E+04  0.15050000000E+03 0. -1.
     100001    1    1    2    0    0 -0.19104084139E+04 -0.50508601999E+04 -0.36147614974E+04  0.65000000000E+04  0.15050000000E+03 0.  1.
</event>
<event>
 4    1  0.5143956E-004  0.6500000E+04  0.7818608E-02  0.7223770E-01
         52   -1    0    0    0    0  0.00000000000E+00  0.00000000000E+00  0.64930732323E+04  0.65000000000E+04  0.30000000000E+03 0.  1.
        -52   -1    0    0    0    0 -0.00000000000E+00 -0.00000000000E+00 -0.64930732323E+04  0.65000000000E+04  0.30000000000E+03 0. -1.
     100001    1    1    2    0    0  0.40561605432E+04  0.13211156219E+04  0.49019960130E+04  0.65000000000E+04  0.15050000000E+03 0.  1.
     100001    1    1    2    0    0 -0.40561605432E+04 -0.13211156219E+04 -0.49019960130E+04  0.65000000000E+04  0.15050000000E+03 0. -1.
</event>
<event>
 4    1  0.5143956E-004  0.6500000E+04  0.7818608E-02  0.7223770E-01
         52   -1    0    0    0    0  0.00000000000E+00  0.00000000000E+00  0.64930732323E+04  0.65000000000E+04  0.30000000000E+03 0.  1.
        -52   -1    0    0    0    0 -0.00000000000E+00 -0.00000000000E+00 -0.64930732323E+04  0.65000000000E+04  0.30000000000E+03 0.  1.
     100001    1    1    2    0    0 -0.24407751147E+03  0.34641777869E+03  0.64844252360E+04  0.65000000000E+04  0.15050000000E+03 0.  1.
     100001    1    1    2    0    0  0.24407751147E+03 -0.34641777869E+03 -0.64844252360E+04  0.65000000000E+04  0.15050000000E+03 0.  1.
</event>
<event>
 4    1  0.5143956E-004  0.6500000E+04  0.7818608E-02  0.7223770E-01
         52   -1    0    0    0    0  0.00000000000E+00  0.00000000000E+00  0.64930732323E+04  0.65000000000E+04  0.30000000000E+03 0. -1.
        -52   -1    0    0    0    0 -0.00000000000E+00 -0.00000000000E+00 -0.64930732323E+04  0.65000000000E+04  0.30000000000E+03 0.  1.
     100001    1    1    2    0    0 -0.28523930866E+02 -0.44604927120E+03 -0.64828678980E+04  0.65000000000E+04  0.15050000000E+03 0.  1.
     100001    1    1    2    0    0  0.28523930866E+02  0.44604927120E+03  0.64828678980E+04  0.65000000000E+04  0.15050000000E+03 0. -1.
</event>
<event>
 4    1  0.5143956E-004  0.6500000E+04  0.7818608E-02  0.7223770E-01
         52   -1    0    0    0    0  0.00000000000E+00  0.00000000000E+00  0.64930732323E+04  0.65000000000E+04  0.30000000000E+03 0. -1.
        -52   -1    0    0    0    0 -0.00000000000E+00 -0.00000000000E+00 -0.64930732323E+04  0.65000000000E+04  0.30000000000E+03 0.  1.
     100001    1    1    2    0    0 -0.13751409194E+01  0.41011978676E+03 -0.64853025850E+04  0.65000000000E+04  0.15050000000E+03 0.  1.
     100001    1    1    2    0    0  0.13751409194E+01 -0.41011978676E+03  0.64853025850E+04  0.65000000000E+04  0.15050000000E+03 0. -1.
</event>
<event>
 4    1  0.5143956E-004  0.6500000E+04  0.7818608E-02  0.7223770E-01
         52   -1    0    0    0    0  0.00000000000E+00  0.00000000000E+00  0.64930732323E+04  0.65000000000E+04  0.30000000000E+03 0. -1.
        -52   -1    0    0    0    0 -0.00000000000E+00 -0.00000000000E+00 -0.64930732323E+04  0.65000000000E+04  0.30000000000E+03 0.  1.
     100001    1    1    2    0    0  0.72536946439E+03 -0.59860154152E+02  0.64573683225E+04  0.65000000000E+04  0.15050000000E+03 0. -1.
     100001    1    1    2    0    0 -0.72536946439E+03  0.59860154152E+02 -0.64573683225E+04  0.65000000000E+04  0.15050000000E+03 0.  1.
</event>
<event>
 4    1  0.5143956E-004  0.6500000E+04  0.7818608E-02  0.7223770E-01
         52   -1    0    0    0    0  0.00000000000E+00  0.00000000000E+00  0.64930732323E+04  0.65000000000E+04  0.30000000000E+03 0.  1.
        -52   -1    0    0    0    0 -0.00000000000E+00 -0.00000000000E+00 -0.64930732323E+04  0.65000000000E+04  0.30000000000E+03 0. -1.
     100001    1    1    2    0    0 -0.60482653806E+03  0.74735995547E+02 -0.64696173874E+04  0.65000000000E+04  0.15050000000E+03 0. -1.
     100001    1    1    2    0    0  0.60482653806E+03 -0.74735995547E+02  0.64696173874E+04  0.65000000000E+04  0.15050000000E+03 0.  1.
</event>
<event>
 4    1  0.5143956E-004  0.6500000E+04  0.7818608E-02  0.7223770E-01
         52   -1    0    0    0    0  0.00000000000E+00  0.00000000000E+00  0.64930732323E+04  0.65000000000E+04  0.30000000000E+03 0.  1.
        -52   -1    0    0    0    0 -0.00000000000E+00 -0.00000000000E+00 -0.64930732323E+04  0.65000000000E+04  0.30000000000E+03 0. -1.
     100001    1    1    2    0    0 -0.84051307479E+03  0.50403872770E+04  0.40143970431E+04  0.65000000000E+04  0.15050000000E+03 0. -1.
     100001    1    1    2    0    0  0.84051307479E+03 -0.50403872770E+04 -0.40143970431E+04  0.65000000000E+04  0.15050000000E+03 0.  1.
</event>
<event>
 4    1  0.5143956E-004  0.6500000E+04  0.7818608E-02  0.7223770E-01
         52   -1    0    0    0    0  0.00000000000E+00  0.00000000000E+00  0.64930732323E+04  0.65000000000E+04  0.30000000000E+03 0. -1.
        -52   -1    0    0    0    0 -0.00000000000E+00 -0.00000000000E+00 -0.64930732323E+04  0.65000000000E+04  0.30000000000E+03 0.  1.
     100001    1    1    2    0    0  0.21324905030E+04 -0.16938121495E+04  0.59000707120E+04  0.65000000000E+04  0.15050000000E+03 0. -1.
     100001    1    1    2    0    0 -0.21324905030E+04  0.16938121495E+04 -0.59000707120E+04  0.65000000000E+04  0.15050000000E+03 0.  1.
</event>
<event>
 4    1  0.5143956E-004  0.6500000E+04  0.7818608E-02  0.7223770E-01
         52   -1    0    0    0    0  0.00000000000E+00  0.00000000000E+00  0.64930732323E+04  0.65000000000E+04  0.30000000000E+03 0.  1.
        -52   -1    0    0    0    0 -0.00000000000E+00 -0.00000000000E+00 -0.64930732323E+04  0.65000000000E+04  0.30000000000E+03 0. -1.
     100001    1    1    2    0    0 -0.57342600688E+02 -0.28549924401E+04  0.58372150674E+04  0.65000000000E+04  0.15050000000E+03 0.  1.
     100001    1    1    2    0    0  0.57342600688E+02  0.28549924401E+04 -0.58372150674E+04  0.65000000000E+04  0.15050000000E+03 0. -1.
</event>
<event>
 4    1  0.5143956E-004  0.6500000E+04  0.7818608E-02  0.7223770E-01
         52   -1    0    0    0    0  0.00000000000E+00  0.00000000000E+00  0.64930732323E+04  0.65000000000E+04  0.30000000000E+03 0.  1.
        -52   -1    0    0    0    0 -0.00000000000E+00 -0.00000000000E+00 -0.64930732323E+04  0.65000000000E+04  0.30000000000E+03 0. -1.
     100001    1    1    2    0    0 -0.75668226514E+03 -0.31327250379E+04  0.56427666562E+04  0.65000000000E+04  0.15050000000E+03 0.  1.
     100001    1    1    2    0    0  0.75668226514E+03  0.31327250379E+04 -0.56427666562E+04  0.65000000000E+04  0.15050000000E+03 0. -1.
</event>
<event>
 4    1  0.5143956E-004  0.6500000E+04  0.7818608E-02  0.7223770E-01
         52   -1    0    0    0    0  0.00000000000E+00  0.00000000000E+00  0.64930732323E+04  0.65000000000E+04  0.30000000000E+03 0.  1.
        -52   -1    0    0    0    0 -0.00000000000E+00 -0.00000000000E+00 -0.64930732323E+04  0.65000000000E+04  0.30000000000E+03 0.  1.
     100001    1    1    2    0    0  0.76848625434E+02  0.27696085009E+03  0.64918977754E+04  0.65000000000E+04  0.15050000000E+03 0.  1.
     100001    1    1    2    0    0 -0.76848625434E+02 -0.27696085009E+03 -0.64918977754E+04  0.65000000000E+04  0.15050000000E+03 0.  1.
</event>
<event>
 4    1  0.5143956E-004  0.6500000E+04  0.7818608E-02  0.7223770E-01
         52   -1    0    0    0    0  0.00000000000E+00  0.00000000000E+00  0.64930732323E+04  0.65000000000E+04  0.30000000000E+03 0. -1.
        -52   -1    0    0    0    0 -0.00000000000E+00 -0.00000000000E+00 -0.64930732323E+04  0.65000000000E+04  0.30000000000E+03 0.  1.
     100001    1    1    2    0    0 -0.14179516628E+04 -0.28753730887E+04 -0.56523439769E+04  0.65000000000E+04  0.15050000000E+03 0.  1.
     100001    1    1    2    0    0  0.14179516628E+04  0.28753730887E+04  0.56523439769E+04  0.65000000000E+04  0.15050000000E+03 0. -1.
</event>
<event>
 4    1  0.6746334E-004  0.6500000E+04  0.7818608E-02  0.7223770E-01
         52   -1    0    0    0    0  0.00000000000E+00  0.00000000000E+00  0.64930732323E+04  0.65000000000E+04  0.30000000000E+03 0.  1.
        -52   -1    0    0    0    0 -0.00000000000E+00 -0.00000000000E+00 -0.64930732323E+04  0.65000000000E+04  0.30000000000E+03 0. -1.
     100001    1    1    2    0    0 -0.59285498373E+02  0.17355932064E+03 -0.64956687217E+04  0.65000000000E+04  0.15050000000E+03 0. -1.
     100001    1    1    2    0    0  0.59285498373E+02 -0.17355932064E+03  0.64956687217E+04  0.65000000000E+04  0.15050000000E+03 0.  1.
</event>
<event>
 4    1  0.5143956E-004  0.6500000E+04  0.7818608E-02  0.7223770E-01
         52   -1    0    0    0    0  0.00000000000E+00  0.00000000000E+00  0.64930732323E+04  0.65000000000E+04  0.30000000000E+03 0.  1.
        -52   -1    0    0    0    0 -0.00000000000E+00 -0.00000000000E+00 -0.64930732323E+04  0.65000000000E+04  0.30000000000E+03 0. -1.
     100001    1    1    2    0    0  0.28413164309E+03 -0.14627121011E+03 -0.64903947255E+04  0.65000000000E+04  0.15050000000E+03 0. -1.
     100001    1    1    2    0    0 -0.28413164309E+03  0.14627121011E+03  0.64903947255E+04  0.65000000000E+04  0.15050000000E+03 0.  1.
</event>
<event>
 4    1  0.5143956E-004  0.6500000E+04  0.7818608E-02  0.7223770E-01
         52   -1    0    0    0    0  0.00000000000E+00  0.00000000000E+00  0.64930732323E+04  0.65000000000E+04  0.30000000000E+03 0. -1.
        -52   -1    0    0    0    0 -0.00000000000E+00 -0.00000000000E+00 -0.64930732323E+04  0.65000000000E+04  0.30000000000E+03 0.  1.
     100001    1    1    2    0    0 -0.46782334310E+04  0.45088606462E+04 -0.10796938214E+03  0.65000000000E+04  0.15050000000E+03 0.  1.
     100001    1    1    2    0    0  0.46782334310E+04 -0.45088606462E+04  0.10796938214E+03  0.65000000000E+04  0.15050000000E+03 0. -1.
</event>
<event>
 4    1  0.5143956E-004  0.6500000E+04  0.7818608E-02  0.7223770E-01
         52   -1    0    0    0    0  0.00000000000E+00  0.00000000000E+00  0.64930732323E+04  0.65000000000E+04  0.30000000000E+03 0. -1.
        -52   -1    0    0    0    0 -0.00000000000E+00 -0.00000000000E+00 -0.64930732323E+04  0.65000000000E+04  0.30000000000E+03 0.  1.
     100001    1    1    2    0    0 -0.21897907304E+04  0.25637352682E+04 -0.55551262616E+04  0.65000000000E+04  0.15050000000E+03 0.  1.
     100001    1    1    2    0    0  0.21897907304E+04 -0.25637352682E+04  0.55551262616E+04  0.65000000000E+04  0.15050000000E+03 0. -1.
</event>
<event>
 4    1  0.5143956E-004  0.6500000E+04  0.7818608E-02  0.7223770E-01
         52   -1    0    0    0    0  0.00000000000E+00  0.00000000000E+00  0.64930732323E+04  0.65000000000E+04  0.30000000000E+03 0. -1.
        -52   -1    0    0    0    0 -0.00000000000E+00 -0.00000000000E+00 -0.64930732323E+04  0.65000000000E+04  0.30000000000E+03 0.  1.
     100001    1    1    2    0    0  0.15712027863E+04  0.34289434280E+03 -0.62961174563E+04  0.65000000000E+04  0.15050000000E+03 0.  1.
     100001    1    1    2    0    0 -0.15712027863E+04 -0.34289434280E+03  0.62961174563E+04  0.65000000000E+04  0.15050000000E+03 0. -1.
</event>
<event>
 4    1  0.5143956E-004  0.6500000E+04  0.7818608E-02  0.7223770E-01
         52   -1    0    0    0    0  0.00000000000E+00  0.00000000000E+00  0.64930732323E+04  0.65000000000E+04  0.30000000000E+03 0. -1.
        -52   -1    0    0    0    0 -0.00000000000E+00 -0.00000000000E+00 -0.64930732323E+04  0.65000000000E+04  0.30000000000E+03 0. -1.
     100001    1    1    2    0    0  0.40661740465E+03  0.84744098378E+03  0.64299188032E+04  0.65000000000E+04  0.15050000000E+03 0. -1.
     100001    1    1    2    0    0 -0.40661740465E+03 -0.84744098378E+03 -0.64299188032E+04  0.65000000000E+04  0.15050000000E+03 0. -1.
</event>
<event>
 4    1  0.5143956E-004  0.6500000E+04  0.7818608E-02  0.7223770E-01
         52   -1    0    0    0    0  0.00000000000E+00  0.00000000000E+00  0.64930732323E+04  0.65000000000E+04  0.30000000000E+03 0. -1.
        -52   -1    0    0    0    0 -0.00000000000E+00 -0.00000000000E+00 -0.64930732323E+04  0.65000000000E+04  0.30000000000E+03 0.  1.
     100001    1    1    2    0    0 -0.99697480863E+02 -0.52193894297E+03 -0.64764951866E+04  0.65000000000E+04  0.15050000000E+03 0.  1.
     100001    1    1    2    0    0  0.99697480863E+02  0.52193894297E+03  0.64764951866E+04  0.65000000000E+04  0.15050000000E+03 0. -1.
</event>
<event>
 4    1  0.5143956E-004  0.6500000E+04  0.7818608E-02  0.7223770E-01
         52   -1    0    0    0    0  0.00000000000E+00  0.00000000000E+00  0.64930732323E+04  0.65000000000E+04  0.30000000000E+03 0.  1.
        -52   -1    0    0    0    0 -0.00000000000E+00 -0.00000000000E+00 -0.64930732323E+04  0.65000000000E+04  0.30000000000E+03 0. -1.
     100001    1    1    2    0    0 -0.10855952379E+04  0.28649477076E+03  0.64005275935E+04  0.65000000000E+04  0.15050000000E+03 0.  1.
     100001    1    1    2    0    0  0.10855952379E+04 -0.28649477076E+03 -0.64005275935E+04  0.65000000000E+04  0.15050000000E+03 0. -1.
</event>
<event>
 4    1  0.5143956E-004  0.6500000E+04  0.7818608E-02  0.7223770E-01
         52   -1    0    0    0    0  0.00000000000E+00  0.00000000000E+00  0.64930732323E+04  0.65000000000E+04  0.30000000000E+03 0. -1.
        -52   -1    0    0    0    0 -0.00000000000E+00 -0.00000000000E+00 -0.64930732323E+04  0.65000000000E+04  0.30000000000E+03 0.  1.
     100001    1    1    2    0    0 -0.94625069265E+03 -0.38857759714E+03  0.64172398138E+04  0.65000000000E+04  0.15050000000E+03 0. -1.
     100001    1    1    2    0    0  0.94625069265E+03  0.38857759714E+03 -0.64172398138E+04  0.65000000000E+04  0.15050000000E+03 0.  1.
</event>
<event>
 4    1  0.5143956E-004  0.6500000E+04  0.7818608E-02  0.7223770E-01
         52   -1    0    0    0    0  0.00000000000E+00  0.00000000000E+00  0.64930732323E+04  0.65000000000E+04  0.30000000000E+03 0. -1.
        -52   -1    0    0    0    0 -0.00000000000E+00 -0.00000000000E+00 -0.64930732323E+04  0.65000000000E+04  0.30000000000E+03 0.  1.
     100001    1    1    2    0    0 -0.42429815975E+04 -0.36409395674E+04  0.33117995078E+04  0.65000000000E+04  0.15050000000E+03 0. -1.
     100001    1    1    2    0    0  0.42429815975E+04  0.36409395674E+04 -0.33117995078E+04  0.65000000000E+04  0.15050000000E+03 0.  1.
</event>
<event>
 4    1  0.5143956E-004  0.6500000E+04  0.7818608E-02  0.7223770E-01
         52   -1    0    0    0    0  0.00000000000E+00  0.00000000000E+00  0.64930732323E+04  0.65000000000E+04  0.30000000000E+03 0. -1.
        -52   -1    0    0    0    0 -0.00000000000E+00 -0.00000000000E+00 -0.64930732323E+04  0.65000000000E+04  0.30000000000E+03 0.  1.
     100001    1    1    2    0    0  0.22691084732E+04  0.23457530371E+04  0.56192472072E+04  0.65000000000E+04  0.15050000000E+03 0. -1.
     100001    1    1    2    0    0 -0.22691084732E+04 -0.23457530371E+04 -0.56192472072E+04  0.65000000000E+04  0.15050000000E+03 0.  1.
</event>
<event>
 4    1  0.5143956E-004  0.6500000E+04  0.7818608E-02  0.7223770E-01
         52   -1    0    0    0    0  0.00000000000E+00  0.00000000000E+00  0.64930732323E+04  0.65000000000E+04  0.30000000000E+03 0.  1.
        -52   -1    0    0    0    0 -0.00000000000E+00 -0.00000000000E+00 -0.64930732323E+04  0.65000000000E+04  0.30000000000E+03 0. -1.
     100001    1    1    2    0    0 -0.73226192249E+03 -0.15127395517E+03 -0.64550955390E+04  0.65000000000E+04  0.15050000000E+03 0. -1.
     100001    1    1    2    0    0  0.73226192249E+03  0.15127395517E+03  0.64550955390E+04  0.65000000000E+04  0.15050000000E+03 0.  1.
</event>
<event>
 4    1  0.5143956E-004  0.6500000E+04  0.7818608E-02  0.7223770E-01
         52   -1    0    0    0    0  0.00000000000E+00  0.00000000000E+00  0.64930732323E+04  0.65000000000E+04  0.30000000000E+03 0.  1.
        -52   -1    0    0    0    0 -0.00000000000E+00 -0.00000000000E+00 -0.64930732323E+04  0.65000000000E+04  0.30000000000E+03 0. -1.
     100001    1    1    2    0    0 -0.19532158850E+04 -0.49882380016E+04  0.36782848036E+04  0.65000000000E+04  0.15050000000E+03 0.  1.
     100001    1    1    2    0    0  0.19532158850E+04  0.49882380016E+04 -0.36782848036E+04  0.65000000000E+04  0.15050000000E+03 0. -1.
</event>
<event>
 4    1  0.5143956E-004  0.6500000E+04  0.7818608E-02  0.7223770E-01
         52   -1    0    0    0    0  0.00000000000E+00  0.00000000000E+00  0.64930732323E+04  0.65000000000E+04  0.30000000000E+03 0.  1.
        -52   -1    0    0    0    0 -0.00000000000E+00 -0.00000000000E+00 -0.64930732323E+04  0.65000000000E+04  0.30000000000E+03 0. -1.
     100001    1    1    2    0    0 -0.58340095335E+04 -0.12068781371E+04 -0.25952124528E+04  0.65000000000E+04  0.15050000000E+03 0. -1.
     100001    1    1    2    0    0  0.58340095335E+04  0.12068781371E+04  0.25952124528E+04  0.65000000000E+04  0.15050000000E+03 0.  1.
</event>
<event>
 4    1  0.5143956E-004  0.6500000E+04  0.7818608E-02  0.7223770E-01
         52   -1    0    0    0    0  0.00000000000E+00  0.00000000000E+00  0.64930732323E+04  0.65000000000E+04  0.30000000000E+03 0. -1.
        -52   -1    0    0    0    0 -0.00000000000E+00 -0.00000000000E+00 -0.64930732323E+04  0.65000000000E+04  0.30000000000E+03 0.  1.
     100001    1    1    2    0    0  0.19967109073E+03 -0.17451677619E+03 -0.64928441457E+04  0.65000000000E+04  0.15050000000E+03 0.  1.
     100001    1    1    2    0    0 -0.19967109073E+03  0.17451677619E+03  0.64928441457E+04  0.65000000000E+04  0.15050000000E+03 0. -1.
</event>
<event>
 4    1  0.5143956E-004  0.6500000E+04  0.7818608E-02  0.7223770E-01
         52   -1    0    0    0    0  0.00000000000E+00  0.00000000000E+00  0.64930732323E+04  0.65000000000E+04  0.30000000000E+03 0.  1.
        -52   -1    0    0    0    0 -0.00000000000E+00 -0.00000000000E+00 -0.64930732323E+04  0.65000000000E+04  0.30000000000E+03 0.  1.
     100001    1    1    2    0    0 -0.39079525821E+03  0.24867814767E+03 -0.64817272386E+04  0.65000000000E+04  0.15050000000E+03 0.  1.
     100001    1    1    2    0    0  0.39079525821E+03 -0.24867814767E+03  0.64817272386E+04  0.65000000000E+04  0.15050000000E+03 0.  1.
</event>
<event>
 4    1  0.5143956E-004  0.6500000E+04  0.7818608E-02  0.7223770E-01
         52   -1    0    0    0    0  0.00000000000E+00  0.00000000000E+00  0.64930732323E+04  0.65000000000E+04  0.30000000000E+03 0. -1.
        -52   -1    0    0    0    0 -0.00000000000E+00 -0.00000000000E+00 -0.64930732323E+04  0.65000000000E+04  0.30000000000E+03 0.  1.
     100001    1    1    2    0    0  0.29122504324E+02 -0.25765194021E+04 -0.59655720095E+04  0.65000000000E+04  0.15050000000E+03 0.  1.
     100001    1    1    2    0    0 -0.29122504324E+02  0.25765194021E+04  0.59655720095E+04  0.65000000000E+04  0.15050000000E+03 0. -1.
</event>
<event>
 4    1  0.5143956E-004  0.6500000E+04  0.7818608E-02  0.7223770E-01
         52   -1    0    0    0    0  0.00000000000E+00  0.00000000000E+00  0.64930732323E+04  0.65000000000E+04  0.30000000000E+03 0. -1.
        -52   -1    0    0    0    0 -0.00000000000E+00 -0.00000000000E+00 -0.64930732323E+04  0.65000000000E+04  0.30000000000E+03 0. -1.
     100001    1    1    2    0    0 -0.40627621050E+02 -0.29494971157E+03  0.64914331094E+04  0.65000000000E+04  0.15050000000E+03 0. -1.
     100001    1    1    2    0    0  0.40627621050E+02  0.29494971157E+03 -0.64914331094E+04  0.65000000000E+04  0.15050000000E+03 0. -1.
</event>
<event>
 4    1  0.5143956E-004  0.6500000E+04  0.7818608E-02  0.7223770E-01
         52   -1    0    0    0    0  0.00000000000E+00  0.00000000000E+00  0.64930732323E+04  0.65000000000E+04  0.30000000000E+03 0. -1.
        -52   -1    0    0    0    0 -0.00000000000E+00 -0.00000000000E+00 -0.64930732323E+04  0.65000000000E+04  0.30000000000E+03 0.  1.
     100001    1    1    2    0    0 -0.19173326227E+04  0.16229078801E+04 -0.59931089909E+04  0.65000000000E+04  0.15050000000E+03 0.  1.
     100001    1    1    2    0    0  0.19173326227E+04 -0.16229078801E+04  0.59931089909E+04  0.65000000000E+04  0.15050000000E+03 0. -1.
</event>
<event>
 4    1  0.5143956E-004  0.6500000E+04  0.7818608E-02  0.7223770E-01
         52   -1    0    0    0    0  0.00000000000E+00  0.00000000000E+00  0.64930732323E+04  0.65000000000E+04  0.30000000000E+03 0.  1.
        -52   -1    0    0    0    0 -0.00000000000E+00 -0.00000000000E+00 -0.64930732323E+04  0.65000000000E+04  0.30000000000E+03 0. -1.
     100001    1    1    2    0    0 -0.32995877030E+04 -0.23117821456E+04  0.50986011857E+04  0.65000000000E+04  0.15050000000E+03 0.  1.
     100001    1    1    2    0    0  0.32995877030E+04  0.23117821456E+04 -0.50986011857E+04  0.65000000000E+04  0.15050000000E+03 0. -1.
</event>
<event>
 4    1  0.5143956E-004  0.6500000E+04  0.7818608E-02  0.7223770E-01
         52   -1    0    0    0    0  0.00000000000E+00  0.00000000000E+00  0.64930732323E+04  0.65000000000E+04  0.30000000000E+03 0.  1.
        -52   -1    0    0    0    0 -0.00000000000E+00 -0.00000000000E+00 -0.64930732323E+04  0.65000000000E+04  0.30000000000E+03 0. -1.
     100001    1    1    2    0    0  0.10115906465E+04  0.74179562519E+03  0.63760311609E+04  0.65000000000E+04  0.15050000000E+03 0.  1.
     100001    1    1    2    0    0 -0.10115906465E+04 -0.74179562519E+03 -0.63760311609E+04  0.65000000000E+04  0.15050000000E+03 0. -1.
</event>
<event>
 4    1  0.5143956E-004  0.6500000E+04  0.7818608E-02  0.7223770E-01
         52   -1    0    0    0    0  0.00000000000E+00  0.00000000000E+00  0.64930732323E+04  0.65000000000E+04  0.30000000000E+03 0.  1.
        -52   -1    0    0    0    0 -0.00000000000E+00 -0.00000000000E+00 -0.64930732323E+04  0.65000000000E+04  0.30000000000E+03 0. -1.
     100001    1    1    2    0    0  0.18571895704E+04  0.12816533713E+04 -0.60938954114E+04  0.65000000000E+04  0.15050000000E+03 0. -1.
     100001    1    1    2    0    0 -0.18571895704E+04 -0.12816533713E+04  0.60938954114E+04  0.65000000000E+04  0.15050000000E+03 0.  1.
</event>
<event>
 4    1  0.5143956E-004  0.6500000E+04  0.7818608E-02  0.7223770E-01
         52   -1    0    0    0    0  0.00000000000E+00  0.00000000000E+00  0.64930732323E+04  0.65000000000E+04  0.30000000000E+03 0. -1.
        -52   -1    0    0    0    0 -0.00000000000E+00 -0.00000000000E+00 -0.64930732323E+04  0.65000000000E+04  0.30000000000E+03 0.  1.
     100001    1    1    2    0    0  0.41486356101E+03 -0.23075660128E+04  0.60605591386E+04  0.65000000000E+04  0.15050000000E+03 0. -1.
     100001    1    1    2    0    0 -0.41486356101E+03  0.23075660128E+04 -0.60605591386E+04  0.65000000000E+04  0.15050000000E+03 0.  1.
</event>
<event>
 4    1  0.5143956E-004  0.6500000E+04  0.7818608E-02  0.7223770E-01
         52   -1    0    0    0    0  0.00000000000E+00  0.00000000000E+00  0.64930732323E+04  0.65000000000E+04  0.30000000000E+03 0. -1.
        -52   -1    0    0    0    0 -0.00000000000E+00 -0.00000000000E+00 -0.64930732323E+04  0.65000000000E+04  0.30000000000E+03 0.  1.
     100001    1    1    2    0    0 -0.29912026802E+03  0.11194700047E+04  0.63941116446E+04  0.65000000000E+04  0.15050000000E+03 0. -1.
     100001    1    1    2    0    0  0.29912026802E+03 -0.11194700047E+04 -0.63941116446E+04  0.65000000000E+04  0.15050000000E+03 0.  1.
</event>
<event>
 4    1  0.5143956E-004  0.6500000E+04  0.7818608E-02  0.7223770E-01
         52   -1    0    0    0    0  0.00000000000E+00  0.00000000000E+00  0.64930732323E+04  0.65000000000E+04  0.30000000000E+03 0.  1.
        -52   -1    0    0    0    0 -0.00000000000E+00 -0.00000000000E+00 -0.64930732323E+04  0.65000000000E+04  0.30000000000E+03 0. -1.
     100001    1    1    2    0    0  0.12132740443E+04  0.66257499510E+03 -0.63495125970E+04  0.65000000000E+04  0.15050000000E+03 0. -1.
     100001    1    1    2    0    0 -0.12132740443E+04 -0.66257499510E+03  0.63495125970E+04  0.65000000000E+04  0.15050000000E+03 0.  1.
</event>
<event>
 4    1  0.5143956E-004  0.6500000E+04  0.7818608E-02  0.7223770E-01
         52   -1    0    0    0    0  0.00000000000E+00  0.00000000000E+00  0.64930732323E+04  0.65000000000E+04  0.30000000000E+03 0. -1.
        -52   -1    0    0    0    0 -0.00000000000E+00 -0.00000000000E+00 -0.64930732323E+04  0.65000000000E+04  0.30000000000E+03 0.  1.
     100001    1    1    2    0    0  0.67208711345E+03 -0.12113113770E+03  0.64622732772E+04  0.65000000000E+04  0.15050000000E+03 0. -1.
     100001    1    1    2    0    0 -0.67208711345E+03  0.12113113770E+03 -0.64622732772E+04  0.65000000000E+04  0.15050000000E+03 0.  1.
</event>
<event>
 4    1  0.5143956E-004  0.6500000E+04  0.7818608E-02  0.7223770E-01
         52   -1    0    0    0    0  0.00000000000E+00  0.00000000000E+00  0.64930732323E+04  0.65000000000E+04  0.30000000000E+03 0. -1.
        -52   -1    0    0    0    0 -0.00000000000E+00 -0.00000000000E+00 -0.64930732323E+04  0.65000000000E+04  0.30000000000E+03 0.  1.
     100001    1    1    2    0    0 -0.16296264598E+04  0.20987585772E+04  0.59301669273E+04  0.65000000000E+04  0.15050000000E+03 0. -1.
     100001    1    1    2    0    0  0.16296264598E+04 -0.20987585772E+04 -0.59301669273E+04  0.65000000000E+04  0.15050000000E+03 0.  1.
</event>
<event>
 4    1  0.5143956E-004  0.6500000E+04  0.7818608E-02  0.7223770E-01
         52   -1    0    0    0    0  0.00000000000E+00  0.00000000000E+00  0.64930732323E+04  0.65000000000E+04  0.30000000000E+03 0. -1.
        -52   -1    0    0    0    0 -0.00000000000E+00 -0.00000000000E+00 -0.64930732323E+04  0.65000000000E+04  0.30000000000E+03 0.  1.
     100001    1    1    2    0    0 -0.21165655653E+03 -0.11867334345E+02 -0.64947987204E+04  0.65000000000E+04  0.15050000000E+03 0.  1.
     100001    1    1    2    0    0  0.21165655653E+03  0.11867334345E+02  0.64947987204E+04  0.65000000000E+04  0.15050000000E+03 0. -1.
</event>
<event>
 4    1  0.5143956E-004  0.6500000E+04  0.7818608E-02  0.7223770E-01
         52   -1    0    0    0    0  0.00000000000E+00  0.00000000000E+00  0.64930732323E+04  0.65000000000E+04  0.30000000000E+03 0. -1.
        -52   -1    0    0    0    0 -0.00000000000E+00 -0.00000000000E+00 -0.64930732323E+04  0.65000000000E+04  0.30000000000E+03 0.  1.
     100001    1    1    2    0    0  0.10115107617E+04 -0.11942434673E+03  0.64179384193E+04  0.65000000000E+04  0.15050000000E+03 0. -1.
     100001    1    1    2    0    0 -0.10115107617E+04  0.11942434673E+03 -0.64179384193E+04  0.65000000000E+04  0.15050000000E+03 0.  1.
</event>
<event>
 4    1  0.5143956E-004  0.6500000E+04  0.7818608E-02  0.7223770E-01
         52   -1    0    0    0    0  0.00000000000E+00  0.00000000000E+00  0.64930732323E+04  0.65000000000E+04  0.30000000000E+03 0. -1.
        -52   -1    0    0    0    0 -0.00000000000E+00 -0.00000000000E+00 -0.64930732323E+04  0.65000000000E+04  0.30000000000E+03 0. -1.
     100001    1    1    2    0    0 -0.23312081764E+03 -0.17919764923E+03 -0.64916017004E+04  0.65000000000E+04  0.15050000000E+03 0. -1.
     100001    1    1    2    0    0  0.23312081764E+03  0.17919764923E+03  0.64916017004E+04  0.65000000000E+04  0.15050000000E+03 0. -1.
</event>
<event>
 4    1  0.5143956E-004  0.6500000E+04  0.7818608E-02  0.7223770E-01
         52   -1    0    0    0    0  0.00000000000E+00  0.00000000000E+00  0.64930732323E+04  0.65000000000E+04  0.30000000000E+03 0. -1.
        -52   -1    0    0    0    0 -0.00000000000E+00 -0.00000000000E+00 -0.64930732323E+04  0.65000000000E+04  0.30000000000E+03 0.  1.
     100001    1    1    2    0    0  0.59585811123E+03  0.43350400718E+03 -0.64563439451E+04  0.65000000000E+04  0.15050000000E+03 0.  1.
     100001    1    1    2    0    0 -0.59585811123E+03 -0.43350400718E+03  0.64563439451E+04  0.65000000000E+04  0.15050000000E+03 0. -1.
</event>
<event>
 4    1  0.5143956E-004  0.6500000E+04  0.7818608E-02  0.7223770E-01
         52   -1    0    0    0    0  0.00000000000E+00  0.00000000000E+00  0.64930732323E+04  0.65000000000E+04  0.30000000000E+03 0.  1.
        -52   -1    0    0    0    0 -0.00000000000E+00 -0.00000000000E+00 -0.64930732323E+04  0.65000000000E+04  0.30000000000E+03 0. -1.
     100001    1    1    2    0    0 -0.67279070751E+03  0.82104067877E+03  0.64109745451E+04  0.65000000000E+04  0.15050000000E+03 0.  1.
     100001    1    1    2    0    0  0.67279070751E+03 -0.82104067877E+03 -0.64109745451E+04  0.65000000000E+04  0.15050000000E+03 0. -1.
</event>
<event>
 4    1  0.5143956E-004  0.6500000E+04  0.7818608E-02  0.7223770E-01
         52   -1    0    0    0    0  0.00000000000E+00  0.00000000000E+00  0.64930732323E+04  0.65000000000E+04  0.30000000000E+03 0.  1.
        -52   -1    0    0    0    0 -0.00000000000E+00 -0.00000000000E+00 -0.64930732323E+04  0.65000000000E+04  0.30000000000E+03 0. -1.
     100001    1    1    2    0    0 -0.37426574135E+04  0.28780862036E+03  0.53044350720E+04  0.65000000000E+04  0.15050000000E+03 0.  1.
     100001    1    1    2    0    0  0.37426574135E+04 -0.28780862036E+03 -0.53044350720E+04  0.65000000000E+04  0.15050000000E+03 0. -1.
</event>
<event>
 4    1  0.5143956E-004  0.6500000E+04  0.7818608E-02  0.7223770E-01
         52   -1    0    0    0    0  0.00000000000E+00  0.00000000000E+00  0.64930732323E+04  0.65000000000E+04  0.30000000000E+03 0. -1.
        -52   -1    0    0    0    0 -0.00000000000E+00 -0.00000000000E+00 -0.64930732323E+04  0.65000000000E+04  0.30000000000E+03 0.  1.
     100001    1    1    2    0    0 -0.17715921368E+04  0.17645020819E+04 -0.59979449359E+04  0.65000000000E+04  0.15050000000E+03 0.  1.
     100001    1    1    2    0    0  0.17715921368E+04 -0.17645020819E+04  0.59979449359E+04  0.65000000000E+04  0.15050000000E+03 0. -1.
</event>
<event>
 4    1  0.5143956E-004  0.6500000E+04  0.7818608E-02  0.7223770E-01
         52   -1    0    0    0    0  0.00000000000E+00  0.00000000000E+00  0.64930732323E+04  0.65000000000E+04  0.30000000000E+03 0. -1.
        -52   -1    0    0    0    0 -0.00000000000E+00 -0.00000000000E+00 -0.64930732323E+04  0.65000000000E+04  0.30000000000E+03 0.  1.
     100001    1    1    2    0    0  0.58329460304E+04 -0.22378174002E+04  0.17878097325E+04  0.65000000000E+04  0.15050000000E+03 0. -1.
     100001    1    1    2    0    0 -0.58329460304E+04  0.22378174002E+04 -0.17878097325E+04  0.65000000000E+04  0.15050000000E+03 0.  1.
</event>
<event>
 4    1  0.5143956E-004  0.6500000E+04  0.7818608E-02  0.7223770E-01
         52   -1    0    0    0    0  0.00000000000E+00  0.00000000000E+00  0.64930732323E+04  0.65000000000E+04  0.30000000000E+03 0.  1.
        -52   -1    0    0    0    0 -0.00000000000E+00 -0.00000000000E+00 -0.64930732323E+04  0.65000000000E+04  0.30000000000E+03 0.  1.
     100001    1    1    2    0    0 -0.33797234461E+03 -0.84461703087E+01  0.64894570733E+04  0.65000000000E+04  0.15050000000E+03 0.  1.
     100001    1    1    2    0    0  0.33797234461E+03  0.84461703087E+01 -0.64894570733E+04  0.65000000000E+04  0.15050000000E+03 0.  1.
</event>
<event>
 4    1  0.5143956E-004  0.6500000E+04  0.7818608E-02  0.7223770E-01
         52   -1    0    0    0    0  0.00000000000E+00  0.00000000000E+00  0.64930732323E+04  0.65000000000E+04  0.30000000000E+03 0. -1.
        -52   -1    0    0    0    0 -0.00000000000E+00 -0.00000000000E+00 -0.64930732323E+04  0.65000000000E+04  0.30000000000E+03 0.  1.
     100001    1    1    2    0    0 -0.18777912354E+03 -0.34745437836E+03  0.64862442296E+04  0.65000000000E+04  0.15050000000E+03 0. -1.
     100001    1    1    2    0    0  0.18777912354E+03  0.34745437836E+03 -0.64862442296E+04  0.65000000000E+04  0.15050000000E+03 0.  1.
</event>
<event>
 4    1  0.5143956E-004  0.6500000E+04  0.7818608E-02  0.7223770E-01
         52   -1    0    0    0    0  0.00000000000E+00  0.00000000000E+00  0.64930732323E+04  0.65000000000E+04  0.30000000000E+03 0.  1.
        -52   -1    0    0    0    0 -0.00000000000E+00 -0.00000000000E+00 -0.64930732323E+04  0.65000000000E+04  0.30000000000E+03 0. -1.
     100001    1    1    2    0    0 -0.52768796121E+03  0.89511672864E+03  0.64146442776E+04  0.65000000000E+04  0.15050000000E+03 0.  1.
     100001    1    1    2    0    0  0.52768796121E+03 -0.89511672864E+03 -0.64146442776E+04  0.65000000000E+04  0.15050000000E+03 0. -1.
</event>
<event>
 4    1  0.5143956E-004  0.6500000E+04  0.7818608E-02  0.7223770E-01
         52   -1    0    0    0    0  0.00000000000E+00  0.00000000000E+00  0.64930732323E+04  0.65000000000E+04  0.30000000000E+03 0.  1.
        -52   -1    0    0    0    0 -0.00000000000E+00 -0.00000000000E+00 -0.64930732323E+04  0.65000000000E+04  0.30000000000E+03 0.  1.
     100001    1    1    2    0    0  0.18251711554E+03  0.31292578665E+03  0.64881518713E+04  0.65000000000E+04  0.15050000000E+03 0.  1.
     100001    1    1    2    0    0 -0.18251711554E+03 -0.31292578665E+03 -0.64881518713E+04  0.65000000000E+04  0.15050000000E+03 0.  1.
</event>
<event>
 4    1  0.5143956E-004  0.6500000E+04  0.7818608E-02  0.7223770E-01
         52   -1    0    0    0    0  0.00000000000E+00  0.00000000000E+00  0.64930732323E+04  0.65000000000E+04  0.30000000000E+03 0. -1.
        -52   -1    0    0    0    0 -0.00000000000E+00 -0.00000000000E+00 -0.64930732323E+04  0.65000000000E+04  0.30000000000E+03 0.  1.
     100001    1    1    2    0    0  0.41443375201E+04 -0.13479645695E+04 -0.48202497642E+04  0.65000000000E+04  0.15050000000E+03 0.  1.
     100001    1    1    2    0    0 -0.41443375201E+04  0.13479645695E+04  0.48202497642E+04  0.65000000000E+04  0.15050000000E+03 0. -1.
</event>
<event>
 4    1  0.5143956E-004  0.6500000E+04  0.7818608E-02  0.7223770E-01
         52   -1    0    0    0    0  0.00000000000E+00  0.00000000000E+00  0.64930732323E+04  0.65000000000E+04  0.30000000000E+03 0. -1.
        -52   -1    0    0    0    0 -0.00000000000E+00 -0.00000000000E+00 -0.64930732323E+04  0.65000000000E+04  0.30000000000E+03 0.  1.
     100001    1    1    2    0    0 -0.90250694530E+03  0.56423597771E+03  0.64104967612E+04  0.65000000000E+04  0.15050000000E+03 0. -1.
     100001    1    1    2    0    0  0.90250694530E+03 -0.56423597771E+03 -0.64104967612E+04  0.65000000000E+04  0.15050000000E+03 0.  1.
</event>
<event>
 4    1  0.5143956E-004  0.6500000E+04  0.7818608E-02  0.7223770E-01
         52   -1    0    0    0    0  0.00000000000E+00  0.00000000000E+00  0.64930732323E+04  0.65000000000E+04  0.30000000000E+03 0. -1.
        -52   -1    0    0    0    0 -0.00000000000E+00 -0.00000000000E+00 -0.64930732323E+04  0.65000000000E+04  0.30000000000E+03 0.  1.
     100001    1    1    2    0    0 -0.16424704833E+04  0.76487454270E+03  0.62405614648E+04  0.65000000000E+04  0.15050000000E+03 0. -1.
     100001    1    1    2    0    0  0.16424704833E+04 -0.76487454270E+03 -0.62405614648E+04  0.65000000000E+04  0.15050000000E+03 0.  1.
</event>
<event>
 4    1  0.5143956E-004  0.6500000E+04  0.7818608E-02  0.7223770E-01
         52   -1    0    0    0    0  0.00000000000E+00  0.00000000000E+00  0.64930732323E+04  0.65000000000E+04  0.30000000000E+03 0. -1.
        -52   -1    0    0    0    0 -0.00000000000E+00 -0.00000000000E+00 -0.64930732323E+04  0.65000000000E+04  0.30000000000E+03 0.  1.
     100001    1    1    2    0    0  0.23809570274E+03 -0.20108632104E+04 -0.61747137047E+04  0.65000000000E+04  0.15050000000E+03 0.  1.
     100001    1    1    2    0    0 -0.23809570274E+03  0.20108632104E+04  0.61747137047E+04  0.65000000000E+04  0.15050000000E+03 0. -1.
</event>
<event>
 4    1  0.5143956E-004  0.6500000E+04  0.7818608E-02  0.7223770E-01
         52   -1    0    0    0    0  0.00000000000E+00  0.00000000000E+00  0.64930732323E+04  0.65000000000E+04  0.30000000000E+03 0. -1.
        -52   -1    0    0    0    0 -0.00000000000E+00 -0.00000000000E+00 -0.64930732323E+04  0.65000000000E+04  0.30000000000E+03 0.  1.
     100001    1    1    2    0    0 -0.40913776534E+03 -0.38112236298E+03  0.64741564534E+04  0.65000000000E+04  0.15050000000E+03 0. -1.
     100001    1    1    2    0    0  0.40913776534E+03  0.38112236298E+03 -0.64741564534E+04  0.65000000000E+04  0.15050000000E+03 0.  1.
</event>
<event>
 4    1  0.5143956E-004  0.6500000E+04  0.7818608E-02  0.7223770E-01
         52   -1    0    0    0    0  0.00000000000E+00  0.00000000000E+00  0.64930732323E+04  0.65000000000E+04  0.30000000000E+03 0. -1.
        -52   -1    0    0    0    0 -0.00000000000E+00 -0.00000000000E+00 -0.64930732323E+04  0.65000000000E+04  0.30000000000E+03 0. -1.
     100001    1    1    2    0    0 -0.33500596573E+03  0.39893776620E+03 -0.64773427740E+04  0.65000000000E+04  0.15050000000E+03 0. -1.
     100001    1    1    2    0    0  0.33500596573E+03 -0.39893776620E+03  0.64773427740E+04  0.65000000000E+04  0.15050000000E+03 0. -1.
</event>
<event>
 4    1  0.5143956E-004  0.6500000E+04  0.7818608E-02  0.7223770E-01
         52   -1    0    0    0    0  0.00000000000E+00  0.00000000000E+00  0.64930732323E+04  0.65000000000E+04  0.30000000000E+03 0. -1.
        -52   -1    0    0    0    0 -0.00000000000E+00 -0.00000000000E+00 -0.64930732323E+04  0.65000000000E+04  0.30000000000E+03 0.  1.
     100001    1    1    2    0    0 -0.16677960779E+04  0.87156183316E+03 -0.62198220202E+04  0.65000000000E+04  0.15050000000E+03 0.  1.
     100001    1    1    2    0    0  0.16677960779E+04 -0.87156183316E+03  0.62198220202E+04  0.65000000000E+04  0.15050000000E+03 0. -1.
</event>
<event>
 4    1  0.5143956E-004  0.6500000E+04  0.7818608E-02  0.7223770E-01
         52   -1    0    0    0    0  0.00000000000E+00  0.00000000000E+00  0.64930732323E+04  0.65000000000E+04  0.30000000000E+03 0.  1.
        -52   -1    0    0    0    0 -0.00000000000E+00 -0.00000000000E+00 -0.64930732323E+04  0.65000000000E+04  0.30000000000E+03 0.  1.
     100001    1    1    2    0    0 -0.61856328373E+03 -0.37814590244E+03 -0.64576880453E+04  0.65000000000E+04  0.15050000000E+03 0.  1.
     100001    1    1    2    0    0  0.61856328373E+03  0.37814590244E+03  0.64576880453E+04  0.65000000000E+04  0.15050000000E+03 0.  1.
</event>
<event>
 4    1  0.5143956E-004  0.6500000E+04  0.7818608E-02  0.7223770E-01
         52   -1    0    0    0    0  0.00000000000E+00  0.00000000000E+00  0.64930732323E+04  0.65000000000E+04  0.30000000000E+03 0. -1.
        -52   -1    0    0    0    0 -0.00000000000E+00 -0.00000000000E+00 -0.64930732323E+04  0.65000000000E+04  0.30000000000E+03 0.  1.
     100001    1    1    2    0    0  0.59856890884E+03 -0.36034801316E+02 -0.64705306200E+04  0.65000000000E+04  0.15050000000E+03 0.  1.
     100001    1    1    2    0    0 -0.59856890884E+03  0.36034801316E+02  0.64705306200E+04  0.65000000000E+04  0.15050000000E+03 0. -1.
</event>
<event>
 4    1  0.7400107E-004  0.6500000E+04  0.7818608E-02  0.7223770E-01
         52   -1    0    0    0    0  0.00000000000E+00  0.00000000000E+00  0.64930732323E+04  0.65000000000E+04  0.30000000000E+03 0.  1.
        -52   -1    0    0    0    0 -0.00000000000E+00 -0.00000000000E+00 -0.64930732323E+04  0.65000000000E+04  0.30000000000E+03 0.  1.
     100001    1    1    2    0    0 -0.56575322126E+02 -0.13960617142E+03  0.64965113022E+04  0.65000000000E+04  0.15050000000E+03 0.  1.
     100001    1    1    2    0    0  0.56575322126E+02  0.13960617142E+03 -0.64965113022E+04  0.65000000000E+04  0.15050000000E+03 0.  1.
</event>
<event>
 4    1  0.5143956E-004  0.6500000E+04  0.7818608E-02  0.7223770E-01
         52   -1    0    0    0    0  0.00000000000E+00  0.00000000000E+00  0.64930732323E+04  0.65000000000E+04  0.30000000000E+03 0. -1.
        -52   -1    0    0    0    0 -0.00000000000E+00 -0.00000000000E+00 -0.64930732323E+04  0.65000000000E+04  0.30000000000E+03 0.  1.
     100001    1    1    2    0    0  0.13543227789E+04  0.57769728014E+04  0.26494801024E+04  0.65000000000E+04  0.15050000000E+03 0. -1.
     100001    1    1    2    0    0 -0.13543227789E+04 -0.57769728014E+04 -0.26494801024E+04  0.65000000000E+04  0.15050000000E+03 0.  1.
</event>
<event>
 4    1  0.5143956E-004  0.6500000E+04  0.7818608E-02  0.7223770E-01
         52   -1    0    0    0    0  0.00000000000E+00  0.00000000000E+00  0.64930732323E+04  0.65000000000E+04  0.30000000000E+03 0. -1.
        -52   -1    0    0    0    0 -0.00000000000E+00 -0.00000000000E+00 -0.64930732323E+04  0.65000000000E+04  0.30000000000E+03 0.  1.
     100001    1    1    2    0    0 -0.10045816910E+04 -0.34182874720E+03  0.64110310001E+04  0.65000000000E+04  0.15050000000E+03 0. -1.
     100001    1    1    2    0    0  0.10045816910E+04  0.34182874720E+03 -0.64110310001E+04  0.65000000000E+04  0.15050000000E+03 0.  1.
</event>
<event>
 4    1  0.5143956E-004  0.6500000E+04  0.7818608E-02  0.7223770E-01
         52   -1    0    0    0    0  0.00000000000E+00  0.00000000000E+00  0.64930732323E+04  0.65000000000E+04  0.30000000000E+03 0. -1.
        -52   -1    0    0    0    0 -0.00000000000E+00 -0.00000000000E+00 -0.64930732323E+04  0.65000000000E+04  0.30000000000E+03 0.  1.
     100001    1    1    2    0    0  0.24614161466E+04  0.53342122415E+04  0.27775816938E+04  0.65000000000E+04  0.15050000000E+03 0. -1.
     100001    1    1    2    0    0 -0.24614161466E+04 -0.53342122415E+04 -0.27775816938E+04  0.65000000000E+04  0.15050000000E+03 0.  1.
</event>
<event>
 4    1  0.6849411E-004  0.6500000E+04  0.7818608E-02  0.7223770E-01
         52   -1    0    0    0    0  0.00000000000E+00  0.00000000000E+00  0.64930732323E+04  0.65000000000E+04  0.30000000000E+03 0.  1.
        -52   -1    0    0    0    0 -0.00000000000E+00 -0.00000000000E+00 -0.64930732323E+04  0.65000000000E+04  0.30000000000E+03 0.  1.
     100001    1    1    2    0    0  0.10533255574E+03 -0.99380076791E+02  0.64966436260E+04  0.65000000000E+04  0.15050000000E+03 0.  1.
     100001    1    1    2    0    0 -0.10533255574E+03  0.99380076791E+02 -0.64966436260E+04  0.65000000000E+04  0.15050000000E+03 0.  1.
</event>
<event>
 4    1  0.5143956E-004  0.6500000E+04  0.7818608E-02  0.7223770E-01
         52   -1    0    0    0    0  0.00000000000E+00  0.00000000000E+00  0.64930732323E+04  0.65000000000E+04  0.30000000000E+03 0.  1.
        -52   -1    0    0    0    0 -0.00000000000E+00 -0.00000000000E+00 -0.64930732323E+04  0.65000000000E+04  0.30000000000E+03 0. -1.
     100001    1    1    2    0    0 -0.98411182195E+03 -0.92823262600E+02 -0.64226363367E+04  0.65000000000E+04  0.15050000000E+03 0. -1.
     100001    1    1    2    0    0  0.98411182195E+03  0.92823262600E+02  0.64226363367E+04  0.65000000000E+04  0.15050000000E+03 0.  1.
</event>
<event>
 4    1  0.6012167E-004  0.6500000E+04  0.7818608E-02  0.7223770E-01
         52   -1    0    0    0    0  0.00000000000E+00  0.00000000000E+00  0.64930732323E+04  0.65000000000E+04  0.30000000000E+03 0. -1.
        -52   -1    0    0    0    0 -0.00000000000E+00 -0.00000000000E+00 -0.64930732323E+04  0.65000000000E+04  0.30000000000E+03 0. -1.
     100001    1    1    2    0    0 -0.52929712191E+02  0.19752839373E+03 -0.64950389321E+04  0.65000000000E+04  0.15050000000E+03 0. -1.
     100001    1    1    2    0    0  0.52929712191E+02 -0.19752839373E+03  0.64950389321E+04  0.65000000000E+04  0.15050000000E+03 0. -1.
</event>
<event>
 4    1  0.5143956E-004  0.6500000E+04  0.7818608E-02  0.7223770E-01
         52   -1    0    0    0    0  0.00000000000E+00  0.00000000000E+00  0.64930732323E+04  0.65000000000E+04  0.30000000000E+03 0.  1.
        -52   -1    0    0    0    0 -0.00000000000E+00 -0.00000000000E+00 -0.64930732323E+04  0.65000000000E+04  0.30000000000E+03 0.  1.
     100001    1    1    2    0    0 -0.16444266071E+02  0.50695720379E+03 -0.64784314251E+04  0.65000000000E+04  0.15050000000E+03 0.  1.
     100001    1    1    2    0    0  0.16444266071E+02 -0.50695720379E+03  0.64784314251E+04  0.65000000000E+04  0.15050000000E+03 0.  1.
</event>
<event>
 4    1  0.5143956E-004  0.6500000E+04  0.7818608E-02  0.7223770E-01
         52   -1    0    0    0    0  0.00000000000E+00  0.00000000000E+00  0.64930732323E+04  0.65000000000E+04  0.30000000000E+03 0. -1.
        -52   -1    0    0    0    0 -0.00000000000E+00 -0.00000000000E+00 -0.64930732323E+04  0.65000000000E+04  0.30000000000E+03 0.  1.
     100001    1    1    2    0    0 -0.24217131988E+04  0.58373866904E+03  0.60018250640E+04  0.65000000000E+04  0.15050000000E+03 0. -1.
     100001    1    1    2    0    0  0.24217131988E+04 -0.58373866904E+03 -0.60018250640E+04  0.65000000000E+04  0.15050000000E+03 0.  1.
</event>
<event>
 4    1  0.5143956E-004  0.6500000E+04  0.7818608E-02  0.7223770E-01
         52   -1    0    0    0    0  0.00000000000E+00  0.00000000000E+00  0.64930732323E+04  0.65000000000E+04  0.30000000000E+03 0.  1.
        -52   -1    0    0    0    0 -0.00000000000E+00 -0.00000000000E+00 -0.64930732323E+04  0.65000000000E+04  0.30000000000E+03 0. -1.
     100001    1    1    2    0    0  0.13391798336E+04 -0.52095322432E+04 -0.36461926623E+04  0.65000000000E+04  0.15050000000E+03 0. -1.
     100001    1    1    2    0    0 -0.13391798336E+04  0.52095322432E+04  0.36461926623E+04  0.65000000000E+04  0.15050000000E+03 0.  1.
</event>
<event>
 4    1  0.5143956E-004  0.6500000E+04  0.7818608E-02  0.7223770E-01
         52   -1    0    0    0    0  0.00000000000E+00  0.00000000000E+00  0.64930732323E+04  0.65000000000E+04  0.30000000000E+03 0. -1.
        -52   -1    0    0    0    0 -0.00000000000E+00 -0.00000000000E+00 -0.64930732323E+04  0.65000000000E+04  0.30000000000E+03 0.  1.
     100001    1    1    2    0    0  0.29321469415E+03 -0.49979410521E+03  0.64723705661E+04  0.65000000000E+04  0.15050000000E+03 0. -1.
     100001    1    1    2    0    0 -0.29321469415E+03  0.49979410521E+03 -0.64723705661E+04  0.65000000000E+04  0.15050000000E+03 0.  1.
</event>
<event>
 4    1  0.5143956E-004  0.6500000E+04  0.7818608E-02  0.7223770E-01
         52   -1    0    0    0    0  0.00000000000E+00  0.00000000000E+00  0.64930732323E+04  0.65000000000E+04  0.30000000000E+03 0.  1.
        -52   -1    0    0    0    0 -0.00000000000E+00 -0.00000000000E+00 -0.64930732323E+04  0.65000000000E+04  0.30000000000E+03 0. -1.
     100001    1    1    2    0    0 -0.57138860289E+03 -0.11172386821E+04  0.63759424826E+04  0.65000000000E+04  0.15050000000E+03 0.  1.
     100001    1    1    2    0    0  0.57138860289E+03  0.11172386821E+04 -0.63759424826E+04  0.65000000000E+04  0.15050000000E+03 0. -1.
</event>
<event>
 4    1  0.5143956E-004  0.6500000E+04  0.7818608E-02  0.7223770E-01
         52   -1    0    0    0    0  0.00000000000E+00  0.00000000000E+00  0.64930732323E+04  0.65000000000E+04  0.30000000000E+03 0.  1.
        -52   -1    0    0    0    0 -0.00000000000E+00 -0.00000000000E+00 -0.64930732323E+04  0.65000000000E+04  0.30000000000E+03 0.  1.
     100001    1    1    2    0    0  0.10739270045E+04 -0.17548954363E+03 -0.64064993529E+04  0.65000000000E+04  0.15050000000E+03 0.  1.
     100001    1    1    2    0    0 -0.10739270045E+04  0.17548954363E+03  0.64064993529E+04  0.65000000000E+04  0.15050000000E+03 0.  1.
</event>
<event>
 4    1  0.5143956E-004  0.6500000E+04  0.7818608E-02  0.7223770E-01
         52   -1    0    0    0    0  0.00000000000E+00  0.00000000000E+00  0.64930732323E+04  0.65000000000E+04  0.30000000000E+03 0.  1.
        -52   -1    0    0    0    0 -0.00000000000E+00 -0.00000000000E+00 -0.64930732323E+04  0.65000000000E+04  0.30000000000E+03 0. -1.
     100001    1    1    2    0    0 -0.20673462671E+03  0.24496718825E+03  0.64903468028E+04  0.65000000000E+04  0.15050000000E+03 0.  1.
     100001    1    1    2    0    0  0.20673462671E+03 -0.24496718825E+03 -0.64903468028E+04  0.65000000000E+04  0.15050000000E+03 0. -1.
</event>
<event>
 4    1  0.5143956E-004  0.6500000E+04  0.7818608E-02  0.7223770E-01
         52   -1    0    0    0    0  0.00000000000E+00  0.00000000000E+00  0.64930732323E+04  0.65000000000E+04  0.30000000000E+03 0.  1.
        -52   -1    0    0    0    0 -0.00000000000E+00 -0.00000000000E+00 -0.64930732323E+04  0.65000000000E+04  0.30000000000E+03 0. -1.
     100001    1    1    2    0    0 -0.10482047815E+04  0.11021774152E+04  0.63177386327E+04  0.65000000000E+04  0.15050000000E+03 0.  1.
     100001    1    1    2    0    0  0.10482047815E+04 -0.11021774152E+04 -0.63177386327E+04  0.65000000000E+04  0.15050000000E+03 0. -1.
</event>
<event>
 4    1  0.5143956E-004  0.6500000E+04  0.7818608E-02  0.7223770E-01
         52   -1    0    0    0    0  0.00000000000E+00  0.00000000000E+00  0.64930732323E+04  0.65000000000E+04  0.30000000000E+03 0.  1.
        -52   -1    0    0    0    0 -0.00000000000E+00 -0.00000000000E+00 -0.64930732323E+04  0.65000000000E+04  0.30000000000E+03 0. -1.
     100001    1    1    2    0    0  0.29513414476E+04  0.24622846788E+04 -0.52396648338E+04  0.65000000000E+04  0.15050000000E+03 0. -1.
     100001    1    1    2    0    0 -0.29513414476E+04 -0.24622846788E+04  0.52396648338E+04  0.65000000000E+04  0.15050000000E+03 0.  1.
</event>
<event>
 4    1  0.5143956E-004  0.6500000E+04  0.7818608E-02  0.7223770E-01
         52   -1    0    0    0    0  0.00000000000E+00  0.00000000000E+00  0.64930732323E+04  0.65000000000E+04  0.30000000000E+03 0. -1.
        -52   -1    0    0    0    0 -0.00000000000E+00 -0.00000000000E+00 -0.64930732323E+04  0.65000000000E+04  0.30000000000E+03 0.  1.
     100001    1    1    2    0    0  0.18886297877E+04  0.40564998295E+03  0.62045044416E+04  0.65000000000E+04  0.15050000000E+03 0. -1.
     100001    1    1    2    0    0 -0.18886297877E+04 -0.40564998295E+03 -0.62045044416E+04  0.65000000000E+04  0.15050000000E+03 0.  1.
</event>
<event>
 4    1  0.5143956E-004  0.6500000E+04  0.7818608E-02  0.7223770E-01
         52   -1    0    0    0    0  0.00000000000E+00  0.00000000000E+00  0.64930732323E+04  0.65000000000E+04  0.30000000000E+03 0. -1.
        -52   -1    0    0    0    0 -0.00000000000E+00 -0.00000000000E+00 -0.64930732323E+04  0.65000000000E+04  0.30000000000E+03 0.  1.
     100001    1    1    2    0    0 -0.24598870562E+04 -0.11478367950E+04  0.59041321219E+04  0.65000000000E+04  0.15050000000E+03 0. -1.
     100001    1    1    2    0    0  0.24598870562E+04  0.11478367950E+04 -0.59041321219E+04  0.65000000000E+04  0.15050000000E+03 0.  1.
</event>
<event>
 4    1  0.5143956E-004  0.6500000E+04  0.7818608E-02  0.7223770E-01
         52   -1    0    0    0    0  0.00000000000E+00  0.00000000000E+00  0.64930732323E+04  0.65000000000E+04  0.30000000000E+03 0.  1.
        -52   -1    0    0    0    0 -0.00000000000E+00 -0.00000000000E+00 -0.64930732323E+04  0.65000000000E+04  0.30000000000E+03 0. -1.
     100001    1    1    2    0    0  0.23967414392E+03 -0.12585293229E+04  0.63707150304E+04  0.65000000000E+04  0.15050000000E+03 0.  1.
     100001    1    1    2    0    0 -0.23967414392E+03  0.12585293229E+04 -0.63707150304E+04  0.65000000000E+04  0.15050000000E+03 0. -1.
</event>
<event>
 4    1  0.5143956E-004  0.6500000E+04  0.7818608E-02  0.7223770E-01
         52   -1    0    0    0    0  0.00000000000E+00  0.00000000000E+00  0.64930732323E+04  0.65000000000E+04  0.30000000000E+03 0.  1.
        -52   -1    0    0    0    0 -0.00000000000E+00 -0.00000000000E+00 -0.64930732323E+04  0.65000000000E+04  0.30000000000E+03 0. -1.
     100001    1    1    2    0    0 -0.47387061422E+04  0.39703056088E+04  0.20021706273E+04  0.65000000000E+04  0.15050000000E+03 0. -1.
     100001    1    1    2    0    0  0.47387061422E+04 -0.39703056088E+04 -0.20021706273E+04  0.65000000000E+04  0.15050000000E+03 0.  1.
</event>
<event>
 4    1  0.5143956E-004  0.6500000E+04  0.7818608E-02  0.7223770E-01
         52   -1    0    0    0    0  0.00000000000E+00  0.00000000000E+00  0.64930732323E+04  0.65000000000E+04  0.30000000000E+03 0. -1.
        -52   -1    0    0    0    0 -0.00000000000E+00 -0.00000000000E+00 -0.64930732323E+04  0.65000000000E+04  0.30000000000E+03 0.  1.
     100001    1    1    2    0    0 -0.90733739446E+03  0.21663950638E+04  0.60589455378E+04  0.65000000000E+04  0.15050000000E+03 0. -1.
     100001    1    1    2    0    0  0.90733739446E+03 -0.21663950638E+04 -0.60589455378E+04  0.65000000000E+04  0.15050000000E+03 0.  1.
</event>
<event>
 4    1  0.5143956E-004  0.6500000E+04  0.7818608E-02  0.7223770E-01
         52   -1    0    0    0    0  0.00000000000E+00  0.00000000000E+00  0.64930732323E+04  0.65000000000E+04  0.30000000000E+03 0. -1.
        -52   -1    0    0    0    0 -0.00000000000E+00 -0.00000000000E+00 -0.64930732323E+04  0.65000000000E+04  0.30000000000E+03 0.  1.
     100001    1    1    2    0    0 -0.31153677931E+03  0.18470968341E+03 -0.64881566656E+04  0.65000000000E+04  0.15050000000E+03 0.  1.
     100001    1    1    2    0    0  0.31153677931E+03 -0.18470968341E+03  0.64881566656E+04  0.65000000000E+04  0.15050000000E+03 0. -1.
</event>
<event>
 4    1  0.5143956E-004  0.6500000E+04  0.7818608E-02  0.7223770E-01
         52   -1    0    0    0    0  0.00000000000E+00  0.00000000000E+00  0.64930732323E+04  0.65000000000E+04  0.30000000000E+03 0. -1.
        -52   -1    0    0    0    0 -0.00000000000E+00 -0.00000000000E+00 -0.64930732323E+04  0.65000000000E+04  0.30000000000E+03 0.  1.
     100001    1    1    2    0    0 -0.82840905127E+03  0.38779904165E+04  0.51480363755E+04  0.65000000000E+04  0.15050000000E+03 0. -1.
     100001    1    1    2    0    0  0.82840905127E+03 -0.38779904165E+04 -0.51480363755E+04  0.65000000000E+04  0.15050000000E+03 0.  1.
</event>
<event>
 4    1  0.5143956E-004  0.6500000E+04  0.7818608E-02  0.7223770E-01
         52   -1    0    0    0    0  0.00000000000E+00  0.00000000000E+00  0.64930732323E+04  0.65000000000E+04  0.30000000000E+03 0. -1.
        -52   -1    0    0    0    0 -0.00000000000E+00 -0.00000000000E+00 -0.64930732323E+04  0.65000000000E+04  0.30000000000E+03 0.  1.
     100001    1    1    2    0    0  0.12618333499E+04 -0.57748446414E+04  0.26993139342E+04  0.65000000000E+04  0.15050000000E+03 0. -1.
     100001    1    1    2    0    0 -0.12618333499E+04  0.57748446414E+04 -0.26993139342E+04  0.65000000000E+04  0.15050000000E+03 0.  1.
</event>
<event>
 4    1  0.5143956E-004  0.6500000E+04  0.7818608E-02  0.7223770E-01
         52   -1    0    0    0    0  0.00000000000E+00  0.00000000000E+00  0.64930732323E+04  0.65000000000E+04  0.30000000000E+03 0.  1.
        -52   -1    0    0    0    0 -0.00000000000E+00 -0.00000000000E+00 -0.64930732323E+04  0.65000000000E+04  0.30000000000E+03 0.  1.
     100001    1    1    2    0    0 -0.23485292912E+03  0.23058829335E+03 -0.64899170172E+04  0.65000000000E+04  0.15050000000E+03 0.  1.
     100001    1    1    2    0    0  0.23485292912E+03 -0.23058829335E+03  0.64899170172E+04  0.65000000000E+04  0.15050000000E+03 0.  1.
</event>
<event>
 4    1  0.5143956E-004  0.6500000E+04  0.7818608E-02  0.7223770E-01
         52   -1    0    0    0    0  0.00000000000E+00  0.00000000000E+00  0.64930732323E+04  0.65000000000E+04  0.30000000000E+03 0. -1.
        -52   -1    0    0    0    0 -0.00000000000E+00 -0.00000000000E+00 -0.64930732323E+04  0.65000000000E+04  0.30000000000E+03 0.  1.
     100001    1    1    2    0    0 -0.51910777844E+04 -0.38921067640E+04 -0.36272044928E+03  0.65000000000E+04  0.15050000000E+03 0. -1.
     100001    1    1    2    0    0  0.51910777844E+04  0.38921067640E+04  0.36272044928E+03  0.65000000000E+04  0.15050000000E+03 0.  1.
</event>
<event>
 4    1  0.5143956E-004  0.6500000E+04  0.7818608E-02  0.7223770E-01
         52   -1    0    0    0    0  0.00000000000E+00  0.00000000000E+00  0.64930732323E+04  0.65000000000E+04  0.30000000000E+03 0.  1.
        -52   -1    0    0    0    0 -0.00000000000E+00 -0.00000000000E+00 -0.64930732323E+04  0.65000000000E+04  0.30000000000E+03 0. -1.
     100001    1    1    2    0    0 -0.28017476956E+04  0.23455120295E+04 -0.53736517304E+04  0.65000000000E+04  0.15050000000E+03 0. -1.
     100001    1    1    2    0    0  0.28017476956E+04 -0.23455120295E+04  0.53736517304E+04  0.65000000000E+04  0.15050000000E+03 0.  1.
</event>
<event>
 4    1  0.5143956E-004  0.6500000E+04  0.7818608E-02  0.7223770E-01
         52   -1    0    0    0    0  0.00000000000E+00  0.00000000000E+00  0.64930732323E+04  0.65000000000E+04  0.30000000000E+03 0. -1.
        -52   -1    0    0    0    0 -0.00000000000E+00 -0.00000000000E+00 -0.64930732323E+04  0.65000000000E+04  0.30000000000E+03 0.  1.
     100001    1    1    2    0    0 -0.58721622853E+03 -0.50384234594E+03 -0.64520283432E+04  0.65000000000E+04  0.15050000000E+03 0.  1.
     100001    1    1    2    0    0  0.58721622853E+03  0.50384234594E+03  0.64520283432E+04  0.65000000000E+04  0.15050000000E+03 0. -1.
</event>
<event>
 4    1  0.5143956E-004  0.6500000E+04  0.7818608E-02  0.7223770E-01
         52   -1    0    0    0    0  0.00000000000E+00  0.00000000000E+00  0.64930732323E+04  0.65000000000E+04  0.30000000000E+03 0. -1.
        -52   -1    0    0    0    0 -0.00000000000E+00 -0.00000000000E+00 -0.64930732323E+04  0.65000000000E+04  0.30000000000E+03 0.  1.
     100001    1    1    2    0    0  0.47771443786E+02  0.13557192317E+04  0.63550840281E+04  0.65000000000E+04  0.15050000000E+03 0. -1.
     100001    1    1    2    0    0 -0.47771443786E+02 -0.13557192317E+04 -0.63550840281E+04  0.65000000000E+04  0.15050000000E+03 0.  1.
</event>
<event>
 4    1  0.5143956E-004  0.6500000E+04  0.7818608E-02  0.7223770E-01
         52   -1    0    0    0    0  0.00000000000E+00  0.00000000000E+00  0.64930732323E+04  0.65000000000E+04  0.30000000000E+03 0.  1.
        -52   -1    0    0    0    0 -0.00000000000E+00 -0.00000000000E+00 -0.64930732323E+04  0.65000000000E+04  0.30000000000E+03 0. -1.
     100001    1    1    2    0    0  0.34948084651E+04  0.22772161810E+04  0.49827652972E+04  0.65000000000E+04  0.15050000000E+03 0.  1.
     100001    1    1    2    0    0 -0.34948084651E+04 -0.22772161810E+04 -0.49827652972E+04  0.65000000000E+04  0.15050000000E+03 0. -1.
</event>
<event>
 4    1  0.5143956E-004  0.6500000E+04  0.7818608E-02  0.7223770E-01
         52   -1    0    0    0    0  0.00000000000E+00  0.00000000000E+00  0.64930732323E+04  0.65000000000E+04  0.30000000000E+03 0.  1.
        -52   -1    0    0    0    0 -0.00000000000E+00 -0.00000000000E+00 -0.64930732323E+04  0.65000000000E+04  0.30000000000E+03 0. -1.
     100001    1    1    2    0    0 -0.21176462061E+04  0.13705319059E+03  0.61419981048E+04  0.65000000000E+04  0.15050000000E+03 0.  1.
     100001    1    1    2    0    0  0.21176462061E+04 -0.13705319059E+03 -0.61419981048E+04  0.65000000000E+04  0.15050000000E+03 0. -1.
</event>
<event>
 4    1  0.5143956E-004  0.6500000E+04  0.7818608E-02  0.7223770E-01
         52   -1    0    0    0    0  0.00000000000E+00  0.00000000000E+00  0.64930732323E+04  0.65000000000E+04  0.30000000000E+03 0.  1.
        -52   -1    0    0    0    0 -0.00000000000E+00 -0.00000000000E+00 -0.64930732323E+04  0.65000000000E+04  0.30000000000E+03 0. -1.
     100001    1    1    2    0    0  0.33148724773E+04 -0.31676197338E+04  0.46049055833E+04  0.65000000000E+04  0.15050000000E+03 0.  1.
     100001    1    1    2    0    0 -0.33148724773E+04  0.31676197338E+04 -0.46049055833E+04  0.65000000000E+04  0.15050000000E+03 0. -1.
</event>
<event>
 4    1  0.5143956E-004  0.6500000E+04  0.7818608E-02  0.7223770E-01
         52   -1    0    0    0    0  0.00000000000E+00  0.00000000000E+00  0.64930732323E+04  0.65000000000E+04  0.30000000000E+03 0. -1.
        -52   -1    0    0    0    0 -0.00000000000E+00 -0.00000000000E+00 -0.64930732323E+04  0.65000000000E+04  0.30000000000E+03 0.  1.
     100001    1    1    2    0    0  0.14883164009E+04  0.24799197029E+04 -0.58191289991E+04  0.65000000000E+04  0.15050000000E+03 0.  1.
     100001    1    1    2    0    0 -0.14883164009E+04 -0.24799197029E+04  0.58191289991E+04  0.65000000000E+04  0.15050000000E+03 0. -1.
</event>
<event>
 4    1  0.5143956E-004  0.6500000E+04  0.7818608E-02  0.7223770E-01
         52   -1    0    0    0    0  0.00000000000E+00  0.00000000000E+00  0.64930732323E+04  0.65000000000E+04  0.30000000000E+03 0.  1.
        -52   -1    0    0    0    0 -0.00000000000E+00 -0.00000000000E+00 -0.64930732323E+04  0.65000000000E+04  0.30000000000E+03 0. -1.
     100001    1    1    2    0    0  0.45889144905E+03 -0.31763065750E+03  0.64742473812E+04  0.65000000000E+04  0.15050000000E+03 0.  1.
     100001    1    1    2    0    0 -0.45889144905E+03  0.31763065750E+03 -0.64742473812E+04  0.65000000000E+04  0.15050000000E+03 0. -1.
</event>
<event>
 4    1  0.5143956E-004  0.6500000E+04  0.7818608E-02  0.7223770E-01
         52   -1    0    0    0    0  0.00000000000E+00  0.00000000000E+00  0.64930732323E+04  0.65000000000E+04  0.30000000000E+03 0. -1.
        -52   -1    0    0    0    0 -0.00000000000E+00 -0.00000000000E+00 -0.64930732323E+04  0.65000000000E+04  0.30000000000E+03 0.  1.
     100001    1    1    2    0    0  0.66669726570E+03 -0.68729090349E+03 -0.64273241493E+04  0.65000000000E+04  0.15050000000E+03 0.  1.
     100001    1    1    2    0    0 -0.66669726570E+03  0.68729090349E+03  0.64273241493E+04  0.65000000000E+04  0.15050000000E+03 0. -1.
</event>
<event>
 4    1  0.5143956E-004  0.6500000E+04  0.7818608E-02  0.7223770E-01
         52   -1    0    0    0    0  0.00000000000E+00  0.00000000000E+00  0.64930732323E+04  0.65000000000E+04  0.30000000000E+03 0. -1.
        -52   -1    0    0    0    0 -0.00000000000E+00 -0.00000000000E+00 -0.64930732323E+04  0.65000000000E+04  0.30000000000E+03 0.  1.
     100001    1    1    2    0    0  0.13212266320E+04 -0.28699591715E+03 -0.63560477720E+04  0.65000000000E+04  0.15050000000E+03 0.  1.
     100001    1    1    2    0    0 -0.13212266320E+04  0.28699591715E+03  0.63560477720E+04  0.65000000000E+04  0.15050000000E+03 0. -1.
</event>
<event>
 4    1  0.5143956E-004  0.6500000E+04  0.7818608E-02  0.7223770E-01
         52   -1    0    0    0    0  0.00000000000E+00  0.00000000000E+00  0.64930732323E+04  0.65000000000E+04  0.30000000000E+03 0.  1.
        -52   -1    0    0    0    0 -0.00000000000E+00 -0.00000000000E+00 -0.64930732323E+04  0.65000000000E+04  0.30000000000E+03 0. -1.
     100001    1    1    2    0    0 -0.12716451708E+03  0.42471274453E+03  0.64831163818E+04  0.65000000000E+04  0.15050000000E+03 0.  1.
     100001    1    1    2    0    0  0.12716451708E+03 -0.42471274453E+03 -0.64831163818E+04  0.65000000000E+04  0.15050000000E+03 0. -1.
</event>
<event>
 4    1  0.5143956E-004  0.6500000E+04  0.7818608E-02  0.7223770E-01
         52   -1    0    0    0    0  0.00000000000E+00  0.00000000000E+00  0.64930732323E+04  0.65000000000E+04  0.30000000000E+03 0. -1.
        -52   -1    0    0    0    0 -0.00000000000E+00 -0.00000000000E+00 -0.64930732323E+04  0.65000000000E+04  0.30000000000E+03 0.  1.
     100001    1    1    2    0    0 -0.29898665102E+04 -0.14996214297E+04  0.55712820400E+04  0.65000000000E+04  0.15050000000E+03 0. -1.
     100001    1    1    2    0    0  0.29898665102E+04  0.14996214297E+04 -0.55712820400E+04  0.65000000000E+04  0.15050000000E+03 0.  1.
</event>
<event>
 4    1  0.5143956E-004  0.6500000E+04  0.7818608E-02  0.7223770E-01
         52   -1    0    0    0    0  0.00000000000E+00  0.00000000000E+00  0.64930732323E+04  0.65000000000E+04  0.30000000000E+03 0.  1.
        -52   -1    0    0    0    0 -0.00000000000E+00 -0.00000000000E+00 -0.64930732323E+04  0.65000000000E+04  0.30000000000E+03 0. -1.
     100001    1    1    2    0    0 -0.12293072084E+04  0.18841606320E+03 -0.63781386724E+04  0.65000000000E+04  0.15050000000E+03 0. -1.
     100001    1    1    2    0    0  0.12293072084E+04 -0.18841606320E+03  0.63781386724E+04  0.65000000000E+04  0.15050000000E+03 0.  1.
</event>
<event>
 4    1  0.5143956E-004  0.6500000E+04  0.7818608E-02  0.7223770E-01
         52   -1    0    0    0    0  0.00000000000E+00  0.00000000000E+00  0.64930732323E+04  0.65000000000E+04  0.30000000000E+03 0. -1.
        -52   -1    0    0    0    0 -0.00000000000E+00 -0.00000000000E+00 -0.64930732323E+04  0.65000000000E+04  0.30000000000E+03 0.  1.
     100001    1    1    2    0    0 -0.43472553108E+03  0.65296213008E+03 -0.64507366959E+04  0.65000000000E+04  0.15050000000E+03 0.  1.
     100001    1    1    2    0    0  0.43472553108E+03 -0.65296213008E+03  0.64507366959E+04  0.65000000000E+04  0.15050000000E+03 0. -1.
</event>
<event>
 4    1  0.5143956E-004  0.6500000E+04  0.7818608E-02  0.7223770E-01
         52   -1    0    0    0    0  0.00000000000E+00  0.00000000000E+00  0.64930732323E+04  0.65000000000E+04  0.30000000000E+03 0. -1.
        -52   -1    0    0    0    0 -0.00000000000E+00 -0.00000000000E+00 -0.64930732323E+04  0.65000000000E+04  0.30000000000E+03 0.  1.
     100001    1    1    2    0    0 -0.76291363958E+03  0.11031534208E+04 -0.63583303672E+04  0.65000000000E+04  0.15050000000E+03 0.  1.
     100001    1    1    2    0    0  0.76291363958E+03 -0.11031534208E+04  0.63583303672E+04  0.65000000000E+04  0.15050000000E+03 0. -1.
</event>
<event>
 4    1  0.5143956E-004  0.6500000E+04  0.7818608E-02  0.7223770E-01
         52   -1    0    0    0    0  0.00000000000E+00  0.00000000000E+00  0.64930732323E+04  0.65000000000E+04  0.30000000000E+03 0. -1.
        -52   -1    0    0    0    0 -0.00000000000E+00 -0.00000000000E+00 -0.64930732323E+04  0.65000000000E+04  0.30000000000E+03 0.  1.
     100001    1    1    2    0    0  0.30241912146E+03  0.30422795822E+03  0.64840834182E+04  0.65000000000E+04  0.15050000000E+03 0. -1.
     100001    1    1    2    0    0 -0.30241912146E+03 -0.30422795822E+03 -0.64840834182E+04  0.65000000000E+04  0.15050000000E+03 0.  1.
</event>
<event>
 4    1  0.5143956E-004  0.6500000E+04  0.7818608E-02  0.7223770E-01
         52   -1    0    0    0    0  0.00000000000E+00  0.00000000000E+00  0.64930732323E+04  0.65000000000E+04  0.30000000000E+03 0. -1.
        -52   -1    0    0    0    0 -0.00000000000E+00 -0.00000000000E+00 -0.64930732323E+04  0.65000000000E+04  0.30000000000E+03 0.  1.
     100001    1    1    2    0    0  0.55236526622E+04  0.79394925007E+03 -0.33296029202E+04  0.65000000000E+04  0.15050000000E+03 0.  1.
     100001    1    1    2    0    0 -0.55236526622E+04 -0.79394925007E+03  0.33296029202E+04  0.65000000000E+04  0.15050000000E+03 0. -1.
</event>
<event>
 4    1  0.5143956E-004  0.6500000E+04  0.7818608E-02  0.7223770E-01
         52   -1    0    0    0    0  0.00000000000E+00  0.00000000000E+00  0.64930732323E+04  0.65000000000E+04  0.30000000000E+03 0.  1.
        -52   -1    0    0    0    0 -0.00000000000E+00 -0.00000000000E+00 -0.64930732323E+04  0.65000000000E+04  0.30000000000E+03 0. -1.
     100001    1    1    2    0    0 -0.48807303291E+03 -0.17007315589E+03  0.64776700739E+04  0.65000000000E+04  0.15050000000E+03 0.  1.
     100001    1    1    2    0    0  0.48807303291E+03  0.17007315589E+03 -0.64776700739E+04  0.65000000000E+04  0.15050000000E+03 0. -1.
</event>
<event>
 4    1  0.5143956E-004  0.6500000E+04  0.7818608E-02  0.7223770E-01
         52   -1    0    0    0    0  0.00000000000E+00  0.00000000000E+00  0.64930732323E+04  0.65000000000E+04  0.30000000000E+03 0.  1.
        -52   -1    0    0    0    0 -0.00000000000E+00 -0.00000000000E+00 -0.64930732323E+04  0.65000000000E+04  0.30000000000E+03 0. -1.
     100001    1    1    2    0    0  0.26149280544E+03  0.85800949236E+03 -0.64360539909E+04  0.65000000000E+04  0.15050000000E+03 0. -1.
     100001    1    1    2    0    0 -0.26149280544E+03 -0.85800949236E+03  0.64360539909E+04  0.65000000000E+04  0.15050000000E+03 0.  1.
</event>
<event>
 4    1  0.5143956E-004  0.6500000E+04  0.7818608E-02  0.7223770E-01
         52   -1    0    0    0    0  0.00000000000E+00  0.00000000000E+00  0.64930732323E+04  0.65000000000E+04  0.30000000000E+03 0.  1.
        -52   -1    0    0    0    0 -0.00000000000E+00 -0.00000000000E+00 -0.64930732323E+04  0.65000000000E+04  0.30000000000E+03 0. -1.
     100001    1    1    2    0    0 -0.95291267663E+03  0.10846502849E+03  0.64270944071E+04  0.65000000000E+04  0.15050000000E+03 0.  1.
     100001    1    1    2    0    0  0.95291267663E+03 -0.10846502849E+03 -0.64270944071E+04  0.65000000000E+04  0.15050000000E+03 0. -1.
</event>
<event>
 4    1  0.5143956E-004  0.6500000E+04  0.7818608E-02  0.7223770E-01
         52   -1    0    0    0    0  0.00000000000E+00  0.00000000000E+00  0.64930732323E+04  0.65000000000E+04  0.30000000000E+03 0.  1.
        -52   -1    0    0    0    0 -0.00000000000E+00 -0.00000000000E+00 -0.64930732323E+04  0.65000000000E+04  0.30000000000E+03 0. -1.
     100001    1    1    2    0    0 -0.92108752444E+03  0.53557577566E+03  0.64103124815E+04  0.65000000000E+04  0.15050000000E+03 0.  1.
     100001    1    1    2    0    0  0.92108752444E+03 -0.53557577566E+03 -0.64103124815E+04  0.65000000000E+04  0.15050000000E+03 0. -1.
</event>
<event>
 4    1  0.5143956E-004  0.6500000E+04  0.7818608E-02  0.7223770E-01
         52   -1    0    0    0    0  0.00000000000E+00  0.00000000000E+00  0.64930732323E+04  0.65000000000E+04  0.30000000000E+03 0. -1.
        -52   -1    0    0    0    0 -0.00000000000E+00 -0.00000000000E+00 -0.64930732323E+04  0.65000000000E+04  0.30000000000E+03 0.  1.
     100001    1    1    2    0    0 -0.20644231776E+04  0.72921876507E+03 -0.61183124051E+04  0.65000000000E+04  0.15050000000E+03 0.  1.
     100001    1    1    2    0    0  0.20644231776E+04 -0.72921876507E+03  0.61183124051E+04  0.65000000000E+04  0.15050000000E+03 0. -1.
</event>
<event>
 4    1  0.5143956E-004  0.6500000E+04  0.7818608E-02  0.7223770E-01
         52   -1    0    0    0    0  0.00000000000E+00  0.00000000000E+00  0.64930732323E+04  0.65000000000E+04  0.30000000000E+03 0.  1.
        -52   -1    0    0    0    0 -0.00000000000E+00 -0.00000000000E+00 -0.64930732323E+04  0.65000000000E+04  0.30000000000E+03 0. -1.
     100001    1    1    2    0    0  0.30306685323E+03  0.30800744744E+03 -0.64838747401E+04  0.65000000000E+04  0.15050000000E+03 0. -1.
     100001    1    1    2    0    0 -0.30306685323E+03 -0.30800744744E+03  0.64838747401E+04  0.65000000000E+04  0.15050000000E+03 0.  1.
</event>
<event>
 4    1  0.5143956E-004  0.6500000E+04  0.7818608E-02  0.7223770E-01
         52   -1    0    0    0    0  0.00000000000E+00  0.00000000000E+00  0.64930732323E+04  0.65000000000E+04  0.30000000000E+03 0.  1.
        -52   -1    0    0    0    0 -0.00000000000E+00 -0.00000000000E+00 -0.64930732323E+04  0.65000000000E+04  0.30000000000E+03 0. -1.
     100001    1    1    2    0    0  0.54534025017E+03  0.71552951329E+03  0.64356795505E+04  0.65000000000E+04  0.15050000000E+03 0.  1.
     100001    1    1    2    0    0 -0.54534025017E+03 -0.71552951329E+03 -0.64356795505E+04  0.65000000000E+04  0.15050000000E+03 0. -1.
</event>
<event>
 4    1  0.5143956E-004  0.6500000E+04  0.7818608E-02  0.7223770E-01
         52   -1    0    0    0    0  0.00000000000E+00  0.00000000000E+00  0.64930732323E+04  0.65000000000E+04  0.30000000000E+03 0.  1.
        -52   -1    0    0    0    0 -0.00000000000E+00 -0.00000000000E+00 -0.64930732323E+04  0.65000000000E+04  0.30000000000E+03 0. -1.
     100001    1    1    2    0    0 -0.42552552668E+04  0.54542902265E+02  0.49109242955E+04  0.65000000000E+04  0.15050000000E+03 0.  1.
     100001    1    1    2    0    0  0.42552552668E+04 -0.54542902265E+02 -0.49109242955E+04  0.65000000000E+04  0.15050000000E+03 0. -1.
</event>
<event>
 4    1  0.5143956E-004  0.6500000E+04  0.7818608E-02  0.7223770E-01
         52   -1    0    0    0    0  0.00000000000E+00  0.00000000000E+00  0.64930732323E+04  0.65000000000E+04  0.30000000000E+03 0.  1.
        -52   -1    0    0    0    0 -0.00000000000E+00 -0.00000000000E+00 -0.64930732323E+04  0.65000000000E+04  0.30000000000E+03 0. -1.
     100001    1    1    2    0    0 -0.12189692138E+04  0.92966123334E+03  0.63148391743E+04  0.65000000000E+04  0.15050000000E+03 0.  1.
     100001    1    1    2    0    0  0.12189692138E+04 -0.92966123334E+03 -0.63148391743E+04  0.65000000000E+04  0.15050000000E+03 0. -1.
</event>
<event>
 4    1  0.5143956E-004  0.6500000E+04  0.7818608E-02  0.7223770E-01
         52   -1    0    0    0    0  0.00000000000E+00  0.00000000000E+00  0.64930732323E+04  0.65000000000E+04  0.30000000000E+03 0.  1.
        -52   -1    0    0    0    0 -0.00000000000E+00 -0.00000000000E+00 -0.64930732323E+04  0.65000000000E+04  0.30000000000E+03 0.  1.
     100001    1    1    2    0    0 -0.26305388482E+03  0.14366502158E+02  0.64929150624E+04  0.65000000000E+04  0.15050000000E+03 0.  1.
     100001    1    1    2    0    0  0.26305388482E+03 -0.14366502158E+02 -0.64929150624E+04  0.65000000000E+04  0.15050000000E+03 0.  1.
</event>
<event>
 4    1  0.5143956E-004  0.6500000E+04  0.7818608E-02  0.7223770E-01
         52   -1    0    0    0    0  0.00000000000E+00  0.00000000000E+00  0.64930732323E+04  0.65000000000E+04  0.30000000000E+03 0.  1.
        -52   -1    0    0    0    0 -0.00000000000E+00 -0.00000000000E+00 -0.64930732323E+04  0.65000000000E+04  0.30000000000E+03 0. -1.
     100001    1    1    2    0    0  0.58075103364E+03 -0.82256754967E+03 -0.64197710717E+04  0.65000000000E+04  0.15050000000E+03 0. -1.
     100001    1    1    2    0    0 -0.58075103364E+03  0.82256754967E+03  0.64197710717E+04  0.65000000000E+04  0.15050000000E+03 0.  1.
</event>
<event>
 4    1  0.5143956E-004  0.6500000E+04  0.7818608E-02  0.7223770E-01
         52   -1    0    0    0    0  0.00000000000E+00  0.00000000000E+00  0.64930732323E+04  0.65000000000E+04  0.30000000000E+03 0.  1.
        -52   -1    0    0    0    0 -0.00000000000E+00 -0.00000000000E+00 -0.64930732323E+04  0.65000000000E+04  0.30000000000E+03 0. -1.
     100001    1    1    2    0    0  0.96687803657E+03  0.35357973958E+03  0.64161887426E+04  0.65000000000E+04  0.15050000000E+03 0.  1.
     100001    1    1    2    0    0 -0.96687803657E+03 -0.35357973958E+03 -0.64161887426E+04  0.65000000000E+04  0.15050000000E+03 0. -1.
</event>
<event>
 4    1  0.5143956E-004  0.6500000E+04  0.7818608E-02  0.7223770E-01
         52   -1    0    0    0    0  0.00000000000E+00  0.00000000000E+00  0.64930732323E+04  0.65000000000E+04  0.30000000000E+03 0.  1.
        -52   -1    0    0    0    0 -0.00000000000E+00 -0.00000000000E+00 -0.64930732323E+04  0.65000000000E+04  0.30000000000E+03 0. -1.
     100001    1    1    2    0    0 -0.43028680843E+03 -0.12241243260E+01 -0.64839957984E+04  0.65000000000E+04  0.15050000000E+03 0. -1.
     100001    1    1    2    0    0  0.43028680843E+03  0.12241243260E+01  0.64839957984E+04  0.65000000000E+04  0.15050000000E+03 0.  1.
</event>
<event>
 4    1  0.5143956E-004  0.6500000E+04  0.7818608E-02  0.7223770E-01
         52   -1    0    0    0    0  0.00000000000E+00  0.00000000000E+00  0.64930732323E+04  0.65000000000E+04  0.30000000000E+03 0.  1.
        -52   -1    0    0    0    0 -0.00000000000E+00 -0.00000000000E+00 -0.64930732323E+04  0.65000000000E+04  0.30000000000E+03 0. -1.
     100001    1    1    2    0    0  0.10429383441E+04 -0.57602192915E+03 -0.63881005078E+04  0.65000000000E+04  0.15050000000E+03 0. -1.
     100001    1    1    2    0    0 -0.10429383441E+04  0.57602192915E+03  0.63881005078E+04  0.65000000000E+04  0.15050000000E+03 0.  1.
</event>
<event>
 4    1  0.5143956E-004  0.6500000E+04  0.7818608E-02  0.7223770E-01
         52   -1    0    0    0    0  0.00000000000E+00  0.00000000000E+00  0.64930732323E+04  0.65000000000E+04  0.30000000000E+03 0. -1.
        -52   -1    0    0    0    0 -0.00000000000E+00 -0.00000000000E+00 -0.64930732323E+04  0.65000000000E+04  0.30000000000E+03 0.  1.
     100001    1    1    2    0    0 -0.56766718432E+03  0.74947707099E+03  0.64298824124E+04  0.65000000000E+04  0.15050000000E+03 0. -1.
     100001    1    1    2    0    0  0.56766718432E+03 -0.74947707099E+03 -0.64298824124E+04  0.65000000000E+04  0.15050000000E+03 0.  1.
</event>
<event>
 4    1  0.5143956E-004  0.6500000E+04  0.7818608E-02  0.7223770E-01
         52   -1    0    0    0    0  0.00000000000E+00  0.00000000000E+00  0.64930732323E+04  0.65000000000E+04  0.30000000000E+03 0. -1.
        -52   -1    0    0    0    0 -0.00000000000E+00 -0.00000000000E+00 -0.64930732323E+04  0.65000000000E+04  0.30000000000E+03 0.  1.
     100001    1    1    2    0    0 -0.69394874546E+03  0.14033720018E+03 -0.64595735431E+04  0.65000000000E+04  0.15050000000E+03 0.  1.
     100001    1    1    2    0    0  0.69394874546E+03 -0.14033720018E+03  0.64595735431E+04  0.65000000000E+04  0.15050000000E+03 0. -1.
</event>
<event>
 4    1  0.5143956E-004  0.6500000E+04  0.7818608E-02  0.7223770E-01
         52   -1    0    0    0    0  0.00000000000E+00  0.00000000000E+00  0.64930732323E+04  0.65000000000E+04  0.30000000000E+03 0.  1.
        -52   -1    0    0    0    0 -0.00000000000E+00 -0.00000000000E+00 -0.64930732323E+04  0.65000000000E+04  0.30000000000E+03 0. -1.
     100001    1    1    2    0    0 -0.94968958366E+03 -0.48194507699E+04 -0.42542136431E+04  0.65000000000E+04  0.15050000000E+03 0. -1.
     100001    1    1    2    0    0  0.94968958366E+03  0.48194507699E+04  0.42542136431E+04  0.65000000000E+04  0.15050000000E+03 0.  1.
</event>
<event>
 4    1  0.5143956E-004  0.6500000E+04  0.7818608E-02  0.7223770E-01
         52   -1    0    0    0    0  0.00000000000E+00  0.00000000000E+00  0.64930732323E+04  0.65000000000E+04  0.30000000000E+03 0. -1.
        -52   -1    0    0    0    0 -0.00000000000E+00 -0.00000000000E+00 -0.64930732323E+04  0.65000000000E+04  0.30000000000E+03 0.  1.
     100001    1    1    2    0    0 -0.53962546755E+04  0.15379311963E+02 -0.36204348777E+04  0.65000000000E+04  0.15050000000E+03 0.  1.
     100001    1    1    2    0    0  0.53962546755E+04 -0.15379311963E+02  0.36204348777E+04  0.65000000000E+04  0.15050000000E+03 0. -1.
</event>
<event>
 4    1  0.5143956E-004  0.6500000E+04  0.7818608E-02  0.7223770E-01
         52   -1    0    0    0    0  0.00000000000E+00  0.00000000000E+00  0.64930732323E+04  0.65000000000E+04  0.30000000000E+03 0.  1.
        -52   -1    0    0    0    0 -0.00000000000E+00 -0.00000000000E+00 -0.64930732323E+04  0.65000000000E+04  0.30000000000E+03 0. -1.
     100001    1    1    2    0    0  0.92644103745E+03  0.53976854753E+04 -0.34977204382E+04  0.65000000000E+04  0.15050000000E+03 0. -1.
     100001    1    1    2    0    0 -0.92644103745E+03 -0.53976854753E+04  0.34977204382E+04  0.65000000000E+04  0.15050000000E+03 0.  1.
</event>
<event>
 4    1  0.5143956E-004  0.6500000E+04  0.7818608E-02  0.7223770E-01
         52   -1    0    0    0    0  0.00000000000E+00  0.00000000000E+00  0.64930732323E+04  0.65000000000E+04  0.30000000000E+03 0.  1.
        -52   -1    0    0    0    0 -0.00000000000E+00 -0.00000000000E+00 -0.64930732323E+04  0.65000000000E+04  0.30000000000E+03 0. -1.
     100001    1    1    2    0    0 -0.67881982949E+03  0.12020909714E+04  0.63499236756E+04  0.65000000000E+04  0.15050000000E+03 0.  1.
     100001    1    1    2    0    0  0.67881982949E+03 -0.12020909714E+04 -0.63499236756E+04  0.65000000000E+04  0.15050000000E+03 0. -1.
</event>
<event>
 4    1  0.5143956E-004  0.6500000E+04  0.7818608E-02  0.7223770E-01
         52   -1    0    0    0    0  0.00000000000E+00  0.00000000000E+00  0.64930732323E+04  0.65000000000E+04  0.30000000000E+03 0.  1.
        -52   -1    0    0    0    0 -0.00000000000E+00 -0.00000000000E+00 -0.64930732323E+04  0.65000000000E+04  0.30000000000E+03 0. -1.
     100001    1    1    2    0    0  0.62253024783E+03 -0.10738119294E+03  0.64674782659E+04  0.65000000000E+04  0.15050000000E+03 0.  1.
     100001    1    1    2    0    0 -0.62253024783E+03  0.10738119294E+03 -0.64674782659E+04  0.65000000000E+04  0.15050000000E+03 0. -1.
</event>
<event>
 4    1  0.5143956E-004  0.6500000E+04  0.7818608E-02  0.7223770E-01
         52   -1    0    0    0    0  0.00000000000E+00  0.00000000000E+00  0.64930732323E+04  0.65000000000E+04  0.30000000000E+03 0. -1.
        -52   -1    0    0    0    0 -0.00000000000E+00 -0.00000000000E+00 -0.64930732323E+04  0.65000000000E+04  0.30000000000E+03 0.  1.
     100001    1    1    2    0    0 -0.19967037927E+04 -0.84481881587E+02  0.61833151728E+04  0.65000000000E+04  0.15050000000E+03 0. -1.
     100001    1    1    2    0    0  0.19967037927E+04  0.84481881587E+02 -0.61833151728E+04  0.65000000000E+04  0.15050000000E+03 0.  1.
</event>
<event>
 4    1  0.5143956E-004  0.6500000E+04  0.7818608E-02  0.7223770E-01
         52   -1    0    0    0    0  0.00000000000E+00  0.00000000000E+00  0.64930732323E+04  0.65000000000E+04  0.30000000000E+03 0.  1.
        -52   -1    0    0    0    0 -0.00000000000E+00 -0.00000000000E+00 -0.64930732323E+04  0.65000000000E+04  0.30000000000E+03 0.  1.
     100001    1    1    2    0    0 -0.33270971035E+03  0.53250577478E+02 -0.64895160355E+04  0.65000000000E+04  0.15050000000E+03 0.  1.
     100001    1    1    2    0    0  0.33270971035E+03 -0.53250577478E+02  0.64895160355E+04  0.65000000000E+04  0.15050000000E+03 0.  1.
</event>
<event>
 4    1  0.5143956E-004  0.6500000E+04  0.7818608E-02  0.7223770E-01
         52   -1    0    0    0    0  0.00000000000E+00  0.00000000000E+00  0.64930732323E+04  0.65000000000E+04  0.30000000000E+03 0.  1.
        -52   -1    0    0    0    0 -0.00000000000E+00 -0.00000000000E+00 -0.64930732323E+04  0.65000000000E+04  0.30000000000E+03 0. -1.
     100001    1    1    2    0    0 -0.38226315749E+03 -0.41603863030E+04 -0.49771890097E+04  0.65000000000E+04  0.15050000000E+03 0. -1.
     100001    1    1    2    0    0  0.38226315749E+03  0.41603863030E+04  0.49771890097E+04  0.65000000000E+04  0.15050000000E+03 0.  1.
</event>
<event>
 4    1  0.5143956E-004  0.6500000E+04  0.7818608E-02  0.7223770E-01
         52   -1    0    0    0    0  0.00000000000E+00  0.00000000000E+00  0.64930732323E+04  0.65000000000E+04  0.30000000000E+03 0.  1.
        -52   -1    0    0    0    0 -0.00000000000E+00 -0.00000000000E+00 -0.64930732323E+04  0.65000000000E+04  0.30000000000E+03 0. -1.
     100001    1    1    2    0    0 -0.53561240552E+03  0.85521547481E+03 -0.64194295379E+04  0.65000000000E+04  0.15050000000E+03 0. -1.
     100001    1    1    2    0    0  0.53561240552E+03 -0.85521547481E+03  0.64194295379E+04  0.65000000000E+04  0.15050000000E+03 0.  1.
</event>
<event>
 4    1  0.5143956E-004  0.6500000E+04  0.7818608E-02  0.7223770E-01
         52   -1    0    0    0    0  0.00000000000E+00  0.00000000000E+00  0.64930732323E+04  0.65000000000E+04  0.30000000000E+03 0. -1.
        -52   -1    0    0    0    0 -0.00000000000E+00 -0.00000000000E+00 -0.64930732323E+04  0.65000000000E+04  0.30000000000E+03 0.  1.
     100001    1    1    2    0    0  0.85495235826E+03  0.31398074332E+03  0.64341139489E+04  0.65000000000E+04  0.15050000000E+03 0. -1.
     100001    1    1    2    0    0 -0.85495235826E+03 -0.31398074332E+03 -0.64341139489E+04  0.65000000000E+04  0.15050000000E+03 0.  1.
</event>
<event>
 4    1  0.5143956E-004  0.6500000E+04  0.7818608E-02  0.7223770E-01
         52   -1    0    0    0    0  0.00000000000E+00  0.00000000000E+00  0.64930732323E+04  0.65000000000E+04  0.30000000000E+03 0. -1.
        -52   -1    0    0    0    0 -0.00000000000E+00 -0.00000000000E+00 -0.64930732323E+04  0.65000000000E+04  0.30000000000E+03 0.  1.
     100001    1    1    2    0    0  0.44746711729E+03 -0.80868513033E+03 -0.64321964591E+04  0.65000000000E+04  0.15050000000E+03 0.  1.
     100001    1    1    2    0    0 -0.44746711729E+03  0.80868513033E+03  0.64321964591E+04  0.65000000000E+04  0.15050000000E+03 0. -1.
</event>
<event>
 4    1  0.5143956E-004  0.6500000E+04  0.7818608E-02  0.7223770E-01
         52   -1    0    0    0    0  0.00000000000E+00  0.00000000000E+00  0.64930732323E+04  0.65000000000E+04  0.30000000000E+03 0.  1.
        -52   -1    0    0    0    0 -0.00000000000E+00 -0.00000000000E+00 -0.64930732323E+04  0.65000000000E+04  0.30000000000E+03 0. -1.
     100001    1    1    2    0    0  0.52126110090E+03 -0.12094687997E+04  0.63633970360E+04  0.65000000000E+04  0.15050000000E+03 0.  1.
     100001    1    1    2    0    0 -0.52126110090E+03  0.12094687997E+04 -0.63633970360E+04  0.65000000000E+04  0.15050000000E+03 0. -1.
</event>
<event>
 4    1  0.5143956E-004  0.6500000E+04  0.7818608E-02  0.7223770E-01
         52   -1    0    0    0    0  0.00000000000E+00  0.00000000000E+00  0.64930732323E+04  0.65000000000E+04  0.30000000000E+03 0.  1.
        -52   -1    0    0    0    0 -0.00000000000E+00 -0.00000000000E+00 -0.64930732323E+04  0.65000000000E+04  0.30000000000E+03 0. -1.
     100001    1    1    2    0    0  0.13010425272E+04 -0.17321190508E+04 -0.61265325990E+04  0.65000000000E+04  0.15050000000E+03 0. -1.
     100001    1    1    2    0    0 -0.13010425272E+04  0.17321190508E+04  0.61265325990E+04  0.65000000000E+04  0.15050000000E+03 0.  1.
</event>
<event>
 4    1  0.5143956E-004  0.6500000E+04  0.7818608E-02  0.7223770E-01
         52   -1    0    0    0    0  0.00000000000E+00  0.00000000000E+00  0.64930732323E+04  0.65000000000E+04  0.30000000000E+03 0. -1.
        -52   -1    0    0    0    0 -0.00000000000E+00 -0.00000000000E+00 -0.64930732323E+04  0.65000000000E+04  0.30000000000E+03 0.  1.
     100001    1    1    2    0    0  0.19843917777E+04  0.23665593450E+04  0.57174238857E+04  0.65000000000E+04  0.15050000000E+03 0. -1.
     100001    1    1    2    0    0 -0.19843917777E+04 -0.23665593450E+04 -0.57174238857E+04  0.65000000000E+04  0.15050000000E+03 0.  1.
</event>
<event>
 4    1  0.5143956E-004  0.6500000E+04  0.7818608E-02  0.7223770E-01
         52   -1    0    0    0    0  0.00000000000E+00  0.00000000000E+00  0.64930732323E+04  0.65000000000E+04  0.30000000000E+03 0.  1.
        -52   -1    0    0    0    0 -0.00000000000E+00 -0.00000000000E+00 -0.64930732323E+04  0.65000000000E+04  0.30000000000E+03 0.  1.
     100001    1    1    2    0    0 -0.52888908821E+03 -0.10499222463E+04  0.63910319479E+04  0.65000000000E+04  0.15050000000E+03 0.  1.
     100001    1    1    2    0    0  0.52888908821E+03  0.10499222463E+04 -0.63910319479E+04  0.65000000000E+04  0.15050000000E+03 0.  1.
</event>
<event>
 4    1  0.5143956E-004  0.6500000E+04  0.7818608E-02  0.7223770E-01
         52   -1    0    0    0    0  0.00000000000E+00  0.00000000000E+00  0.64930732323E+04  0.65000000000E+04  0.30000000000E+03 0. -1.
        -52   -1    0    0    0    0 -0.00000000000E+00 -0.00000000000E+00 -0.64930732323E+04  0.65000000000E+04  0.30000000000E+03 0.  1.
     100001    1    1    2    0    0  0.75991189176E+03 -0.72352706278E+01 -0.64536680514E+04  0.65000000000E+04  0.15050000000E+03 0.  1.
     100001    1    1    2    0    0 -0.75991189176E+03  0.72352706278E+01  0.64536680514E+04  0.65000000000E+04  0.15050000000E+03 0. -1.
</event>
<event>
 4    1  0.5143956E-004  0.6500000E+04  0.7818608E-02  0.7223770E-01
         52   -1    0    0    0    0  0.00000000000E+00  0.00000000000E+00  0.64930732323E+04  0.65000000000E+04  0.30000000000E+03 0. -1.
        -52   -1    0    0    0    0 -0.00000000000E+00 -0.00000000000E+00 -0.64930732323E+04  0.65000000000E+04  0.30000000000E+03 0. -1.
     100001    1    1    2    0    0 -0.43960967493E+03 -0.13470189877E+03 -0.64819710337E+04  0.65000000000E+04  0.15050000000E+03 0. -1.
     100001    1    1    2    0    0  0.43960967493E+03  0.13470189877E+03  0.64819710337E+04  0.65000000000E+04  0.15050000000E+03 0. -1.
</event>
<event>
 4    1  0.5143956E-004  0.6500000E+04  0.7818608E-02  0.7223770E-01
         52   -1    0    0    0    0  0.00000000000E+00  0.00000000000E+00  0.64930732323E+04  0.65000000000E+04  0.30000000000E+03 0.  1.
        -52   -1    0    0    0    0 -0.00000000000E+00 -0.00000000000E+00 -0.64930732323E+04  0.65000000000E+04  0.30000000000E+03 0. -1.
     100001    1    1    2    0    0 -0.37854230325E+04 -0.82394870169E+03  0.52171860952E+04  0.65000000000E+04  0.15050000000E+03 0.  1.
     100001    1    1    2    0    0  0.37854230325E+04  0.82394870169E+03 -0.52171860952E+04  0.65000000000E+04  0.15050000000E+03 0. -1.
</event>
<event>
 4    1  0.5143956E-004  0.6500000E+04  0.7818608E-02  0.7223770E-01
         52   -1    0    0    0    0  0.00000000000E+00  0.00000000000E+00  0.64930732323E+04  0.65000000000E+04  0.30000000000E+03 0.  1.
        -52   -1    0    0    0    0 -0.00000000000E+00 -0.00000000000E+00 -0.64930732323E+04  0.65000000000E+04  0.30000000000E+03 0. -1.
     100001    1    1    2    0    0 -0.15076244039E+04  0.88839882228E+03 -0.62582078856E+04  0.65000000000E+04  0.15050000000E+03 0. -1.
     100001    1    1    2    0    0  0.15076244039E+04 -0.88839882228E+03  0.62582078856E+04  0.65000000000E+04  0.15050000000E+03 0.  1.
</event>
<event>
 4    1  0.5143956E-004  0.6500000E+04  0.7818608E-02  0.7223770E-01
         52   -1    0    0    0    0  0.00000000000E+00  0.00000000000E+00  0.64930732323E+04  0.65000000000E+04  0.30000000000E+03 0.  1.
        -52   -1    0    0    0    0 -0.00000000000E+00 -0.00000000000E+00 -0.64930732323E+04  0.65000000000E+04  0.30000000000E+03 0. -1.
     100001    1    1    2    0    0 -0.47706451465E+03  0.23441351434E+04 -0.60419193662E+04  0.65000000000E+04  0.15050000000E+03 0. -1.
     100001    1    1    2    0    0  0.47706451465E+03 -0.23441351434E+04  0.60419193662E+04  0.65000000000E+04  0.15050000000E+03 0.  1.
</event>
<event>
 4    1  0.5143956E-004  0.6500000E+04  0.7818608E-02  0.7223770E-01
         52   -1    0    0    0    0  0.00000000000E+00  0.00000000000E+00  0.64930732323E+04  0.65000000000E+04  0.30000000000E+03 0.  1.
        -52   -1    0    0    0    0 -0.00000000000E+00 -0.00000000000E+00 -0.64930732323E+04  0.65000000000E+04  0.30000000000E+03 0. -1.
     100001    1    1    2    0    0  0.16613090070E+04  0.56257877378E+03 -0.62570685833E+04  0.65000000000E+04  0.15050000000E+03 0. -1.
     100001    1    1    2    0    0 -0.16613090070E+04 -0.56257877378E+03  0.62570685833E+04  0.65000000000E+04  0.15050000000E+03 0.  1.
</event>
<event>
 4    1  0.5143956E-004  0.6500000E+04  0.7818608E-02  0.7223770E-01
         52   -1    0    0    0    0  0.00000000000E+00  0.00000000000E+00  0.64930732323E+04  0.65000000000E+04  0.30000000000E+03 0. -1.
        -52   -1    0    0    0    0 -0.00000000000E+00 -0.00000000000E+00 -0.64930732323E+04  0.65000000000E+04  0.30000000000E+03 0.  1.
     100001    1    1    2    0    0 -0.33774992561E+03 -0.61903360343E+03 -0.64598817432E+04  0.65000000000E+04  0.15050000000E+03 0.  1.
     100001    1    1    2    0    0  0.33774992561E+03  0.61903360343E+03  0.64598817432E+04  0.65000000000E+04  0.15050000000E+03 0. -1.
</event>
<event>
 4    1  0.5143956E-004  0.6500000E+04  0.7818608E-02  0.7223770E-01
         52   -1    0    0    0    0  0.00000000000E+00  0.00000000000E+00  0.64930732323E+04  0.65000000000E+04  0.30000000000E+03 0. -1.
        -52   -1    0    0    0    0 -0.00000000000E+00 -0.00000000000E+00 -0.64930732323E+04  0.65000000000E+04  0.30000000000E+03 0.  1.
     100001    1    1    2    0    0  0.40429824046E+03 -0.36148704896E+03 -0.64755864442E+04  0.65000000000E+04  0.15050000000E+03 0.  1.
     100001    1    1    2    0    0 -0.40429824046E+03  0.36148704896E+03  0.64755864442E+04  0.65000000000E+04  0.15050000000E+03 0. -1.
</event>
<event>
 4    1  0.5143956E-004  0.6500000E+04  0.7818608E-02  0.7223770E-01
         52   -1    0    0    0    0  0.00000000000E+00  0.00000000000E+00  0.64930732323E+04  0.65000000000E+04  0.30000000000E+03 0.  1.
        -52   -1    0    0    0    0 -0.00000000000E+00 -0.00000000000E+00 -0.64930732323E+04  0.65000000000E+04  0.30000000000E+03 0. -1.
     100001    1    1    2    0    0 -0.71178419316E+03  0.25772980768E+04 -0.59226892233E+04  0.65000000000E+04  0.15050000000E+03 0. -1.
     100001    1    1    2    0    0  0.71178419316E+03 -0.25772980768E+04  0.59226892233E+04  0.65000000000E+04  0.15050000000E+03 0.  1.
</event>
<event>
 4    1  0.5143956E-004  0.6500000E+04  0.7818608E-02  0.7223770E-01
         52   -1    0    0    0    0  0.00000000000E+00  0.00000000000E+00  0.64930732323E+04  0.65000000000E+04  0.30000000000E+03 0.  1.
        -52   -1    0    0    0    0 -0.00000000000E+00 -0.00000000000E+00 -0.64930732323E+04  0.65000000000E+04  0.30000000000E+03 0. -1.
     100001    1    1    2    0    0 -0.18493026002E+04 -0.41720384036E+04  0.46261782501E+04  0.65000000000E+04  0.15050000000E+03 0.  1.
     100001    1    1    2    0    0  0.18493026002E+04  0.41720384036E+04 -0.46261782501E+04  0.65000000000E+04  0.15050000000E+03 0. -1.
</event>
<event>
 4    1  0.5143956E-004  0.6500000E+04  0.7818608E-02  0.7223770E-01
         52   -1    0    0    0    0  0.00000000000E+00  0.00000000000E+00  0.64930732323E+04  0.65000000000E+04  0.30000000000E+03 0.  1.
        -52   -1    0    0    0    0 -0.00000000000E+00 -0.00000000000E+00 -0.64930732323E+04  0.65000000000E+04  0.30000000000E+03 0. -1.
     100001    1    1    2    0    0  0.94358372581E+03  0.30203618399E+03 -0.64222872597E+04  0.65000000000E+04  0.15050000000E+03 0. -1.
     100001    1    1    2    0    0 -0.94358372581E+03 -0.30203618399E+03  0.64222872597E+04  0.65000000000E+04  0.15050000000E+03 0.  1.
</event>
<event>
 4    1  0.5143956E-004  0.6500000E+04  0.7818608E-02  0.7223770E-01
         52   -1    0    0    0    0  0.00000000000E+00  0.00000000000E+00  0.64930732323E+04  0.65000000000E+04  0.30000000000E+03 0. -1.
        -52   -1    0    0    0    0 -0.00000000000E+00 -0.00000000000E+00 -0.64930732323E+04  0.65000000000E+04  0.30000000000E+03 0. -1.
     100001    1    1    2    0    0 -0.70561843062E+00  0.18245281598E+03 -0.64956955149E+04  0.65000000000E+04  0.15050000000E+03 0. -1.
     100001    1    1    2    0    0  0.70561843062E+00 -0.18245281598E+03  0.64956955149E+04  0.65000000000E+04  0.15050000000E+03 0. -1.
</event>
<event>
 4    1  0.5143956E-004  0.6500000E+04  0.7818608E-02  0.7223770E-01
         52   -1    0    0    0    0  0.00000000000E+00  0.00000000000E+00  0.64930732323E+04  0.65000000000E+04  0.30000000000E+03 0. -1.
        -52   -1    0    0    0    0 -0.00000000000E+00 -0.00000000000E+00 -0.64930732323E+04  0.65000000000E+04  0.30000000000E+03 0.  1.
     100001    1    1    2    0    0 -0.33375804734E+04 -0.15402455272E+04  0.53586892100E+04  0.65000000000E+04  0.15050000000E+03 0. -1.
     100001    1    1    2    0    0  0.33375804734E+04  0.15402455272E+04 -0.53586892100E+04  0.65000000000E+04  0.15050000000E+03 0.  1.
</event>
<event>
 4    1  0.5143956E-004  0.6500000E+04  0.7818608E-02  0.7223770E-01
         52   -1    0    0    0    0  0.00000000000E+00  0.00000000000E+00  0.64930732323E+04  0.65000000000E+04  0.30000000000E+03 0. -1.
        -52   -1    0    0    0    0 -0.00000000000E+00 -0.00000000000E+00 -0.64930732323E+04  0.65000000000E+04  0.30000000000E+03 0.  1.
     100001    1    1    2    0    0  0.31173425051E+04 -0.53240378103E+03  0.56768011829E+04  0.65000000000E+04  0.15050000000E+03 0. -1.
     100001    1    1    2    0    0 -0.31173425051E+04  0.53240378103E+03 -0.56768011829E+04  0.65000000000E+04  0.15050000000E+03 0.  1.
</event>
<event>
 4    1  0.5143956E-004  0.6500000E+04  0.7818608E-02  0.7223770E-01
         52   -1    0    0    0    0  0.00000000000E+00  0.00000000000E+00  0.64930732323E+04  0.65000000000E+04  0.30000000000E+03 0.  1.
        -52   -1    0    0    0    0 -0.00000000000E+00 -0.00000000000E+00 -0.64930732323E+04  0.65000000000E+04  0.30000000000E+03 0. -1.
     100001    1    1    2    0    0 -0.26162676239E+04  0.86445685874E+03 -0.58851684606E+04  0.65000000000E+04  0.15050000000E+03 0. -1.
     100001    1    1    2    0    0  0.26162676239E+04 -0.86445685874E+03  0.58851684606E+04  0.65000000000E+04  0.15050000000E+03 0.  1.
</event>
<event>
 4    1  0.5143956E-004  0.6500000E+04  0.7818608E-02  0.7223770E-01
         52   -1    0    0    0    0  0.00000000000E+00  0.00000000000E+00  0.64930732323E+04  0.65000000000E+04  0.30000000000E+03 0.  1.
        -52   -1    0    0    0    0 -0.00000000000E+00 -0.00000000000E+00 -0.64930732323E+04  0.65000000000E+04  0.30000000000E+03 0. -1.
     100001    1    1    2    0    0 -0.59296554585E+03  0.28198465363E+04  0.58244490833E+04  0.65000000000E+04  0.15050000000E+03 0.  1.
     100001    1    1    2    0    0  0.59296554585E+03 -0.28198465363E+04 -0.58244490833E+04  0.65000000000E+04  0.15050000000E+03 0. -1.
</event>
<event>
 4    1  0.5143956E-004  0.6500000E+04  0.7818608E-02  0.7223770E-01
         52   -1    0    0    0    0  0.00000000000E+00  0.00000000000E+00  0.64930732323E+04  0.65000000000E+04  0.30000000000E+03 0. -1.
        -52   -1    0    0    0    0 -0.00000000000E+00 -0.00000000000E+00 -0.64930732323E+04  0.65000000000E+04  0.30000000000E+03 0.  1.
     100001    1    1    2    0    0 -0.28938230583E+04 -0.80275180975E+03  0.57627013968E+04  0.65000000000E+04  0.15050000000E+03 0. -1.
     100001    1    1    2    0    0  0.28938230583E+04  0.80275180975E+03 -0.57627013968E+04  0.65000000000E+04  0.15050000000E+03 0.  1.
</event>
<event>
 4    1  0.5143956E-004  0.6500000E+04  0.7818608E-02  0.7223770E-01
         52   -1    0    0    0    0  0.00000000000E+00  0.00000000000E+00  0.64930732323E+04  0.65000000000E+04  0.30000000000E+03 0. -1.
        -52   -1    0    0    0    0 -0.00000000000E+00 -0.00000000000E+00 -0.64930732323E+04  0.65000000000E+04  0.30000000000E+03 0.  1.
     100001    1    1    2    0    0 -0.69747316541E+03  0.14061862794E+04 -0.63058323068E+04  0.65000000000E+04  0.15050000000E+03 0.  1.
     100001    1    1    2    0    0  0.69747316541E+03 -0.14061862794E+04  0.63058323068E+04  0.65000000000E+04  0.15050000000E+03 0. -1.
</event>
<event>
 4    1  0.5143956E-004  0.6500000E+04  0.7818608E-02  0.7223770E-01
         52   -1    0    0    0    0  0.00000000000E+00  0.00000000000E+00  0.64930732323E+04  0.65000000000E+04  0.30000000000E+03 0. -1.
        -52   -1    0    0    0    0 -0.00000000000E+00 -0.00000000000E+00 -0.64930732323E+04  0.65000000000E+04  0.30000000000E+03 0.  1.
     100001    1    1    2    0    0  0.37486485131E+04 -0.52279394243E+04 -0.91849521007E+03  0.65000000000E+04  0.15050000000E+03 0.  1.
     100001    1    1    2    0    0 -0.37486485131E+04  0.52279394243E+04  0.91849521007E+03  0.65000000000E+04  0.15050000000E+03 0. -1.
</event>
<event>
 4    1  0.5143956E-004  0.6500000E+04  0.7818608E-02  0.7223770E-01
         52   -1    0    0    0    0  0.00000000000E+00  0.00000000000E+00  0.64930732323E+04  0.65000000000E+04  0.30000000000E+03 0. -1.
        -52   -1    0    0    0    0 -0.00000000000E+00 -0.00000000000E+00 -0.64930732323E+04  0.65000000000E+04  0.30000000000E+03 0.  1.
     100001    1    1    2    0    0  0.54524875785E+03  0.81301720380E+03 -0.64240996699E+04  0.65000000000E+04  0.15050000000E+03 0.  1.
     100001    1    1    2    0    0 -0.54524875785E+03 -0.81301720380E+03  0.64240996699E+04  0.65000000000E+04  0.15050000000E+03 0. -1.
</event>
<event>
 4    1  0.5143956E-004  0.6500000E+04  0.7818608E-02  0.7223770E-01
         52   -1    0    0    0    0  0.00000000000E+00  0.00000000000E+00  0.64930732323E+04  0.65000000000E+04  0.30000000000E+03 0.  1.
        -52   -1    0    0    0    0 -0.00000000000E+00 -0.00000000000E+00 -0.64930732323E+04  0.65000000000E+04  0.30000000000E+03 0.  1.
     100001    1    1    2    0    0  0.34988068201E+03 -0.63822370185E+02  0.64885175474E+04  0.65000000000E+04  0.15050000000E+03 0.  1.
     100001    1    1    2    0    0 -0.34988068201E+03  0.63822370185E+02 -0.64885175474E+04  0.65000000000E+04  0.15050000000E+03 0.  1.
</event>
<event>
 4    1  0.5143956E-004  0.6500000E+04  0.7818608E-02  0.7223770E-01
         52   -1    0    0    0    0  0.00000000000E+00  0.00000000000E+00  0.64930732323E+04  0.65000000000E+04  0.30000000000E+03 0. -1.
        -52   -1    0    0    0    0 -0.00000000000E+00 -0.00000000000E+00 -0.64930732323E+04  0.65000000000E+04  0.30000000000E+03 0.  1.
     100001    1    1    2    0    0  0.18825757857E+03  0.51145040496E+03  0.64753631031E+04  0.65000000000E+04  0.15050000000E+03 0. -1.
     100001    1    1    2    0    0 -0.18825757857E+03 -0.51145040496E+03 -0.64753631031E+04  0.65000000000E+04  0.15050000000E+03 0.  1.
</event>
<event>
 4    1  0.5143956E-004  0.6500000E+04  0.7818608E-02  0.7223770E-01
         52   -1    0    0    0    0  0.00000000000E+00  0.00000000000E+00  0.64930732323E+04  0.65000000000E+04  0.30000000000E+03 0. -1.
        -52   -1    0    0    0    0 -0.00000000000E+00 -0.00000000000E+00 -0.64930732323E+04  0.65000000000E+04  0.30000000000E+03 0.  1.
     100001    1    1    2    0    0  0.67150915105E+03  0.55942721394E+04  0.32373668993E+04  0.65000000000E+04  0.15050000000E+03 0. -1.
     100001    1    1    2    0    0 -0.67150915105E+03 -0.55942721394E+04 -0.32373668993E+04  0.65000000000E+04  0.15050000000E+03 0.  1.
</event>
<event>
 4    1  0.5143956E-004  0.6500000E+04  0.7818608E-02  0.7223770E-01
         52   -1    0    0    0    0  0.00000000000E+00  0.00000000000E+00  0.64930732323E+04  0.65000000000E+04  0.30000000000E+03 0. -1.
        -52   -1    0    0    0    0 -0.00000000000E+00 -0.00000000000E+00 -0.64930732323E+04  0.65000000000E+04  0.30000000000E+03 0.  1.
     100001    1    1    2    0    0 -0.96044601784E+03  0.55212311811E+03  0.64031283963E+04  0.65000000000E+04  0.15050000000E+03 0. -1.
     100001    1    1    2    0    0  0.96044601784E+03 -0.55212311811E+03 -0.64031283963E+04  0.65000000000E+04  0.15050000000E+03 0.  1.
</event>
<event>
 4    1  0.5143956E-004  0.6500000E+04  0.7818608E-02  0.7223770E-01
         52   -1    0    0    0    0  0.00000000000E+00  0.00000000000E+00  0.64930732323E+04  0.65000000000E+04  0.30000000000E+03 0. -1.
        -52   -1    0    0    0    0 -0.00000000000E+00 -0.00000000000E+00 -0.64930732323E+04  0.65000000000E+04  0.30000000000E+03 0.  1.
     100001    1    1    2    0    0  0.38294702008E+04 -0.35125435238E+04 -0.39018643909E+04  0.65000000000E+04  0.15050000000E+03 0.  1.
     100001    1    1    2    0    0 -0.38294702008E+04  0.35125435238E+04  0.39018643909E+04  0.65000000000E+04  0.15050000000E+03 0. -1.
</event>
<event>
 4    1  0.5143956E-004  0.6500000E+04  0.7818608E-02  0.7223770E-01
         52   -1    0    0    0    0  0.00000000000E+00  0.00000000000E+00  0.64930732323E+04  0.65000000000E+04  0.30000000000E+03 0. -1.
        -52   -1    0    0    0    0 -0.00000000000E+00 -0.00000000000E+00 -0.64930732323E+04  0.65000000000E+04  0.30000000000E+03 0.  1.
     100001    1    1    2    0    0 -0.94667119842E+02 -0.30296872637E+03 -0.64905005845E+04  0.65000000000E+04  0.15050000000E+03 0.  1.
     100001    1    1    2    0    0  0.94667119842E+02  0.30296872637E+03  0.64905005845E+04  0.65000000000E+04  0.15050000000E+03 0. -1.
</event>
<event>
 4    1  0.5143956E-004  0.6500000E+04  0.7818608E-02  0.7223770E-01
         52   -1    0    0    0    0  0.00000000000E+00  0.00000000000E+00  0.64930732323E+04  0.65000000000E+04  0.30000000000E+03 0. -1.
        -52   -1    0    0    0    0 -0.00000000000E+00 -0.00000000000E+00 -0.64930732323E+04  0.65000000000E+04  0.30000000000E+03 0.  1.
     100001    1    1    2    0    0  0.22004113099E+04 -0.37451216132E+03  0.61028911557E+04  0.65000000000E+04  0.15050000000E+03 0. -1.
     100001    1    1    2    0    0 -0.22004113099E+04  0.37451216132E+03 -0.61028911557E+04  0.65000000000E+04  0.15050000000E+03 0.  1.
</event>
<event>
 4    1  0.5143956E-004  0.6500000E+04  0.7818608E-02  0.7223770E-01
         52   -1    0    0    0    0  0.00000000000E+00  0.00000000000E+00  0.64930732323E+04  0.65000000000E+04  0.30000000000E+03 0.  1.
        -52   -1    0    0    0    0 -0.00000000000E+00 -0.00000000000E+00 -0.64930732323E+04  0.65000000000E+04  0.30000000000E+03 0. -1.
     100001    1    1    2    0    0  0.14595898538E+03  0.30045813282E+02 -0.64965485432E+04  0.65000000000E+04  0.15050000000E+03 0. -1.
     100001    1    1    2    0    0 -0.14595898538E+03 -0.30045813282E+02  0.64965485432E+04  0.65000000000E+04  0.15050000000E+03 0.  1.
</event>
<event>
 4    1  0.5143956E-004  0.6500000E+04  0.7818608E-02  0.7223770E-01
         52   -1    0    0    0    0  0.00000000000E+00  0.00000000000E+00  0.64930732323E+04  0.65000000000E+04  0.30000000000E+03 0. -1.
        -52   -1    0    0    0    0 -0.00000000000E+00 -0.00000000000E+00 -0.64930732323E+04  0.65000000000E+04  0.30000000000E+03 0.  1.
     100001    1    1    2    0    0 -0.83393403527E+03 -0.35782212924E+03 -0.64345836772E+04  0.65000000000E+04  0.15050000000E+03 0.  1.
     100001    1    1    2    0    0  0.83393403527E+03  0.35782212924E+03  0.64345836772E+04  0.65000000000E+04  0.15050000000E+03 0. -1.
</event>
<event>
 4    1  0.5143956E-004  0.6500000E+04  0.7818608E-02  0.7223770E-01
         52   -1    0    0    0    0  0.00000000000E+00  0.00000000000E+00  0.64930732323E+04  0.65000000000E+04  0.30000000000E+03 0. -1.
        -52   -1    0    0    0    0 -0.00000000000E+00 -0.00000000000E+00 -0.64930732323E+04  0.65000000000E+04  0.30000000000E+03 0.  1.
     100001    1    1    2    0    0 -0.90157154429E+03  0.11030122476E+04  0.63401800039E+04  0.65000000000E+04  0.15050000000E+03 0. -1.
     100001    1    1    2    0    0  0.90157154429E+03 -0.11030122476E+04 -0.63401800039E+04  0.65000000000E+04  0.15050000000E+03 0.  1.
</event>
<event>
 4    1  0.5143956E-004  0.6500000E+04  0.7818608E-02  0.7223770E-01
         52   -1    0    0    0    0  0.00000000000E+00  0.00000000000E+00  0.64930732323E+04  0.65000000000E+04  0.30000000000E+03 0.  1.
        -52   -1    0    0    0    0 -0.00000000000E+00 -0.00000000000E+00 -0.64930732323E+04  0.65000000000E+04  0.30000000000E+03 0. -1.
     100001    1    1    2    0    0 -0.10492663160E+04 -0.24266909308E+03 -0.64083930637E+04  0.65000000000E+04  0.15050000000E+03 0. -1.
     100001    1    1    2    0    0  0.10492663160E+04  0.24266909308E+03  0.64083930637E+04  0.65000000000E+04  0.15050000000E+03 0.  1.
</event>
<event>
 4    1  0.5143956E-004  0.6500000E+04  0.7818608E-02  0.7223770E-01
         52   -1    0    0    0    0  0.00000000000E+00  0.00000000000E+00  0.64930732323E+04  0.65000000000E+04  0.30000000000E+03 0.  1.
        -52   -1    0    0    0    0 -0.00000000000E+00 -0.00000000000E+00 -0.64930732323E+04  0.65000000000E+04  0.30000000000E+03 0.  1.
     100001    1    1    2    0    0 -0.72902122888E+02 -0.10837324174E+02 -0.64978394550E+04  0.65000000000E+04  0.15050000000E+03 0.  1.
     100001    1    1    2    0    0  0.72902122888E+02  0.10837324174E+02  0.64978394550E+04  0.65000000000E+04  0.15050000000E+03 0.  1.
</event>
<event>
 4    1  0.5143956E-004  0.6500000E+04  0.7818608E-02  0.7223770E-01
         52   -1    0    0    0    0  0.00000000000E+00  0.00000000000E+00  0.64930732323E+04  0.65000000000E+04  0.30000000000E+03 0.  1.
        -52   -1    0    0    0    0 -0.00000000000E+00 -0.00000000000E+00 -0.64930732323E+04  0.65000000000E+04  0.30000000000E+03 0.  1.
     100001    1    1    2    0    0  0.12702121805E+03  0.35241371521E+03  0.64874509581E+04  0.65000000000E+04  0.15050000000E+03 0.  1.
     100001    1    1    2    0    0 -0.12702121805E+03 -0.35241371521E+03 -0.64874509581E+04  0.65000000000E+04  0.15050000000E+03 0.  1.
</event>
<event>
 4    1  0.5143956E-004  0.6500000E+04  0.7818608E-02  0.7223770E-01
         52   -1    0    0    0    0  0.00000000000E+00  0.00000000000E+00  0.64930732323E+04  0.65000000000E+04  0.30000000000E+03 0. -1.
        -52   -1    0    0    0    0 -0.00000000000E+00 -0.00000000000E+00 -0.64930732323E+04  0.65000000000E+04  0.30000000000E+03 0.  1.
     100001    1    1    2    0    0  0.23863240042E+04 -0.60279345030E+04  0.44363625267E+03  0.65000000000E+04  0.15050000000E+03 0.  1.
     100001    1    1    2    0    0 -0.23863240042E+04  0.60279345030E+04 -0.44363625267E+03  0.65000000000E+04  0.15050000000E+03 0. -1.
</event>
<event>
 4    1  0.5143956E-004  0.6500000E+04  0.7818608E-02  0.7223770E-01
         52   -1    0    0    0    0  0.00000000000E+00  0.00000000000E+00  0.64930732323E+04  0.65000000000E+04  0.30000000000E+03 0. -1.
        -52   -1    0    0    0    0 -0.00000000000E+00 -0.00000000000E+00 -0.64930732323E+04  0.65000000000E+04  0.30000000000E+03 0. -1.
     100001    1    1    2    0    0 -0.31480634184E+03  0.55493238090E+02  0.64903903748E+04  0.65000000000E+04  0.15050000000E+03 0. -1.
     100001    1    1    2    0    0  0.31480634184E+03 -0.55493238090E+02 -0.64903903748E+04  0.65000000000E+04  0.15050000000E+03 0. -1.
</event>
<event>
 4    1  0.5143956E-004  0.6500000E+04  0.7818608E-02  0.7223770E-01
         52   -1    0    0    0    0  0.00000000000E+00  0.00000000000E+00  0.64930732323E+04  0.65000000000E+04  0.30000000000E+03 0. -1.
        -52   -1    0    0    0    0 -0.00000000000E+00 -0.00000000000E+00 -0.64930732323E+04  0.65000000000E+04  0.30000000000E+03 0. -1.
     100001    1    1    2    0    0  0.79833533564E+02 -0.69366129849E+03 -0.64606354455E+04  0.65000000000E+04  0.15050000000E+03 0. -1.
     100001    1    1    2    0    0 -0.79833533564E+02  0.69366129849E+03  0.64606354455E+04  0.65000000000E+04  0.15050000000E+03 0. -1.
</event>
<event>
 4    1  0.5143956E-004  0.6500000E+04  0.7818608E-02  0.7223770E-01
         52   -1    0    0    0    0  0.00000000000E+00  0.00000000000E+00  0.64930732323E+04  0.65000000000E+04  0.30000000000E+03 0.  1.
        -52   -1    0    0    0    0 -0.00000000000E+00 -0.00000000000E+00 -0.64930732323E+04  0.65000000000E+04  0.30000000000E+03 0. -1.
     100001    1    1    2    0    0 -0.49143814644E+04  0.90587323111E+03 -0.41539858283E+04  0.65000000000E+04  0.15050000000E+03 0. -1.
     100001    1    1    2    0    0  0.49143814644E+04 -0.90587323111E+03  0.41539858283E+04  0.65000000000E+04  0.15050000000E+03 0.  1.
</event>
<event>
 4    1  0.5143956E-004  0.6500000E+04  0.7818608E-02  0.7223770E-01
         52   -1    0    0    0    0  0.00000000000E+00  0.00000000000E+00  0.64930732323E+04  0.65000000000E+04  0.30000000000E+03 0.  1.
        -52   -1    0    0    0    0 -0.00000000000E+00 -0.00000000000E+00 -0.64930732323E+04  0.65000000000E+04  0.30000000000E+03 0. -1.
     100001    1    1    2    0    0 -0.17662327595E+04  0.85928381443E+03  0.61943040703E+04  0.65000000000E+04  0.15050000000E+03 0.  1.
     100001    1    1    2    0    0  0.17662327595E+04 -0.85928381443E+03 -0.61943040703E+04  0.65000000000E+04  0.15050000000E+03 0. -1.
</event>
<event>
 4    1  0.5143956E-004  0.6500000E+04  0.7818608E-02  0.7223770E-01
         52   -1    0    0    0    0  0.00000000000E+00  0.00000000000E+00  0.64930732323E+04  0.65000000000E+04  0.30000000000E+03 0.  1.
        -52   -1    0    0    0    0 -0.00000000000E+00 -0.00000000000E+00 -0.64930732323E+04  0.65000000000E+04  0.30000000000E+03 0. -1.
     100001    1    1    2    0    0  0.41257403492E+03 -0.15196165915E+04 -0.63045933914E+04  0.65000000000E+04  0.15050000000E+03 0. -1.
     100001    1    1    2    0    0 -0.41257403492E+03  0.15196165915E+04  0.63045933914E+04  0.65000000000E+04  0.15050000000E+03 0.  1.
</event>
<event>
 4    1  0.5143956E-004  0.6500000E+04  0.7818608E-02  0.7223770E-01
         52   -1    0    0    0    0  0.00000000000E+00  0.00000000000E+00  0.64930732323E+04  0.65000000000E+04  0.30000000000E+03 0. -1.
        -52   -1    0    0    0    0 -0.00000000000E+00 -0.00000000000E+00 -0.64930732323E+04  0.65000000000E+04  0.30000000000E+03 0.  1.
     100001    1    1    2    0    0 -0.21836135424E+04 -0.48693628071E+04  0.37078952925E+04  0.65000000000E+04  0.15050000000E+03 0. -1.
     100001    1    1    2    0    0  0.21836135424E+04  0.48693628071E+04 -0.37078952925E+04  0.65000000000E+04  0.15050000000E+03 0.  1.
</event>
<event>
 4    1  0.5143956E-004  0.6500000E+04  0.7818608E-02  0.7223770E-01
         52   -1    0    0    0    0  0.00000000000E+00  0.00000000000E+00  0.64930732323E+04  0.65000000000E+04  0.30000000000E+03 0. -1.
        -52   -1    0    0    0    0 -0.00000000000E+00 -0.00000000000E+00 -0.64930732323E+04  0.65000000000E+04  0.30000000000E+03 0. -1.
     100001    1    1    2    0    0  0.28465165707E+02  0.12712038141E+03 -0.64969515846E+04  0.65000000000E+04  0.15050000000E+03 0. -1.
     100001    1    1    2    0    0 -0.28465165707E+02 -0.12712038141E+03  0.64969515846E+04  0.65000000000E+04  0.15050000000E+03 0. -1.
</event>
<event>
 4    1  0.5143956E-004  0.6500000E+04  0.7818608E-02  0.7223770E-01
         52   -1    0    0    0    0  0.00000000000E+00  0.00000000000E+00  0.64930732323E+04  0.65000000000E+04  0.30000000000E+03 0.  1.
        -52   -1    0    0    0    0 -0.00000000000E+00 -0.00000000000E+00 -0.64930732323E+04  0.65000000000E+04  0.30000000000E+03 0. -1.
     100001    1    1    2    0    0 -0.17246558917E+04  0.28557957501E+03 -0.62587024303E+04  0.65000000000E+04  0.15050000000E+03 0. -1.
     100001    1    1    2    0    0  0.17246558917E+04 -0.28557957501E+03  0.62587024303E+04  0.65000000000E+04  0.15050000000E+03 0.  1.
</event>
<event>
 4    1  0.5143956E-004  0.6500000E+04  0.7818608E-02  0.7223770E-01
         52   -1    0    0    0    0  0.00000000000E+00  0.00000000000E+00  0.64930732323E+04  0.65000000000E+04  0.30000000000E+03 0. -1.
        -52   -1    0    0    0    0 -0.00000000000E+00 -0.00000000000E+00 -0.64930732323E+04  0.65000000000E+04  0.30000000000E+03 0.  1.
     100001    1    1    2    0    0 -0.79122318540E+03  0.59597321632E+03  0.64223151236E+04  0.65000000000E+04  0.15050000000E+03 0. -1.
     100001    1    1    2    0    0  0.79122318540E+03 -0.59597321632E+03 -0.64223151236E+04  0.65000000000E+04  0.15050000000E+03 0.  1.
</event>
<event>
 4    1  0.5143956E-004  0.6500000E+04  0.7818608E-02  0.7223770E-01
         52   -1    0    0    0    0  0.00000000000E+00  0.00000000000E+00  0.64930732323E+04  0.65000000000E+04  0.30000000000E+03 0. -1.
        -52   -1    0    0    0    0 -0.00000000000E+00 -0.00000000000E+00 -0.64930732323E+04  0.65000000000E+04  0.30000000000E+03 0.  1.
     100001    1    1    2    0    0  0.14961534540E+04 -0.32999125859E+03  0.63150598066E+04  0.65000000000E+04  0.15050000000E+03 0. -1.
     100001    1    1    2    0    0 -0.14961534540E+04  0.32999125859E+03 -0.63150598066E+04  0.65000000000E+04  0.15050000000E+03 0.  1.
</event>
<event>
 4    1  0.5143956E-004  0.6500000E+04  0.7818608E-02  0.7223770E-01
         52   -1    0    0    0    0  0.00000000000E+00  0.00000000000E+00  0.64930732323E+04  0.65000000000E+04  0.30000000000E+03 0. -1.
        -52   -1    0    0    0    0 -0.00000000000E+00 -0.00000000000E+00 -0.64930732323E+04  0.65000000000E+04  0.30000000000E+03 0.  1.
     100001    1    1    2    0    0  0.83727636198E+02  0.20895636810E+03 -0.64943572945E+04  0.65000000000E+04  0.15050000000E+03 0.  1.
     100001    1    1    2    0    0 -0.83727636198E+02 -0.20895636810E+03  0.64943572945E+04  0.65000000000E+04  0.15050000000E+03 0. -1.
</event>
<event>
 4    1  0.5143956E-004  0.6500000E+04  0.7818608E-02  0.7223770E-01
         52   -1    0    0    0    0  0.00000000000E+00  0.00000000000E+00  0.64930732323E+04  0.65000000000E+04  0.30000000000E+03 0.  1.
        -52   -1    0    0    0    0 -0.00000000000E+00 -0.00000000000E+00 -0.64930732323E+04  0.65000000000E+04  0.30000000000E+03 0. -1.
     100001    1    1    2    0    0 -0.46576382801E+02 -0.21979138964E+03 -0.64943723435E+04  0.65000000000E+04  0.15050000000E+03 0. -1.
     100001    1    1    2    0    0  0.46576382801E+02  0.21979138964E+03  0.64943723435E+04  0.65000000000E+04  0.15050000000E+03 0.  1.
</event>
<event>
 4    1  0.5143956E-004  0.6500000E+04  0.7818608E-02  0.7223770E-01
         52   -1    0    0    0    0  0.00000000000E+00  0.00000000000E+00  0.64930732323E+04  0.65000000000E+04  0.30000000000E+03 0.  1.
        -52   -1    0    0    0    0 -0.00000000000E+00 -0.00000000000E+00 -0.64930732323E+04  0.65000000000E+04  0.30000000000E+03 0. -1.
     100001    1    1    2    0    0  0.17463187586E+04 -0.10706066286E+04  0.61669702440E+04  0.65000000000E+04  0.15050000000E+03 0.  1.
     100001    1    1    2    0    0 -0.17463187586E+04  0.10706066286E+04 -0.61669702440E+04  0.65000000000E+04  0.15050000000E+03 0. -1.
</event>
<event>
 4    1  0.5143956E-004  0.6500000E+04  0.7818608E-02  0.7223770E-01
         52   -1    0    0    0    0  0.00000000000E+00  0.00000000000E+00  0.64930732323E+04  0.65000000000E+04  0.30000000000E+03 0.  1.
        -52   -1    0    0    0    0 -0.00000000000E+00 -0.00000000000E+00 -0.64930732323E+04  0.65000000000E+04  0.30000000000E+03 0.  1.
     100001    1    1    2    0    0  0.44175605283E+03 -0.36135784352E+03  0.64731462094E+04  0.65000000000E+04  0.15050000000E+03 0.  1.
     100001    1    1    2    0    0 -0.44175605283E+03  0.36135784352E+03 -0.64731462094E+04  0.65000000000E+04  0.15050000000E+03 0.  1.
</event>
<event>
 4    1  0.5143956E-004  0.6500000E+04  0.7818608E-02  0.7223770E-01
         52   -1    0    0    0    0  0.00000000000E+00  0.00000000000E+00  0.64930732323E+04  0.65000000000E+04  0.30000000000E+03 0.  1.
        -52   -1    0    0    0    0 -0.00000000000E+00 -0.00000000000E+00 -0.64930732323E+04  0.65000000000E+04  0.30000000000E+03 0. -1.
     100001    1    1    2    0    0 -0.27700464389E+03 -0.19226214001E+03 -0.64895033282E+04  0.65000000000E+04  0.15050000000E+03 0. -1.
     100001    1    1    2    0    0  0.27700464389E+03  0.19226214001E+03  0.64895033282E+04  0.65000000000E+04  0.15050000000E+03 0.  1.
</event>
<event>
 4    1  0.5143956E-004  0.6500000E+04  0.7818608E-02  0.7223770E-01
         52   -1    0    0    0    0  0.00000000000E+00  0.00000000000E+00  0.64930732323E+04  0.65000000000E+04  0.30000000000E+03 0.  1.
        -52   -1    0    0    0    0 -0.00000000000E+00 -0.00000000000E+00 -0.64930732323E+04  0.65000000000E+04  0.30000000000E+03 0. -1.
     100001    1    1    2    0    0 -0.13645273952E+03  0.59645117454E+03  0.64693876369E+04  0.65000000000E+04  0.15050000000E+03 0.  1.
     100001    1    1    2    0    0  0.13645273952E+03 -0.59645117454E+03 -0.64693876369E+04  0.65000000000E+04  0.15050000000E+03 0. -1.
</event>
<event>
 4    1  0.5143956E-004  0.6500000E+04  0.7818608E-02  0.7223770E-01
         52   -1    0    0    0    0  0.00000000000E+00  0.00000000000E+00  0.64930732323E+04  0.65000000000E+04  0.30000000000E+03 0.  1.
        -52   -1    0    0    0    0 -0.00000000000E+00 -0.00000000000E+00 -0.64930732323E+04  0.65000000000E+04  0.30000000000E+03 0. -1.
     100001    1    1    2    0    0  0.92624313603E+03  0.15299047350E+04  0.62473046112E+04  0.65000000000E+04  0.15050000000E+03 0.  1.
     100001    1    1    2    0    0 -0.92624313603E+03 -0.15299047350E+04 -0.62473046112E+04  0.65000000000E+04  0.15050000000E+03 0. -1.
</event>
<event>
 4    1  0.5143956E-004  0.6500000E+04  0.7818608E-02  0.7223770E-01
         52   -1    0    0    0    0  0.00000000000E+00  0.00000000000E+00  0.64930732323E+04  0.65000000000E+04  0.30000000000E+03 0. -1.
        -52   -1    0    0    0    0 -0.00000000000E+00 -0.00000000000E+00 -0.64930732323E+04  0.65000000000E+04  0.30000000000E+03 0.  1.
     100001    1    1    2    0    0 -0.42730930230E+03 -0.11167933705E+03 -0.64832310028E+04  0.65000000000E+04  0.15050000000E+03 0.  1.
     100001    1    1    2    0    0  0.42730930230E+03  0.11167933705E+03  0.64832310028E+04  0.65000000000E+04  0.15050000000E+03 0. -1.
</event>
<event>
 4    1  0.5143956E-004  0.6500000E+04  0.7818608E-02  0.7223770E-01
         52   -1    0    0    0    0  0.00000000000E+00  0.00000000000E+00  0.64930732323E+04  0.65000000000E+04  0.30000000000E+03 0. -1.
        -52   -1    0    0    0    0 -0.00000000000E+00 -0.00000000000E+00 -0.64930732323E+04  0.65000000000E+04  0.30000000000E+03 0.  1.
     100001    1    1    2    0    0  0.82427472172E+03 -0.19707919869E+04 -0.61370921353E+04  0.65000000000E+04  0.15050000000E+03 0.  1.
     100001    1    1    2    0    0 -0.82427472172E+03  0.19707919869E+04  0.61370921353E+04  0.65000000000E+04  0.15050000000E+03 0. -1.
</event>
<event>
 4    1  0.5143956E-004  0.6500000E+04  0.7818608E-02  0.7223770E-01
         52   -1    0    0    0    0  0.00000000000E+00  0.00000000000E+00  0.64930732323E+04  0.65000000000E+04  0.30000000000E+03 0. -1.
        -52   -1    0    0    0    0 -0.00000000000E+00 -0.00000000000E+00 -0.64930732323E+04  0.65000000000E+04  0.30000000000E+03 0.  1.
     100001    1    1    2    0    0  0.20227936487E+04 -0.23202251956E+04  0.57229547129E+04  0.65000000000E+04  0.15050000000E+03 0. -1.
     100001    1    1    2    0    0 -0.20227936487E+04  0.23202251956E+04 -0.57229547129E+04  0.65000000000E+04  0.15050000000E+03 0.  1.
</event>
<event>
 4    1  0.5143956E-004  0.6500000E+04  0.7818608E-02  0.7223770E-01
         52   -1    0    0    0    0  0.00000000000E+00  0.00000000000E+00  0.64930732323E+04  0.65000000000E+04  0.30000000000E+03 0.  1.
        -52   -1    0    0    0    0 -0.00000000000E+00 -0.00000000000E+00 -0.64930732323E+04  0.65000000000E+04  0.30000000000E+03 0. -1.
     100001    1    1    2    0    0 -0.17104497956E+04  0.39796999875E+03  0.62564631484E+04  0.65000000000E+04  0.15050000000E+03 0.  1.
     100001    1    1    2    0    0  0.17104497956E+04 -0.39796999875E+03 -0.62564631484E+04  0.65000000000E+04  0.15050000000E+03 0. -1.
</event>
<event>
 4    1  0.5143956E-004  0.6500000E+04  0.7818608E-02  0.7223770E-01
         52   -1    0    0    0    0  0.00000000000E+00  0.00000000000E+00  0.64930732323E+04  0.65000000000E+04  0.30000000000E+03 0. -1.
        -52   -1    0    0    0    0 -0.00000000000E+00 -0.00000000000E+00 -0.64930732323E+04  0.65000000000E+04  0.30000000000E+03 0.  1.
     100001    1    1    2    0    0 -0.56411181491E+03  0.15456906534E+04  0.62864909142E+04  0.65000000000E+04  0.15050000000E+03 0. -1.
     100001    1    1    2    0    0  0.56411181491E+03 -0.15456906534E+04 -0.62864909142E+04  0.65000000000E+04  0.15050000000E+03 0.  1.
</event>
<event>
 4    1  0.5143956E-004  0.6500000E+04  0.7818608E-02  0.7223770E-01
         52   -1    0    0    0    0  0.00000000000E+00  0.00000000000E+00  0.64930732323E+04  0.65000000000E+04  0.30000000000E+03 0. -1.
        -52   -1    0    0    0    0 -0.00000000000E+00 -0.00000000000E+00 -0.64930732323E+04  0.65000000000E+04  0.30000000000E+03 0.  1.
     100001    1    1    2    0    0  0.53103013964E+04 -0.16643366267E+04  0.33552991555E+04  0.65000000000E+04  0.15050000000E+03 0. -1.
     100001    1    1    2    0    0 -0.53103013964E+04  0.16643366267E+04 -0.33552991555E+04  0.65000000000E+04  0.15050000000E+03 0.  1.
</event>
<event>
 4    1  0.5143956E-004  0.6500000E+04  0.7818608E-02  0.7223770E-01
         52   -1    0    0    0    0  0.00000000000E+00  0.00000000000E+00  0.64930732323E+04  0.65000000000E+04  0.30000000000E+03 0.  1.
        -52   -1    0    0    0    0 -0.00000000000E+00 -0.00000000000E+00 -0.64930732323E+04  0.65000000000E+04  0.30000000000E+03 0. -1.
     100001    1    1    2    0    0 -0.14341644084E+04  0.18227875792E+04 -0.60702526834E+04  0.65000000000E+04  0.15050000000E+03 0. -1.
     100001    1    1    2    0    0  0.14341644084E+04 -0.18227875792E+04  0.60702526834E+04  0.65000000000E+04  0.15050000000E+03 0.  1.
</event>
<event>
 4    1  0.5143956E-004  0.6500000E+04  0.7818608E-02  0.7223770E-01
         52   -1    0    0    0    0  0.00000000000E+00  0.00000000000E+00  0.64930732323E+04  0.65000000000E+04  0.30000000000E+03 0.  1.
        -52   -1    0    0    0    0 -0.00000000000E+00 -0.00000000000E+00 -0.64930732323E+04  0.65000000000E+04  0.30000000000E+03 0. -1.
     100001    1    1    2    0    0  0.30401880236E+04  0.15823332331E+04  0.55209444908E+04  0.65000000000E+04  0.15050000000E+03 0.  1.
     100001    1    1    2    0    0 -0.30401880236E+04 -0.15823332331E+04 -0.55209444908E+04  0.65000000000E+04  0.15050000000E+03 0. -1.
</event>
<event>
 4    1  0.5143956E-004  0.6500000E+04  0.7818608E-02  0.7223770E-01
         52   -1    0    0    0    0  0.00000000000E+00  0.00000000000E+00  0.64930732323E+04  0.65000000000E+04  0.30000000000E+03 0.  1.
        -52   -1    0    0    0    0 -0.00000000000E+00 -0.00000000000E+00 -0.64930732323E+04  0.65000000000E+04  0.30000000000E+03 0. -1.
     100001    1    1    2    0    0  0.16327234698E+04 -0.56562644649E+03 -0.62643140522E+04  0.65000000000E+04  0.15050000000E+03 0. -1.
     100001    1    1    2    0    0 -0.16327234698E+04  0.56562644649E+03  0.62643140522E+04  0.65000000000E+04  0.15050000000E+03 0.  1.
</event>
<event>
 4    1  0.5143956E-004  0.6500000E+04  0.7818608E-02  0.7223770E-01
         52   -1    0    0    0    0  0.00000000000E+00  0.00000000000E+00  0.64930732323E+04  0.65000000000E+04  0.30000000000E+03 0. -1.
        -52   -1    0    0    0    0 -0.00000000000E+00 -0.00000000000E+00 -0.64930732323E+04  0.65000000000E+04  0.30000000000E+03 0. -1.
     100001    1    1    2    0    0  0.15998016764E+04  0.18695774848E+04  0.60143714862E+04  0.65000000000E+04  0.15050000000E+03 0. -1.
     100001    1    1    2    0    0 -0.15998016764E+04 -0.18695774848E+04 -0.60143714862E+04  0.65000000000E+04  0.15050000000E+03 0. -1.
</event>
<event>
 4    1  0.5143956E-004  0.6500000E+04  0.7818608E-02  0.7223770E-01
         52   -1    0    0    0    0  0.00000000000E+00  0.00000000000E+00  0.64930732323E+04  0.65000000000E+04  0.30000000000E+03 0.  1.
        -52   -1    0    0    0    0 -0.00000000000E+00 -0.00000000000E+00 -0.64930732323E+04  0.65000000000E+04  0.30000000000E+03 0. -1.
     100001    1    1    2    0    0  0.23363199962E+03 -0.45432041518E+03  0.64781447035E+04  0.65000000000E+04  0.15050000000E+03 0.  1.
     100001    1    1    2    0    0 -0.23363199962E+03  0.45432041518E+03 -0.64781447035E+04  0.65000000000E+04  0.15050000000E+03 0. -1.
</event>
<event>
 4    1  0.5143956E-004  0.6500000E+04  0.7818608E-02  0.7223770E-01
         52   -1    0    0    0    0  0.00000000000E+00  0.00000000000E+00  0.64930732323E+04  0.65000000000E+04  0.30000000000E+03 0. -1.
        -52   -1    0    0    0    0 -0.00000000000E+00 -0.00000000000E+00 -0.64930732323E+04  0.65000000000E+04  0.30000000000E+03 0.  1.
     100001    1    1    2    0    0  0.92693648189E+03 -0.89233621385E+03  0.63696055286E+04  0.65000000000E+04  0.15050000000E+03 0. -1.
     100001    1    1    2    0    0 -0.92693648189E+03  0.89233621385E+03 -0.63696055286E+04  0.65000000000E+04  0.15050000000E+03 0.  1.
</event>
<event>
 4    1  0.5143956E-004  0.6500000E+04  0.7818608E-02  0.7223770E-01
         52   -1    0    0    0    0  0.00000000000E+00  0.00000000000E+00  0.64930732323E+04  0.65000000000E+04  0.30000000000E+03 0. -1.
        -52   -1    0    0    0    0 -0.00000000000E+00 -0.00000000000E+00 -0.64930732323E+04  0.65000000000E+04  0.30000000000E+03 0. -1.
     100001    1    1    2    0    0  0.17004274740E+04 -0.62711271908E+04  0.94127111185E+02  0.65000000000E+04  0.15050000000E+03 0.  1.
     100001    1    1    2    0    0 -0.17004274740E+04  0.62711271908E+04 -0.94127111185E+02  0.65000000000E+04  0.15050000000E+03 0. -1.
</event>
<event>
 4    1  0.5143956E-004  0.6500000E+04  0.7818608E-02  0.7223770E-01
         52   -1    0    0    0    0  0.00000000000E+00  0.00000000000E+00  0.64930732323E+04  0.65000000000E+04  0.30000000000E+03 0. -1.
        -52   -1    0    0    0    0 -0.00000000000E+00 -0.00000000000E+00 -0.64930732323E+04  0.65000000000E+04  0.30000000000E+03 0. -1.
     100001    1    1    2    0    0 -0.28098078516E+03 -0.26334865155E+03 -0.64868364428E+04  0.65000000000E+04  0.15050000000E+03 0. -1.
     100001    1    1    2    0    0  0.28098078516E+03  0.26334865155E+03  0.64868364428E+04  0.65000000000E+04  0.15050000000E+03 0. -1.
</event>
<event>
 4    1  0.5143956E-004  0.6500000E+04  0.7818608E-02  0.7223770E-01
         52   -1    0    0    0    0  0.00000000000E+00  0.00000000000E+00  0.64930732323E+04  0.65000000000E+04  0.30000000000E+03 0.  1.
        -52   -1    0    0    0    0 -0.00000000000E+00 -0.00000000000E+00 -0.64930732323E+04  0.65000000000E+04  0.30000000000E+03 0. -1.
     100001    1    1    2    0    0  0.52389593370E+04 -0.38219905659E+04  0.41598428926E+03  0.65000000000E+04  0.15050000000E+03 0. -1.
     100001    1    1    2    0    0 -0.52389593370E+04  0.38219905659E+04 -0.41598428926E+03  0.65000000000E+04  0.15050000000E+03 0.  1.
</event>
<event>
 4    1  0.5143956E-004  0.6500000E+04  0.7818608E-02  0.7223770E-01
         52   -1    0    0    0    0  0.00000000000E+00  0.00000000000E+00  0.64930732323E+04  0.65000000000E+04  0.30000000000E+03 0.  1.
        -52   -1    0    0    0    0 -0.00000000000E+00 -0.00000000000E+00 -0.64930732323E+04  0.65000000000E+04  0.30000000000E+03 0. -1.
     100001    1    1    2    0    0 -0.43508364988E+04 -0.35157412635E+04  0.33071339372E+04  0.65000000000E+04  0.15050000000E+03 0.  1.
     100001    1    1    2    0    0  0.43508364988E+04  0.35157412635E+04 -0.33071339372E+04  0.65000000000E+04  0.15050000000E+03 0. -1.
</event>
<event>
 4    1  0.5143956E-004  0.6500000E+04  0.7818608E-02  0.7223770E-01
         52   -1    0    0    0    0  0.00000000000E+00  0.00000000000E+00  0.64930732323E+04  0.65000000000E+04  0.30000000000E+03 0. -1.
        -52   -1    0    0    0    0 -0.00000000000E+00 -0.00000000000E+00 -0.64930732323E+04  0.65000000000E+04  0.30000000000E+03 0.  1.
     100001    1    1    2    0    0  0.26893542895E+04  0.20596439519E+04 -0.55455017849E+04  0.65000000000E+04  0.15050000000E+03 0.  1.
     100001    1    1    2    0    0 -0.26893542895E+04 -0.20596439519E+04  0.55455017849E+04  0.65000000000E+04  0.15050000000E+03 0. -1.
</event>
<event>
 4    1  0.5143956E-004  0.6500000E+04  0.7818608E-02  0.7223770E-01
         52   -1    0    0    0    0  0.00000000000E+00  0.00000000000E+00  0.64930732323E+04  0.65000000000E+04  0.30000000000E+03 0. -1.
        -52   -1    0    0    0    0 -0.00000000000E+00 -0.00000000000E+00 -0.64930732323E+04  0.65000000000E+04  0.30000000000E+03 0.  1.
     100001    1    1    2    0    0  0.25880514084E+03  0.27941472284E+03 -0.64870869473E+04  0.65000000000E+04  0.15050000000E+03 0.  1.
     100001    1    1    2    0    0 -0.25880514084E+03 -0.27941472284E+03  0.64870869473E+04  0.65000000000E+04  0.15050000000E+03 0. -1.
</event>
<event>
 4    1  0.5143956E-004  0.6500000E+04  0.7818608E-02  0.7223770E-01
         52   -1    0    0    0    0  0.00000000000E+00  0.00000000000E+00  0.64930732323E+04  0.65000000000E+04  0.30000000000E+03 0.  1.
        -52   -1    0    0    0    0 -0.00000000000E+00 -0.00000000000E+00 -0.64930732323E+04  0.65000000000E+04  0.30000000000E+03 0. -1.
     100001    1    1    2    0    0  0.65565610319E+03 -0.40150309810E+04  0.50672468902E+04  0.65000000000E+04  0.15050000000E+03 0.  1.
     100001    1    1    2    0    0 -0.65565610319E+03  0.40150309810E+04 -0.50672468902E+04  0.65000000000E+04  0.15050000000E+03 0. -1.
</event>
<event>
 4    1  0.5143956E-004  0.6500000E+04  0.7818608E-02  0.7223770E-01
         52   -1    0    0    0    0  0.00000000000E+00  0.00000000000E+00  0.64930732323E+04  0.65000000000E+04  0.30000000000E+03 0. -1.
        -52   -1    0    0    0    0 -0.00000000000E+00 -0.00000000000E+00 -0.64930732323E+04  0.65000000000E+04  0.30000000000E+03 0. -1.
     100001    1    1    2    0    0  0.39425373014E+03 -0.18647220429E+03 -0.64836056221E+04  0.65000000000E+04  0.15050000000E+03 0. -1.
     100001    1    1    2    0    0 -0.39425373014E+03  0.18647220429E+03  0.64836056221E+04  0.65000000000E+04  0.15050000000E+03 0. -1.
</event>
<event>
 4    1  0.5143956E-004  0.6500000E+04  0.7818608E-02  0.7223770E-01
         52   -1    0    0    0    0  0.00000000000E+00  0.00000000000E+00  0.64930732323E+04  0.65000000000E+04  0.30000000000E+03 0. -1.
        -52   -1    0    0    0    0 -0.00000000000E+00 -0.00000000000E+00 -0.64930732323E+04  0.65000000000E+04  0.30000000000E+03 0.  1.
     100001    1    1    2    0    0 -0.14032117863E+03 -0.13571460761E+04  0.63534096551E+04  0.65000000000E+04  0.15050000000E+03 0. -1.
     100001    1    1    2    0    0  0.14032117863E+03  0.13571460761E+04 -0.63534096551E+04  0.65000000000E+04  0.15050000000E+03 0.  1.
</event>
<event>
 4    1  0.5143956E-004  0.6500000E+04  0.7818608E-02  0.7223770E-01
         52   -1    0    0    0    0  0.00000000000E+00  0.00000000000E+00  0.64930732323E+04  0.65000000000E+04  0.30000000000E+03 0.  1.
        -52   -1    0    0    0    0 -0.00000000000E+00 -0.00000000000E+00 -0.64930732323E+04  0.65000000000E+04  0.30000000000E+03 0. -1.
     100001    1    1    2    0    0 -0.99000561559E+03 -0.38044027219E+03  0.64111234453E+04  0.65000000000E+04  0.15050000000E+03 0.  1.
     100001    1    1    2    0    0  0.99000561559E+03  0.38044027219E+03 -0.64111234453E+04  0.65000000000E+04  0.15050000000E+03 0. -1.
</event>
<event>
 4    1  0.5143956E-004  0.6500000E+04  0.7818608E-02  0.7223770E-01
         52   -1    0    0    0    0  0.00000000000E+00  0.00000000000E+00  0.64930732323E+04  0.65000000000E+04  0.30000000000E+03 0.  1.
        -52   -1    0    0    0    0 -0.00000000000E+00 -0.00000000000E+00 -0.64930732323E+04  0.65000000000E+04  0.30000000000E+03 0. -1.
     100001    1    1    2    0    0  0.12713964849E+04 -0.38295345305E+04 -0.50936790248E+04  0.65000000000E+04  0.15050000000E+03 0. -1.
     100001    1    1    2    0    0 -0.12713964849E+04  0.38295345305E+04  0.50936790248E+04  0.65000000000E+04  0.15050000000E+03 0.  1.
</event>
<event>
 4    1  0.5143956E-004  0.6500000E+04  0.7818608E-02  0.7223770E-01
         52   -1    0    0    0    0  0.00000000000E+00  0.00000000000E+00  0.64930732323E+04  0.65000000000E+04  0.30000000000E+03 0.  1.
        -52   -1    0    0    0    0 -0.00000000000E+00 -0.00000000000E+00 -0.64930732323E+04  0.65000000000E+04  0.30000000000E+03 0. -1.
     100001    1    1    2    0    0  0.39010426172E+03 -0.16822892901E+04 -0.62645886664E+04  0.65000000000E+04  0.15050000000E+03 0. -1.
     100001    1    1    2    0    0 -0.39010426172E+03  0.16822892901E+04  0.62645886664E+04  0.65000000000E+04  0.15050000000E+03 0.  1.
</event>
<event>
 4    1  0.6374559E-004  0.6500000E+04  0.7818608E-02  0.7223770E-01
         52   -1    0    0    0    0  0.00000000000E+00  0.00000000000E+00  0.64930732323E+04  0.65000000000E+04  0.30000000000E+03 0.  1.
        -52   -1    0    0    0    0 -0.00000000000E+00 -0.00000000000E+00 -0.64930732323E+04  0.65000000000E+04  0.30000000000E+03 0. -1.
     100001    1    1    2    0    0 -0.13895483338E+03  0.18822023720E+03  0.64940445368E+04  0.65000000000E+04  0.15050000000E+03 0.  1.
     100001    1    1    2    0    0  0.13895483338E+03 -0.18822023720E+03 -0.64940445368E+04  0.65000000000E+04  0.15050000000E+03 0. -1.
</event>
<event>
 4    1  0.5143956E-004  0.6500000E+04  0.7818608E-02  0.7223770E-01
         52   -1    0    0    0    0  0.00000000000E+00  0.00000000000E+00  0.64930732323E+04  0.65000000000E+04  0.30000000000E+03 0.  1.
        -52   -1    0    0    0    0 -0.00000000000E+00 -0.00000000000E+00 -0.64930732323E+04  0.65000000000E+04  0.30000000000E+03 0. -1.
     100001    1    1    2    0    0  0.13724694152E+04  0.33598410963E+04 -0.53902824845E+04  0.65000000000E+04  0.15050000000E+03 0. -1.
     100001    1    1    2    0    0 -0.13724694152E+04 -0.33598410963E+04  0.53902824845E+04  0.65000000000E+04  0.15050000000E+03 0.  1.
</event>
<event>
 4    1  0.5143956E-004  0.6500000E+04  0.7818608E-02  0.7223770E-01
         52   -1    0    0    0    0  0.00000000000E+00  0.00000000000E+00  0.64930732323E+04  0.65000000000E+04  0.30000000000E+03 0.  1.
        -52   -1    0    0    0    0 -0.00000000000E+00 -0.00000000000E+00 -0.64930732323E+04  0.65000000000E+04  0.30000000000E+03 0.  1.
     100001    1    1    2    0    0 -0.57510279252E+03 -0.13653841889E+04  0.63271109161E+04  0.65000000000E+04  0.15050000000E+03 0.  1.
     100001    1    1    2    0    0  0.57510279252E+03  0.13653841889E+04 -0.63271109161E+04  0.65000000000E+04  0.15050000000E+03 0.  1.
</event>
<event>
 4    1  0.5143956E-004  0.6500000E+04  0.7818608E-02  0.7223770E-01
         52   -1    0    0    0    0  0.00000000000E+00  0.00000000000E+00  0.64930732323E+04  0.65000000000E+04  0.30000000000E+03 0.  1.
        -52   -1    0    0    0    0 -0.00000000000E+00 -0.00000000000E+00 -0.64930732323E+04  0.65000000000E+04  0.30000000000E+03 0. -1.
     100001    1    1    2    0    0 -0.48035663978E+03 -0.19994733147E+02  0.64804480909E+04  0.65000000000E+04  0.15050000000E+03 0.  1.
     100001    1    1    2    0    0  0.48035663978E+03  0.19994733147E+02 -0.64804480909E+04  0.65000000000E+04  0.15050000000E+03 0. -1.
</event>
<event>
 4    1  0.5143956E-004  0.6500000E+04  0.7818608E-02  0.7223770E-01
         52   -1    0    0    0    0  0.00000000000E+00  0.00000000000E+00  0.64930732323E+04  0.65000000000E+04  0.30000000000E+03 0.  1.
        -52   -1    0    0    0    0 -0.00000000000E+00 -0.00000000000E+00 -0.64930732323E+04  0.65000000000E+04  0.30000000000E+03 0. -1.
     100001    1    1    2    0    0  0.68955517935E+03  0.72927089552E+03 -0.64202824989E+04  0.65000000000E+04  0.15050000000E+03 0. -1.
     100001    1    1    2    0    0 -0.68955517935E+03 -0.72927089552E+03  0.64202824989E+04  0.65000000000E+04  0.15050000000E+03 0.  1.
</event>
<event>
 4    1  0.5143956E-004  0.6500000E+04  0.7818608E-02  0.7223770E-01
         52   -1    0    0    0    0  0.00000000000E+00  0.00000000000E+00  0.64930732323E+04  0.65000000000E+04  0.30000000000E+03 0.  1.
        -52   -1    0    0    0    0 -0.00000000000E+00 -0.00000000000E+00 -0.64930732323E+04  0.65000000000E+04  0.30000000000E+03 0. -1.
     100001    1    1    2    0    0  0.31222753031E+03  0.10744872853E+03  0.64898627482E+04  0.65000000000E+04  0.15050000000E+03 0.  1.
     100001    1    1    2    0    0 -0.31222753031E+03 -0.10744872853E+03 -0.64898627482E+04  0.65000000000E+04  0.15050000000E+03 0. -1.
</event>
<event>
 4    1  0.5143956E-004  0.6500000E+04  0.7818608E-02  0.7223770E-01
         52   -1    0    0    0    0  0.00000000000E+00  0.00000000000E+00  0.64930732323E+04  0.65000000000E+04  0.30000000000E+03 0.  1.
        -52   -1    0    0    0    0 -0.00000000000E+00 -0.00000000000E+00 -0.64930732323E+04  0.65000000000E+04  0.30000000000E+03 0. -1.
     100001    1    1    2    0    0 -0.18412283947E+04 -0.19320198868E+04  0.59249073331E+04  0.65000000000E+04  0.15050000000E+03 0.  1.
     100001    1    1    2    0    0  0.18412283947E+04  0.19320198868E+04 -0.59249073331E+04  0.65000000000E+04  0.15050000000E+03 0. -1.
</event>
<event>
 4    1  0.5143956E-004  0.6500000E+04  0.7818608E-02  0.7223770E-01
         52   -1    0    0    0    0  0.00000000000E+00  0.00000000000E+00  0.64930732323E+04  0.65000000000E+04  0.30000000000E+03 0. -1.
        -52   -1    0    0    0    0 -0.00000000000E+00 -0.00000000000E+00 -0.64930732323E+04  0.65000000000E+04  0.30000000000E+03 0.  1.
     100001    1    1    2    0    0  0.85927059156E+03  0.87004049567E+03 -0.63821652545E+04  0.65000000000E+04  0.15050000000E+03 0.  1.
     100001    1    1    2    0    0 -0.85927059156E+03 -0.87004049567E+03  0.63821652545E+04  0.65000000000E+04  0.15050000000E+03 0. -1.
</event>
<event>
 4    1  0.5143956E-004  0.6500000E+04  0.7818608E-02  0.7223770E-01
         52   -1    0    0    0    0  0.00000000000E+00  0.00000000000E+00  0.64930732323E+04  0.65000000000E+04  0.30000000000E+03 0.  1.
        -52   -1    0    0    0    0 -0.00000000000E+00 -0.00000000000E+00 -0.64930732323E+04  0.65000000000E+04  0.30000000000E+03 0. -1.
     100001    1    1    2    0    0  0.65218211781E+03  0.12556336990E+03  0.64642278793E+04  0.65000000000E+04  0.15050000000E+03 0.  1.
     100001    1    1    2    0    0 -0.65218211781E+03 -0.12556336990E+03 -0.64642278793E+04  0.65000000000E+04  0.15050000000E+03 0. -1.
</event>
<event>
 4    1  0.5143956E-004  0.6500000E+04  0.7818608E-02  0.7223770E-01
         52   -1    0    0    0    0  0.00000000000E+00  0.00000000000E+00  0.64930732323E+04  0.65000000000E+04  0.30000000000E+03 0.  1.
        -52   -1    0    0    0    0 -0.00000000000E+00 -0.00000000000E+00 -0.64930732323E+04  0.65000000000E+04  0.30000000000E+03 0. -1.
     100001    1    1    2    0    0  0.99307249832E+03  0.36222921274E+04  0.53028441903E+04  0.65000000000E+04  0.15050000000E+03 0.  1.
     100001    1    1    2    0    0 -0.99307249832E+03 -0.36222921274E+04 -0.53028441903E+04  0.65000000000E+04  0.15050000000E+03 0. -1.
</event>
<event>
 4    1  0.5143956E-004  0.6500000E+04  0.7818608E-02  0.7223770E-01
         52   -1    0    0    0    0  0.00000000000E+00  0.00000000000E+00  0.64930732323E+04  0.65000000000E+04  0.30000000000E+03 0. -1.
        -52   -1    0    0    0    0 -0.00000000000E+00 -0.00000000000E+00 -0.64930732323E+04  0.65000000000E+04  0.30000000000E+03 0.  1.
     100001    1    1    2    0    0  0.11671455105E+04 -0.77323232664E+03  0.63456467658E+04  0.65000000000E+04  0.15050000000E+03 0. -1.
     100001    1    1    2    0    0 -0.11671455105E+04  0.77323232664E+03 -0.63456467658E+04  0.65000000000E+04  0.15050000000E+03 0.  1.
</event>
<event>
 4    1  0.5143956E-004  0.6500000E+04  0.7818608E-02  0.7223770E-01
         52   -1    0    0    0    0  0.00000000000E+00  0.00000000000E+00  0.64930732323E+04  0.65000000000E+04  0.30000000000E+03 0.  1.
        -52   -1    0    0    0    0 -0.00000000000E+00 -0.00000000000E+00 -0.64930732323E+04  0.65000000000E+04  0.30000000000E+03 0. -1.
     100001    1    1    2    0    0 -0.64886017502E+03 -0.42068213848E+04 -0.49100900256E+04  0.65000000000E+04  0.15050000000E+03 0. -1.
     100001    1    1    2    0    0  0.64886017502E+03  0.42068213848E+04  0.49100900256E+04  0.65000000000E+04  0.15050000000E+03 0.  1.
</event>
<event>
 4    1  0.5143956E-004  0.6500000E+04  0.7818608E-02  0.7223770E-01
         52   -1    0    0    0    0  0.00000000000E+00  0.00000000000E+00  0.64930732323E+04  0.65000000000E+04  0.30000000000E+03 0.  1.
        -52   -1    0    0    0    0 -0.00000000000E+00 -0.00000000000E+00 -0.64930732323E+04  0.65000000000E+04  0.30000000000E+03 0. -1.
     100001    1    1    2    0    0  0.23123775034E+04 -0.39014531461E+04  0.46539148446E+04  0.65000000000E+04  0.15050000000E+03 0.  1.
     100001    1    1    2    0    0 -0.23123775034E+04  0.39014531461E+04 -0.46539148446E+04  0.65000000000E+04  0.15050000000E+03 0. -1.
</event>
<event>
 4    1  0.5143956E-004  0.6500000E+04  0.7818608E-02  0.7223770E-01
         52   -1    0    0    0    0  0.00000000000E+00  0.00000000000E+00  0.64930732323E+04  0.65000000000E+04  0.30000000000E+03 0. -1.
        -52   -1    0    0    0    0 -0.00000000000E+00 -0.00000000000E+00 -0.64930732323E+04  0.65000000000E+04  0.30000000000E+03 0.  1.
     100001    1    1    2    0    0  0.62753490759E+03  0.95434424798E+02 -0.64671819180E+04  0.65000000000E+04  0.15050000000E+03 0.  1.
     100001    1    1    2    0    0 -0.62753490759E+03 -0.95434424798E+02  0.64671819180E+04  0.65000000000E+04  0.15050000000E+03 0. -1.
</event>
<event>
 4    1  0.5143956E-004  0.6500000E+04  0.7818608E-02  0.7223770E-01
         52   -1    0    0    0    0  0.00000000000E+00  0.00000000000E+00  0.64930732323E+04  0.65000000000E+04  0.30000000000E+03 0. -1.
        -52   -1    0    0    0    0 -0.00000000000E+00 -0.00000000000E+00 -0.64930732323E+04  0.65000000000E+04  0.30000000000E+03 0.  1.
     100001    1    1    2    0    0  0.53250023664E+03 -0.10795018093E+04  0.63858021494E+04  0.65000000000E+04  0.15050000000E+03 0. -1.
     100001    1    1    2    0    0 -0.53250023664E+03  0.10795018093E+04 -0.63858021494E+04  0.65000000000E+04  0.15050000000E+03 0.  1.
</event>
<event>
 4    1  0.5143956E-004  0.6500000E+04  0.7818608E-02  0.7223770E-01
         52   -1    0    0    0    0  0.00000000000E+00  0.00000000000E+00  0.64930732323E+04  0.65000000000E+04  0.30000000000E+03 0. -1.
        -52   -1    0    0    0    0 -0.00000000000E+00 -0.00000000000E+00 -0.64930732323E+04  0.65000000000E+04  0.30000000000E+03 0.  1.
     100001    1    1    2    0    0 -0.43112411299E+03  0.15243962865E+03 -0.64821480937E+04  0.65000000000E+04  0.15050000000E+03 0.  1.
     100001    1    1    2    0    0  0.43112411299E+03 -0.15243962865E+03  0.64821480937E+04  0.65000000000E+04  0.15050000000E+03 0. -1.
</event>
<event>
 4    1  0.5143956E-004  0.6500000E+04  0.7818608E-02  0.7223770E-01
         52   -1    0    0    0    0  0.00000000000E+00  0.00000000000E+00  0.64930732323E+04  0.65000000000E+04  0.30000000000E+03 0. -1.
        -52   -1    0    0    0    0 -0.00000000000E+00 -0.00000000000E+00 -0.64930732323E+04  0.65000000000E+04  0.30000000000E+03 0.  1.
     100001    1    1    2    0    0  0.25065826545E+03 -0.18814283912E+03 -0.64906950673E+04  0.65000000000E+04  0.15050000000E+03 0.  1.
     100001    1    1    2    0    0 -0.25065826545E+03  0.18814283912E+03  0.64906950673E+04  0.65000000000E+04  0.15050000000E+03 0. -1.
</event>
<event>
 4    1  0.5143956E-004  0.6500000E+04  0.7818608E-02  0.7223770E-01
         52   -1    0    0    0    0  0.00000000000E+00  0.00000000000E+00  0.64930732323E+04  0.65000000000E+04  0.30000000000E+03 0. -1.
        -52   -1    0    0    0    0 -0.00000000000E+00 -0.00000000000E+00 -0.64930732323E+04  0.65000000000E+04  0.30000000000E+03 0.  1.
     100001    1    1    2    0    0 -0.18793105648E+04 -0.30246655152E+03 -0.62132161991E+04  0.65000000000E+04  0.15050000000E+03 0.  1.
     100001    1    1    2    0    0  0.18793105648E+04  0.30246655152E+03  0.62132161991E+04  0.65000000000E+04  0.15050000000E+03 0. -1.
</event>
<event>
 4    1  0.5143956E-004  0.6500000E+04  0.7818608E-02  0.7223770E-01
         52   -1    0    0    0    0  0.00000000000E+00  0.00000000000E+00  0.64930732323E+04  0.65000000000E+04  0.30000000000E+03 0.  1.
        -52   -1    0    0    0    0 -0.00000000000E+00 -0.00000000000E+00 -0.64930732323E+04  0.65000000000E+04  0.30000000000E+03 0.  1.
     100001    1    1    2    0    0 -0.34993669120E+03 -0.19785046524E+03 -0.64858113799E+04  0.65000000000E+04  0.15050000000E+03 0.  1.
     100001    1    1    2    0    0  0.34993669120E+03  0.19785046524E+03  0.64858113799E+04  0.65000000000E+04  0.15050000000E+03 0.  1.
</event>
<event>
 4    1  0.5143956E-004  0.6500000E+04  0.7818608E-02  0.7223770E-01
         52   -1    0    0    0    0  0.00000000000E+00  0.00000000000E+00  0.64930732323E+04  0.65000000000E+04  0.30000000000E+03 0.  1.
        -52   -1    0    0    0    0 -0.00000000000E+00 -0.00000000000E+00 -0.64930732323E+04  0.65000000000E+04  0.30000000000E+03 0. -1.
     100001    1    1    2    0    0 -0.82257675471E+01 -0.12142462268E+04 -0.63837988837E+04  0.65000000000E+04  0.15050000000E+03 0. -1.
     100001    1    1    2    0    0  0.82257675471E+01  0.12142462268E+04  0.63837988837E+04  0.65000000000E+04  0.15050000000E+03 0.  1.
</event>
<event>
 4    1  0.5143956E-004  0.6500000E+04  0.7818608E-02  0.7223770E-01
         52   -1    0    0    0    0  0.00000000000E+00  0.00000000000E+00  0.64930732323E+04  0.65000000000E+04  0.30000000000E+03 0. -1.
        -52   -1    0    0    0    0 -0.00000000000E+00 -0.00000000000E+00 -0.64930732323E+04  0.65000000000E+04  0.30000000000E+03 0.  1.
     100001    1    1    2    0    0  0.54960779667E+03 -0.83725564954E+03  0.64206139891E+04  0.65000000000E+04  0.15050000000E+03 0. -1.
     100001    1    1    2    0    0 -0.54960779667E+03  0.83725564954E+03 -0.64206139891E+04  0.65000000000E+04  0.15050000000E+03 0.  1.
</event>
<event>
 4    1  0.5143956E-004  0.6500000E+04  0.7818608E-02  0.7223770E-01
         52   -1    0    0    0    0  0.00000000000E+00  0.00000000000E+00  0.64930732323E+04  0.65000000000E+04  0.30000000000E+03 0.  1.
        -52   -1    0    0    0    0 -0.00000000000E+00 -0.00000000000E+00 -0.64930732323E+04  0.65000000000E+04  0.30000000000E+03 0. -1.
     100001    1    1    2    0    0  0.23725522952E+04 -0.44098285703E+04 -0.41414680171E+04  0.65000000000E+04  0.15050000000E+03 0. -1.
     100001    1    1    2    0    0 -0.23725522952E+04  0.44098285703E+04  0.41414680171E+04  0.65000000000E+04  0.15050000000E+03 0.  1.
</event>
<event>
 4    1  0.5143956E-004  0.6500000E+04  0.7818608E-02  0.7223770E-01
         52   -1    0    0    0    0  0.00000000000E+00  0.00000000000E+00  0.64930732323E+04  0.65000000000E+04  0.30000000000E+03 0.  1.
        -52   -1    0    0    0    0 -0.00000000000E+00 -0.00000000000E+00 -0.64930732323E+04  0.65000000000E+04  0.30000000000E+03 0. -1.
     100001    1    1    2    0    0  0.53750086888E+03 -0.35535214553E+03 -0.64662328615E+04  0.65000000000E+04  0.15050000000E+03 0. -1.
     100001    1    1    2    0    0 -0.53750086888E+03  0.35535214553E+03  0.64662328615E+04  0.65000000000E+04  0.15050000000E+03 0.  1.
</event>
<event>
 4    1  0.5143956E-004  0.6500000E+04  0.7818608E-02  0.7223770E-01
         52   -1    0    0    0    0  0.00000000000E+00  0.00000000000E+00  0.64930732323E+04  0.65000000000E+04  0.30000000000E+03 0. -1.
        -52   -1    0    0    0    0 -0.00000000000E+00 -0.00000000000E+00 -0.64930732323E+04  0.65000000000E+04  0.30000000000E+03 0.  1.
     100001    1    1    2    0    0 -0.42191301645E+03  0.56779145316E+02  0.64842975938E+04  0.65000000000E+04  0.15050000000E+03 0. -1.
     100001    1    1    2    0    0  0.42191301645E+03 -0.56779145316E+02 -0.64842975938E+04  0.65000000000E+04  0.15050000000E+03 0.  1.
</event>
<event>
 4    1  0.5143956E-004  0.6500000E+04  0.7818608E-02  0.7223770E-01
         52   -1    0    0    0    0  0.00000000000E+00  0.00000000000E+00  0.64930732323E+04  0.65000000000E+04  0.30000000000E+03 0.  1.
        -52   -1    0    0    0    0 -0.00000000000E+00 -0.00000000000E+00 -0.64930732323E+04  0.65000000000E+04  0.30000000000E+03 0. -1.
     100001    1    1    2    0    0  0.15594008563E+04 -0.34105619781E+04 -0.53069469295E+04  0.65000000000E+04  0.15050000000E+03 0. -1.
     100001    1    1    2    0    0 -0.15594008563E+04  0.34105619781E+04  0.53069469295E+04  0.65000000000E+04  0.15050000000E+03 0.  1.
</event>
<event>
 4    1  0.5143956E-004  0.6500000E+04  0.7818608E-02  0.7223770E-01
         52   -1    0    0    0    0  0.00000000000E+00  0.00000000000E+00  0.64930732323E+04  0.65000000000E+04  0.30000000000E+03 0.  1.
        -52   -1    0    0    0    0 -0.00000000000E+00 -0.00000000000E+00 -0.64930732323E+04  0.65000000000E+04  0.30000000000E+03 0. -1.
     100001    1    1    2    0    0  0.53884542743E+04 -0.23293672939E+04  0.27867469016E+04  0.65000000000E+04  0.15050000000E+03 0. -1.
     100001    1    1    2    0    0 -0.53884542743E+04  0.23293672939E+04 -0.27867469016E+04  0.65000000000E+04  0.15050000000E+03 0.  1.
</event>
<event>
 4    1  0.5143956E-004  0.6500000E+04  0.7818608E-02  0.7223770E-01
         52   -1    0    0    0    0  0.00000000000E+00  0.00000000000E+00  0.64930732323E+04  0.65000000000E+04  0.30000000000E+03 0. -1.
        -52   -1    0    0    0    0 -0.00000000000E+00 -0.00000000000E+00 -0.64930732323E+04  0.65000000000E+04  0.30000000000E+03 0.  1.
     100001    1    1    2    0    0 -0.31421471715E+04 -0.52245216453E+03 -0.56640360732E+04  0.65000000000E+04  0.15050000000E+03 0. -1.
     100001    1    1    2    0    0  0.31421471715E+04  0.52245216453E+03  0.56640360732E+04  0.65000000000E+04  0.15050000000E+03 0.  1.
</event>
<event>
 4    1  0.5143956E-004  0.6500000E+04  0.7818608E-02  0.7223770E-01
         52   -1    0    0    0    0  0.00000000000E+00  0.00000000000E+00  0.64930732323E+04  0.65000000000E+04  0.30000000000E+03 0.  1.
        -52   -1    0    0    0    0 -0.00000000000E+00 -0.00000000000E+00 -0.64930732323E+04  0.65000000000E+04  0.30000000000E+03 0. -1.
     100001    1    1    2    0    0 -0.21984498291E+04 -0.88830638162E+03 -0.60502132088E+04  0.65000000000E+04  0.15050000000E+03 0. -1.
     100001    1    1    2    0    0  0.21984498291E+04  0.88830638162E+03  0.60502132088E+04  0.65000000000E+04  0.15050000000E+03 0.  1.
</event>
<event>
 4    1  0.5143956E-004  0.6500000E+04  0.7818608E-02  0.7223770E-01
         52   -1    0    0    0    0  0.00000000000E+00  0.00000000000E+00  0.64930732323E+04  0.65000000000E+04  0.30000000000E+03 0. -1.
        -52   -1    0    0    0    0 -0.00000000000E+00 -0.00000000000E+00 -0.64930732323E+04  0.65000000000E+04  0.30000000000E+03 0. -1.
     100001    1    1    2    0    0  0.63710157026E+03  0.73767379394E+02 -0.64665299592E+04  0.65000000000E+04  0.15050000000E+03 0. -1.
     100001    1    1    2    0    0 -0.63710157026E+03 -0.73767379394E+02  0.64665299592E+04  0.65000000000E+04  0.15050000000E+03 0. -1.
</event>
<event>
 4    1  0.5143956E-004  0.6500000E+04  0.7818608E-02  0.7223770E-01
         52   -1    0    0    0    0  0.00000000000E+00  0.00000000000E+00  0.64930732323E+04  0.65000000000E+04  0.30000000000E+03 0.  1.
        -52   -1    0    0    0    0 -0.00000000000E+00 -0.00000000000E+00 -0.64930732323E+04  0.65000000000E+04  0.30000000000E+03 0. -1.
     100001    1    1    2    0    0 -0.12833534200E+04  0.78806775895E+03  0.63213371178E+04  0.65000000000E+04  0.15050000000E+03 0.  1.
     100001    1    1    2    0    0  0.12833534200E+04 -0.78806775895E+03 -0.63213371178E+04  0.65000000000E+04  0.15050000000E+03 0. -1.
</event>
<event>
 4    1  0.5143956E-004  0.6500000E+04  0.7818608E-02  0.7223770E-01
         52   -1    0    0    0    0  0.00000000000E+00  0.00000000000E+00  0.64930732323E+04  0.65000000000E+04  0.30000000000E+03 0.  1.
        -52   -1    0    0    0    0 -0.00000000000E+00 -0.00000000000E+00 -0.64930732323E+04  0.65000000000E+04  0.30000000000E+03 0. -1.
     100001    1    1    2    0    0  0.95381426684E+03 -0.18131470211E+03  0.64253181301E+04  0.65000000000E+04  0.15050000000E+03 0.  1.
     100001    1    1    2    0    0 -0.95381426684E+03  0.18131470211E+03 -0.64253181301E+04  0.65000000000E+04  0.15050000000E+03 0. -1.
</event>
<event>
 4    1  0.5143956E-004  0.6500000E+04  0.7818608E-02  0.7223770E-01
         52   -1    0    0    0    0  0.00000000000E+00  0.00000000000E+00  0.64930732323E+04  0.65000000000E+04  0.30000000000E+03 0.  1.
        -52   -1    0    0    0    0 -0.00000000000E+00 -0.00000000000E+00 -0.64930732323E+04  0.65000000000E+04  0.30000000000E+03 0. -1.
     100001    1    1    2    0    0  0.13864465440E+03 -0.20853861044E+03  0.64934304538E+04  0.65000000000E+04  0.15050000000E+03 0.  1.
     100001    1    1    2    0    0 -0.13864465440E+03  0.20853861044E+03 -0.64934304538E+04  0.65000000000E+04  0.15050000000E+03 0. -1.
</event>
<event>
 4    1  0.5143956E-004  0.6500000E+04  0.7818608E-02  0.7223770E-01
         52   -1    0    0    0    0  0.00000000000E+00  0.00000000000E+00  0.64930732323E+04  0.65000000000E+04  0.30000000000E+03 0. -1.
        -52   -1    0    0    0    0 -0.00000000000E+00 -0.00000000000E+00 -0.64930732323E+04  0.65000000000E+04  0.30000000000E+03 0.  1.
     100001    1    1    2    0    0  0.34437049640E+04 -0.47799473617E+03  0.54899696632E+04  0.65000000000E+04  0.15050000000E+03 0. -1.
     100001    1    1    2    0    0 -0.34437049640E+04  0.47799473617E+03 -0.54899696632E+04  0.65000000000E+04  0.15050000000E+03 0.  1.
</event>
<event>
 4    1  0.5143956E-004  0.6500000E+04  0.7818608E-02  0.7223770E-01
         52   -1    0    0    0    0  0.00000000000E+00  0.00000000000E+00  0.64930732323E+04  0.65000000000E+04  0.30000000000E+03 0. -1.
        -52   -1    0    0    0    0 -0.00000000000E+00 -0.00000000000E+00 -0.64930732323E+04  0.65000000000E+04  0.30000000000E+03 0.  1.
     100001    1    1    2    0    0  0.11083364559E+04  0.17814695624E+04  0.61502281461E+04  0.65000000000E+04  0.15050000000E+03 0. -1.
     100001    1    1    2    0    0 -0.11083364559E+04 -0.17814695624E+04 -0.61502281461E+04  0.65000000000E+04  0.15050000000E+03 0.  1.
</event>
<event>
 4    1  0.5143956E-004  0.6500000E+04  0.7818608E-02  0.7223770E-01
         52   -1    0    0    0    0  0.00000000000E+00  0.00000000000E+00  0.64930732323E+04  0.65000000000E+04  0.30000000000E+03 0. -1.
        -52   -1    0    0    0    0 -0.00000000000E+00 -0.00000000000E+00 -0.64930732323E+04  0.65000000000E+04  0.30000000000E+03 0.  1.
     100001    1    1    2    0    0  0.17658580331E+04 -0.42289448015E+03  0.62394114639E+04  0.65000000000E+04  0.15050000000E+03 0. -1.
     100001    1    1    2    0    0 -0.17658580331E+04  0.42289448015E+03 -0.62394114639E+04  0.65000000000E+04  0.15050000000E+03 0.  1.
</event>
<event>
 4    1  0.5143956E-004  0.6500000E+04  0.7818608E-02  0.7223770E-01
         52   -1    0    0    0    0  0.00000000000E+00  0.00000000000E+00  0.64930732323E+04  0.65000000000E+04  0.30000000000E+03 0. -1.
        -52   -1    0    0    0    0 -0.00000000000E+00 -0.00000000000E+00 -0.64930732323E+04  0.65000000000E+04  0.30000000000E+03 0.  1.
     100001    1    1    2    0    0 -0.12051464472E+04 -0.85389416983E+03  0.63281779793E+04  0.65000000000E+04  0.15050000000E+03 0. -1.
     100001    1    1    2    0    0  0.12051464472E+04  0.85389416983E+03 -0.63281779793E+04  0.65000000000E+04  0.15050000000E+03 0.  1.
</event>
<event>
 4    1  0.5143956E-004  0.6500000E+04  0.7818608E-02  0.7223770E-01
         52   -1    0    0    0    0  0.00000000000E+00  0.00000000000E+00  0.64930732323E+04  0.65000000000E+04  0.30000000000E+03 0. -1.
        -52   -1    0    0    0    0 -0.00000000000E+00 -0.00000000000E+00 -0.64930732323E+04  0.65000000000E+04  0.30000000000E+03 0.  1.
     100001    1    1    2    0    0  0.51506979712E+04  0.43879463288E+03 -0.39376540516E+04  0.65000000000E+04  0.15050000000E+03 0.  1.
     100001    1    1    2    0    0 -0.51506979712E+04 -0.43879463288E+03  0.39376540516E+04  0.65000000000E+04  0.15050000000E+03 0. -1.
</event>
<event>
 4    1  0.5143956E-004  0.6500000E+04  0.7818608E-02  0.7223770E-01
         52   -1    0    0    0    0  0.00000000000E+00  0.00000000000E+00  0.64930732323E+04  0.65000000000E+04  0.30000000000E+03 0.  1.
        -52   -1    0    0    0    0 -0.00000000000E+00 -0.00000000000E+00 -0.64930732323E+04  0.65000000000E+04  0.30000000000E+03 0. -1.
     100001    1    1    2    0    0 -0.12953550334E+04 -0.13199865875E+04  0.62295297171E+04  0.65000000000E+04  0.15050000000E+03 0.  1.
     100001    1    1    2    0    0  0.12953550334E+04  0.13199865875E+04 -0.62295297171E+04  0.65000000000E+04  0.15050000000E+03 0. -1.
</event>
<event>
 4    1  0.5143956E-004  0.6500000E+04  0.7818608E-02  0.7223770E-01
         52   -1    0    0    0    0  0.00000000000E+00  0.00000000000E+00  0.64930732323E+04  0.65000000000E+04  0.30000000000E+03 0. -1.
        -52   -1    0    0    0    0 -0.00000000000E+00 -0.00000000000E+00 -0.64930732323E+04  0.65000000000E+04  0.30000000000E+03 0. -1.
     100001    1    1    2    0    0  0.50244233890E+03 -0.36660902749E+03  0.64684232443E+04  0.65000000000E+04  0.15050000000E+03 0. -1.
     100001    1    1    2    0    0 -0.50244233890E+03  0.36660902749E+03 -0.64684232443E+04  0.65000000000E+04  0.15050000000E+03 0. -1.
</event>
<event>
 4    1  0.5143956E-004  0.6500000E+04  0.7818608E-02  0.7223770E-01
         52   -1    0    0    0    0  0.00000000000E+00  0.00000000000E+00  0.64930732323E+04  0.65000000000E+04  0.30000000000E+03 0.  1.
        -52   -1    0    0    0    0 -0.00000000000E+00 -0.00000000000E+00 -0.64930732323E+04  0.65000000000E+04  0.30000000000E+03 0. -1.
     100001    1    1    2    0    0 -0.46609903303E+03  0.12525391183E+04  0.63593432993E+04  0.65000000000E+04  0.15050000000E+03 0.  1.
     100001    1    1    2    0    0  0.46609903303E+03 -0.12525391183E+04 -0.63593432993E+04  0.65000000000E+04  0.15050000000E+03 0. -1.
</event>
<event>
 4    1  0.5143956E-004  0.6500000E+04  0.7818608E-02  0.7223770E-01
         52   -1    0    0    0    0  0.00000000000E+00  0.00000000000E+00  0.64930732323E+04  0.65000000000E+04  0.30000000000E+03 0.  1.
        -52   -1    0    0    0    0 -0.00000000000E+00 -0.00000000000E+00 -0.64930732323E+04  0.65000000000E+04  0.30000000000E+03 0.  1.
     100001    1    1    2    0    0  0.27856650015E+03 -0.34744761391E+03  0.64829800717E+04  0.65000000000E+04  0.15050000000E+03 0.  1.
     100001    1    1    2    0    0 -0.27856650015E+03  0.34744761391E+03 -0.64829800717E+04  0.65000000000E+04  0.15050000000E+03 0.  1.
</event>
<event>
 4    1  0.5143956E-004  0.6500000E+04  0.7818608E-02  0.7223770E-01
         52   -1    0    0    0    0  0.00000000000E+00  0.00000000000E+00  0.64930732323E+04  0.65000000000E+04  0.30000000000E+03 0. -1.
        -52   -1    0    0    0    0 -0.00000000000E+00 -0.00000000000E+00 -0.64930732323E+04  0.65000000000E+04  0.30000000000E+03 0.  1.
     100001    1    1    2    0    0  0.43475875717E+02  0.34465151478E+03  0.64889656288E+04  0.65000000000E+04  0.15050000000E+03 0. -1.
     100001    1    1    2    0    0 -0.43475875717E+02 -0.34465151478E+03 -0.64889656288E+04  0.65000000000E+04  0.15050000000E+03 0.  1.
</event>
<event>
 4    1  0.5143956E-004  0.6500000E+04  0.7818608E-02  0.7223770E-01
         52   -1    0    0    0    0  0.00000000000E+00  0.00000000000E+00  0.64930732323E+04  0.65000000000E+04  0.30000000000E+03 0.  1.
        -52   -1    0    0    0    0 -0.00000000000E+00 -0.00000000000E+00 -0.64930732323E+04  0.65000000000E+04  0.30000000000E+03 0. -1.
     100001    1    1    2    0    0 -0.86664341204E+03 -0.11774131272E+04 -0.63316646527E+04  0.65000000000E+04  0.15050000000E+03 0. -1.
     100001    1    1    2    0    0  0.86664341204E+03  0.11774131272E+04  0.63316646527E+04  0.65000000000E+04  0.15050000000E+03 0.  1.
</event>
<event>
 4    1  0.5143956E-004  0.6500000E+04  0.7818608E-02  0.7223770E-01
         52   -1    0    0    0    0  0.00000000000E+00  0.00000000000E+00  0.64930732323E+04  0.65000000000E+04  0.30000000000E+03 0.  1.
        -52   -1    0    0    0    0 -0.00000000000E+00 -0.00000000000E+00 -0.64930732323E+04  0.65000000000E+04  0.30000000000E+03 0. -1.
     100001    1    1    2    0    0  0.40929118340E+04  0.38364728209E+04  0.32797711450E+04  0.65000000000E+04  0.15050000000E+03 0.  1.
     100001    1    1    2    0    0 -0.40929118340E+04 -0.38364728209E+04 -0.32797711450E+04  0.65000000000E+04  0.15050000000E+03 0. -1.
</event>
<event>
 4    1  0.5143956E-004  0.6500000E+04  0.7818608E-02  0.7223770E-01
         52   -1    0    0    0    0  0.00000000000E+00  0.00000000000E+00  0.64930732323E+04  0.65000000000E+04  0.30000000000E+03 0. -1.
        -52   -1    0    0    0    0 -0.00000000000E+00 -0.00000000000E+00 -0.64930732323E+04  0.65000000000E+04  0.30000000000E+03 0.  1.
     100001    1    1    2    0    0 -0.76699470309E+03  0.61268248868E+03  0.64236818915E+04  0.65000000000E+04  0.15050000000E+03 0. -1.
     100001    1    1    2    0    0  0.76699470309E+03 -0.61268248868E+03 -0.64236818915E+04  0.65000000000E+04  0.15050000000E+03 0.  1.
</event>
<event>
 4    1  0.5143956E-004  0.6500000E+04  0.7818608E-02  0.7223770E-01
         52   -1    0    0    0    0  0.00000000000E+00  0.00000000000E+00  0.64930732323E+04  0.65000000000E+04  0.30000000000E+03 0.  1.
        -52   -1    0    0    0    0 -0.00000000000E+00 -0.00000000000E+00 -0.64930732323E+04  0.65000000000E+04  0.30000000000E+03 0.  1.
     100001    1    1    2    0    0 -0.34124128282E+03  0.76174788612E+02 -0.64888443916E+04  0.65000000000E+04  0.15050000000E+03 0.  1.
     100001    1    1    2    0    0  0.34124128282E+03 -0.76174788612E+02  0.64888443916E+04  0.65000000000E+04  0.15050000000E+03 0.  1.
</event>
<event>
 4    1  0.5143956E-004  0.6500000E+04  0.7818608E-02  0.7223770E-01
         52   -1    0    0    0    0  0.00000000000E+00  0.00000000000E+00  0.64930732323E+04  0.65000000000E+04  0.30000000000E+03 0.  1.
        -52   -1    0    0    0    0 -0.00000000000E+00 -0.00000000000E+00 -0.64930732323E+04  0.65000000000E+04  0.30000000000E+03 0.  1.
     100001    1    1    2    0    0 -0.38124491236E+03  0.79253343768E+02 -0.64865800677E+04  0.65000000000E+04  0.15050000000E+03 0.  1.
     100001    1    1    2    0    0  0.38124491236E+03 -0.79253343768E+02  0.64865800677E+04  0.65000000000E+04  0.15050000000E+03 0.  1.
</event>
<event>
 4    1  0.5143956E-004  0.6500000E+04  0.7818608E-02  0.7223770E-01
         52   -1    0    0    0    0  0.00000000000E+00  0.00000000000E+00  0.64930732323E+04  0.65000000000E+04  0.30000000000E+03 0. -1.
        -52   -1    0    0    0    0 -0.00000000000E+00 -0.00000000000E+00 -0.64930732323E+04  0.65000000000E+04  0.30000000000E+03 0.  1.
     100001    1    1    2    0    0 -0.58678279878E+04 -0.22769510868E+04 -0.16159944938E+04  0.65000000000E+04  0.15050000000E+03 0.  1.
     100001    1    1    2    0    0  0.58678279878E+04  0.22769510868E+04  0.16159944938E+04  0.65000000000E+04  0.15050000000E+03 0. -1.
</event>
<event>
 4    1  0.5143956E-004  0.6500000E+04  0.7818608E-02  0.7223770E-01
         52   -1    0    0    0    0  0.00000000000E+00  0.00000000000E+00  0.64930732323E+04  0.65000000000E+04  0.30000000000E+03 0. -1.
        -52   -1    0    0    0    0 -0.00000000000E+00 -0.00000000000E+00 -0.64930732323E+04  0.65000000000E+04  0.30000000000E+03 0.  1.
     100001    1    1    2    0    0  0.15309785730E+04  0.16100004486E+04 -0.61066646309E+04  0.65000000000E+04  0.15050000000E+03 0.  1.
     100001    1    1    2    0    0 -0.15309785730E+04 -0.16100004486E+04  0.61066646309E+04  0.65000000000E+04  0.15050000000E+03 0. -1.
</event>
<event>
 4    1  0.5143956E-004  0.6500000E+04  0.7818608E-02  0.7223770E-01
         52   -1    0    0    0    0  0.00000000000E+00  0.00000000000E+00  0.64930732323E+04  0.65000000000E+04  0.30000000000E+03 0.  1.
        -52   -1    0    0    0    0 -0.00000000000E+00 -0.00000000000E+00 -0.64930732323E+04  0.65000000000E+04  0.30000000000E+03 0. -1.
     100001    1    1    2    0    0  0.11773900312E+04 -0.58837756981E+03 -0.63635614478E+04  0.65000000000E+04  0.15050000000E+03 0. -1.
     100001    1    1    2    0    0 -0.11773900312E+04  0.58837756981E+03  0.63635614478E+04  0.65000000000E+04  0.15050000000E+03 0.  1.
</event>
<event>
 4    1  0.6436045E-004  0.6500000E+04  0.7818608E-02  0.7223770E-01
         52   -1    0    0    0    0  0.00000000000E+00  0.00000000000E+00  0.64930732323E+04  0.65000000000E+04  0.30000000000E+03 0. -1.
        -52   -1    0    0    0    0 -0.00000000000E+00 -0.00000000000E+00 -0.64930732323E+04  0.65000000000E+04  0.30000000000E+03 0. -1.
     100001    1    1    2    0    0  0.43238599529E+02  0.16828708665E+03 -0.64959340845E+04  0.65000000000E+04  0.15050000000E+03 0. -1.
     100001    1    1    2    0    0 -0.43238599529E+02 -0.16828708665E+03  0.64959340845E+04  0.65000000000E+04  0.15050000000E+03 0. -1.
</event>
<event>
 4    1  0.5143956E-004  0.6500000E+04  0.7818608E-02  0.7223770E-01
         52   -1    0    0    0    0  0.00000000000E+00  0.00000000000E+00  0.64930732323E+04  0.65000000000E+04  0.30000000000E+03 0.  1.
        -52   -1    0    0    0    0 -0.00000000000E+00 -0.00000000000E+00 -0.64930732323E+04  0.65000000000E+04  0.30000000000E+03 0. -1.
     100001    1    1    2    0    0  0.10711777560E+04  0.99018354773E+03 -0.63324137978E+04  0.65000000000E+04  0.15050000000E+03 0. -1.
     100001    1    1    2    0    0 -0.10711777560E+04 -0.99018354773E+03  0.63324137978E+04  0.65000000000E+04  0.15050000000E+03 0.  1.
</event>
<event>
 4    1  0.5143956E-004  0.6500000E+04  0.7818608E-02  0.7223770E-01
         52   -1    0    0    0    0  0.00000000000E+00  0.00000000000E+00  0.64930732323E+04  0.65000000000E+04  0.30000000000E+03 0. -1.
        -52   -1    0    0    0    0 -0.00000000000E+00 -0.00000000000E+00 -0.64930732323E+04  0.65000000000E+04  0.30000000000E+03 0.  1.
     100001    1    1    2    0    0  0.26190379304E+03  0.40275054801E+03 -0.64804743769E+04  0.65000000000E+04  0.15050000000E+03 0.  1.
     100001    1    1    2    0    0 -0.26190379304E+03 -0.40275054801E+03  0.64804743769E+04  0.65000000000E+04  0.15050000000E+03 0. -1.
</event>
<event>
 4    1  0.5143956E-004  0.6500000E+04  0.7818608E-02  0.7223770E-01
         52   -1    0    0    0    0  0.00000000000E+00  0.00000000000E+00  0.64930732323E+04  0.65000000000E+04  0.30000000000E+03 0. -1.
        -52   -1    0    0    0    0 -0.00000000000E+00 -0.00000000000E+00 -0.64930732323E+04  0.65000000000E+04  0.30000000000E+03 0.  1.
     100001    1    1    2    0    0 -0.12234369650E+04 -0.20910386449E+03  0.63786226818E+04  0.65000000000E+04  0.15050000000E+03 0. -1.
     100001    1    1    2    0    0  0.12234369650E+04  0.20910386449E+03 -0.63786226818E+04  0.65000000000E+04  0.15050000000E+03 0.  1.
</event>
<event>
 4    1  0.5143956E-004  0.6500000E+04  0.7818608E-02  0.7223770E-01
         52   -1    0    0    0    0  0.00000000000E+00  0.00000000000E+00  0.64930732323E+04  0.65000000000E+04  0.30000000000E+03 0.  1.
        -52   -1    0    0    0    0 -0.00000000000E+00 -0.00000000000E+00 -0.64930732323E+04  0.65000000000E+04  0.30000000000E+03 0. -1.
     100001    1    1    2    0    0  0.28803632143E+03  0.14916203499E+03  0.64901568174E+04  0.65000000000E+04  0.15050000000E+03 0.  1.
     100001    1    1    2    0    0 -0.28803632143E+03 -0.14916203499E+03 -0.64901568174E+04  0.65000000000E+04  0.15050000000E+03 0. -1.
</event>
<event>
 4    1  0.5143956E-004  0.6500000E+04  0.7818608E-02  0.7223770E-01
         52   -1    0    0    0    0  0.00000000000E+00  0.00000000000E+00  0.64930732323E+04  0.65000000000E+04  0.30000000000E+03 0.  1.
        -52   -1    0    0    0    0 -0.00000000000E+00 -0.00000000000E+00 -0.64930732323E+04  0.65000000000E+04  0.30000000000E+03 0. -1.
     100001    1    1    2    0    0  0.13413876208E+04 -0.53734446891E+04 -0.33991353568E+04  0.65000000000E+04  0.15050000000E+03 0. -1.
     100001    1    1    2    0    0 -0.13413876208E+04  0.53734446891E+04  0.33991353568E+04  0.65000000000E+04  0.15050000000E+03 0.  1.
</event>
<event>
 4    1  0.5143956E-004  0.6500000E+04  0.7818608E-02  0.7223770E-01
         52   -1    0    0    0    0  0.00000000000E+00  0.00000000000E+00  0.64930732323E+04  0.65000000000E+04  0.30000000000E+03 0. -1.
        -52   -1    0    0    0    0 -0.00000000000E+00 -0.00000000000E+00 -0.64930732323E+04  0.65000000000E+04  0.30000000000E+03 0.  1.
     100001    1    1    2    0    0 -0.16999133785E+04  0.11036883535E+04 -0.61741004425E+04  0.65000000000E+04  0.15050000000E+03 0.  1.
     100001    1    1    2    0    0  0.16999133785E+04 -0.11036883535E+04  0.61741004425E+04  0.65000000000E+04  0.15050000000E+03 0. -1.
</event>
<event>
 4    1  0.5143956E-004  0.6500000E+04  0.7818608E-02  0.7223770E-01
         52   -1    0    0    0    0  0.00000000000E+00  0.00000000000E+00  0.64930732323E+04  0.65000000000E+04  0.30000000000E+03 0. -1.
        -52   -1    0    0    0    0 -0.00000000000E+00 -0.00000000000E+00 -0.64930732323E+04  0.65000000000E+04  0.30000000000E+03 0.  1.
     100001    1    1    2    0    0  0.10933870533E+04  0.12256098362E+04  0.62872676920E+04  0.65000000000E+04  0.15050000000E+03 0. -1.
     100001    1    1    2    0    0 -0.10933870533E+04 -0.12256098362E+04 -0.62872676920E+04  0.65000000000E+04  0.15050000000E+03 0.  1.
</event>
<event>
 4    1  0.5143956E-004  0.6500000E+04  0.7818608E-02  0.7223770E-01
         52   -1    0    0    0    0  0.00000000000E+00  0.00000000000E+00  0.64930732323E+04  0.65000000000E+04  0.30000000000E+03 0.  1.
        -52   -1    0    0    0    0 -0.00000000000E+00 -0.00000000000E+00 -0.64930732323E+04  0.65000000000E+04  0.30000000000E+03 0. -1.
     100001    1    1    2    0    0  0.15749580987E+04  0.15597757052E+04 -0.61085150803E+04  0.65000000000E+04  0.15050000000E+03 0. -1.
     100001    1    1    2    0    0 -0.15749580987E+04 -0.15597757052E+04  0.61085150803E+04  0.65000000000E+04  0.15050000000E+03 0.  1.
</event>
<event>
 4    1  0.5143956E-004  0.6500000E+04  0.7818608E-02  0.7223770E-01
         52   -1    0    0    0    0  0.00000000000E+00  0.00000000000E+00  0.64930732323E+04  0.65000000000E+04  0.30000000000E+03 0.  1.
        -52   -1    0    0    0    0 -0.00000000000E+00 -0.00000000000E+00 -0.64930732323E+04  0.65000000000E+04  0.30000000000E+03 0. -1.
     100001    1    1    2    0    0  0.12855355040E+04  0.75705042313E+03 -0.63246836185E+04  0.65000000000E+04  0.15050000000E+03 0. -1.
     100001    1    1    2    0    0 -0.12855355040E+04 -0.75705042313E+03  0.63246836185E+04  0.65000000000E+04  0.15050000000E+03 0.  1.
</event>
<event>
 4    1  0.5143956E-004  0.6500000E+04  0.7818608E-02  0.7223770E-01
         52   -1    0    0    0    0  0.00000000000E+00  0.00000000000E+00  0.64930732323E+04  0.65000000000E+04  0.30000000000E+03 0.  1.
        -52   -1    0    0    0    0 -0.00000000000E+00 -0.00000000000E+00 -0.64930732323E+04  0.65000000000E+04  0.30000000000E+03 0. -1.
     100001    1    1    2    0    0 -0.22539709037E+03  0.10009180678E+03  0.64935758663E+04  0.65000000000E+04  0.15050000000E+03 0.  1.
     100001    1    1    2    0    0  0.22539709037E+03 -0.10009180678E+03 -0.64935758663E+04  0.65000000000E+04  0.15050000000E+03 0. -1.
</event>
<event>
 4    1  0.5143956E-004  0.6500000E+04  0.7818608E-02  0.7223770E-01
         52   -1    0    0    0    0  0.00000000000E+00  0.00000000000E+00  0.64930732323E+04  0.65000000000E+04  0.30000000000E+03 0.  1.
        -52   -1    0    0    0    0 -0.00000000000E+00 -0.00000000000E+00 -0.64930732323E+04  0.65000000000E+04  0.30000000000E+03 0. -1.
     100001    1    1    2    0    0  0.37739119479E+04  0.90521105209E+03 -0.52120563418E+04  0.65000000000E+04  0.15050000000E+03 0. -1.
     100001    1    1    2    0    0 -0.37739119479E+04 -0.90521105209E+03  0.52120563418E+04  0.65000000000E+04  0.15050000000E+03 0.  1.
</event>
<event>
 4    1  0.5143956E-004  0.6500000E+04  0.7818608E-02  0.7223770E-01
         52   -1    0    0    0    0  0.00000000000E+00  0.00000000000E+00  0.64930732323E+04  0.65000000000E+04  0.30000000000E+03 0. -1.
        -52   -1    0    0    0    0 -0.00000000000E+00 -0.00000000000E+00 -0.64930732323E+04  0.65000000000E+04  0.30000000000E+03 0.  1.
     100001    1    1    2    0    0  0.88855055310E+02  0.39996746305E+03  0.64853280995E+04  0.65000000000E+04  0.15050000000E+03 0. -1.
     100001    1    1    2    0    0 -0.88855055310E+02 -0.39996746305E+03 -0.64853280995E+04  0.65000000000E+04  0.15050000000E+03 0.  1.
</event>
<event>
 4    1  0.5143956E-004  0.6500000E+04  0.7818608E-02  0.7223770E-01
         52   -1    0    0    0    0  0.00000000000E+00  0.00000000000E+00  0.64930732323E+04  0.65000000000E+04  0.30000000000E+03 0. -1.
        -52   -1    0    0    0    0 -0.00000000000E+00 -0.00000000000E+00 -0.64930732323E+04  0.65000000000E+04  0.30000000000E+03 0. -1.
     100001    1    1    2    0    0  0.77423043430E+02  0.10364963970E+03 -0.64969694608E+04  0.65000000000E+04  0.15050000000E+03 0. -1.
     100001    1    1    2    0    0 -0.77423043430E+02 -0.10364963970E+03  0.64969694608E+04  0.65000000000E+04  0.15050000000E+03 0. -1.
</event>
<event>
 4    1  0.5143956E-004  0.6500000E+04  0.7818608E-02  0.7223770E-01
         52   -1    0    0    0    0  0.00000000000E+00  0.00000000000E+00  0.64930732323E+04  0.65000000000E+04  0.30000000000E+03 0.  1.
        -52   -1    0    0    0    0 -0.00000000000E+00 -0.00000000000E+00 -0.64930732323E+04  0.65000000000E+04  0.30000000000E+03 0. -1.
     100001    1    1    2    0    0  0.10378952401E+04 -0.40814680450E+04  0.49489131957E+04  0.65000000000E+04  0.15050000000E+03 0. -1.
     100001    1    1    2    0    0 -0.10378952401E+04  0.40814680450E+04 -0.49489131957E+04  0.65000000000E+04  0.15050000000E+03 0.  1.
</event>
<event>
 4    1  0.5143956E-004  0.6500000E+04  0.7818608E-02  0.7223770E-01
         52   -1    0    0    0    0  0.00000000000E+00  0.00000000000E+00  0.64930732323E+04  0.65000000000E+04  0.30000000000E+03 0. -1.
        -52   -1    0    0    0    0 -0.00000000000E+00 -0.00000000000E+00 -0.64930732323E+04  0.65000000000E+04  0.30000000000E+03 0.  1.
     100001    1    1    2    0    0  0.12301098076E+04  0.55992976171E+03  0.63561512154E+04  0.65000000000E+04  0.15050000000E+03 0. -1.
     100001    1    1    2    0    0 -0.12301098076E+04 -0.55992976171E+03 -0.63561512154E+04  0.65000000000E+04  0.15050000000E+03 0.  1.
</event>
<event>
 4    1  0.5143956E-004  0.6500000E+04  0.7818608E-02  0.7223770E-01
         52   -1    0    0    0    0  0.00000000000E+00  0.00000000000E+00  0.64930732323E+04  0.65000000000E+04  0.30000000000E+03 0. -1.
        -52   -1    0    0    0    0 -0.00000000000E+00 -0.00000000000E+00 -0.64930732323E+04  0.65000000000E+04  0.30000000000E+03 0.  1.
     100001    1    1    2    0    0  0.11601711142E+04  0.73417320520E+03  0.63515622047E+04  0.65000000000E+04  0.15050000000E+03 0. -1.
     100001    1    1    2    0    0 -0.11601711142E+04 -0.73417320520E+03 -0.63515622047E+04  0.65000000000E+04  0.15050000000E+03 0.  1.
</event>
<event>
 4    1  0.5143956E-004  0.6500000E+04  0.7818608E-02  0.7223770E-01
         52   -1    0    0    0    0  0.00000000000E+00  0.00000000000E+00  0.64930732323E+04  0.65000000000E+04  0.30000000000E+03 0. -1.
        -52   -1    0    0    0    0 -0.00000000000E+00 -0.00000000000E+00 -0.64930732323E+04  0.65000000000E+04  0.30000000000E+03 0.  1.
     100001    1    1    2    0    0  0.26283006675E+04 -0.20615339035E+04 -0.55739988622E+04  0.65000000000E+04  0.15050000000E+03 0.  1.
     100001    1    1    2    0    0 -0.26283006675E+04  0.20615339035E+04  0.55739988622E+04  0.65000000000E+04  0.15050000000E+03 0. -1.
</event>
<event>
 4    1  0.5143956E-004  0.6500000E+04  0.7818608E-02  0.7223770E-01
         52   -1    0    0    0    0  0.00000000000E+00  0.00000000000E+00  0.64930732323E+04  0.65000000000E+04  0.30000000000E+03 0.  1.
        -52   -1    0    0    0    0 -0.00000000000E+00 -0.00000000000E+00 -0.64930732323E+04  0.65000000000E+04  0.30000000000E+03 0. -1.
     100001    1    1    2    0    0  0.12481435564E+04  0.15002393463E+04  0.61982876116E+04  0.65000000000E+04  0.15050000000E+03 0.  1.
     100001    1    1    2    0    0 -0.12481435564E+04 -0.15002393463E+04 -0.61982876116E+04  0.65000000000E+04  0.15050000000E+03 0. -1.
</event>
<event>
 4    1  0.5143956E-004  0.6500000E+04  0.7818608E-02  0.7223770E-01
         52   -1    0    0    0    0  0.00000000000E+00  0.00000000000E+00  0.64930732323E+04  0.65000000000E+04  0.30000000000E+03 0. -1.
        -52   -1    0    0    0    0 -0.00000000000E+00 -0.00000000000E+00 -0.64930732323E+04  0.65000000000E+04  0.30000000000E+03 0.  1.
     100001    1    1    2    0    0 -0.65068881623E+03  0.11211809564E+04  0.63676453323E+04  0.65000000000E+04  0.15050000000E+03 0. -1.
     100001    1    1    2    0    0  0.65068881623E+03 -0.11211809564E+04 -0.63676453323E+04  0.65000000000E+04  0.15050000000E+03 0.  1.
</event>
<event>
 4    1  0.5143956E-004  0.6500000E+04  0.7818608E-02  0.7223770E-01
         52   -1    0    0    0    0  0.00000000000E+00  0.00000000000E+00  0.64930732323E+04  0.65000000000E+04  0.30000000000E+03 0.  1.
        -52   -1    0    0    0    0 -0.00000000000E+00 -0.00000000000E+00 -0.64930732323E+04  0.65000000000E+04  0.30000000000E+03 0. -1.
     100001    1    1    2    0    0 -0.16895623202E+04 -0.49299863828E+04 -0.38817474391E+04  0.65000000000E+04  0.15050000000E+03 0. -1.
     100001    1    1    2    0    0  0.16895623202E+04  0.49299863828E+04  0.38817474391E+04  0.65000000000E+04  0.15050000000E+03 0.  1.
</event>
<event>
 4    1  0.5143956E-004  0.6500000E+04  0.7818608E-02  0.7223770E-01
         52   -1    0    0    0    0  0.00000000000E+00  0.00000000000E+00  0.64930732323E+04  0.65000000000E+04  0.30000000000E+03 0. -1.
        -52   -1    0    0    0    0 -0.00000000000E+00 -0.00000000000E+00 -0.64930732323E+04  0.65000000000E+04  0.30000000000E+03 0.  1.
     100001    1    1    2    0    0  0.12172136658E+04 -0.40684705224E+03  0.63702602865E+04  0.65000000000E+04  0.15050000000E+03 0. -1.
     100001    1    1    2    0    0 -0.12172136658E+04  0.40684705224E+03 -0.63702602865E+04  0.65000000000E+04  0.15050000000E+03 0.  1.
</event>
<event>
 4    1  0.5143956E-004  0.6500000E+04  0.7818608E-02  0.7223770E-01
         52   -1    0    0    0    0  0.00000000000E+00  0.00000000000E+00  0.64930732323E+04  0.65000000000E+04  0.30000000000E+03 0.  1.
        -52   -1    0    0    0    0 -0.00000000000E+00 -0.00000000000E+00 -0.64930732323E+04  0.65000000000E+04  0.30000000000E+03 0.  1.
     100001    1    1    2    0    0  0.20879260494E+03  0.47973824851E+03 -0.64771603818E+04  0.65000000000E+04  0.15050000000E+03 0.  1.
     100001    1    1    2    0    0 -0.20879260494E+03 -0.47973824851E+03  0.64771603818E+04  0.65000000000E+04  0.15050000000E+03 0.  1.
</event>
<event>
 4    1  0.5143956E-004  0.6500000E+04  0.7818608E-02  0.7223770E-01
         52   -1    0    0    0    0  0.00000000000E+00  0.00000000000E+00  0.64930732323E+04  0.65000000000E+04  0.30000000000E+03 0. -1.
        -52   -1    0    0    0    0 -0.00000000000E+00 -0.00000000000E+00 -0.64930732323E+04  0.65000000000E+04  0.30000000000E+03 0.  1.
     100001    1    1    2    0    0 -0.11663207659E+04  0.12658174611E+04 -0.62661592524E+04  0.65000000000E+04  0.15050000000E+03 0.  1.
     100001    1    1    2    0    0  0.11663207659E+04 -0.12658174611E+04  0.62661592524E+04  0.65000000000E+04  0.15050000000E+03 0. -1.
</event>
<event>
 4    1  0.5143956E-004  0.6500000E+04  0.7818608E-02  0.7223770E-01
         52   -1    0    0    0    0  0.00000000000E+00  0.00000000000E+00  0.64930732323E+04  0.65000000000E+04  0.30000000000E+03 0.  1.
        -52   -1    0    0    0    0 -0.00000000000E+00 -0.00000000000E+00 -0.64930732323E+04  0.65000000000E+04  0.30000000000E+03 0. -1.
     100001    1    1    2    0    0 -0.84845665162E+03  0.28076665156E+02  0.64425680253E+04  0.65000000000E+04  0.15050000000E+03 0.  1.
     100001    1    1    2    0    0  0.84845665162E+03 -0.28076665156E+02 -0.64425680253E+04  0.65000000000E+04  0.15050000000E+03 0. -1.
</event>
<event>
 4    1  0.5143956E-004  0.6500000E+04  0.7818608E-02  0.7223770E-01
         52   -1    0    0    0    0  0.00000000000E+00  0.00000000000E+00  0.64930732323E+04  0.65000000000E+04  0.30000000000E+03 0.  1.
        -52   -1    0    0    0    0 -0.00000000000E+00 -0.00000000000E+00 -0.64930732323E+04  0.65000000000E+04  0.30000000000E+03 0. -1.
     100001    1    1    2    0    0  0.17319302209E+04 -0.30657651744E+04  0.54615795660E+04  0.65000000000E+04  0.15050000000E+03 0.  1.
     100001    1    1    2    0    0 -0.17319302209E+04  0.30657651744E+04 -0.54615795660E+04  0.65000000000E+04  0.15050000000E+03 0. -1.
</event>
<event>
 4    1  0.5143956E-004  0.6500000E+04  0.7818608E-02  0.7223770E-01
         52   -1    0    0    0    0  0.00000000000E+00  0.00000000000E+00  0.64930732323E+04  0.65000000000E+04  0.30000000000E+03 0. -1.
        -52   -1    0    0    0    0 -0.00000000000E+00 -0.00000000000E+00 -0.64930732323E+04  0.65000000000E+04  0.30000000000E+03 0.  1.
     100001    1    1    2    0    0 -0.48795891816E+03 -0.37023719329E+04  0.53180530191E+04  0.65000000000E+04  0.15050000000E+03 0. -1.
     100001    1    1    2    0    0  0.48795891816E+03  0.37023719329E+04 -0.53180530191E+04  0.65000000000E+04  0.15050000000E+03 0.  1.
</event>
<event>
 4    1  0.5143956E-004  0.6500000E+04  0.7818608E-02  0.7223770E-01
         52   -1    0    0    0    0  0.00000000000E+00  0.00000000000E+00  0.64930732323E+04  0.65000000000E+04  0.30000000000E+03 0. -1.
        -52   -1    0    0    0    0 -0.00000000000E+00 -0.00000000000E+00 -0.64930732323E+04  0.65000000000E+04  0.30000000000E+03 0.  1.
     100001    1    1    2    0    0  0.24612850090E+04  0.68373261568E+03 -0.59751096697E+04  0.65000000000E+04  0.15050000000E+03 0.  1.
     100001    1    1    2    0    0 -0.24612850090E+04 -0.68373261568E+03  0.59751096697E+04  0.65000000000E+04  0.15050000000E+03 0. -1.
</event>
<event>
 4    1  0.5143956E-004  0.6500000E+04  0.7818608E-02  0.7223770E-01
         52   -1    0    0    0    0  0.00000000000E+00  0.00000000000E+00  0.64930732323E+04  0.65000000000E+04  0.30000000000E+03 0. -1.
        -52   -1    0    0    0    0 -0.00000000000E+00 -0.00000000000E+00 -0.64930732323E+04  0.65000000000E+04  0.30000000000E+03 0.  1.
     100001    1    1    2    0    0 -0.30801462125E+03 -0.40216558791E+03 -0.64784828149E+04  0.65000000000E+04  0.15050000000E+03 0.  1.
     100001    1    1    2    0    0  0.30801462125E+03  0.40216558791E+03  0.64784828149E+04  0.65000000000E+04  0.15050000000E+03 0. -1.
</event>
<event>
 4    1  0.5143956E-004  0.6500000E+04  0.7818608E-02  0.7223770E-01
         52   -1    0    0    0    0  0.00000000000E+00  0.00000000000E+00  0.64930732323E+04  0.65000000000E+04  0.30000000000E+03 0.  1.
        -52   -1    0    0    0    0 -0.00000000000E+00 -0.00000000000E+00 -0.64930732323E+04  0.65000000000E+04  0.30000000000E+03 0. -1.
     100001    1    1    2    0    0 -0.11278151968E+04 -0.20691434370E+03  0.63962933865E+04  0.65000000000E+04  0.15050000000E+03 0.  1.
     100001    1    1    2    0    0  0.11278151968E+04  0.20691434370E+03 -0.63962933865E+04  0.65000000000E+04  0.15050000000E+03 0. -1.
</event>
<event>
 4    1  0.5143956E-004  0.6500000E+04  0.7818608E-02  0.7223770E-01
         52   -1    0    0    0    0  0.00000000000E+00  0.00000000000E+00  0.64930732323E+04  0.65000000000E+04  0.30000000000E+03 0. -1.
        -52   -1    0    0    0    0 -0.00000000000E+00 -0.00000000000E+00 -0.64930732323E+04  0.65000000000E+04  0.30000000000E+03 0.  1.
     100001    1    1    2    0    0  0.18632211977E+03 -0.78815267537E+03 -0.64475925102E+04  0.65000000000E+04  0.15050000000E+03 0.  1.
     100001    1    1    2    0    0 -0.18632211977E+03  0.78815267537E+03  0.64475925102E+04  0.65000000000E+04  0.15050000000E+03 0. -1.
</event>
<event>
 4    1  0.5143956E-004  0.6500000E+04  0.7818608E-02  0.7223770E-01
         52   -1    0    0    0    0  0.00000000000E+00  0.00000000000E+00  0.64930732323E+04  0.65000000000E+04  0.30000000000E+03 0.  1.
        -52   -1    0    0    0    0 -0.00000000000E+00 -0.00000000000E+00 -0.64930732323E+04  0.65000000000E+04  0.30000000000E+03 0. -1.
     100001    1    1    2    0    0  0.37231251646E+04 -0.20217759455E+04  0.49272822919E+04  0.65000000000E+04  0.15050000000E+03 0.  1.
     100001    1    1    2    0    0 -0.37231251646E+04  0.20217759455E+04 -0.49272822919E+04  0.65000000000E+04  0.15050000000E+03 0. -1.
</event>
<event>
 4    1  0.5143956E-004  0.6500000E+04  0.7818608E-02  0.7223770E-01
         52   -1    0    0    0    0  0.00000000000E+00  0.00000000000E+00  0.64930732323E+04  0.65000000000E+04  0.30000000000E+03 0. -1.
        -52   -1    0    0    0    0 -0.00000000000E+00 -0.00000000000E+00 -0.64930732323E+04  0.65000000000E+04  0.30000000000E+03 0.  1.
     100001    1    1    2    0    0  0.25854931648E+03  0.19541414034E+03 -0.64901706692E+04  0.65000000000E+04  0.15050000000E+03 0.  1.
     100001    1    1    2    0    0 -0.25854931648E+03 -0.19541414034E+03  0.64901706692E+04  0.65000000000E+04  0.15050000000E+03 0. -1.
</event>
<event>
 4    1  0.5143956E-004  0.6500000E+04  0.7818608E-02  0.7223770E-01
         52   -1    0    0    0    0  0.00000000000E+00  0.00000000000E+00  0.64930732323E+04  0.65000000000E+04  0.30000000000E+03 0.  1.
        -52   -1    0    0    0    0 -0.00000000000E+00 -0.00000000000E+00 -0.64930732323E+04  0.65000000000E+04  0.30000000000E+03 0. -1.
     100001    1    1    2    0    0  0.34227905918E+04 -0.34927509960E+04  0.42793159260E+04  0.65000000000E+04  0.15050000000E+03 0.  1.
     100001    1    1    2    0    0 -0.34227905918E+04  0.34927509960E+04 -0.42793159260E+04  0.65000000000E+04  0.15050000000E+03 0. -1.
</event>
<event>
 4    1  0.5143956E-004  0.6500000E+04  0.7818608E-02  0.7223770E-01
         52   -1    0    0    0    0  0.00000000000E+00  0.00000000000E+00  0.64930732323E+04  0.65000000000E+04  0.30000000000E+03 0.  1.
        -52   -1    0    0    0    0 -0.00000000000E+00 -0.00000000000E+00 -0.64930732323E+04  0.65000000000E+04  0.30000000000E+03 0.  1.
     100001    1    1    2    0    0 -0.12672856246E+03 -0.42953634400E+02 -0.64968796054E+04  0.65000000000E+04  0.15050000000E+03 0.  1.
     100001    1    1    2    0    0  0.12672856246E+03  0.42953634400E+02  0.64968796054E+04  0.65000000000E+04  0.15050000000E+03 0.  1.
</event>
<event>
 4    1  0.5143956E-004  0.6500000E+04  0.7818608E-02  0.7223770E-01
         52   -1    0    0    0    0  0.00000000000E+00  0.00000000000E+00  0.64930732323E+04  0.65000000000E+04  0.30000000000E+03 0. -1.
        -52   -1    0    0    0    0 -0.00000000000E+00 -0.00000000000E+00 -0.64930732323E+04  0.65000000000E+04  0.30000000000E+03 0.  1.
     100001    1    1    2    0    0 -0.49695504317E+03 -0.20305206345E+04 -0.61528344190E+04  0.65000000000E+04  0.15050000000E+03 0.  1.
     100001    1    1    2    0    0  0.49695504317E+03  0.20305206345E+04  0.61528344190E+04  0.65000000000E+04  0.15050000000E+03 0. -1.
</event>
<event>
 4    1  0.5143956E-004  0.6500000E+04  0.7818608E-02  0.7223770E-01
         52   -1    0    0    0    0  0.00000000000E+00  0.00000000000E+00  0.64930732323E+04  0.65000000000E+04  0.30000000000E+03 0. -1.
        -52   -1    0    0    0    0 -0.00000000000E+00 -0.00000000000E+00 -0.64930732323E+04  0.65000000000E+04  0.30000000000E+03 0.  1.
     100001    1    1    2    0    0  0.46928776582E+03 -0.19051561957E+04 -0.61949575150E+04  0.65000000000E+04  0.15050000000E+03 0.  1.
     100001    1    1    2    0    0 -0.46928776582E+03  0.19051561957E+04  0.61949575150E+04  0.65000000000E+04  0.15050000000E+03 0. -1.
</event>
<event>
 4    1  0.5143956E-004  0.6500000E+04  0.7818608E-02  0.7223770E-01
         52   -1    0    0    0    0  0.00000000000E+00  0.00000000000E+00  0.64930732323E+04  0.65000000000E+04  0.30000000000E+03 0. -1.
        -52   -1    0    0    0    0 -0.00000000000E+00 -0.00000000000E+00 -0.64930732323E+04  0.65000000000E+04  0.30000000000E+03 0.  1.
     100001    1    1    2    0    0 -0.84312427906E+03  0.61425886432E+04  0.19455323076E+04  0.65000000000E+04  0.15050000000E+03 0. -1.
     100001    1    1    2    0    0  0.84312427906E+03 -0.61425886432E+04 -0.19455323076E+04  0.65000000000E+04  0.15050000000E+03 0.  1.
</event>
<event>
 4    1  0.5143956E-004  0.6500000E+04  0.7818608E-02  0.7223770E-01
         52   -1    0    0    0    0  0.00000000000E+00  0.00000000000E+00  0.64930732323E+04  0.65000000000E+04  0.30000000000E+03 0.  1.
        -52   -1    0    0    0    0 -0.00000000000E+00 -0.00000000000E+00 -0.64930732323E+04  0.65000000000E+04  0.30000000000E+03 0. -1.
     100001    1    1    2    0    0  0.67289961779E+03 -0.53021146908E+04 -0.36962326307E+04  0.65000000000E+04  0.15050000000E+03 0. -1.
     100001    1    1    2    0    0 -0.67289961779E+03  0.53021146908E+04  0.36962326307E+04  0.65000000000E+04  0.15050000000E+03 0.  1.
</event>
<event>
 4    1  0.5143956E-004  0.6500000E+04  0.7818608E-02  0.7223770E-01
         52   -1    0    0    0    0  0.00000000000E+00  0.00000000000E+00  0.64930732323E+04  0.65000000000E+04  0.30000000000E+03 0. -1.
        -52   -1    0    0    0    0 -0.00000000000E+00 -0.00000000000E+00 -0.64930732323E+04  0.65000000000E+04  0.30000000000E+03 0.  1.
     100001    1    1    2    0    0 -0.21497768933E+04 -0.49321178003E+03 -0.61124914069E+04  0.65000000000E+04  0.15050000000E+03 0.  1.
     100001    1    1    2    0    0  0.21497768933E+04  0.49321178003E+03  0.61124914069E+04  0.65000000000E+04  0.15050000000E+03 0. -1.
</event>
<event>
 4    1  0.5143956E-004  0.6500000E+04  0.7818608E-02  0.7223770E-01
         52   -1    0    0    0    0  0.00000000000E+00  0.00000000000E+00  0.64930732323E+04  0.65000000000E+04  0.30000000000E+03 0. -1.
        -52   -1    0    0    0    0 -0.00000000000E+00 -0.00000000000E+00 -0.64930732323E+04  0.65000000000E+04  0.30000000000E+03 0.  1.
     100001    1    1    2    0    0 -0.34953634806E+04 -0.24134267713E+04 -0.49178404924E+04  0.65000000000E+04  0.15050000000E+03 0.  1.
     100001    1    1    2    0    0  0.34953634806E+04  0.24134267713E+04  0.49178404924E+04  0.65000000000E+04  0.15050000000E+03 0. -1.
</event>
<event>
 4    1  0.5143956E-004  0.6500000E+04  0.7818608E-02  0.7223770E-01
         52   -1    0    0    0    0  0.00000000000E+00  0.00000000000E+00  0.64930732323E+04  0.65000000000E+04  0.30000000000E+03 0. -1.
        -52   -1    0    0    0    0 -0.00000000000E+00 -0.00000000000E+00 -0.64930732323E+04  0.65000000000E+04  0.30000000000E+03 0.  1.
     100001    1    1    2    0    0  0.48880518501E+03  0.50147834538E+03 -0.64604131997E+04  0.65000000000E+04  0.15050000000E+03 0.  1.
     100001    1    1    2    0    0 -0.48880518501E+03 -0.50147834538E+03  0.64604131997E+04  0.65000000000E+04  0.15050000000E+03 0. -1.
</event>
<event>
 4    1  0.5143956E-004  0.6500000E+04  0.7818608E-02  0.7223770E-01
         52   -1    0    0    0    0  0.00000000000E+00  0.00000000000E+00  0.64930732323E+04  0.65000000000E+04  0.30000000000E+03 0.  1.
        -52   -1    0    0    0    0 -0.00000000000E+00 -0.00000000000E+00 -0.64930732323E+04  0.65000000000E+04  0.30000000000E+03 0.  1.
     100001    1    1    2    0    0  0.62098717839E+03  0.23464755389E+03  0.64642606073E+04  0.65000000000E+04  0.15050000000E+03 0.  1.
     100001    1    1    2    0    0 -0.62098717839E+03 -0.23464755389E+03 -0.64642606073E+04  0.65000000000E+04  0.15050000000E+03 0.  1.
</event>
<event>
 4    1  0.5143956E-004  0.6500000E+04  0.7818608E-02  0.7223770E-01
         52   -1    0    0    0    0  0.00000000000E+00  0.00000000000E+00  0.64930732323E+04  0.65000000000E+04  0.30000000000E+03 0. -1.
        -52   -1    0    0    0    0 -0.00000000000E+00 -0.00000000000E+00 -0.64930732323E+04  0.65000000000E+04  0.30000000000E+03 0.  1.
     100001    1    1    2    0    0  0.10900848584E+03 -0.56900360663E+03 -0.64723799174E+04  0.65000000000E+04  0.15050000000E+03 0.  1.
     100001    1    1    2    0    0 -0.10900848584E+03  0.56900360663E+03  0.64723799174E+04  0.65000000000E+04  0.15050000000E+03 0. -1.
</event>
<event>
 4    1  0.5143956E-004  0.6500000E+04  0.7818608E-02  0.7223770E-01
         52   -1    0    0    0    0  0.00000000000E+00  0.00000000000E+00  0.64930732323E+04  0.65000000000E+04  0.30000000000E+03 0. -1.
        -52   -1    0    0    0    0 -0.00000000000E+00 -0.00000000000E+00 -0.64930732323E+04  0.65000000000E+04  0.30000000000E+03 0. -1.
     100001    1    1    2    0    0 -0.18767308465E+03  0.27710618839E+03 -0.64896333274E+04  0.65000000000E+04  0.15050000000E+03 0. -1.
     100001    1    1    2    0    0  0.18767308465E+03 -0.27710618839E+03  0.64896333274E+04  0.65000000000E+04  0.15050000000E+03 0. -1.
</event>
<event>
 4    1  0.5143956E-004  0.6500000E+04  0.7818608E-02  0.7223770E-01
         52   -1    0    0    0    0  0.00000000000E+00  0.00000000000E+00  0.64930732323E+04  0.65000000000E+04  0.30000000000E+03 0.  1.
        -52   -1    0    0    0    0 -0.00000000000E+00 -0.00000000000E+00 -0.64930732323E+04  0.65000000000E+04  0.30000000000E+03 0. -1.
     100001    1    1    2    0    0 -0.62986112962E+03  0.12472349704E+04  0.63462610753E+04  0.65000000000E+04  0.15050000000E+03 0.  1.
     100001    1    1    2    0    0  0.62986112962E+03 -0.12472349704E+04 -0.63462610753E+04  0.65000000000E+04  0.15050000000E+03 0. -1.
</event>
<event>
 4    1  0.5143956E-004  0.6500000E+04  0.7818608E-02  0.7223770E-01
         52   -1    0    0    0    0  0.00000000000E+00  0.00000000000E+00  0.64930732323E+04  0.65000000000E+04  0.30000000000E+03 0. -1.
        -52   -1    0    0    0    0 -0.00000000000E+00 -0.00000000000E+00 -0.64930732323E+04  0.65000000000E+04  0.30000000000E+03 0. -1.
     100001    1    1    2    0    0 -0.40042106262E+03 -0.24745765010E+03  0.64811864218E+04  0.65000000000E+04  0.15050000000E+03 0. -1.
     100001    1    1    2    0    0  0.40042106262E+03  0.24745765010E+03 -0.64811864218E+04  0.65000000000E+04  0.15050000000E+03 0. -1.
</event>
<event>
 4    1  0.5143956E-004  0.6500000E+04  0.7818608E-02  0.7223770E-01
         52   -1    0    0    0    0  0.00000000000E+00  0.00000000000E+00  0.64930732323E+04  0.65000000000E+04  0.30000000000E+03 0. -1.
        -52   -1    0    0    0    0 -0.00000000000E+00 -0.00000000000E+00 -0.64930732323E+04  0.65000000000E+04  0.30000000000E+03 0.  1.
     100001    1    1    2    0    0  0.20528216344E+03  0.20409168339E+04  0.61660252562E+04  0.65000000000E+04  0.15050000000E+03 0. -1.
     100001    1    1    2    0    0 -0.20528216344E+03 -0.20409168339E+04 -0.61660252562E+04  0.65000000000E+04  0.15050000000E+03 0.  1.
</event>
<event>
 4    1  0.5143956E-004  0.6500000E+04  0.7818608E-02  0.7223770E-01
         52   -1    0    0    0    0  0.00000000000E+00  0.00000000000E+00  0.64930732323E+04  0.65000000000E+04  0.30000000000E+03 0.  1.
        -52   -1    0    0    0    0 -0.00000000000E+00 -0.00000000000E+00 -0.64930732323E+04  0.65000000000E+04  0.30000000000E+03 0. -1.
     100001    1    1    2    0    0  0.70029625460E+03 -0.39909184953E+04 -0.50803055489E+04  0.65000000000E+04  0.15050000000E+03 0. -1.
     100001    1    1    2    0    0 -0.70029625460E+03  0.39909184953E+04  0.50803055489E+04  0.65000000000E+04  0.15050000000E+03 0.  1.
</event>
<event>
 4    1  0.5143956E-004  0.6500000E+04  0.7818608E-02  0.7223770E-01
         52   -1    0    0    0    0  0.00000000000E+00  0.00000000000E+00  0.64930732323E+04  0.65000000000E+04  0.30000000000E+03 0. -1.
        -52   -1    0    0    0    0 -0.00000000000E+00 -0.00000000000E+00 -0.64930732323E+04  0.65000000000E+04  0.30000000000E+03 0.  1.
     100001    1    1    2    0    0  0.44717189042E+03 -0.36443149169E+03 -0.64726020068E+04  0.65000000000E+04  0.15050000000E+03 0.  1.
     100001    1    1    2    0    0 -0.44717189042E+03  0.36443149169E+03  0.64726020068E+04  0.65000000000E+04  0.15050000000E+03 0. -1.
</event>
<event>
 4    1  0.5143956E-004  0.6500000E+04  0.7818608E-02  0.7223770E-01
         52   -1    0    0    0    0  0.00000000000E+00  0.00000000000E+00  0.64930732323E+04  0.65000000000E+04  0.30000000000E+03 0. -1.
        -52   -1    0    0    0    0 -0.00000000000E+00 -0.00000000000E+00 -0.64930732323E+04  0.65000000000E+04  0.30000000000E+03 0.  1.
     100001    1    1    2    0    0 -0.35387193885E+04  0.12067905523E+04 -0.53149291060E+04  0.65000000000E+04  0.15050000000E+03 0.  1.
     100001    1    1    2    0    0  0.35387193885E+04 -0.12067905523E+04  0.53149291060E+04  0.65000000000E+04  0.15050000000E+03 0. -1.
</event>
<event>
 4    1  0.5143956E-004  0.6500000E+04  0.7818608E-02  0.7223770E-01
         52   -1    0    0    0    0  0.00000000000E+00  0.00000000000E+00  0.64930732323E+04  0.65000000000E+04  0.30000000000E+03 0.  1.
        -52   -1    0    0    0    0 -0.00000000000E+00 -0.00000000000E+00 -0.64930732323E+04  0.65000000000E+04  0.30000000000E+03 0. -1.
     100001    1    1    2    0    0  0.51826329722E+04  0.39144229804E+04  0.21203291230E+03  0.65000000000E+04  0.15050000000E+03 0. -1.
     100001    1    1    2    0    0 -0.51826329722E+04 -0.39144229804E+04 -0.21203291230E+03  0.65000000000E+04  0.15050000000E+03 0.  1.
</event>
<event>
 4    1  0.5143956E-004  0.6500000E+04  0.7818608E-02  0.7223770E-01
         52   -1    0    0    0    0  0.00000000000E+00  0.00000000000E+00  0.64930732323E+04  0.65000000000E+04  0.30000000000E+03 0. -1.
        -52   -1    0    0    0    0 -0.00000000000E+00 -0.00000000000E+00 -0.64930732323E+04  0.65000000000E+04  0.30000000000E+03 0. -1.
     100001    1    1    2    0    0  0.17518724037E+03  0.21158709693E+03 -0.64924486968E+04  0.65000000000E+04  0.15050000000E+03 0. -1.
     100001    1    1    2    0    0 -0.17518724037E+03 -0.21158709693E+03  0.64924486968E+04  0.65000000000E+04  0.15050000000E+03 0. -1.
</event>
<event>
 4    1  0.5143956E-004  0.6500000E+04  0.7818608E-02  0.7223770E-01
         52   -1    0    0    0    0  0.00000000000E+00  0.00000000000E+00  0.64930732323E+04  0.65000000000E+04  0.30000000000E+03 0. -1.
        -52   -1    0    0    0    0 -0.00000000000E+00 -0.00000000000E+00 -0.64930732323E+04  0.65000000000E+04  0.30000000000E+03 0.  1.
     100001    1    1    2    0    0 -0.11334248272E+04  0.86964931150E+03  0.63392750363E+04  0.65000000000E+04  0.15050000000E+03 0. -1.
     100001    1    1    2    0    0  0.11334248272E+04 -0.86964931150E+03 -0.63392750363E+04  0.65000000000E+04  0.15050000000E+03 0.  1.
</event>
<event>
 4    1  0.5143956E-004  0.6500000E+04  0.7818608E-02  0.7223770E-01
         52   -1    0    0    0    0  0.00000000000E+00  0.00000000000E+00  0.64930732323E+04  0.65000000000E+04  0.30000000000E+03 0.  1.
        -52   -1    0    0    0    0 -0.00000000000E+00 -0.00000000000E+00 -0.64930732323E+04  0.65000000000E+04  0.30000000000E+03 0. -1.
     100001    1    1    2    0    0  0.85376040797E+03 -0.54436648418E+03  0.64188868230E+04  0.65000000000E+04  0.15050000000E+03 0.  1.
     100001    1    1    2    0    0 -0.85376040797E+03  0.54436648418E+03 -0.64188868230E+04  0.65000000000E+04  0.15050000000E+03 0. -1.
</event>
<event>
 4    1  0.5143956E-004  0.6500000E+04  0.7818608E-02  0.7223770E-01
         52   -1    0    0    0    0  0.00000000000E+00  0.00000000000E+00  0.64930732323E+04  0.65000000000E+04  0.30000000000E+03 0. -1.
        -52   -1    0    0    0    0 -0.00000000000E+00 -0.00000000000E+00 -0.64930732323E+04  0.65000000000E+04  0.30000000000E+03 0.  1.
     100001    1    1    2    0    0  0.17723165434E+04 -0.16444483906E+03 -0.62497361316E+04  0.65000000000E+04  0.15050000000E+03 0.  1.
     100001    1    1    2    0    0 -0.17723165434E+04  0.16444483906E+03  0.62497361316E+04  0.65000000000E+04  0.15050000000E+03 0. -1.
</event>
<event>
 4    1  0.5143956E-004  0.6500000E+04  0.7818608E-02  0.7223770E-01
         52   -1    0    0    0    0  0.00000000000E+00  0.00000000000E+00  0.64930732323E+04  0.65000000000E+04  0.30000000000E+03 0. -1.
        -52   -1    0    0    0    0 -0.00000000000E+00 -0.00000000000E+00 -0.64930732323E+04  0.65000000000E+04  0.30000000000E+03 0.  1.
     100001    1    1    2    0    0 -0.58174832370E+03 -0.12736825808E+04 -0.63456009425E+04  0.65000000000E+04  0.15050000000E+03 0.  1.
     100001    1    1    2    0    0  0.58174832370E+03  0.12736825808E+04  0.63456009425E+04  0.65000000000E+04  0.15050000000E+03 0. -1.
</event>
<event>
 4    1  0.5143956E-004  0.6500000E+04  0.7818608E-02  0.7223770E-01
         52   -1    0    0    0    0  0.00000000000E+00  0.00000000000E+00  0.64930732323E+04  0.65000000000E+04  0.30000000000E+03 0.  1.
        -52   -1    0    0    0    0 -0.00000000000E+00 -0.00000000000E+00 -0.64930732323E+04  0.65000000000E+04  0.30000000000E+03 0. -1.
     100001    1    1    2    0    0  0.24694465458E+03  0.16602411563E+03  0.64914408324E+04  0.65000000000E+04  0.15050000000E+03 0.  1.
     100001    1    1    2    0    0 -0.24694465458E+03 -0.16602411563E+03 -0.64914408324E+04  0.65000000000E+04  0.15050000000E+03 0. -1.
</event>
<event>
 4    1  0.5143956E-004  0.6500000E+04  0.7818608E-02  0.7223770E-01
         52   -1    0    0    0    0  0.00000000000E+00  0.00000000000E+00  0.64930732323E+04  0.65000000000E+04  0.30000000000E+03 0. -1.
        -52   -1    0    0    0    0 -0.00000000000E+00 -0.00000000000E+00 -0.64930732323E+04  0.65000000000E+04  0.30000000000E+03 0.  1.
     100001    1    1    2    0    0 -0.79601755610E+03  0.46492932030E+03 -0.64325381093E+04  0.65000000000E+04  0.15050000000E+03 0.  1.
     100001    1    1    2    0    0  0.79601755610E+03 -0.46492932030E+03  0.64325381093E+04  0.65000000000E+04  0.15050000000E+03 0. -1.
</event>
<event>
 4    1  0.5143956E-004  0.6500000E+04  0.7818608E-02  0.7223770E-01
         52   -1    0    0    0    0  0.00000000000E+00  0.00000000000E+00  0.64930732323E+04  0.65000000000E+04  0.30000000000E+03 0. -1.
        -52   -1    0    0    0    0 -0.00000000000E+00 -0.00000000000E+00 -0.64930732323E+04  0.65000000000E+04  0.30000000000E+03 0. -1.
     100001    1    1    2    0    0 -0.72937923360E+02  0.32707818662E+03 -0.64896109028E+04  0.65000000000E+04  0.15050000000E+03 0. -1.
     100001    1    1    2    0    0  0.72937923360E+02 -0.32707818662E+03  0.64896109028E+04  0.65000000000E+04  0.15050000000E+03 0. -1.
</event>
<event>
 4    1  0.5143956E-004  0.6500000E+04  0.7818608E-02  0.7223770E-01
         52   -1    0    0    0    0  0.00000000000E+00  0.00000000000E+00  0.64930732323E+04  0.65000000000E+04  0.30000000000E+03 0.  1.
        -52   -1    0    0    0    0 -0.00000000000E+00 -0.00000000000E+00 -0.64930732323E+04  0.65000000000E+04  0.30000000000E+03 0. -1.
     100001    1    1    2    0    0 -0.54678681644E+03 -0.62541040193E+04 -0.16776641031E+04  0.65000000000E+04  0.15050000000E+03 0.  1.
     100001    1    1    2    0    0  0.54678681644E+03  0.62541040193E+04  0.16776641031E+04  0.65000000000E+04  0.15050000000E+03 0. -1.
</event>
<event>
 4    1  0.5143956E-004  0.6500000E+04  0.7818608E-02  0.7223770E-01
         52   -1    0    0    0    0  0.00000000000E+00  0.00000000000E+00  0.64930732323E+04  0.65000000000E+04  0.30000000000E+03 0. -1.
        -52   -1    0    0    0    0 -0.00000000000E+00 -0.00000000000E+00 -0.64930732323E+04  0.65000000000E+04  0.30000000000E+03 0. -1.
     100001    1    1    2    0    0  0.44834648660E+03 -0.70297647390E+03 -0.64445449223E+04  0.65000000000E+04  0.15050000000E+03 0. -1.
     100001    1    1    2    0    0 -0.44834648660E+03  0.70297647390E+03  0.64445449223E+04  0.65000000000E+04  0.15050000000E+03 0. -1.
</event>
<event>
 4    1  0.5143956E-004  0.6500000E+04  0.7818608E-02  0.7223770E-01
         52   -1    0    0    0    0  0.00000000000E+00  0.00000000000E+00  0.64930732323E+04  0.65000000000E+04  0.30000000000E+03 0.  1.
        -52   -1    0    0    0    0 -0.00000000000E+00 -0.00000000000E+00 -0.64930732323E+04  0.65000000000E+04  0.30000000000E+03 0. -1.
     100001    1    1    2    0    0 -0.38159036969E+03 -0.30018197284E+02 -0.64869744448E+04  0.65000000000E+04  0.15050000000E+03 0. -1.
     100001    1    1    2    0    0  0.38159036969E+03  0.30018197284E+02  0.64869744448E+04  0.65000000000E+04  0.15050000000E+03 0.  1.
</event>
<event>
 4    1  0.5143956E-004  0.6500000E+04  0.7818608E-02  0.7223770E-01
         52   -1    0    0    0    0  0.00000000000E+00  0.00000000000E+00  0.64930732323E+04  0.65000000000E+04  0.30000000000E+03 0.  1.
        -52   -1    0    0    0    0 -0.00000000000E+00 -0.00000000000E+00 -0.64930732323E+04  0.65000000000E+04  0.30000000000E+03 0. -1.
     100001    1    1    2    0    0  0.84099429672E+03 -0.99529982300E+01  0.64435998697E+04  0.65000000000E+04  0.15050000000E+03 0.  1.
     100001    1    1    2    0    0 -0.84099429672E+03  0.99529982300E+01 -0.64435998697E+04  0.65000000000E+04  0.15050000000E+03 0. -1.
</event>
<event>
 4    1  0.5143956E-004  0.6500000E+04  0.7818608E-02  0.7223770E-01
         52   -1    0    0    0    0  0.00000000000E+00  0.00000000000E+00  0.64930732323E+04  0.65000000000E+04  0.30000000000E+03 0. -1.
        -52   -1    0    0    0    0 -0.00000000000E+00 -0.00000000000E+00 -0.64930732323E+04  0.65000000000E+04  0.30000000000E+03 0.  1.
     100001    1    1    2    0    0 -0.30368702430E+04  0.14550180311E+04  0.55576696021E+04  0.65000000000E+04  0.15050000000E+03 0. -1.
     100001    1    1    2    0    0  0.30368702430E+04 -0.14550180311E+04 -0.55576696021E+04  0.65000000000E+04  0.15050000000E+03 0.  1.
</event>
<event>
 4    1  0.5143956E-004  0.6500000E+04  0.7818608E-02  0.7223770E-01
         52   -1    0    0    0    0  0.00000000000E+00  0.00000000000E+00  0.64930732323E+04  0.65000000000E+04  0.30000000000E+03 0.  1.
        -52   -1    0    0    0    0 -0.00000000000E+00 -0.00000000000E+00 -0.64930732323E+04  0.65000000000E+04  0.30000000000E+03 0. -1.
     100001    1    1    2    0    0  0.55213756899E+03  0.27399638407E+03  0.64689581724E+04  0.65000000000E+04  0.15050000000E+03 0.  1.
     100001    1    1    2    0    0 -0.55213756899E+03 -0.27399638407E+03 -0.64689581724E+04  0.65000000000E+04  0.15050000000E+03 0. -1.
</event>
<event>
 4    1  0.5143956E-004  0.6500000E+04  0.7818608E-02  0.7223770E-01
         52   -1    0    0    0    0  0.00000000000E+00  0.00000000000E+00  0.64930732323E+04  0.65000000000E+04  0.30000000000E+03 0. -1.
        -52   -1    0    0    0    0 -0.00000000000E+00 -0.00000000000E+00 -0.64930732323E+04  0.65000000000E+04  0.30000000000E+03 0.  1.
     100001    1    1    2    0    0  0.51650743732E+04  0.79421942974E+03 -0.38624567268E+04  0.65000000000E+04  0.15050000000E+03 0. -1.
     100001    1    1    2    0    0 -0.51650743732E+04 -0.79421942974E+03  0.38624567268E+04  0.65000000000E+04  0.15050000000E+03 0.  1.
</event>
<event>
 4    1  0.5143956E-004  0.6500000E+04  0.7818608E-02  0.7223770E-01
         52   -1    0    0    0    0  0.00000000000E+00  0.00000000000E+00  0.64930732323E+04  0.65000000000E+04  0.30000000000E+03 0. -1.
        -52   -1    0    0    0    0 -0.00000000000E+00 -0.00000000000E+00 -0.64930732323E+04  0.65000000000E+04  0.30000000000E+03 0. -1.
     100001    1    1    2    0    0  0.13563401363E+03  0.16521049607E+03 -0.64947408460E+04  0.65000000000E+04  0.15050000000E+03 0. -1.
     100001    1    1    2    0    0 -0.13563401363E+03 -0.16521049607E+03  0.64947408460E+04  0.65000000000E+04  0.15050000000E+03 0. -1.
</event>
<event>
 4    1  0.5143956E-004  0.6500000E+04  0.7818608E-02  0.7223770E-01
         52   -1    0    0    0    0  0.00000000000E+00  0.00000000000E+00  0.64930732323E+04  0.65000000000E+04  0.30000000000E+03 0. -1.
        -52   -1    0    0    0    0 -0.00000000000E+00 -0.00000000000E+00 -0.64930732323E+04  0.65000000000E+04  0.30000000000E+03 0.  1.
     100001    1    1    2    0    0  0.18353617646E+04 -0.31908071371E+02 -0.62336007907E+04  0.65000000000E+04  0.15050000000E+03 0.  1.
     100001    1    1    2    0    0 -0.18353617646E+04  0.31908071371E+02  0.62336007907E+04  0.65000000000E+04  0.15050000000E+03 0. -1.
</event>
<event>
 4    1  0.5143956E-004  0.6500000E+04  0.7818608E-02  0.7223770E-01
         52   -1    0    0    0    0  0.00000000000E+00  0.00000000000E+00  0.64930732323E+04  0.65000000000E+04  0.30000000000E+03 0. -1.
        -52   -1    0    0    0    0 -0.00000000000E+00 -0.00000000000E+00 -0.64930732323E+04  0.65000000000E+04  0.30000000000E+03 0.  1.
     100001    1    1    2    0    0  0.33671781205E+04 -0.12661870043E+02 -0.55578144024E+04  0.65000000000E+04  0.15050000000E+03 0.  1.
     100001    1    1    2    0    0 -0.33671781205E+04  0.12661870043E+02  0.55578144024E+04  0.65000000000E+04  0.15050000000E+03 0. -1.
</event>
<event>
 4    1  0.5143956E-004  0.6500000E+04  0.7818608E-02  0.7223770E-01
         52   -1    0    0    0    0  0.00000000000E+00  0.00000000000E+00  0.64930732323E+04  0.65000000000E+04  0.30000000000E+03 0. -1.
        -52   -1    0    0    0    0 -0.00000000000E+00 -0.00000000000E+00 -0.64930732323E+04  0.65000000000E+04  0.30000000000E+03 0.  1.
     100001    1    1    2    0    0  0.10272049801E+02 -0.71302203256E+03  0.64590126038E+04  0.65000000000E+04  0.15050000000E+03 0. -1.
     100001    1    1    2    0    0 -0.10272049801E+02  0.71302203256E+03 -0.64590126038E+04  0.65000000000E+04  0.15050000000E+03 0.  1.
</event>
<event>
 4    1  0.5143956E-004  0.6500000E+04  0.7818608E-02  0.7223770E-01
         52   -1    0    0    0    0  0.00000000000E+00  0.00000000000E+00  0.64930732323E+04  0.65000000000E+04  0.30000000000E+03 0. -1.
        -52   -1    0    0    0    0 -0.00000000000E+00 -0.00000000000E+00 -0.64930732323E+04  0.65000000000E+04  0.30000000000E+03 0.  1.
     100001    1    1    2    0    0  0.11895766373E+04 -0.37148316070E+04 -0.51973342500E+04  0.65000000000E+04  0.15050000000E+03 0.  1.
     100001    1    1    2    0    0 -0.11895766373E+04  0.37148316070E+04  0.51973342500E+04  0.65000000000E+04  0.15050000000E+03 0. -1.
</event>
<event>
 4    1  0.5143956E-004  0.6500000E+04  0.7818608E-02  0.7223770E-01
         52   -1    0    0    0    0  0.00000000000E+00  0.00000000000E+00  0.64930732323E+04  0.65000000000E+04  0.30000000000E+03 0. -1.
        -52   -1    0    0    0    0 -0.00000000000E+00 -0.00000000000E+00 -0.64930732323E+04  0.65000000000E+04  0.30000000000E+03 0.  1.
     100001    1    1    2    0    0  0.25338443144E+04  0.22238261473E+04 -0.55553199734E+04  0.65000000000E+04  0.15050000000E+03 0.  1.
     100001    1    1    2    0    0 -0.25338443144E+04 -0.22238261473E+04  0.55553199734E+04  0.65000000000E+04  0.15050000000E+03 0. -1.
</event>
<event>
 4    1  0.5143956E-004  0.6500000E+04  0.7818608E-02  0.7223770E-01
         52   -1    0    0    0    0  0.00000000000E+00  0.00000000000E+00  0.64930732323E+04  0.65000000000E+04  0.30000000000E+03 0.  1.
        -52   -1    0    0    0    0 -0.00000000000E+00 -0.00000000000E+00 -0.64930732323E+04  0.65000000000E+04  0.30000000000E+03 0. -1.
     100001    1    1    2    0    0 -0.98177437970E+03 -0.24611655969E+03  0.64189481581E+04  0.65000000000E+04  0.15050000000E+03 0.  1.
     100001    1    1    2    0    0  0.98177437970E+03  0.24611655969E+03 -0.64189481581E+04  0.65000000000E+04  0.15050000000E+03 0. -1.
</event>
<event>
 4    1  0.5143956E-004  0.6500000E+04  0.7818608E-02  0.7223770E-01
         52   -1    0    0    0    0  0.00000000000E+00  0.00000000000E+00  0.64930732323E+04  0.65000000000E+04  0.30000000000E+03 0.  1.
        -52   -1    0    0    0    0 -0.00000000000E+00 -0.00000000000E+00 -0.64930732323E+04  0.65000000000E+04  0.30000000000E+03 0. -1.
     100001    1    1    2    0    0 -0.46492551593E+04  0.51326040928E+03 -0.45109134292E+04  0.65000000000E+04  0.15050000000E+03 0. -1.
     100001    1    1    2    0    0  0.46492551593E+04 -0.51326040928E+03  0.45109134292E+04  0.65000000000E+04  0.15050000000E+03 0.  1.
</event>
<event>
 4    1  0.5143956E-004  0.6500000E+04  0.7818608E-02  0.7223770E-01
         52   -1    0    0    0    0  0.00000000000E+00  0.00000000000E+00  0.64930732323E+04  0.65000000000E+04  0.30000000000E+03 0.  1.
        -52   -1    0    0    0    0 -0.00000000000E+00 -0.00000000000E+00 -0.64930732323E+04  0.65000000000E+04  0.30000000000E+03 0. -1.
     100001    1    1    2    0    0  0.52118382358E+04 -0.14707363152E+04 -0.35917999171E+04  0.65000000000E+04  0.15050000000E+03 0. -1.
     100001    1    1    2    0    0 -0.52118382358E+04  0.14707363152E+04  0.35917999171E+04  0.65000000000E+04  0.15050000000E+03 0.  1.
</event>
<event>
 4    1  0.5143956E-004  0.6500000E+04  0.7818608E-02  0.7223770E-01
         52   -1    0    0    0    0  0.00000000000E+00  0.00000000000E+00  0.64930732323E+04  0.65000000000E+04  0.30000000000E+03 0. -1.
        -52   -1    0    0    0    0 -0.00000000000E+00 -0.00000000000E+00 -0.64930732323E+04  0.65000000000E+04  0.30000000000E+03 0.  1.
     100001    1    1    2    0    0 -0.17356008311E+04 -0.14532604910E+04  0.60912292233E+04  0.65000000000E+04  0.15050000000E+03 0. -1.
     100001    1    1    2    0    0  0.17356008311E+04  0.14532604910E+04 -0.60912292233E+04  0.65000000000E+04  0.15050000000E+03 0.  1.
</event>
<event>
 4    1  0.5143956E-004  0.6500000E+04  0.7818608E-02  0.7223770E-01
         52   -1    0    0    0    0  0.00000000000E+00  0.00000000000E+00  0.64930732323E+04  0.65000000000E+04  0.30000000000E+03 0. -1.
        -52   -1    0    0    0    0 -0.00000000000E+00 -0.00000000000E+00 -0.64930732323E+04  0.65000000000E+04  0.30000000000E+03 0.  1.
     100001    1    1    2    0    0 -0.15416079807E+04  0.23979783429E+04  0.58395628647E+04  0.65000000000E+04  0.15050000000E+03 0. -1.
     100001    1    1    2    0    0  0.15416079807E+04 -0.23979783429E+04 -0.58395628647E+04  0.65000000000E+04  0.15050000000E+03 0.  1.
</event>
<event>
 4    1  0.5143956E-004  0.6500000E+04  0.7818608E-02  0.7223770E-01
         52   -1    0    0    0    0  0.00000000000E+00  0.00000000000E+00  0.64930732323E+04  0.65000000000E+04  0.30000000000E+03 0.  1.
        -52   -1    0    0    0    0 -0.00000000000E+00 -0.00000000000E+00 -0.64930732323E+04  0.65000000000E+04  0.30000000000E+03 0.  1.
     100001    1    1    2    0    0  0.46681866805E+03  0.10043286134E+04 -0.64031831238E+04  0.65000000000E+04  0.15050000000E+03 0.  1.
     100001    1    1    2    0    0 -0.46681866805E+03 -0.10043286134E+04  0.64031831238E+04  0.65000000000E+04  0.15050000000E+03 0.  1.
</event>
<event>
 4    1  0.5143956E-004  0.6500000E+04  0.7818608E-02  0.7223770E-01
         52   -1    0    0    0    0  0.00000000000E+00  0.00000000000E+00  0.64930732323E+04  0.65000000000E+04  0.30000000000E+03 0.  1.
        -52   -1    0    0    0    0 -0.00000000000E+00 -0.00000000000E+00 -0.64930732323E+04  0.65000000000E+04  0.30000000000E+03 0. -1.
     100001    1    1    2    0    0  0.17686869094E+04 -0.19769299679E+03 -0.62498011045E+04  0.65000000000E+04  0.15050000000E+03 0. -1.
     100001    1    1    2    0    0 -0.17686869094E+04  0.19769299679E+03  0.62498011045E+04  0.65000000000E+04  0.15050000000E+03 0.  1.
</event>
<event>
 4    1  0.5143956E-004  0.6500000E+04  0.7818608E-02  0.7223770E-01
         52   -1    0    0    0    0  0.00000000000E+00  0.00000000000E+00  0.64930732323E+04  0.65000000000E+04  0.30000000000E+03 0. -1.
        -52   -1    0    0    0    0 -0.00000000000E+00 -0.00000000000E+00 -0.64930732323E+04  0.65000000000E+04  0.30000000000E+03 0.  1.
     100001    1    1    2    0    0  0.64665036087E+03 -0.52915431676E+03 -0.64443144531E+04  0.65000000000E+04  0.15050000000E+03 0.  1.
     100001    1    1    2    0    0 -0.64665036087E+03  0.52915431676E+03  0.64443144531E+04  0.65000000000E+04  0.15050000000E+03 0. -1.
</event>
<event>
 4    1  0.5143956E-004  0.6500000E+04  0.7818608E-02  0.7223770E-01
         52   -1    0    0    0    0  0.00000000000E+00  0.00000000000E+00  0.64930732323E+04  0.65000000000E+04  0.30000000000E+03 0. -1.
        -52   -1    0    0    0    0 -0.00000000000E+00 -0.00000000000E+00 -0.64930732323E+04  0.65000000000E+04  0.30000000000E+03 0.  1.
     100001    1    1    2    0    0 -0.17800339076E+04 -0.33709254898E+04 -0.52626695108E+04  0.65000000000E+04  0.15050000000E+03 0.  1.
     100001    1    1    2    0    0  0.17800339076E+04  0.33709254898E+04  0.52626695108E+04  0.65000000000E+04  0.15050000000E+03 0. -1.
</event>
<event>
 4    1  0.5143956E-004  0.6500000E+04  0.7818608E-02  0.7223770E-01
         52   -1    0    0    0    0  0.00000000000E+00  0.00000000000E+00  0.64930732323E+04  0.65000000000E+04  0.30000000000E+03 0. -1.
        -52   -1    0    0    0    0 -0.00000000000E+00 -0.00000000000E+00 -0.64930732323E+04  0.65000000000E+04  0.30000000000E+03 0.  1.
     100001    1    1    2    0    0 -0.35806841386E+04  0.17144300698E+04  0.51445874845E+04  0.65000000000E+04  0.15050000000E+03 0. -1.
     100001    1    1    2    0    0  0.35806841386E+04 -0.17144300698E+04 -0.51445874845E+04  0.65000000000E+04  0.15050000000E+03 0.  1.
</event>
<event>
 4    1  0.5143956E-004  0.6500000E+04  0.7818608E-02  0.7223770E-01
         52   -1    0    0    0    0  0.00000000000E+00  0.00000000000E+00  0.64930732323E+04  0.65000000000E+04  0.30000000000E+03 0.  1.
        -52   -1    0    0    0    0 -0.00000000000E+00 -0.00000000000E+00 -0.64930732323E+04  0.65000000000E+04  0.30000000000E+03 0. -1.
     100001    1    1    2    0    0 -0.56036654905E+04  0.31658993180E+04  0.89630593505E+03  0.65000000000E+04  0.15050000000E+03 0.  1.
     100001    1    1    2    0    0  0.56036654905E+04 -0.31658993180E+04 -0.89630593505E+03  0.65000000000E+04  0.15050000000E+03 0. -1.
</event>
<event>
 4    1  0.5143956E-004  0.6500000E+04  0.7818608E-02  0.7223770E-01
         52   -1    0    0    0    0  0.00000000000E+00  0.00000000000E+00  0.64930732323E+04  0.65000000000E+04  0.30000000000E+03 0.  1.
        -52   -1    0    0    0    0 -0.00000000000E+00 -0.00000000000E+00 -0.64930732323E+04  0.65000000000E+04  0.30000000000E+03 0. -1.
     100001    1    1    2    0    0 -0.61068309139E+02 -0.67285190003E+03  0.64630403629E+04  0.65000000000E+04  0.15050000000E+03 0.  1.
     100001    1    1    2    0    0  0.61068309139E+02  0.67285190003E+03 -0.64630403629E+04  0.65000000000E+04  0.15050000000E+03 0. -1.
</event>
<event>
 4    1  0.5143956E-004  0.6500000E+04  0.7818608E-02  0.7223770E-01
         52   -1    0    0    0    0  0.00000000000E+00  0.00000000000E+00  0.64930732323E+04  0.65000000000E+04  0.30000000000E+03 0.  1.
        -52   -1    0    0    0    0 -0.00000000000E+00 -0.00000000000E+00 -0.64930732323E+04  0.65000000000E+04  0.30000000000E+03 0. -1.
     100001    1    1    2    0    0 -0.22902155226E+04  0.35865693613E+04 -0.49110877437E+04  0.65000000000E+04  0.15050000000E+03 0. -1.
     100001    1    1    2    0    0  0.22902155226E+04 -0.35865693613E+04  0.49110877437E+04  0.65000000000E+04  0.15050000000E+03 0.  1.
</event>
<event>
 4    1  0.5143956E-004  0.6500000E+04  0.7818608E-02  0.7223770E-01
         52   -1    0    0    0    0  0.00000000000E+00  0.00000000000E+00  0.64930732323E+04  0.65000000000E+04  0.30000000000E+03 0.  1.
        -52   -1    0    0    0    0 -0.00000000000E+00 -0.00000000000E+00 -0.64930732323E+04  0.65000000000E+04  0.30000000000E+03 0. -1.
     100001    1    1    2    0    0  0.10665021098E+04 -0.95873005652E+03  0.63380406814E+04  0.65000000000E+04  0.15050000000E+03 0.  1.
     100001    1    1    2    0    0 -0.10665021098E+04  0.95873005652E+03 -0.63380406814E+04  0.65000000000E+04  0.15050000000E+03 0. -1.
</event>
<event>
 4    1  0.5143956E-004  0.6500000E+04  0.7818608E-02  0.7223770E-01
         52   -1    0    0    0    0  0.00000000000E+00  0.00000000000E+00  0.64930732323E+04  0.65000000000E+04  0.30000000000E+03 0.  1.
        -52   -1    0    0    0    0 -0.00000000000E+00 -0.00000000000E+00 -0.64930732323E+04  0.65000000000E+04  0.30000000000E+03 0. -1.
     100001    1    1    2    0    0  0.36970786706E+03  0.92924912991E+02  0.64870664251E+04  0.65000000000E+04  0.15050000000E+03 0.  1.
     100001    1    1    2    0    0 -0.36970786706E+03 -0.92924912991E+02 -0.64870664251E+04  0.65000000000E+04  0.15050000000E+03 0. -1.
</event>
<event>
 4    1  0.5143956E-004  0.6500000E+04  0.7818608E-02  0.7223770E-01
         52   -1    0    0    0    0  0.00000000000E+00  0.00000000000E+00  0.64930732323E+04  0.65000000000E+04  0.30000000000E+03 0. -1.
        -52   -1    0    0    0    0 -0.00000000000E+00 -0.00000000000E+00 -0.64930732323E+04  0.65000000000E+04  0.30000000000E+03 0.  1.
     100001    1    1    2    0    0 -0.23560303091E+04  0.29099870122E+03  0.60491148682E+04  0.65000000000E+04  0.15050000000E+03 0. -1.
     100001    1    1    2    0    0  0.23560303091E+04 -0.29099870122E+03 -0.60491148682E+04  0.65000000000E+04  0.15050000000E+03 0.  1.
</event>
<event>
 4    1  0.5143956E-004  0.6500000E+04  0.7818608E-02  0.7223770E-01
         52   -1    0    0    0    0  0.00000000000E+00  0.00000000000E+00  0.64930732323E+04  0.65000000000E+04  0.30000000000E+03 0. -1.
        -52   -1    0    0    0    0 -0.00000000000E+00 -0.00000000000E+00 -0.64930732323E+04  0.65000000000E+04  0.30000000000E+03 0. -1.
     100001    1    1    2    0    0  0.18449596885E+03 -0.37533772922E+03 -0.64847846978E+04  0.65000000000E+04  0.15050000000E+03 0. -1.
     100001    1    1    2    0    0 -0.18449596885E+03  0.37533772922E+03  0.64847846978E+04  0.65000000000E+04  0.15050000000E+03 0. -1.
</event>
<event>
 4    1  0.5143956E-004  0.6500000E+04  0.7818608E-02  0.7223770E-01
         52   -1    0    0    0    0  0.00000000000E+00  0.00000000000E+00  0.64930732323E+04  0.65000000000E+04  0.30000000000E+03 0.  1.
        -52   -1    0    0    0    0 -0.00000000000E+00 -0.00000000000E+00 -0.64930732323E+04  0.65000000000E+04  0.30000000000E+03 0. -1.
     100001    1    1    2    0    0  0.59842989417E+04  0.81146778043E+03  0.23993824137E+04  0.65000000000E+04  0.15050000000E+03 0. -1.
     100001    1    1    2    0    0 -0.59842989417E+04 -0.81146778043E+03 -0.23993824137E+04  0.65000000000E+04  0.15050000000E+03 0.  1.
</event>
<event>
 4    1  0.5143956E-004  0.6500000E+04  0.7818608E-02  0.7223770E-01
         52   -1    0    0    0    0  0.00000000000E+00  0.00000000000E+00  0.64930732323E+04  0.65000000000E+04  0.30000000000E+03 0.  1.
        -52   -1    0    0    0    0 -0.00000000000E+00 -0.00000000000E+00 -0.64930732323E+04  0.65000000000E+04  0.30000000000E+03 0. -1.
     100001    1    1    2    0    0 -0.13131942223E+04  0.53164132635E+04  0.34983740076E+04  0.65000000000E+04  0.15050000000E+03 0.  1.
     100001    1    1    2    0    0  0.13131942223E+04 -0.53164132635E+04 -0.34983740076E+04  0.65000000000E+04  0.15050000000E+03 0. -1.
</event>
<event>
 4    1  0.5143956E-004  0.6500000E+04  0.7818608E-02  0.7223770E-01
         52   -1    0    0    0    0  0.00000000000E+00  0.00000000000E+00  0.64930732323E+04  0.65000000000E+04  0.30000000000E+03 0.  1.
        -52   -1    0    0    0    0 -0.00000000000E+00 -0.00000000000E+00 -0.64930732323E+04  0.65000000000E+04  0.30000000000E+03 0. -1.
     100001    1    1    2    0    0  0.22503106750E+03  0.21095355576E+03  0.64909328579E+04  0.65000000000E+04  0.15050000000E+03 0.  1.
     100001    1    1    2    0    0 -0.22503106750E+03 -0.21095355576E+03 -0.64909328579E+04  0.65000000000E+04  0.15050000000E+03 0. -1.
</event>
<event>
 4    1  0.7251881E-004  0.6500000E+04  0.7818608E-02  0.7223770E-01
         52   -1    0    0    0    0  0.00000000000E+00  0.00000000000E+00  0.64930732323E+04  0.65000000000E+04  0.30000000000E+03 0. -1.
        -52   -1    0    0    0    0 -0.00000000000E+00 -0.00000000000E+00 -0.64930732323E+04  0.65000000000E+04  0.30000000000E+03 0. -1.
     100001    1    1    2    0    0  0.85169279419E+02  0.51504898225E+02  0.64974951473E+04  0.65000000000E+04  0.15050000000E+03 0. -1.
     100001    1    1    2    0    0 -0.85169279419E+02 -0.51504898225E+02 -0.64974951473E+04  0.65000000000E+04  0.15050000000E+03 0. -1.
</event>
<event>
 4    1  0.5143956E-004  0.6500000E+04  0.7818608E-02  0.7223770E-01
         52   -1    0    0    0    0  0.00000000000E+00  0.00000000000E+00  0.64930732323E+04  0.65000000000E+04  0.30000000000E+03 0.  1.
        -52   -1    0    0    0    0 -0.00000000000E+00 -0.00000000000E+00 -0.64930732323E+04  0.65000000000E+04  0.30000000000E+03 0. -1.
     100001    1    1    2    0    0  0.65216946503E+03 -0.21879234547E+04 -0.60839966877E+04  0.65000000000E+04  0.15050000000E+03 0. -1.
     100001    1    1    2    0    0 -0.65216946503E+03  0.21879234547E+04  0.60839966877E+04  0.65000000000E+04  0.15050000000E+03 0.  1.
</event>
<event>
 4    1  0.5143956E-004  0.6500000E+04  0.7818608E-02  0.7223770E-01
         52   -1    0    0    0    0  0.00000000000E+00  0.00000000000E+00  0.64930732323E+04  0.65000000000E+04  0.30000000000E+03 0. -1.
        -52   -1    0    0    0    0 -0.00000000000E+00 -0.00000000000E+00 -0.64930732323E+04  0.65000000000E+04  0.30000000000E+03 0.  1.
     100001    1    1    2    0    0  0.17163091898E+04  0.89079242731E+03  0.62038795416E+04  0.65000000000E+04  0.15050000000E+03 0. -1.
     100001    1    1    2    0    0 -0.17163091898E+04 -0.89079242731E+03 -0.62038795416E+04  0.65000000000E+04  0.15050000000E+03 0.  1.
</event>
<event>
 4    1  0.5143956E-004  0.6500000E+04  0.7818608E-02  0.7223770E-01
         52   -1    0    0    0    0  0.00000000000E+00  0.00000000000E+00  0.64930732323E+04  0.65000000000E+04  0.30000000000E+03 0. -1.
        -52   -1    0    0    0    0 -0.00000000000E+00 -0.00000000000E+00 -0.64930732323E+04  0.65000000000E+04  0.30000000000E+03 0.  1.
     100001    1    1    2    0    0  0.32501148296E+04 -0.30959706381E+04 -0.46988369999E+04  0.65000000000E+04  0.15050000000E+03 0.  1.
     100001    1    1    2    0    0 -0.32501148296E+04  0.30959706381E+04  0.46988369999E+04  0.65000000000E+04  0.15050000000E+03 0. -1.
</event>
<event>
 4    1  0.5143956E-004  0.6500000E+04  0.7818608E-02  0.7223770E-01
         52   -1    0    0    0    0  0.00000000000E+00  0.00000000000E+00  0.64930732323E+04  0.65000000000E+04  0.30000000000E+03 0.  1.
        -52   -1    0    0    0    0 -0.00000000000E+00 -0.00000000000E+00 -0.64930732323E+04  0.65000000000E+04  0.30000000000E+03 0. -1.
     100001    1    1    2    0    0 -0.52135922659E+03  0.39769070118E+03 -0.64650890491E+04  0.65000000000E+04  0.15050000000E+03 0. -1.
     100001    1    1    2    0    0  0.52135922659E+03 -0.39769070118E+03  0.64650890491E+04  0.65000000000E+04  0.15050000000E+03 0.  1.
</event>
<event>
 4    1  0.5143956E-004  0.6500000E+04  0.7818608E-02  0.7223770E-01
         52   -1    0    0    0    0  0.00000000000E+00  0.00000000000E+00  0.64930732323E+04  0.65000000000E+04  0.30000000000E+03 0.  1.
        -52   -1    0    0    0    0 -0.00000000000E+00 -0.00000000000E+00 -0.64930732323E+04  0.65000000000E+04  0.30000000000E+03 0. -1.
     100001    1    1    2    0    0 -0.52904282620E+04 -0.36675836157E+04 -0.88743956237E+03  0.65000000000E+04  0.15050000000E+03 0.  1.
     100001    1    1    2    0    0  0.52904282620E+04  0.36675836157E+04  0.88743956237E+03  0.65000000000E+04  0.15050000000E+03 0. -1.
</event>
<event>
 4    1  0.5143956E-004  0.6500000E+04  0.7818608E-02  0.7223770E-01
         52   -1    0    0    0    0  0.00000000000E+00  0.00000000000E+00  0.64930732323E+04  0.65000000000E+04  0.30000000000E+03 0.  1.
        -52   -1    0    0    0    0 -0.00000000000E+00 -0.00000000000E+00 -0.64930732323E+04  0.65000000000E+04  0.30000000000E+03 0. -1.
     100001    1    1    2    0    0  0.94548653603E+03  0.12520613080E+04 -0.63060088361E+04  0.65000000000E+04  0.15050000000E+03 0. -1.
     100001    1    1    2    0    0 -0.94548653603E+03 -0.12520613080E+04  0.63060088361E+04  0.65000000000E+04  0.15050000000E+03 0.  1.
</event>
<event>
 4    1  0.5143956E-004  0.6500000E+04  0.7818608E-02  0.7223770E-01
         52   -1    0    0    0    0  0.00000000000E+00  0.00000000000E+00  0.64930732323E+04  0.65000000000E+04  0.30000000000E+03 0. -1.
        -52   -1    0    0    0    0 -0.00000000000E+00 -0.00000000000E+00 -0.64930732323E+04  0.65000000000E+04  0.30000000000E+03 0.  1.
     100001    1    1    2    0    0  0.57068045875E+04  0.29677396146E+04 -0.92317535200E+03  0.65000000000E+04  0.15050000000E+03 0.  1.
     100001    1    1    2    0    0 -0.57068045875E+04 -0.29677396146E+04  0.92317535200E+03  0.65000000000E+04  0.15050000000E+03 0. -1.
</event>
<event>
 4    1  0.5143956E-004  0.6500000E+04  0.7818608E-02  0.7223770E-01
         52   -1    0    0    0    0  0.00000000000E+00  0.00000000000E+00  0.64930732323E+04  0.65000000000E+04  0.30000000000E+03 0. -1.
        -52   -1    0    0    0    0 -0.00000000000E+00 -0.00000000000E+00 -0.64930732323E+04  0.65000000000E+04  0.30000000000E+03 0.  1.
     100001    1    1    2    0    0  0.18769899762E+04  0.15583721707E+04  0.60229340488E+04  0.65000000000E+04  0.15050000000E+03 0. -1.
     100001    1    1    2    0    0 -0.18769899762E+04 -0.15583721707E+04 -0.60229340488E+04  0.65000000000E+04  0.15050000000E+03 0.  1.
</event>
<event>
 4    1  0.5143956E-004  0.6500000E+04  0.7818608E-02  0.7223770E-01
         52   -1    0    0    0    0  0.00000000000E+00  0.00000000000E+00  0.64930732323E+04  0.65000000000E+04  0.30000000000E+03 0. -1.
        -52   -1    0    0    0    0 -0.00000000000E+00 -0.00000000000E+00 -0.64930732323E+04  0.65000000000E+04  0.30000000000E+03 0.  1.
     100001    1    1    2    0    0  0.52165600993E+03 -0.41737030371E+03 -0.64638244706E+04  0.65000000000E+04  0.15050000000E+03 0.  1.
     100001    1    1    2    0    0 -0.52165600993E+03  0.41737030371E+03  0.64638244706E+04  0.65000000000E+04  0.15050000000E+03 0. -1.
</event>
<event>
 4    1  0.5143956E-004  0.6500000E+04  0.7818608E-02  0.7223770E-01
         52   -1    0    0    0    0  0.00000000000E+00  0.00000000000E+00  0.64930732323E+04  0.65000000000E+04  0.30000000000E+03 0. -1.
        -52   -1    0    0    0    0 -0.00000000000E+00 -0.00000000000E+00 -0.64930732323E+04  0.65000000000E+04  0.30000000000E+03 0.  1.
     100001    1    1    2    0    0  0.41729722585E+04  0.47125441857E+04 -0.16141807761E+04  0.65000000000E+04  0.15050000000E+03 0.  1.
     100001    1    1    2    0    0 -0.41729722585E+04 -0.47125441857E+04  0.16141807761E+04  0.65000000000E+04  0.15050000000E+03 0. -1.
</event>
<event>
 4    1  0.5143956E-004  0.6500000E+04  0.7818608E-02  0.7223770E-01
         52   -1    0    0    0    0  0.00000000000E+00  0.00000000000E+00  0.64930732323E+04  0.65000000000E+04  0.30000000000E+03 0.  1.
        -52   -1    0    0    0    0 -0.00000000000E+00 -0.00000000000E+00 -0.64930732323E+04  0.65000000000E+04  0.30000000000E+03 0. -1.
     100001    1    1    2    0    0 -0.32403292824E+04 -0.55590078472E+04  0.90832133445E+03  0.65000000000E+04  0.15050000000E+03 0. -1.
     100001    1    1    2    0    0  0.32403292824E+04  0.55590078472E+04 -0.90832133445E+03  0.65000000000E+04  0.15050000000E+03 0.  1.
</event>
<event>
 4    1  0.5143956E-004  0.6500000E+04  0.7818608E-02  0.7223770E-01
         52   -1    0    0    0    0  0.00000000000E+00  0.00000000000E+00  0.64930732323E+04  0.65000000000E+04  0.30000000000E+03 0.  1.
        -52   -1    0    0    0    0 -0.00000000000E+00 -0.00000000000E+00 -0.64930732323E+04  0.65000000000E+04  0.30000000000E+03 0. -1.
     100001    1    1    2    0    0  0.17197031774E+04  0.19175589064E+04 -0.59659817777E+04  0.65000000000E+04  0.15050000000E+03 0. -1.
     100001    1    1    2    0    0 -0.17197031774E+04 -0.19175589064E+04  0.59659817777E+04  0.65000000000E+04  0.15050000000E+03 0.  1.
</event>
<event>
 4    1  0.5143956E-004  0.6500000E+04  0.7818608E-02  0.7223770E-01
         52   -1    0    0    0    0  0.00000000000E+00  0.00000000000E+00  0.64930732323E+04  0.65000000000E+04  0.30000000000E+03 0. -1.
        -52   -1    0    0    0    0 -0.00000000000E+00 -0.00000000000E+00 -0.64930732323E+04  0.65000000000E+04  0.30000000000E+03 0.  1.
     100001    1    1    2    0    0 -0.37818206544E+04  0.17109132247E+04 -0.49997958183E+04  0.65000000000E+04  0.15050000000E+03 0.  1.
     100001    1    1    2    0    0  0.37818206544E+04 -0.17109132247E+04  0.49997958183E+04  0.65000000000E+04  0.15050000000E+03 0. -1.
</event>
<event>
 4    1  0.5143956E-004  0.6500000E+04  0.7818608E-02  0.7223770E-01
         52   -1    0    0    0    0  0.00000000000E+00  0.00000000000E+00  0.64930732323E+04  0.65000000000E+04  0.30000000000E+03 0.  1.
        -52   -1    0    0    0    0 -0.00000000000E+00 -0.00000000000E+00 -0.64930732323E+04  0.65000000000E+04  0.30000000000E+03 0.  1.
     100001    1    1    2    0    0  0.16499254208E+03 -0.55046022545E+03 -0.64727985255E+04  0.65000000000E+04  0.15050000000E+03 0.  1.
     100001    1    1    2    0    0 -0.16499254208E+03  0.55046022545E+03  0.64727985255E+04  0.65000000000E+04  0.15050000000E+03 0.  1.
</event>
<event>
 4    1  0.5143956E-004  0.6500000E+04  0.7818608E-02  0.7223770E-01
         52   -1    0    0    0    0  0.00000000000E+00  0.00000000000E+00  0.64930732323E+04  0.65000000000E+04  0.30000000000E+03 0. -1.
        -52   -1    0    0    0    0 -0.00000000000E+00 -0.00000000000E+00 -0.64930732323E+04  0.65000000000E+04  0.30000000000E+03 0.  1.
     100001    1    1    2    0    0  0.11324410188E+04 -0.29664667012E+03  0.63919424154E+04  0.65000000000E+04  0.15050000000E+03 0. -1.
     100001    1    1    2    0    0 -0.11324410188E+04  0.29664667012E+03 -0.63919424154E+04  0.65000000000E+04  0.15050000000E+03 0.  1.
</event>
<event>
 4    1  0.5143956E-004  0.6500000E+04  0.7818608E-02  0.7223770E-01
         52   -1    0    0    0    0  0.00000000000E+00  0.00000000000E+00  0.64930732323E+04  0.65000000000E+04  0.30000000000E+03 0. -1.
        -52   -1    0    0    0    0 -0.00000000000E+00 -0.00000000000E+00 -0.64930732323E+04  0.65000000000E+04  0.30000000000E+03 0.  1.
     100001    1    1    2    0    0 -0.18831633784E+04  0.71181350450E+03 -0.61785408451E+04  0.65000000000E+04  0.15050000000E+03 0.  1.
     100001    1    1    2    0    0  0.18831633784E+04 -0.71181350450E+03  0.61785408451E+04  0.65000000000E+04  0.15050000000E+03 0. -1.
</event>
<event>
 4    1  0.5143956E-004  0.6500000E+04  0.7818608E-02  0.7223770E-01
         52   -1    0    0    0    0  0.00000000000E+00  0.00000000000E+00  0.64930732323E+04  0.65000000000E+04  0.30000000000E+03 0. -1.
        -52   -1    0    0    0    0 -0.00000000000E+00 -0.00000000000E+00 -0.64930732323E+04  0.65000000000E+04  0.30000000000E+03 0.  1.
     100001    1    1    2    0    0  0.12403096497E+04 -0.51350179026E+03  0.63580891496E+04  0.65000000000E+04  0.15050000000E+03 0. -1.
     100001    1    1    2    0    0 -0.12403096497E+04  0.51350179026E+03 -0.63580891496E+04  0.65000000000E+04  0.15050000000E+03 0.  1.
</event>
<event>
 4    1  0.5143956E-004  0.6500000E+04  0.7818608E-02  0.7223770E-01
         52   -1    0    0    0    0  0.00000000000E+00  0.00000000000E+00  0.64930732323E+04  0.65000000000E+04  0.30000000000E+03 0.  1.
        -52   -1    0    0    0    0 -0.00000000000E+00 -0.00000000000E+00 -0.64930732323E+04  0.65000000000E+04  0.30000000000E+03 0. -1.
     100001    1    1    2    0    0 -0.24081274060E+03  0.27082791748E+03  0.64881438958E+04  0.65000000000E+04  0.15050000000E+03 0.  1.
     100001    1    1    2    0    0  0.24081274060E+03 -0.27082791748E+03 -0.64881438958E+04  0.65000000000E+04  0.15050000000E+03 0. -1.
</event>
<event>
 4    1  0.5143956E-004  0.6500000E+04  0.7818608E-02  0.7223770E-01
         52   -1    0    0    0    0  0.00000000000E+00  0.00000000000E+00  0.64930732323E+04  0.65000000000E+04  0.30000000000E+03 0.  1.
        -52   -1    0    0    0    0 -0.00000000000E+00 -0.00000000000E+00 -0.64930732323E+04  0.65000000000E+04  0.30000000000E+03 0.  1.
     100001    1    1    2    0    0 -0.31821925571E+04  0.19592295219E+04 -0.53162411495E+04  0.65000000000E+04  0.15050000000E+03 0.  1.
     100001    1    1    2    0    0  0.31821925571E+04 -0.19592295219E+04  0.53162411495E+04  0.65000000000E+04  0.15050000000E+03 0.  1.
</event>
<event>
 4    1  0.5143956E-004  0.6500000E+04  0.7818608E-02  0.7223770E-01
         52   -1    0    0    0    0  0.00000000000E+00  0.00000000000E+00  0.64930732323E+04  0.65000000000E+04  0.30000000000E+03 0. -1.
        -52   -1    0    0    0    0 -0.00000000000E+00 -0.00000000000E+00 -0.64930732323E+04  0.65000000000E+04  0.30000000000E+03 0.  1.
     100001    1    1    2    0    0  0.34207243672E+03  0.35942158523E+02  0.64891481998E+04  0.65000000000E+04  0.15050000000E+03 0. -1.
     100001    1    1    2    0    0 -0.34207243672E+03 -0.35942158523E+02 -0.64891481998E+04  0.65000000000E+04  0.15050000000E+03 0.  1.
</event>
<event>
 4    1  0.5143956E-004  0.6500000E+04  0.7818608E-02  0.7223770E-01
         52   -1    0    0    0    0  0.00000000000E+00  0.00000000000E+00  0.64930732323E+04  0.65000000000E+04  0.30000000000E+03 0.  1.
        -52   -1    0    0    0    0 -0.00000000000E+00 -0.00000000000E+00 -0.64930732323E+04  0.65000000000E+04  0.30000000000E+03 0. -1.
     100001    1    1    2    0    0  0.27458082438E+03  0.35922764507E+03  0.64825080501E+04  0.65000000000E+04  0.15050000000E+03 0.  1.
     100001    1    1    2    0    0 -0.27458082438E+03 -0.35922764507E+03 -0.64825080501E+04  0.65000000000E+04  0.15050000000E+03 0. -1.
</event>
<event>
 4    1  0.5143956E-004  0.6500000E+04  0.7818608E-02  0.7223770E-01
         52   -1    0    0    0    0  0.00000000000E+00  0.00000000000E+00  0.64930732323E+04  0.65000000000E+04  0.30000000000E+03 0.  1.
        -52   -1    0    0    0    0 -0.00000000000E+00 -0.00000000000E+00 -0.64930732323E+04  0.65000000000E+04  0.30000000000E+03 0. -1.
     100001    1    1    2    0    0  0.26249839656E+04  0.30308206182E+04  0.51137985207E+04  0.65000000000E+04  0.15050000000E+03 0.  1.
     100001    1    1    2    0    0 -0.26249839656E+04 -0.30308206182E+04 -0.51137985207E+04  0.65000000000E+04  0.15050000000E+03 0. -1.
</event>
<event>
 4    1  0.5143956E-004  0.6500000E+04  0.7818608E-02  0.7223770E-01
         52   -1    0    0    0    0  0.00000000000E+00  0.00000000000E+00  0.64930732323E+04  0.65000000000E+04  0.30000000000E+03 0.  1.
        -52   -1    0    0    0    0 -0.00000000000E+00 -0.00000000000E+00 -0.64930732323E+04  0.65000000000E+04  0.30000000000E+03 0. -1.
     100001    1    1    2    0    0  0.53097940049E+04  0.12585897897E+04 -0.35283691865E+04  0.65000000000E+04  0.15050000000E+03 0. -1.
     100001    1    1    2    0    0 -0.53097940049E+04 -0.12585897897E+04  0.35283691865E+04  0.65000000000E+04  0.15050000000E+03 0.  1.
</event>
<event>
 4    1  0.5143956E-004  0.6500000E+04  0.7818608E-02  0.7223770E-01
         52   -1    0    0    0    0  0.00000000000E+00  0.00000000000E+00  0.64930732323E+04  0.65000000000E+04  0.30000000000E+03 0. -1.
        -52   -1    0    0    0    0 -0.00000000000E+00 -0.00000000000E+00 -0.64930732323E+04  0.65000000000E+04  0.30000000000E+03 0.  1.
     100001    1    1    2    0    0 -0.42721868749E+04  0.44481474531E+04 -0.20468886858E+04  0.65000000000E+04  0.15050000000E+03 0.  1.
     100001    1    1    2    0    0  0.42721868749E+04 -0.44481474531E+04  0.20468886858E+04  0.65000000000E+04  0.15050000000E+03 0. -1.
</event>
<event>
 4    1  0.5143956E-004  0.6500000E+04  0.7818608E-02  0.7223770E-01
         52   -1    0    0    0    0  0.00000000000E+00  0.00000000000E+00  0.64930732323E+04  0.65000000000E+04  0.30000000000E+03 0. -1.
        -52   -1    0    0    0    0 -0.00000000000E+00 -0.00000000000E+00 -0.64930732323E+04  0.65000000000E+04  0.30000000000E+03 0.  1.
     100001    1    1    2    0    0 -0.14225464396E+04  0.13717293775E+04  0.61904822019E+04  0.65000000000E+04  0.15050000000E+03 0. -1.
     100001    1    1    2    0    0  0.14225464396E+04 -0.13717293775E+04 -0.61904822019E+04  0.65000000000E+04  0.15050000000E+03 0.  1.
</event>
<event>
 4    1  0.5143956E-004  0.6500000E+04  0.7818608E-02  0.7223770E-01
         52   -1    0    0    0    0  0.00000000000E+00  0.00000000000E+00  0.64930732323E+04  0.65000000000E+04  0.30000000000E+03 0.  1.
        -52   -1    0    0    0    0 -0.00000000000E+00 -0.00000000000E+00 -0.64930732323E+04  0.65000000000E+04  0.30000000000E+03 0. -1.
     100001    1    1    2    0    0  0.60602914345E+03 -0.37148554977E+03 -0.64592628770E+04  0.65000000000E+04  0.15050000000E+03 0. -1.
     100001    1    1    2    0    0 -0.60602914345E+03  0.37148554977E+03  0.64592628770E+04  0.65000000000E+04  0.15050000000E+03 0.  1.
</event>
<event>
 4    1  0.5143956E-004  0.6500000E+04  0.7818608E-02  0.7223770E-01
         52   -1    0    0    0    0  0.00000000000E+00  0.00000000000E+00  0.64930732323E+04  0.65000000000E+04  0.30000000000E+03 0. -1.
        -52   -1    0    0    0    0 -0.00000000000E+00 -0.00000000000E+00 -0.64930732323E+04  0.65000000000E+04  0.30000000000E+03 0.  1.
     100001    1    1    2    0    0 -0.40054973593E+04 -0.11343138263E+04  0.49896565812E+04  0.65000000000E+04  0.15050000000E+03 0. -1.
     100001    1    1    2    0    0  0.40054973593E+04  0.11343138263E+04 -0.49896565812E+04  0.65000000000E+04  0.15050000000E+03 0.  1.
</event>
<event>
 4    1  0.5143956E-004  0.6500000E+04  0.7818608E-02  0.7223770E-01
         52   -1    0    0    0    0  0.00000000000E+00  0.00000000000E+00  0.64930732323E+04  0.65000000000E+04  0.30000000000E+03 0. -1.
        -52   -1    0    0    0    0 -0.00000000000E+00 -0.00000000000E+00 -0.64930732323E+04  0.65000000000E+04  0.30000000000E+03 0.  1.
     100001    1    1    2    0    0 -0.28114193210E+03 -0.16782086240E+03 -0.64900034763E+04  0.65000000000E+04  0.15050000000E+03 0.  1.
     100001    1    1    2    0    0  0.28114193210E+03  0.16782086240E+03  0.64900034763E+04  0.65000000000E+04  0.15050000000E+03 0. -1.
</event>
<event>
 4    1  0.5143956E-004  0.6500000E+04  0.7818608E-02  0.7223770E-01
         52   -1    0    0    0    0  0.00000000000E+00  0.00000000000E+00  0.64930732323E+04  0.65000000000E+04  0.30000000000E+03 0. -1.
        -52   -1    0    0    0    0 -0.00000000000E+00 -0.00000000000E+00 -0.64930732323E+04  0.65000000000E+04  0.30000000000E+03 0.  1.
     100001    1    1    2    0    0  0.28982011669E+04  0.62190445627E+03  0.57828206434E+04  0.65000000000E+04  0.15050000000E+03 0. -1.
     100001    1    1    2    0    0 -0.28982011669E+04 -0.62190445627E+03 -0.57828206434E+04  0.65000000000E+04  0.15050000000E+03 0.  1.
</event>
<event>
 4    1  0.5143956E-004  0.6500000E+04  0.7818608E-02  0.7223770E-01
         52   -1    0    0    0    0  0.00000000000E+00  0.00000000000E+00  0.64930732323E+04  0.65000000000E+04  0.30000000000E+03 0.  1.
        -52   -1    0    0    0    0 -0.00000000000E+00 -0.00000000000E+00 -0.64930732323E+04  0.65000000000E+04  0.30000000000E+03 0. -1.
     100001    1    1    2    0    0 -0.70041345512E+03 -0.20466648501E+02  0.64603677804E+04  0.65000000000E+04  0.15050000000E+03 0.  1.
     100001    1    1    2    0    0  0.70041345512E+03  0.20466648501E+02 -0.64603677804E+04  0.65000000000E+04  0.15050000000E+03 0. -1.
</event>
<event>
 4    1  0.5143956E-004  0.6500000E+04  0.7818608E-02  0.7223770E-01
         52   -1    0    0    0    0  0.00000000000E+00  0.00000000000E+00  0.64930732323E+04  0.65000000000E+04  0.30000000000E+03 0.  1.
        -52   -1    0    0    0    0 -0.00000000000E+00 -0.00000000000E+00 -0.64930732323E+04  0.65000000000E+04  0.30000000000E+03 0. -1.
     100001    1    1    2    0    0  0.13502412215E+04 -0.13731668825E+04  0.62063363675E+04  0.65000000000E+04  0.15050000000E+03 0.  1.
     100001    1    1    2    0    0 -0.13502412215E+04  0.13731668825E+04 -0.62063363675E+04  0.65000000000E+04  0.15050000000E+03 0. -1.
</event>
<event>
 4    1  0.5143956E-004  0.6500000E+04  0.7818608E-02  0.7223770E-01
         52   -1    0    0    0    0  0.00000000000E+00  0.00000000000E+00  0.64930732323E+04  0.65000000000E+04  0.30000000000E+03 0. -1.
        -52   -1    0    0    0    0 -0.00000000000E+00 -0.00000000000E+00 -0.64930732323E+04  0.65000000000E+04  0.30000000000E+03 0.  1.
     100001    1    1    2    0    0  0.85559488670E+03  0.23601197907E+04  0.59937585631E+04  0.65000000000E+04  0.15050000000E+03 0. -1.
     100001    1    1    2    0    0 -0.85559488670E+03 -0.23601197907E+04 -0.59937585631E+04  0.65000000000E+04  0.15050000000E+03 0.  1.
</event>
<event>
 4    1  0.5143956E-004  0.6500000E+04  0.7818608E-02  0.7223770E-01
         52   -1    0    0    0    0  0.00000000000E+00  0.00000000000E+00  0.64930732323E+04  0.65000000000E+04  0.30000000000E+03 0. -1.
        -52   -1    0    0    0    0 -0.00000000000E+00 -0.00000000000E+00 -0.64930732323E+04  0.65000000000E+04  0.30000000000E+03 0.  1.
     100001    1    1    2    0    0  0.34067365339E+03 -0.17659979803E+04 -0.62444008796E+04  0.65000000000E+04  0.15050000000E+03 0.  1.
     100001    1    1    2    0    0 -0.34067365339E+03  0.17659979803E+04  0.62444008796E+04  0.65000000000E+04  0.15050000000E+03 0. -1.
</event>
<event>
 4    1  0.5143956E-004  0.6500000E+04  0.7818608E-02  0.7223770E-01
         52   -1    0    0    0    0  0.00000000000E+00  0.00000000000E+00  0.64930732323E+04  0.65000000000E+04  0.30000000000E+03 0.  1.
        -52   -1    0    0    0    0 -0.00000000000E+00 -0.00000000000E+00 -0.64930732323E+04  0.65000000000E+04  0.30000000000E+03 0. -1.
     100001    1    1    2    0    0  0.56829679742E+04 -0.57189856638E+03  0.30990574024E+04  0.65000000000E+04  0.15050000000E+03 0.  1.
     100001    1    1    2    0    0 -0.56829679742E+04  0.57189856638E+03 -0.30990574024E+04  0.65000000000E+04  0.15050000000E+03 0. -1.
</event>
<event>
 4    1  0.5143956E-004  0.6500000E+04  0.7818608E-02  0.7223770E-01
         52   -1    0    0    0    0  0.00000000000E+00  0.00000000000E+00  0.64930732323E+04  0.65000000000E+04  0.30000000000E+03 0. -1.
        -52   -1    0    0    0    0 -0.00000000000E+00 -0.00000000000E+00 -0.64930732323E+04  0.65000000000E+04  0.30000000000E+03 0.  1.
     100001    1    1    2    0    0  0.64698193626E+04 -0.72132247312E+02 -0.60297935668E+03  0.65000000000E+04  0.15050000000E+03 0.  1.
     100001    1    1    2    0    0 -0.64698193626E+04  0.72132247312E+02  0.60297935668E+03  0.65000000000E+04  0.15050000000E+03 0. -1.
</event>
<event>
 4    1  0.5143956E-004  0.6500000E+04  0.7818608E-02  0.7223770E-01
         52   -1    0    0    0    0  0.00000000000E+00  0.00000000000E+00  0.64930732323E+04  0.65000000000E+04  0.30000000000E+03 0.  1.
        -52   -1    0    0    0    0 -0.00000000000E+00 -0.00000000000E+00 -0.64930732323E+04  0.65000000000E+04  0.30000000000E+03 0. -1.
     100001    1    1    2    0    0 -0.43293765323E+04  0.95770459218E+03  0.47504368752E+04  0.65000000000E+04  0.15050000000E+03 0.  1.
     100001    1    1    2    0    0  0.43293765323E+04 -0.95770459218E+03 -0.47504368752E+04  0.65000000000E+04  0.15050000000E+03 0. -1.
</event>
<event>
 4    1  0.5143956E-004  0.6500000E+04  0.7818608E-02  0.7223770E-01
         52   -1    0    0    0    0  0.00000000000E+00  0.00000000000E+00  0.64930732323E+04  0.65000000000E+04  0.30000000000E+03 0.  1.
        -52   -1    0    0    0    0 -0.00000000000E+00 -0.00000000000E+00 -0.64930732323E+04  0.65000000000E+04  0.30000000000E+03 0. -1.
     100001    1    1    2    0    0  0.12716081319E+04  0.58064221359E+04 -0.26259901920E+04  0.65000000000E+04  0.15050000000E+03 0.  1.
     100001    1    1    2    0    0 -0.12716081319E+04 -0.58064221359E+04  0.26259901920E+04  0.65000000000E+04  0.15050000000E+03 0. -1.
</event>
<event>
 4    1  0.5143956E-004  0.6500000E+04  0.7818608E-02  0.7223770E-01
         52   -1    0    0    0    0  0.00000000000E+00  0.00000000000E+00  0.64930732323E+04  0.65000000000E+04  0.30000000000E+03 0.  1.
        -52   -1    0    0    0    0 -0.00000000000E+00 -0.00000000000E+00 -0.64930732323E+04  0.65000000000E+04  0.30000000000E+03 0. -1.
     100001    1    1    2    0    0 -0.21097495144E+04  0.34318285084E+03 -0.61366548108E+04  0.65000000000E+04  0.15050000000E+03 0. -1.
     100001    1    1    2    0    0  0.21097495144E+04 -0.34318285084E+03  0.61366548108E+04  0.65000000000E+04  0.15050000000E+03 0.  1.
</event>
<event>
 4    1  0.5143956E-004  0.6500000E+04  0.7818608E-02  0.7223770E-01
         52   -1    0    0    0    0  0.00000000000E+00  0.00000000000E+00  0.64930732323E+04  0.65000000000E+04  0.30000000000E+03 0.  1.
        -52   -1    0    0    0    0 -0.00000000000E+00 -0.00000000000E+00 -0.64930732323E+04  0.65000000000E+04  0.30000000000E+03 0. -1.
     100001    1    1    2    0    0  0.26480313331E+03  0.23090769373E+04 -0.60683929296E+04  0.65000000000E+04  0.15050000000E+03 0. -1.
     100001    1    1    2    0    0 -0.26480313331E+03 -0.23090769373E+04  0.60683929296E+04  0.65000000000E+04  0.15050000000E+03 0.  1.
</event>
<event>
 4    1  0.5143956E-004  0.6500000E+04  0.7818608E-02  0.7223770E-01
         52   -1    0    0    0    0  0.00000000000E+00  0.00000000000E+00  0.64930732323E+04  0.65000000000E+04  0.30000000000E+03 0.  1.
        -52   -1    0    0    0    0 -0.00000000000E+00 -0.00000000000E+00 -0.64930732323E+04  0.65000000000E+04  0.30000000000E+03 0. -1.
     100001    1    1    2    0    0  0.64889138774E+03 -0.83229023269E+02 -0.64652426595E+04  0.65000000000E+04  0.15050000000E+03 0. -1.
     100001    1    1    2    0    0 -0.64889138774E+03  0.83229023269E+02  0.64652426595E+04  0.65000000000E+04  0.15050000000E+03 0.  1.
</event>
<event>
 4    1  0.5143956E-004  0.6500000E+04  0.7818608E-02  0.7223770E-01
         52   -1    0    0    0    0  0.00000000000E+00  0.00000000000E+00  0.64930732323E+04  0.65000000000E+04  0.30000000000E+03 0.  1.
        -52   -1    0    0    0    0 -0.00000000000E+00 -0.00000000000E+00 -0.64930732323E+04  0.65000000000E+04  0.30000000000E+03 0. -1.
     100001    1    1    2    0    0 -0.41823238580E+04  0.48872502628E+04 -0.92211808667E+03  0.65000000000E+04  0.15050000000E+03 0. -1.
     100001    1    1    2    0    0  0.41823238580E+04 -0.48872502628E+04  0.92211808667E+03  0.65000000000E+04  0.15050000000E+03 0.  1.
</event>
<event>
 4    1  0.5143956E-004  0.6500000E+04  0.7818608E-02  0.7223770E-01
         52   -1    0    0    0    0  0.00000000000E+00  0.00000000000E+00  0.64930732323E+04  0.65000000000E+04  0.30000000000E+03 0. -1.
        -52   -1    0    0    0    0 -0.00000000000E+00 -0.00000000000E+00 -0.64930732323E+04  0.65000000000E+04  0.30000000000E+03 0.  1.
     100001    1    1    2    0    0 -0.38352512676E+03  0.16252389697E+03  0.64848935388E+04  0.65000000000E+04  0.15050000000E+03 0. -1.
     100001    1    1    2    0    0  0.38352512676E+03 -0.16252389697E+03 -0.64848935388E+04  0.65000000000E+04  0.15050000000E+03 0.  1.
</event>
<event>
 4    1  0.5143956E-004  0.6500000E+04  0.7818608E-02  0.7223770E-01
         52   -1    0    0    0    0  0.00000000000E+00  0.00000000000E+00  0.64930732323E+04  0.65000000000E+04  0.30000000000E+03 0. -1.
        -52   -1    0    0    0    0 -0.00000000000E+00 -0.00000000000E+00 -0.64930732323E+04  0.65000000000E+04  0.30000000000E+03 0.  1.
     100001    1    1    2    0    0  0.51141376694E+03  0.40925736780E+03  0.64651615692E+04  0.65000000000E+04  0.15050000000E+03 0. -1.
     100001    1    1    2    0    0 -0.51141376694E+03 -0.40925736780E+03 -0.64651615692E+04  0.65000000000E+04  0.15050000000E+03 0.  1.
</event>
<event>
 4    1  0.5143956E-004  0.6500000E+04  0.7818608E-02  0.7223770E-01
         52   -1    0    0    0    0  0.00000000000E+00  0.00000000000E+00  0.64930732323E+04  0.65000000000E+04  0.30000000000E+03 0.  1.
        -52   -1    0    0    0    0 -0.00000000000E+00 -0.00000000000E+00 -0.64930732323E+04  0.65000000000E+04  0.30000000000E+03 0. -1.
     100001    1    1    2    0    0 -0.14202580359E+04  0.49392939119E+04  0.39766307992E+04  0.65000000000E+04  0.15050000000E+03 0.  1.
     100001    1    1    2    0    0  0.14202580359E+04 -0.49392939119E+04 -0.39766307992E+04  0.65000000000E+04  0.15050000000E+03 0. -1.
</event>
<event>
 4    1  0.5143956E-004  0.6500000E+04  0.7818608E-02  0.7223770E-01
         52   -1    0    0    0    0  0.00000000000E+00  0.00000000000E+00  0.64930732323E+04  0.65000000000E+04  0.30000000000E+03 0. -1.
        -52   -1    0    0    0    0 -0.00000000000E+00 -0.00000000000E+00 -0.64930732323E+04  0.65000000000E+04  0.30000000000E+03 0.  1.
     100001    1    1    2    0    0 -0.29064702565E+03 -0.33352515470E+03 -0.64831809344E+04  0.65000000000E+04  0.15050000000E+03 0.  1.
     100001    1    1    2    0    0  0.29064702565E+03  0.33352515470E+03  0.64831809344E+04  0.65000000000E+04  0.15050000000E+03 0. -1.
</event>
<event>
 4    1  0.5143956E-004  0.6500000E+04  0.7818608E-02  0.7223770E-01
         52   -1    0    0    0    0  0.00000000000E+00  0.00000000000E+00  0.64930732323E+04  0.65000000000E+04  0.30000000000E+03 0.  1.
        -52   -1    0    0    0    0 -0.00000000000E+00 -0.00000000000E+00 -0.64930732323E+04  0.65000000000E+04  0.30000000000E+03 0. -1.
     100001    1    1    2    0    0 -0.39310954630E+03  0.12015784723E+04  0.63740900378E+04  0.65000000000E+04  0.15050000000E+03 0.  1.
     100001    1    1    2    0    0  0.39310954630E+03 -0.12015784723E+04 -0.63740900378E+04  0.65000000000E+04  0.15050000000E+03 0. -1.
</event>
<event>
 4    1  0.5143956E-004  0.6500000E+04  0.7818608E-02  0.7223770E-01
         52   -1    0    0    0    0  0.00000000000E+00  0.00000000000E+00  0.64930732323E+04  0.65000000000E+04  0.30000000000E+03 0.  1.
        -52   -1    0    0    0    0 -0.00000000000E+00 -0.00000000000E+00 -0.64930732323E+04  0.65000000000E+04  0.30000000000E+03 0. -1.
     100001    1    1    2    0    0 -0.40910545977E+03 -0.65352745854E+03  0.64523549448E+04  0.65000000000E+04  0.15050000000E+03 0.  1.
     100001    1    1    2    0    0  0.40910545977E+03  0.65352745854E+03 -0.64523549448E+04  0.65000000000E+04  0.15050000000E+03 0. -1.
</event>
<event>
 4    1  0.5143956E-004  0.6500000E+04  0.7818608E-02  0.7223770E-01
         52   -1    0    0    0    0  0.00000000000E+00  0.00000000000E+00  0.64930732323E+04  0.65000000000E+04  0.30000000000E+03 0. -1.
        -52   -1    0    0    0    0 -0.00000000000E+00 -0.00000000000E+00 -0.64930732323E+04  0.65000000000E+04  0.30000000000E+03 0.  1.
     100001    1    1    2    0    0  0.81873893903E+03 -0.43877095788E+04  0.47228191742E+04  0.65000000000E+04  0.15050000000E+03 0. -1.
     100001    1    1    2    0    0 -0.81873893903E+03  0.43877095788E+04 -0.47228191742E+04  0.65000000000E+04  0.15050000000E+03 0.  1.
</event>
<event>
 4    1  0.5175097E-004  0.6500000E+04  0.7818608E-02  0.7223770E-01
         52   -1    0    0    0    0  0.00000000000E+00  0.00000000000E+00  0.64930732323E+04  0.65000000000E+04  0.30000000000E+03 0. -1.
        -52   -1    0    0    0    0 -0.00000000000E+00 -0.00000000000E+00 -0.64930732323E+04  0.65000000000E+04  0.30000000000E+03 0. -1.
     100001    1    1    2    0    0 -0.25447373497E+03  0.70702646941E+02 -0.64928879556E+04  0.65000000000E+04  0.15050000000E+03 0. -1.
     100001    1    1    2    0    0  0.25447373497E+03 -0.70702646941E+02  0.64928879556E+04  0.65000000000E+04  0.15050000000E+03 0. -1.
</event>
<event>
 4    1  0.5143956E-004  0.6500000E+04  0.7818608E-02  0.7223770E-01
         52   -1    0    0    0    0  0.00000000000E+00  0.00000000000E+00  0.64930732323E+04  0.65000000000E+04  0.30000000000E+03 0.  1.
        -52   -1    0    0    0    0 -0.00000000000E+00 -0.00000000000E+00 -0.64930732323E+04  0.65000000000E+04  0.30000000000E+03 0. -1.
     100001    1    1    2    0    0  0.43726575282E+03  0.52295872526E+04  0.38324359850E+04  0.65000000000E+04  0.15050000000E+03 0.  1.
     100001    1    1    2    0    0 -0.43726575282E+03 -0.52295872526E+04 -0.38324359850E+04  0.65000000000E+04  0.15050000000E+03 0. -1.
</event>
<event>
 4    1  0.5143956E-004  0.6500000E+04  0.7818608E-02  0.7223770E-01
         52   -1    0    0    0    0  0.00000000000E+00  0.00000000000E+00  0.64930732323E+04  0.65000000000E+04  0.30000000000E+03 0.  1.
        -52   -1    0    0    0    0 -0.00000000000E+00 -0.00000000000E+00 -0.64930732323E+04  0.65000000000E+04  0.30000000000E+03 0. -1.
     100001    1    1    2    0    0 -0.40614533189E+04  0.17841243092E+04  0.47485626391E+04  0.65000000000E+04  0.15050000000E+03 0.  1.
     100001    1    1    2    0    0  0.40614533189E+04 -0.17841243092E+04 -0.47485626391E+04  0.65000000000E+04  0.15050000000E+03 0. -1.
</event>
<event>
 4    1  0.5143956E-004  0.6500000E+04  0.7818608E-02  0.7223770E-01
         52   -1    0    0    0    0  0.00000000000E+00  0.00000000000E+00  0.64930732323E+04  0.65000000000E+04  0.30000000000E+03 0.  1.
        -52   -1    0    0    0    0 -0.00000000000E+00 -0.00000000000E+00 -0.64930732323E+04  0.65000000000E+04  0.30000000000E+03 0.  1.
     100001    1    1    2    0    0  0.99714288245E+02  0.71918278118E+03  0.64575678810E+04  0.65000000000E+04  0.15050000000E+03 0.  1.
     100001    1    1    2    0    0 -0.99714288245E+02 -0.71918278118E+03 -0.64575678810E+04  0.65000000000E+04  0.15050000000E+03 0.  1.
</event>
<event>
 4    1  0.5143956E-004  0.6500000E+04  0.7818608E-02  0.7223770E-01
         52   -1    0    0    0    0  0.00000000000E+00  0.00000000000E+00  0.64930732323E+04  0.65000000000E+04  0.30000000000E+03 0.  1.
        -52   -1    0    0    0    0 -0.00000000000E+00 -0.00000000000E+00 -0.64930732323E+04  0.65000000000E+04  0.30000000000E+03 0. -1.
     100001    1    1    2    0    0  0.15144072463E+04  0.55333965626E+03  0.62950564467E+04  0.65000000000E+04  0.15050000000E+03 0.  1.
     100001    1    1    2    0    0 -0.15144072463E+04 -0.55333965626E+03 -0.62950564467E+04  0.65000000000E+04  0.15050000000E+03 0. -1.
</event>
<event>
 4    1  0.5143956E-004  0.6500000E+04  0.7818608E-02  0.7223770E-01
         52   -1    0    0    0    0  0.00000000000E+00  0.00000000000E+00  0.64930732323E+04  0.65000000000E+04  0.30000000000E+03 0. -1.
        -52   -1    0    0    0    0 -0.00000000000E+00 -0.00000000000E+00 -0.64930732323E+04  0.65000000000E+04  0.30000000000E+03 0. -1.
     100001    1    1    2    0    0 -0.34606007200E+02  0.14098966743E+03 -0.64966355976E+04  0.65000000000E+04  0.15050000000E+03 0. -1.
     100001    1    1    2    0    0  0.34606007200E+02 -0.14098966743E+03  0.64966355976E+04  0.65000000000E+04  0.15050000000E+03 0. -1.
</event>
<event>
 4    1  0.5143956E-004  0.6500000E+04  0.7818608E-02  0.7223770E-01
         52   -1    0    0    0    0  0.00000000000E+00  0.00000000000E+00  0.64930732323E+04  0.65000000000E+04  0.30000000000E+03 0. -1.
        -52   -1    0    0    0    0 -0.00000000000E+00 -0.00000000000E+00 -0.64930732323E+04  0.65000000000E+04  0.30000000000E+03 0.  1.
     100001    1    1    2    0    0  0.25045196722E+04  0.37346026221E+04  0.46912124464E+04  0.65000000000E+04  0.15050000000E+03 0. -1.
     100001    1    1    2    0    0 -0.25045196722E+04 -0.37346026221E+04 -0.46912124464E+04  0.65000000000E+04  0.15050000000E+03 0.  1.
</event>
<event>
 4    1  0.5143956E-004  0.6500000E+04  0.7818608E-02  0.7223770E-01
         52   -1    0    0    0    0  0.00000000000E+00  0.00000000000E+00  0.64930732323E+04  0.65000000000E+04  0.30000000000E+03 0. -1.
        -52   -1    0    0    0    0 -0.00000000000E+00 -0.00000000000E+00 -0.64930732323E+04  0.65000000000E+04  0.30000000000E+03 0.  1.
     100001    1    1    2    0    0  0.10178266091E+04 -0.86745385086E+03 -0.63591589507E+04  0.65000000000E+04  0.15050000000E+03 0.  1.
     100001    1    1    2    0    0 -0.10178266091E+04  0.86745385086E+03  0.63591589507E+04  0.65000000000E+04  0.15050000000E+03 0. -1.
</event>
<event>
 4    1  0.5143956E-004  0.6500000E+04  0.7818608E-02  0.7223770E-01
         52   -1    0    0    0    0  0.00000000000E+00  0.00000000000E+00  0.64930732323E+04  0.65000000000E+04  0.30000000000E+03 0.  1.
        -52   -1    0    0    0    0 -0.00000000000E+00 -0.00000000000E+00 -0.64930732323E+04  0.65000000000E+04  0.30000000000E+03 0. -1.
     100001    1    1    2    0    0  0.22877067884E+03 -0.35795961007E+03 -0.64843564557E+04  0.65000000000E+04  0.15050000000E+03 0. -1.
     100001    1    1    2    0    0 -0.22877067884E+03  0.35795961007E+03  0.64843564557E+04  0.65000000000E+04  0.15050000000E+03 0.  1.
</event>
<event>
 4    1  0.5143956E-004  0.6500000E+04  0.7818608E-02  0.7223770E-01
         52   -1    0    0    0    0  0.00000000000E+00  0.00000000000E+00  0.64930732323E+04  0.65000000000E+04  0.30000000000E+03 0.  1.
        -52   -1    0    0    0    0 -0.00000000000E+00 -0.00000000000E+00 -0.64930732323E+04  0.65000000000E+04  0.30000000000E+03 0. -1.
     100001    1    1    2    0    0  0.23523340778E+04  0.87109387450E+03 -0.59945866912E+04  0.65000000000E+04  0.15050000000E+03 0. -1.
     100001    1    1    2    0    0 -0.23523340778E+04 -0.87109387450E+03  0.59945866912E+04  0.65000000000E+04  0.15050000000E+03 0.  1.
</event>
<event>
 4    1  0.5143956E-004  0.6500000E+04  0.7818608E-02  0.7223770E-01
         52   -1    0    0    0    0  0.00000000000E+00  0.00000000000E+00  0.64930732323E+04  0.65000000000E+04  0.30000000000E+03 0. -1.
        -52   -1    0    0    0    0 -0.00000000000E+00 -0.00000000000E+00 -0.64930732323E+04  0.65000000000E+04  0.30000000000E+03 0.  1.
     100001    1    1    2    0    0  0.83570242984E+03  0.82509784110E+03 -0.63912568992E+04  0.65000000000E+04  0.15050000000E+03 0.  1.
     100001    1    1    2    0    0 -0.83570242984E+03 -0.82509784110E+03  0.63912568992E+04  0.65000000000E+04  0.15050000000E+03 0. -1.
</event>
<event>
 4    1  0.5143956E-004  0.6500000E+04  0.7818608E-02  0.7223770E-01
         52   -1    0    0    0    0  0.00000000000E+00  0.00000000000E+00  0.64930732323E+04  0.65000000000E+04  0.30000000000E+03 0.  1.
        -52   -1    0    0    0    0 -0.00000000000E+00 -0.00000000000E+00 -0.64930732323E+04  0.65000000000E+04  0.30000000000E+03 0. -1.
     100001    1    1    2    0    0  0.37090450978E+03  0.55836097840E+03  0.64635913092E+04  0.65000000000E+04  0.15050000000E+03 0.  1.
     100001    1    1    2    0    0 -0.37090450978E+03 -0.55836097840E+03 -0.64635913092E+04  0.65000000000E+04  0.15050000000E+03 0. -1.
</event>
<event>
 4    1  0.5143956E-004  0.6500000E+04  0.7818608E-02  0.7223770E-01
         52   -1    0    0    0    0  0.00000000000E+00  0.00000000000E+00  0.64930732323E+04  0.65000000000E+04  0.30000000000E+03 0.  1.
        -52   -1    0    0    0    0 -0.00000000000E+00 -0.00000000000E+00 -0.64930732323E+04  0.65000000000E+04  0.30000000000E+03 0. -1.
     100001    1    1    2    0    0  0.60771057629E+03 -0.10748468999E+04  0.63798700416E+04  0.65000000000E+04  0.15050000000E+03 0.  1.
     100001    1    1    2    0    0 -0.60771057629E+03  0.10748468999E+04 -0.63798700416E+04  0.65000000000E+04  0.15050000000E+03 0. -1.
</event>
<event>
 4    1  0.5143956E-004  0.6500000E+04  0.7818608E-02  0.7223770E-01
         52   -1    0    0    0    0  0.00000000000E+00  0.00000000000E+00  0.64930732323E+04  0.65000000000E+04  0.30000000000E+03 0. -1.
        -52   -1    0    0    0    0 -0.00000000000E+00 -0.00000000000E+00 -0.64930732323E+04  0.65000000000E+04  0.30000000000E+03 0.  1.
     100001    1    1    2    0    0 -0.68929162441E+01 -0.52470855126E+03 -0.64770350604E+04  0.65000000000E+04  0.15050000000E+03 0.  1.
     100001    1    1    2    0    0  0.68929162441E+01  0.52470855126E+03  0.64770350604E+04  0.65000000000E+04  0.15050000000E+03 0. -1.
</event>
<event>
 4    1  0.5143956E-004  0.6500000E+04  0.7818608E-02  0.7223770E-01
         52   -1    0    0    0    0  0.00000000000E+00  0.00000000000E+00  0.64930732323E+04  0.65000000000E+04  0.30000000000E+03 0. -1.
        -52   -1    0    0    0    0 -0.00000000000E+00 -0.00000000000E+00 -0.64930732323E+04  0.65000000000E+04  0.30000000000E+03 0.  1.
     100001    1    1    2    0    0  0.34024189678E+04 -0.12290931469E+03  0.55349605435E+04  0.65000000000E+04  0.15050000000E+03 0. -1.
     100001    1    1    2    0    0 -0.34024189678E+04  0.12290931469E+03 -0.55349605435E+04  0.65000000000E+04  0.15050000000E+03 0.  1.
</event>
<event>
 4    1  0.5143956E-004  0.6500000E+04  0.7818608E-02  0.7223770E-01
         52   -1    0    0    0    0  0.00000000000E+00  0.00000000000E+00  0.64930732323E+04  0.65000000000E+04  0.30000000000E+03 0. -1.
        -52   -1    0    0    0    0 -0.00000000000E+00 -0.00000000000E+00 -0.64930732323E+04  0.65000000000E+04  0.30000000000E+03 0.  1.
     100001    1    1    2    0    0 -0.32380002908E+03 -0.99459521059E+02 -0.64894230171E+04  0.65000000000E+04  0.15050000000E+03 0.  1.
     100001    1    1    2    0    0  0.32380002908E+03  0.99459521059E+02  0.64894230171E+04  0.65000000000E+04  0.15050000000E+03 0. -1.
</event>
<event>
 4    1  0.5143956E-004  0.6500000E+04  0.7818608E-02  0.7223770E-01
         52   -1    0    0    0    0  0.00000000000E+00  0.00000000000E+00  0.64930732323E+04  0.65000000000E+04  0.30000000000E+03 0. -1.
        -52   -1    0    0    0    0 -0.00000000000E+00 -0.00000000000E+00 -0.64930732323E+04  0.65000000000E+04  0.30000000000E+03 0.  1.
     100001    1    1    2    0    0 -0.16111065342E+04 -0.21823823190E+04  0.59049888145E+04  0.65000000000E+04  0.15050000000E+03 0. -1.
     100001    1    1    2    0    0  0.16111065342E+04  0.21823823190E+04 -0.59049888145E+04  0.65000000000E+04  0.15050000000E+03 0.  1.
</event>
<event>
 4    1  0.5143956E-004  0.6500000E+04  0.7818608E-02  0.7223770E-01
         52   -1    0    0    0    0  0.00000000000E+00  0.00000000000E+00  0.64930732323E+04  0.65000000000E+04  0.30000000000E+03 0. -1.
        -52   -1    0    0    0    0 -0.00000000000E+00 -0.00000000000E+00 -0.64930732323E+04  0.65000000000E+04  0.30000000000E+03 0. -1.
     100001    1    1    2    0    0 -0.46632449220E+03  0.66324071976E+02  0.64811644274E+04  0.65000000000E+04  0.15050000000E+03 0. -1.
     100001    1    1    2    0    0  0.46632449220E+03 -0.66324071976E+02 -0.64811644274E+04  0.65000000000E+04  0.15050000000E+03 0. -1.
</event>
<event>
 4    1  0.5143956E-004  0.6500000E+04  0.7818608E-02  0.7223770E-01
         52   -1    0    0    0    0  0.00000000000E+00  0.00000000000E+00  0.64930732323E+04  0.65000000000E+04  0.30000000000E+03 0.  1.
        -52   -1    0    0    0    0 -0.00000000000E+00 -0.00000000000E+00 -0.64930732323E+04  0.65000000000E+04  0.30000000000E+03 0. -1.
     100001    1    1    2    0    0  0.11431212253E+04  0.32317039235E+03  0.63887545353E+04  0.65000000000E+04  0.15050000000E+03 0.  1.
     100001    1    1    2    0    0 -0.11431212253E+04 -0.32317039235E+03 -0.63887545353E+04  0.65000000000E+04  0.15050000000E+03 0. -1.
</event>
<event>
 4    1  0.5143956E-004  0.6500000E+04  0.7818608E-02  0.7223770E-01
         52   -1    0    0    0    0  0.00000000000E+00  0.00000000000E+00  0.64930732323E+04  0.65000000000E+04  0.30000000000E+03 0.  1.
        -52   -1    0    0    0    0 -0.00000000000E+00 -0.00000000000E+00 -0.64930732323E+04  0.65000000000E+04  0.30000000000E+03 0.  1.
     100001    1    1    2    0    0  0.21699469044E+03  0.15932436844E+04 -0.62961764283E+04  0.65000000000E+04  0.15050000000E+03 0.  1.
     100001    1    1    2    0    0 -0.21699469044E+03 -0.15932436844E+04  0.62961764283E+04  0.65000000000E+04  0.15050000000E+03 0.  1.
</event>
<event>
 4    1  0.5143956E-004  0.6500000E+04  0.7818608E-02  0.7223770E-01
         52   -1    0    0    0    0  0.00000000000E+00  0.00000000000E+00  0.64930732323E+04  0.65000000000E+04  0.30000000000E+03 0.  1.
        -52   -1    0    0    0    0 -0.00000000000E+00 -0.00000000000E+00 -0.64930732323E+04  0.65000000000E+04  0.30000000000E+03 0. -1.
     100001    1    1    2    0    0  0.74880799574E+03  0.11049349111E+04 -0.63596977269E+04  0.65000000000E+04  0.15050000000E+03 0. -1.
     100001    1    1    2    0    0 -0.74880799574E+03 -0.11049349111E+04  0.63596977269E+04  0.65000000000E+04  0.15050000000E+03 0.  1.
</event>
<event>
 4    1  0.5143956E-004  0.6500000E+04  0.7818608E-02  0.7223770E-01
         52   -1    0    0    0    0  0.00000000000E+00  0.00000000000E+00  0.64930732323E+04  0.65000000000E+04  0.30000000000E+03 0.  1.
        -52   -1    0    0    0    0 -0.00000000000E+00 -0.00000000000E+00 -0.64930732323E+04  0.65000000000E+04  0.30000000000E+03 0. -1.
     100001    1    1    2    0    0 -0.13867428181E+04 -0.22741859402E+04  0.59272567361E+04  0.65000000000E+04  0.15050000000E+03 0.  1.
     100001    1    1    2    0    0  0.13867428181E+04  0.22741859402E+04 -0.59272567361E+04  0.65000000000E+04  0.15050000000E+03 0. -1.
</event>
<event>
 4    1  0.5143956E-004  0.6500000E+04  0.7818608E-02  0.7223770E-01
         52   -1    0    0    0    0  0.00000000000E+00  0.00000000000E+00  0.64930732323E+04  0.65000000000E+04  0.30000000000E+03 0. -1.
        -52   -1    0    0    0    0 -0.00000000000E+00 -0.00000000000E+00 -0.64930732323E+04  0.65000000000E+04  0.30000000000E+03 0.  1.
     100001    1    1    2    0    0  0.15704049531E+03  0.18404931955E+03 -0.64937519109E+04  0.65000000000E+04  0.15050000000E+03 0.  1.
     100001    1    1    2    0    0 -0.15704049531E+03 -0.18404931955E+03  0.64937519109E+04  0.65000000000E+04  0.15050000000E+03 0. -1.
</event>
<event>
 4    1  0.5143956E-004  0.6500000E+04  0.7818608E-02  0.7223770E-01
         52   -1    0    0    0    0  0.00000000000E+00  0.00000000000E+00  0.64930732323E+04  0.65000000000E+04  0.30000000000E+03 0. -1.
        -52   -1    0    0    0    0 -0.00000000000E+00 -0.00000000000E+00 -0.64930732323E+04  0.65000000000E+04  0.30000000000E+03 0.  1.
     100001    1    1    2    0    0  0.43122231973E+04 -0.11245214685E+04 -0.47294325573E+04  0.65000000000E+04  0.15050000000E+03 0.  1.
     100001    1    1    2    0    0 -0.43122231973E+04  0.11245214685E+04  0.47294325573E+04  0.65000000000E+04  0.15050000000E+03 0. -1.
</event>
<event>
 4    1  0.5143956E-004  0.6500000E+04  0.7818608E-02  0.7223770E-01
         52   -1    0    0    0    0  0.00000000000E+00  0.00000000000E+00  0.64930732323E+04  0.65000000000E+04  0.30000000000E+03 0. -1.
        -52   -1    0    0    0    0 -0.00000000000E+00 -0.00000000000E+00 -0.64930732323E+04  0.65000000000E+04  0.30000000000E+03 0.  1.
     100001    1    1    2    0    0  0.30880225755E+04 -0.47222640242E+04  0.32236142463E+04  0.65000000000E+04  0.15050000000E+03 0. -1.
     100001    1    1    2    0    0 -0.30880225755E+04  0.47222640242E+04 -0.32236142463E+04  0.65000000000E+04  0.15050000000E+03 0.  1.
</event>
<event>
 4    1  0.5143956E-004  0.6500000E+04  0.7818608E-02  0.7223770E-01
         52   -1    0    0    0    0  0.00000000000E+00  0.00000000000E+00  0.64930732323E+04  0.65000000000E+04  0.30000000000E+03 0.  1.
        -52   -1    0    0    0    0 -0.00000000000E+00 -0.00000000000E+00 -0.64930732323E+04  0.65000000000E+04  0.30000000000E+03 0. -1.
     100001    1    1    2    0    0  0.13134074134E+03  0.52721793841E+03 -0.64755031160E+04  0.65000000000E+04  0.15050000000E+03 0. -1.
     100001    1    1    2    0    0 -0.13134074134E+03 -0.52721793841E+03  0.64755031160E+04  0.65000000000E+04  0.15050000000E+03 0.  1.
</event>
<event>
 4    1  0.5143956E-004  0.6500000E+04  0.7818608E-02  0.7223770E-01
         52   -1    0    0    0    0  0.00000000000E+00  0.00000000000E+00  0.64930732323E+04  0.65000000000E+04  0.30000000000E+03 0.  1.
        -52   -1    0    0    0    0 -0.00000000000E+00 -0.00000000000E+00 -0.64930732323E+04  0.65000000000E+04  0.30000000000E+03 0. -1.
     100001    1    1    2    0    0 -0.16282801364E+04 -0.75419269373E+03  0.62455781900E+04  0.65000000000E+04  0.15050000000E+03 0.  1.
     100001    1    1    2    0    0  0.16282801364E+04  0.75419269373E+03 -0.62455781900E+04  0.65000000000E+04  0.15050000000E+03 0. -1.
</event>
<event>
 4    1  0.5143956E-004  0.6500000E+04  0.7818608E-02  0.7223770E-01
         52   -1    0    0    0    0  0.00000000000E+00  0.00000000000E+00  0.64930732323E+04  0.65000000000E+04  0.30000000000E+03 0. -1.
        -52   -1    0    0    0    0 -0.00000000000E+00 -0.00000000000E+00 -0.64930732323E+04  0.65000000000E+04  0.30000000000E+03 0.  1.
     100001    1    1    2    0    0 -0.32171764997E+04  0.12285277238E+04 -0.55107027457E+04  0.65000000000E+04  0.15050000000E+03 0.  1.
     100001    1    1    2    0    0  0.32171764997E+04 -0.12285277238E+04  0.55107027457E+04  0.65000000000E+04  0.15050000000E+03 0. -1.
</event>
<event>
 4    1  0.5143956E-004  0.6500000E+04  0.7818608E-02  0.7223770E-01
         52   -1    0    0    0    0  0.00000000000E+00  0.00000000000E+00  0.64930732323E+04  0.65000000000E+04  0.30000000000E+03 0. -1.
        -52   -1    0    0    0    0 -0.00000000000E+00 -0.00000000000E+00 -0.64930732323E+04  0.65000000000E+04  0.30000000000E+03 0.  1.
     100001    1    1    2    0    0  0.36356037139E+03 -0.13555586985E+04  0.63448904026E+04  0.65000000000E+04  0.15050000000E+03 0. -1.
     100001    1    1    2    0    0 -0.36356037139E+03  0.13555586985E+04 -0.63448904026E+04  0.65000000000E+04  0.15050000000E+03 0.  1.
</event>
<event>
 4    1  0.5143956E-004  0.6500000E+04  0.7818608E-02  0.7223770E-01
         52   -1    0    0    0    0  0.00000000000E+00  0.00000000000E+00  0.64930732323E+04  0.65000000000E+04  0.30000000000E+03 0.  1.
        -52   -1    0    0    0    0 -0.00000000000E+00 -0.00000000000E+00 -0.64930732323E+04  0.65000000000E+04  0.30000000000E+03 0. -1.
     100001    1    1    2    0    0 -0.84596479890E+03  0.80168222359E+03  0.63928865876E+04  0.65000000000E+04  0.15050000000E+03 0.  1.
     100001    1    1    2    0    0  0.84596479890E+03 -0.80168222359E+03 -0.63928865876E+04  0.65000000000E+04  0.15050000000E+03 0. -1.
</event>
<event>
 4    1  0.5143956E-004  0.6500000E+04  0.7818608E-02  0.7223770E-01
         52   -1    0    0    0    0  0.00000000000E+00  0.00000000000E+00  0.64930732323E+04  0.65000000000E+04  0.30000000000E+03 0.  1.
        -52   -1    0    0    0    0 -0.00000000000E+00 -0.00000000000E+00 -0.64930732323E+04  0.65000000000E+04  0.30000000000E+03 0. -1.
     100001    1    1    2    0    0 -0.82619741461E+02 -0.39153813209E+04 -0.51855870295E+04  0.65000000000E+04  0.15050000000E+03 0. -1.
     100001    1    1    2    0    0  0.82619741461E+02  0.39153813209E+04  0.51855870295E+04  0.65000000000E+04  0.15050000000E+03 0.  1.
</event>
<event>
 4    1  0.5143956E-004  0.6500000E+04  0.7818608E-02  0.7223770E-01
         52   -1    0    0    0    0  0.00000000000E+00  0.00000000000E+00  0.64930732323E+04  0.65000000000E+04  0.30000000000E+03 0.  1.
        -52   -1    0    0    0    0 -0.00000000000E+00 -0.00000000000E+00 -0.64930732323E+04  0.65000000000E+04  0.30000000000E+03 0. -1.
     100001    1    1    2    0    0 -0.32553354778E+04  0.18433875337E+04  0.53133852747E+04  0.65000000000E+04  0.15050000000E+03 0.  1.
     100001    1    1    2    0    0  0.32553354778E+04 -0.18433875337E+04 -0.53133852747E+04  0.65000000000E+04  0.15050000000E+03 0. -1.
</event>
<event>
 4    1  0.5143956E-004  0.6500000E+04  0.7818608E-02  0.7223770E-01
         52   -1    0    0    0    0  0.00000000000E+00  0.00000000000E+00  0.64930732323E+04  0.65000000000E+04  0.30000000000E+03 0. -1.
        -52   -1    0    0    0    0 -0.00000000000E+00 -0.00000000000E+00 -0.64930732323E+04  0.65000000000E+04  0.30000000000E+03 0. -1.
     100001    1    1    2    0    0 -0.77839115696E+03  0.58980548798E+01  0.64514666681E+04  0.65000000000E+04  0.15050000000E+03 0. -1.
     100001    1    1    2    0    0  0.77839115696E+03 -0.58980548798E+01 -0.64514666681E+04  0.65000000000E+04  0.15050000000E+03 0. -1.
</event>
<event>
 4    1  0.5143956E-004  0.6500000E+04  0.7818608E-02  0.7223770E-01
         52   -1    0    0    0    0  0.00000000000E+00  0.00000000000E+00  0.64930732323E+04  0.65000000000E+04  0.30000000000E+03 0.  1.
        -52   -1    0    0    0    0 -0.00000000000E+00 -0.00000000000E+00 -0.64930732323E+04  0.65000000000E+04  0.30000000000E+03 0. -1.
     100001    1    1    2    0    0  0.12692373331E+04  0.57338004412E+03  0.63472530804E+04  0.65000000000E+04  0.15050000000E+03 0.  1.
     100001    1    1    2    0    0 -0.12692373331E+04 -0.57338004412E+03 -0.63472530804E+04  0.65000000000E+04  0.15050000000E+03 0. -1.
</event>
<event>
 4    1  0.5143956E-004  0.6500000E+04  0.7818608E-02  0.7223770E-01
         52   -1    0    0    0    0  0.00000000000E+00  0.00000000000E+00  0.64930732323E+04  0.65000000000E+04  0.30000000000E+03 0. -1.
        -52   -1    0    0    0    0 -0.00000000000E+00 -0.00000000000E+00 -0.64930732323E+04  0.65000000000E+04  0.30000000000E+03 0.  1.
     100001    1    1    2    0    0 -0.11244511142E+03  0.40371680126E+04 -0.50907740360E+04  0.65000000000E+04  0.15050000000E+03 0.  1.
     100001    1    1    2    0    0  0.11244511142E+03 -0.40371680126E+04  0.50907740360E+04  0.65000000000E+04  0.15050000000E+03 0. -1.
</event>
<event>
 4    1  0.5143956E-004  0.6500000E+04  0.7818608E-02  0.7223770E-01
         52   -1    0    0    0    0  0.00000000000E+00  0.00000000000E+00  0.64930732323E+04  0.65000000000E+04  0.30000000000E+03 0. -1.
        -52   -1    0    0    0    0 -0.00000000000E+00 -0.00000000000E+00 -0.64930732323E+04  0.65000000000E+04  0.30000000000E+03 0.  1.
     100001    1    1    2    0    0 -0.10791051780E+04 -0.13715045992E+04 -0.62595412691E+04  0.65000000000E+04  0.15050000000E+03 0.  1.
     100001    1    1    2    0    0  0.10791051780E+04  0.13715045992E+04  0.62595412691E+04  0.65000000000E+04  0.15050000000E+03 0. -1.
</event>
<event>
 4    1  0.5143956E-004  0.6500000E+04  0.7818608E-02  0.7223770E-01
         52   -1    0    0    0    0  0.00000000000E+00  0.00000000000E+00  0.64930732323E+04  0.65000000000E+04  0.30000000000E+03 0.  1.
        -52   -1    0    0    0    0 -0.00000000000E+00 -0.00000000000E+00 -0.64930732323E+04  0.65000000000E+04  0.30000000000E+03 0. -1.
     100001    1    1    2    0    0 -0.61433101016E+02  0.20858950113E+03 -0.64946182447E+04  0.65000000000E+04  0.15050000000E+03 0. -1.
     100001    1    1    2    0    0  0.61433101016E+02 -0.20858950113E+03  0.64946182447E+04  0.65000000000E+04  0.15050000000E+03 0.  1.
</event>
<event>
 4    1  0.5143956E-004  0.6500000E+04  0.7818608E-02  0.7223770E-01
         52   -1    0    0    0    0  0.00000000000E+00  0.00000000000E+00  0.64930732323E+04  0.65000000000E+04  0.30000000000E+03 0. -1.
        -52   -1    0    0    0    0 -0.00000000000E+00 -0.00000000000E+00 -0.64930732323E+04  0.65000000000E+04  0.30000000000E+03 0.  1.
     100001    1    1    2    0    0  0.70940691660E+03  0.55529950219E+03  0.64355057330E+04  0.65000000000E+04  0.15050000000E+03 0. -1.
     100001    1    1    2    0    0 -0.70940691660E+03 -0.55529950219E+03 -0.64355057330E+04  0.65000000000E+04  0.15050000000E+03 0.  1.
</event>
<event>
 4    1  0.5143956E-004  0.6500000E+04  0.7818608E-02  0.7223770E-01
         52   -1    0    0    0    0  0.00000000000E+00  0.00000000000E+00  0.64930732323E+04  0.65000000000E+04  0.30000000000E+03 0. -1.
        -52   -1    0    0    0    0 -0.00000000000E+00 -0.00000000000E+00 -0.64930732323E+04  0.65000000000E+04  0.30000000000E+03 0.  1.
     100001    1    1    2    0    0 -0.11544425205E+03 -0.13606130560E+04 -0.63531688539E+04  0.65000000000E+04  0.15050000000E+03 0.  1.
     100001    1    1    2    0    0  0.11544425205E+03  0.13606130560E+04  0.63531688539E+04  0.65000000000E+04  0.15050000000E+03 0. -1.
</event>
<event>
 4    1  0.5143956E-004  0.6500000E+04  0.7818608E-02  0.7223770E-01
         52   -1    0    0    0    0  0.00000000000E+00  0.00000000000E+00  0.64930732323E+04  0.65000000000E+04  0.30000000000E+03 0.  1.
        -52   -1    0    0    0    0 -0.00000000000E+00 -0.00000000000E+00 -0.64930732323E+04  0.65000000000E+04  0.30000000000E+03 0.  1.
     100001    1    1    2    0    0  0.52518812536E+03  0.12375468498E+03 -0.64758174743E+04  0.65000000000E+04  0.15050000000E+03 0.  1.
     100001    1    1    2    0    0 -0.52518812536E+03 -0.12375468498E+03  0.64758174743E+04  0.65000000000E+04  0.15050000000E+03 0.  1.
</event>
<event>
 4    1  0.5143956E-004  0.6500000E+04  0.7818608E-02  0.7223770E-01
         52   -1    0    0    0    0  0.00000000000E+00  0.00000000000E+00  0.64930732323E+04  0.65000000000E+04  0.30000000000E+03 0. -1.
        -52   -1    0    0    0    0 -0.00000000000E+00 -0.00000000000E+00 -0.64930732323E+04  0.65000000000E+04  0.30000000000E+03 0.  1.
     100001    1    1    2    0    0  0.17447905646E+04  0.30527276439E+04 -0.54647881540E+04  0.65000000000E+04  0.15050000000E+03 0.  1.
     100001    1    1    2    0    0 -0.17447905646E+04 -0.30527276439E+04  0.54647881540E+04  0.65000000000E+04  0.15050000000E+03 0. -1.
</event>
<event>
 4    1  0.5143956E-004  0.6500000E+04  0.7818608E-02  0.7223770E-01
         52   -1    0    0    0    0  0.00000000000E+00  0.00000000000E+00  0.64930732323E+04  0.65000000000E+04  0.30000000000E+03 0.  1.
        -52   -1    0    0    0    0 -0.00000000000E+00 -0.00000000000E+00 -0.64930732323E+04  0.65000000000E+04  0.30000000000E+03 0. -1.
     100001    1    1    2    0    0  0.24892049344E+04 -0.47657755228E+04 -0.36494646472E+04  0.65000000000E+04  0.15050000000E+03 0. -1.
     100001    1    1    2    0    0 -0.24892049344E+04  0.47657755228E+04  0.36494646472E+04  0.65000000000E+04  0.15050000000E+03 0.  1.
</event>
<event>
 4    1  0.5143956E-004  0.6500000E+04  0.7818608E-02  0.7223770E-01
         52   -1    0    0    0    0  0.00000000000E+00  0.00000000000E+00  0.64930732323E+04  0.65000000000E+04  0.30000000000E+03 0.  1.
        -52   -1    0    0    0    0 -0.00000000000E+00 -0.00000000000E+00 -0.64930732323E+04  0.65000000000E+04  0.30000000000E+03 0. -1.
     100001    1    1    2    0    0  0.14159334545E+03  0.14453984969E+03  0.64951065662E+04  0.65000000000E+04  0.15050000000E+03 0.  1.
     100001    1    1    2    0    0 -0.14159334545E+03 -0.14453984969E+03 -0.64951065662E+04  0.65000000000E+04  0.15050000000E+03 0. -1.
</event>
<event>
 4    1  0.5143956E-004  0.6500000E+04  0.7818608E-02  0.7223770E-01
         52   -1    0    0    0    0  0.00000000000E+00  0.00000000000E+00  0.64930732323E+04  0.65000000000E+04  0.30000000000E+03 0. -1.
        -52   -1    0    0    0    0 -0.00000000000E+00 -0.00000000000E+00 -0.64930732323E+04  0.65000000000E+04  0.30000000000E+03 0.  1.
     100001    1    1    2    0    0 -0.10477624797E+04 -0.63637628327E+04  0.79502587743E+03  0.65000000000E+04  0.15050000000E+03 0. -1.
     100001    1    1    2    0    0  0.10477624797E+04  0.63637628327E+04 -0.79502587743E+03  0.65000000000E+04  0.15050000000E+03 0.  1.
</event>
<event>
 4    1  0.5143956E-004  0.6500000E+04  0.7818608E-02  0.7223770E-01
         52   -1    0    0    0    0  0.00000000000E+00  0.00000000000E+00  0.64930732323E+04  0.65000000000E+04  0.30000000000E+03 0.  1.
        -52   -1    0    0    0    0 -0.00000000000E+00 -0.00000000000E+00 -0.64930732323E+04  0.65000000000E+04  0.30000000000E+03 0. -1.
     100001    1    1    2    0    0  0.22356096422E+03  0.14883475233E+04 -0.63215656206E+04  0.65000000000E+04  0.15050000000E+03 0. -1.
     100001    1    1    2    0    0 -0.22356096422E+03 -0.14883475233E+04  0.63215656206E+04  0.65000000000E+04  0.15050000000E+03 0.  1.
</event>
<event>
 4    1  0.5143956E-004  0.6500000E+04  0.7818608E-02  0.7223770E-01
         52   -1    0    0    0    0  0.00000000000E+00  0.00000000000E+00  0.64930732323E+04  0.65000000000E+04  0.30000000000E+03 0.  1.
        -52   -1    0    0    0    0 -0.00000000000E+00 -0.00000000000E+00 -0.64930732323E+04  0.65000000000E+04  0.30000000000E+03 0. -1.
     100001    1    1    2    0    0  0.90019603558E+03 -0.94671555626E+03  0.63655892503E+04  0.65000000000E+04  0.15050000000E+03 0.  1.
     100001    1    1    2    0    0 -0.90019603558E+03  0.94671555626E+03 -0.63655892503E+04  0.65000000000E+04  0.15050000000E+03 0. -1.
</event>
<event>
 4    1  0.5143956E-004  0.6500000E+04  0.7818608E-02  0.7223770E-01
         52   -1    0    0    0    0  0.00000000000E+00  0.00000000000E+00  0.64930732323E+04  0.65000000000E+04  0.30000000000E+03 0.  1.
        -52   -1    0    0    0    0 -0.00000000000E+00 -0.00000000000E+00 -0.64930732323E+04  0.65000000000E+04  0.30000000000E+03 0.  1.
     100001    1    1    2    0    0  0.25729369019E+03 -0.17928307194E+03  0.64906861954E+04  0.65000000000E+04  0.15050000000E+03 0.  1.
     100001    1    1    2    0    0 -0.25729369019E+03  0.17928307194E+03 -0.64906861954E+04  0.65000000000E+04  0.15050000000E+03 0.  1.
</event>
<event>
 4    1  0.5143956E-004  0.6500000E+04  0.7818608E-02  0.7223770E-01
         52   -1    0    0    0    0  0.00000000000E+00  0.00000000000E+00  0.64930732323E+04  0.65000000000E+04  0.30000000000E+03 0. -1.
        -52   -1    0    0    0    0 -0.00000000000E+00 -0.00000000000E+00 -0.64930732323E+04  0.65000000000E+04  0.30000000000E+03 0.  1.
     100001    1    1    2    0    0  0.23506610110E+04  0.10681245445E+04 -0.59632920873E+04  0.65000000000E+04  0.15050000000E+03 0.  1.
     100001    1    1    2    0    0 -0.23506610110E+04 -0.10681245445E+04  0.59632920873E+04  0.65000000000E+04  0.15050000000E+03 0. -1.
</event>
<event>
 4    1  0.5143956E-004  0.6500000E+04  0.7818608E-02  0.7223770E-01
         52   -1    0    0    0    0  0.00000000000E+00  0.00000000000E+00  0.64930732323E+04  0.65000000000E+04  0.30000000000E+03 0.  1.
        -52   -1    0    0    0    0 -0.00000000000E+00 -0.00000000000E+00 -0.64930732323E+04  0.65000000000E+04  0.30000000000E+03 0. -1.
     100001    1    1    2    0    0  0.25050048807E+03  0.23962025073E+03 -0.64890046533E+04  0.65000000000E+04  0.15050000000E+03 0. -1.
     100001    1    1    2    0    0 -0.25050048807E+03 -0.23962025073E+03  0.64890046533E+04  0.65000000000E+04  0.15050000000E+03 0.  1.
</event>
<event>
 4    1  0.5143956E-004  0.6500000E+04  0.7818608E-02  0.7223770E-01
         52   -1    0    0    0    0  0.00000000000E+00  0.00000000000E+00  0.64930732323E+04  0.65000000000E+04  0.30000000000E+03 0.  1.
        -52   -1    0    0    0    0 -0.00000000000E+00 -0.00000000000E+00 -0.64930732323E+04  0.65000000000E+04  0.30000000000E+03 0. -1.
     100001    1    1    2    0    0  0.32947359246E+04  0.24956867606E+04  0.50143406874E+04  0.65000000000E+04  0.15050000000E+03 0.  1.
     100001    1    1    2    0    0 -0.32947359246E+04 -0.24956867606E+04 -0.50143406874E+04  0.65000000000E+04  0.15050000000E+03 0. -1.
</event>
<event>
 4    1  0.5143956E-004  0.6500000E+04  0.7818608E-02  0.7223770E-01
         52   -1    0    0    0    0  0.00000000000E+00  0.00000000000E+00  0.64930732323E+04  0.65000000000E+04  0.30000000000E+03 0. -1.
        -52   -1    0    0    0    0 -0.00000000000E+00 -0.00000000000E+00 -0.64930732323E+04  0.65000000000E+04  0.30000000000E+03 0.  1.
     100001    1    1    2    0    0  0.13685798282E+04 -0.96052612624E+02 -0.63517802937E+04  0.65000000000E+04  0.15050000000E+03 0.  1.
     100001    1    1    2    0    0 -0.13685798282E+04  0.96052612624E+02  0.63517802937E+04  0.65000000000E+04  0.15050000000E+03 0. -1.
</event>
<event>
 4    1  0.5143956E-004  0.6500000E+04  0.7818608E-02  0.7223770E-01
         52   -1    0    0    0    0  0.00000000000E+00  0.00000000000E+00  0.64930732323E+04  0.65000000000E+04  0.30000000000E+03 0.  1.
        -52   -1    0    0    0    0 -0.00000000000E+00 -0.00000000000E+00 -0.64930732323E+04  0.65000000000E+04  0.30000000000E+03 0. -1.
     100001    1    1    2    0    0 -0.11867995602E+04 -0.18017852304E+04 -0.61296351064E+04  0.65000000000E+04  0.15050000000E+03 0. -1.
     100001    1    1    2    0    0  0.11867995602E+04  0.18017852304E+04  0.61296351064E+04  0.65000000000E+04  0.15050000000E+03 0.  1.
</event>
<event>
 4    1  0.5143956E-004  0.6500000E+04  0.7818608E-02  0.7223770E-01
         52   -1    0    0    0    0  0.00000000000E+00  0.00000000000E+00  0.64930732323E+04  0.65000000000E+04  0.30000000000E+03 0. -1.
        -52   -1    0    0    0    0 -0.00000000000E+00 -0.00000000000E+00 -0.64930732323E+04  0.65000000000E+04  0.30000000000E+03 0.  1.
     100001    1    1    2    0    0 -0.92596862384E+03 -0.64709357974E+03  0.63993126003E+04  0.65000000000E+04  0.15050000000E+03 0. -1.
     100001    1    1    2    0    0  0.92596862384E+03  0.64709357974E+03 -0.63993126003E+04  0.65000000000E+04  0.15050000000E+03 0.  1.
</event>
<event>
 4    1  0.5143956E-004  0.6500000E+04  0.7818608E-02  0.7223770E-01
         52   -1    0    0    0    0  0.00000000000E+00  0.00000000000E+00  0.64930732323E+04  0.65000000000E+04  0.30000000000E+03 0.  1.
        -52   -1    0    0    0    0 -0.00000000000E+00 -0.00000000000E+00 -0.64930732323E+04  0.65000000000E+04  0.30000000000E+03 0. -1.
     100001    1    1    2    0    0 -0.60049667938E+04 -0.24806368997E+04  0.11901314027E+03  0.65000000000E+04  0.15050000000E+03 0. -1.
     100001    1    1    2    0    0  0.60049667938E+04  0.24806368997E+04 -0.11901314027E+03  0.65000000000E+04  0.15050000000E+03 0.  1.
</event>
<event>
 4    1  0.5143956E-004  0.6500000E+04  0.7818608E-02  0.7223770E-01
         52   -1    0    0    0    0  0.00000000000E+00  0.00000000000E+00  0.64930732323E+04  0.65000000000E+04  0.30000000000E+03 0. -1.
        -52   -1    0    0    0    0 -0.00000000000E+00 -0.00000000000E+00 -0.64930732323E+04  0.65000000000E+04  0.30000000000E+03 0.  1.
     100001    1    1    2    0    0  0.31267293450E+04 -0.15404465025E+04  0.54843356869E+04  0.65000000000E+04  0.15050000000E+03 0. -1.
     100001    1    1    2    0    0 -0.31267293450E+04  0.15404465025E+04 -0.54843356869E+04  0.65000000000E+04  0.15050000000E+03 0.  1.
</event>
<event>
 4    1  0.5143956E-004  0.6500000E+04  0.7818608E-02  0.7223770E-01
         52   -1    0    0    0    0  0.00000000000E+00  0.00000000000E+00  0.64930732323E+04  0.65000000000E+04  0.30000000000E+03 0. -1.
        -52   -1    0    0    0    0 -0.00000000000E+00 -0.00000000000E+00 -0.64930732323E+04  0.65000000000E+04  0.30000000000E+03 0.  1.
     100001    1    1    2    0    0  0.10640570565E+04  0.23439922073E+04 -0.59666433497E+04  0.65000000000E+04  0.15050000000E+03 0.  1.
     100001    1    1    2    0    0 -0.10640570565E+04 -0.23439922073E+04  0.59666433497E+04  0.65000000000E+04  0.15050000000E+03 0. -1.
</event>
<event>
 4    1  0.5143956E-004  0.6500000E+04  0.7818608E-02  0.7223770E-01
         52   -1    0    0    0    0  0.00000000000E+00  0.00000000000E+00  0.64930732323E+04  0.65000000000E+04  0.30000000000E+03 0.  1.
        -52   -1    0    0    0    0 -0.00000000000E+00 -0.00000000000E+00 -0.64930732323E+04  0.65000000000E+04  0.30000000000E+03 0. -1.
     100001    1    1    2    0    0 -0.38810307535E+03 -0.31678887749E+04 -0.56604952489E+04  0.65000000000E+04  0.15050000000E+03 0. -1.
     100001    1    1    2    0    0  0.38810307535E+03  0.31678887749E+04  0.56604952489E+04  0.65000000000E+04  0.15050000000E+03 0.  1.
</event>
<event>
 4    1  0.5143956E-004  0.6500000E+04  0.7818608E-02  0.7223770E-01
         52   -1    0    0    0    0  0.00000000000E+00  0.00000000000E+00  0.64930732323E+04  0.65000000000E+04  0.30000000000E+03 0. -1.
        -52   -1    0    0    0    0 -0.00000000000E+00 -0.00000000000E+00 -0.64930732323E+04  0.65000000000E+04  0.30000000000E+03 0.  1.
     100001    1    1    2    0    0  0.11164833657E+03 -0.21197989874E+04  0.61417698306E+04  0.65000000000E+04  0.15050000000E+03 0. -1.
     100001    1    1    2    0    0 -0.11164833657E+03  0.21197989874E+04 -0.61417698306E+04  0.65000000000E+04  0.15050000000E+03 0.  1.
</event>
<event>
 4    1  0.5143956E-004  0.6500000E+04  0.7818608E-02  0.7223770E-01
         52   -1    0    0    0    0  0.00000000000E+00  0.00000000000E+00  0.64930732323E+04  0.65000000000E+04  0.30000000000E+03 0.  1.
        -52   -1    0    0    0    0 -0.00000000000E+00 -0.00000000000E+00 -0.64930732323E+04  0.65000000000E+04  0.30000000000E+03 0. -1.
     100001    1    1    2    0    0  0.40013251716E+03  0.88044451580E+02  0.64853289734E+04  0.65000000000E+04  0.15050000000E+03 0.  1.
     100001    1    1    2    0    0 -0.40013251716E+03 -0.88044451580E+02 -0.64853289734E+04  0.65000000000E+04  0.15050000000E+03 0. -1.
</event>
<event>
 4    1  0.5143956E-004  0.6500000E+04  0.7818608E-02  0.7223770E-01
         52   -1    0    0    0    0  0.00000000000E+00  0.00000000000E+00  0.64930732323E+04  0.65000000000E+04  0.30000000000E+03 0. -1.
        -52   -1    0    0    0    0 -0.00000000000E+00 -0.00000000000E+00 -0.64930732323E+04  0.65000000000E+04  0.30000000000E+03 0.  1.
     100001    1    1    2    0    0  0.63196436800E+03 -0.20838774462E+03  0.64640966372E+04  0.65000000000E+04  0.15050000000E+03 0. -1.
     100001    1    1    2    0    0 -0.63196436800E+03  0.20838774462E+03 -0.64640966372E+04  0.65000000000E+04  0.15050000000E+03 0.  1.
</event>
<event>
 4    1  0.5143956E-004  0.6500000E+04  0.7818608E-02  0.7223770E-01
         52   -1    0    0    0    0  0.00000000000E+00  0.00000000000E+00  0.64930732323E+04  0.65000000000E+04  0.30000000000E+03 0. -1.
        -52   -1    0    0    0    0 -0.00000000000E+00 -0.00000000000E+00 -0.64930732323E+04  0.65000000000E+04  0.30000000000E+03 0.  1.
     100001    1    1    2    0    0  0.35189468460E+03  0.20061075060E+02  0.64886915040E+04  0.65000000000E+04  0.15050000000E+03 0. -1.
     100001    1    1    2    0    0 -0.35189468460E+03 -0.20061075060E+02 -0.64886915040E+04  0.65000000000E+04  0.15050000000E+03 0.  1.
</event>
<event>
 4    1  0.5143956E-004  0.6500000E+04  0.7818608E-02  0.7223770E-01
         52   -1    0    0    0    0  0.00000000000E+00  0.00000000000E+00  0.64930732323E+04  0.65000000000E+04  0.30000000000E+03 0.  1.
        -52   -1    0    0    0    0 -0.00000000000E+00 -0.00000000000E+00 -0.64930732323E+04  0.65000000000E+04  0.30000000000E+03 0. -1.
     100001    1    1    2    0    0 -0.11238695888E+04 -0.14525340684E+03  0.63986848918E+04  0.65000000000E+04  0.15050000000E+03 0.  1.
     100001    1    1    2    0    0  0.11238695888E+04  0.14525340684E+03 -0.63986848918E+04  0.65000000000E+04  0.15050000000E+03 0. -1.
</event>
<event>
 4    1  0.5143956E-004  0.6500000E+04  0.7818608E-02  0.7223770E-01
         52   -1    0    0    0    0  0.00000000000E+00  0.00000000000E+00  0.64930732323E+04  0.65000000000E+04  0.30000000000E+03 0.  1.
        -52   -1    0    0    0    0 -0.00000000000E+00 -0.00000000000E+00 -0.64930732323E+04  0.65000000000E+04  0.30000000000E+03 0. -1.
     100001    1    1    2    0    0 -0.99359526535E+03  0.44287972443E+04  0.46503626920E+04  0.65000000000E+04  0.15050000000E+03 0.  1.
     100001    1    1    2    0    0  0.99359526535E+03 -0.44287972443E+04 -0.46503626920E+04  0.65000000000E+04  0.15050000000E+03 0. -1.
</event>
<event>
 4    1  0.5143956E-004  0.6500000E+04  0.7818608E-02  0.7223770E-01
         52   -1    0    0    0    0  0.00000000000E+00  0.00000000000E+00  0.64930732323E+04  0.65000000000E+04  0.30000000000E+03 0.  1.
        -52   -1    0    0    0    0 -0.00000000000E+00 -0.00000000000E+00 -0.64930732323E+04  0.65000000000E+04  0.30000000000E+03 0. -1.
     100001    1    1    2    0    0  0.61524748420E+03  0.19425261993E+03  0.64661492562E+04  0.65000000000E+04  0.15050000000E+03 0.  1.
     100001    1    1    2    0    0 -0.61524748420E+03 -0.19425261993E+03 -0.64661492562E+04  0.65000000000E+04  0.15050000000E+03 0. -1.
</event>
<event>
 4    1  0.5143956E-004  0.6500000E+04  0.7818608E-02  0.7223770E-01
         52   -1    0    0    0    0  0.00000000000E+00  0.00000000000E+00  0.64930732323E+04  0.65000000000E+04  0.30000000000E+03 0. -1.
        -52   -1    0    0    0    0 -0.00000000000E+00 -0.00000000000E+00 -0.64930732323E+04  0.65000000000E+04  0.30000000000E+03 0.  1.
     100001    1    1    2    0    0 -0.59714325779E+04  0.20749400641E+04  0.15046482806E+04  0.65000000000E+04  0.15050000000E+03 0. -1.
     100001    1    1    2    0    0  0.59714325779E+04 -0.20749400641E+04 -0.15046482806E+04  0.65000000000E+04  0.15050000000E+03 0.  1.
</event>
<event>
 4    1  0.5143956E-004  0.6500000E+04  0.7818608E-02  0.7223770E-01
         52   -1    0    0    0    0  0.00000000000E+00  0.00000000000E+00  0.64930732323E+04  0.65000000000E+04  0.30000000000E+03 0. -1.
        -52   -1    0    0    0    0 -0.00000000000E+00 -0.00000000000E+00 -0.64930732323E+04  0.65000000000E+04  0.30000000000E+03 0.  1.
     100001    1    1    2    0    0 -0.51530956062E+04 -0.39299169635E+04 -0.47823433891E+03  0.65000000000E+04  0.15050000000E+03 0.  1.
     100001    1    1    2    0    0  0.51530956062E+04  0.39299169635E+04  0.47823433891E+03  0.65000000000E+04  0.15050000000E+03 0. -1.
</event>
<event>
 4    1  0.5143956E-004  0.6500000E+04  0.7818608E-02  0.7223770E-01
         52   -1    0    0    0    0  0.00000000000E+00  0.00000000000E+00  0.64930732323E+04  0.65000000000E+04  0.30000000000E+03 0.  1.
        -52   -1    0    0    0    0 -0.00000000000E+00 -0.00000000000E+00 -0.64930732323E+04  0.65000000000E+04  0.30000000000E+03 0. -1.
     100001    1    1    2    0    0  0.27242814839E+04 -0.58554307385E+04 -0.72081274445E+03  0.65000000000E+04  0.15050000000E+03 0.  1.
     100001    1    1    2    0    0 -0.27242814839E+04  0.58554307385E+04  0.72081274445E+03  0.65000000000E+04  0.15050000000E+03 0. -1.
</event>
<event>
 4    1  0.5143956E-004  0.6500000E+04  0.7818608E-02  0.7223770E-01
         52   -1    0    0    0    0  0.00000000000E+00  0.00000000000E+00  0.64930732323E+04  0.65000000000E+04  0.30000000000E+03 0. -1.
        -52   -1    0    0    0    0 -0.00000000000E+00 -0.00000000000E+00 -0.64930732323E+04  0.65000000000E+04  0.30000000000E+03 0.  1.
     100001    1    1    2    0    0  0.77377713261E+03 -0.21429912945E+04 -0.60857380005E+04  0.65000000000E+04  0.15050000000E+03 0.  1.
     100001    1    1    2    0    0 -0.77377713261E+03  0.21429912945E+04  0.60857380005E+04  0.65000000000E+04  0.15050000000E+03 0. -1.
</event>
<event>
 4    1  0.5143956E-004  0.6500000E+04  0.7818608E-02  0.7223770E-01
         52   -1    0    0    0    0  0.00000000000E+00  0.00000000000E+00  0.64930732323E+04  0.65000000000E+04  0.30000000000E+03 0. -1.
        -52   -1    0    0    0    0 -0.00000000000E+00 -0.00000000000E+00 -0.64930732323E+04  0.65000000000E+04  0.30000000000E+03 0.  1.
     100001    1    1    2    0    0 -0.33033633602E+04 -0.21459557446E+04  0.51681731978E+04  0.65000000000E+04  0.15050000000E+03 0. -1.
     100001    1    1    2    0    0  0.33033633602E+04  0.21459557446E+04 -0.51681731978E+04  0.65000000000E+04  0.15050000000E+03 0.  1.
</event>
<event>
 4    1  0.5143956E-004  0.6500000E+04  0.7818608E-02  0.7223770E-01
         52   -1    0    0    0    0  0.00000000000E+00  0.00000000000E+00  0.64930732323E+04  0.65000000000E+04  0.30000000000E+03 0.  1.
        -52   -1    0    0    0    0 -0.00000000000E+00 -0.00000000000E+00 -0.64930732323E+04  0.65000000000E+04  0.30000000000E+03 0. -1.
     100001    1    1    2    0    0  0.45428650338E+04  0.12252639657E+04  0.44820146418E+04  0.65000000000E+04  0.15050000000E+03 0. -1.
     100001    1    1    2    0    0 -0.45428650338E+04 -0.12252639657E+04 -0.44820146418E+04  0.65000000000E+04  0.15050000000E+03 0.  1.
</event>
<event>
 4    1  0.5143956E-004  0.6500000E+04  0.7818608E-02  0.7223770E-01
         52   -1    0    0    0    0  0.00000000000E+00  0.00000000000E+00  0.64930732323E+04  0.65000000000E+04  0.30000000000E+03 0.  1.
        -52   -1    0    0    0    0 -0.00000000000E+00 -0.00000000000E+00 -0.64930732323E+04  0.65000000000E+04  0.30000000000E+03 0. -1.
     100001    1    1    2    0    0 -0.31423387478E+03  0.65957572968E+03  0.64570555735E+04  0.65000000000E+04  0.15050000000E+03 0.  1.
     100001    1    1    2    0    0  0.31423387478E+03 -0.65957572968E+03 -0.64570555735E+04  0.65000000000E+04  0.15050000000E+03 0. -1.
</event>
<event>
 4    1  0.5143956E-004  0.6500000E+04  0.7818608E-02  0.7223770E-01
         52   -1    0    0    0    0  0.00000000000E+00  0.00000000000E+00  0.64930732323E+04  0.65000000000E+04  0.30000000000E+03 0. -1.
        -52   -1    0    0    0    0 -0.00000000000E+00 -0.00000000000E+00 -0.64930732323E+04  0.65000000000E+04  0.30000000000E+03 0.  1.
     100001    1    1    2    0    0 -0.11468293035E+03  0.34401719317E+03  0.64881314526E+04  0.65000000000E+04  0.15050000000E+03 0. -1.
     100001    1    1    2    0    0  0.11468293035E+03 -0.34401719317E+03 -0.64881314526E+04  0.65000000000E+04  0.15050000000E+03 0.  1.
</event>
<event>
 4    1  0.5143956E-004  0.6500000E+04  0.7818608E-02  0.7223770E-01
         52   -1    0    0    0    0  0.00000000000E+00  0.00000000000E+00  0.64930732323E+04  0.65000000000E+04  0.30000000000E+03 0.  1.
        -52   -1    0    0    0    0 -0.00000000000E+00 -0.00000000000E+00 -0.64930732323E+04  0.65000000000E+04  0.30000000000E+03 0. -1.
     100001    1    1    2    0    0 -0.48354579486E+03  0.99373239119E+03  0.64035950176E+04  0.65000000000E+04  0.15050000000E+03 0.  1.
     100001    1    1    2    0    0  0.48354579486E+03 -0.99373239119E+03 -0.64035950176E+04  0.65000000000E+04  0.15050000000E+03 0. -1.
</event>
<event>
 4    1  0.5143956E-004  0.6500000E+04  0.7818608E-02  0.7223770E-01
         52   -1    0    0    0    0  0.00000000000E+00  0.00000000000E+00  0.64930732323E+04  0.65000000000E+04  0.30000000000E+03 0. -1.
        -52   -1    0    0    0    0 -0.00000000000E+00 -0.00000000000E+00 -0.64930732323E+04  0.65000000000E+04  0.30000000000E+03 0.  1.
     100001    1    1    2    0    0  0.48388423809E+04  0.38036710151E+04 -0.20844761863E+04  0.65000000000E+04  0.15050000000E+03 0.  1.
     100001    1    1    2    0    0 -0.48388423809E+04 -0.38036710151E+04  0.20844761863E+04  0.65000000000E+04  0.15050000000E+03 0. -1.
</event>
<event>
 4    1  0.5143956E-004  0.6500000E+04  0.7818608E-02  0.7223770E-01
         52   -1    0    0    0    0  0.00000000000E+00  0.00000000000E+00  0.64930732323E+04  0.65000000000E+04  0.30000000000E+03 0. -1.
        -52   -1    0    0    0    0 -0.00000000000E+00 -0.00000000000E+00 -0.64930732323E+04  0.65000000000E+04  0.30000000000E+03 0.  1.
     100001    1    1    2    0    0 -0.45425324605E+03  0.10159493390E+03 -0.64815647962E+04  0.65000000000E+04  0.15050000000E+03 0.  1.
     100001    1    1    2    0    0  0.45425324605E+03 -0.10159493390E+03  0.64815647962E+04  0.65000000000E+04  0.15050000000E+03 0. -1.
</event>
<event>
 4    1  0.5143956E-004  0.6500000E+04  0.7818608E-02  0.7223770E-01
         52   -1    0    0    0    0  0.00000000000E+00  0.00000000000E+00  0.64930732323E+04  0.65000000000E+04  0.30000000000E+03 0.  1.
        -52   -1    0    0    0    0 -0.00000000000E+00 -0.00000000000E+00 -0.64930732323E+04  0.65000000000E+04  0.30000000000E+03 0. -1.
     100001    1    1    2    0    0  0.43663737016E+04 -0.45485715337E+04 -0.15724590457E+04  0.65000000000E+04  0.15050000000E+03 0. -1.
     100001    1    1    2    0    0 -0.43663737016E+04  0.45485715337E+04  0.15724590457E+04  0.65000000000E+04  0.15050000000E+03 0.  1.
</event>
<event>
 4    1  0.5143956E-004  0.6500000E+04  0.7818608E-02  0.7223770E-01
         52   -1    0    0    0    0  0.00000000000E+00  0.00000000000E+00  0.64930732323E+04  0.65000000000E+04  0.30000000000E+03 0.  1.
        -52   -1    0    0    0    0 -0.00000000000E+00 -0.00000000000E+00 -0.64930732323E+04  0.65000000000E+04  0.30000000000E+03 0.  1.
     100001    1    1    2    0    0 -0.93914807097E+02 -0.22826946549E+03  0.64935678028E+04  0.65000000000E+04  0.15050000000E+03 0.  1.
     100001    1    1    2    0    0  0.93914807097E+02  0.22826946549E+03 -0.64935678028E+04  0.65000000000E+04  0.15050000000E+03 0.  1.
</event>
<event>
 4    1  0.5143956E-004  0.6500000E+04  0.7818608E-02  0.7223770E-01
         52   -1    0    0    0    0  0.00000000000E+00  0.00000000000E+00  0.64930732323E+04  0.65000000000E+04  0.30000000000E+03 0.  1.
        -52   -1    0    0    0    0 -0.00000000000E+00 -0.00000000000E+00 -0.64930732323E+04  0.65000000000E+04  0.30000000000E+03 0. -1.
     100001    1    1    2    0    0 -0.23210741415E+04 -0.20055122175E+03  0.60662792375E+04  0.65000000000E+04  0.15050000000E+03 0.  1.
     100001    1    1    2    0    0  0.23210741415E+04  0.20055122175E+03 -0.60662792375E+04  0.65000000000E+04  0.15050000000E+03 0. -1.
</event>
<event>
 4    1  0.5143956E-004  0.6500000E+04  0.7818608E-02  0.7223770E-01
         52   -1    0    0    0    0  0.00000000000E+00  0.00000000000E+00  0.64930732323E+04  0.65000000000E+04  0.30000000000E+03 0. -1.
        -52   -1    0    0    0    0 -0.00000000000E+00 -0.00000000000E+00 -0.64930732323E+04  0.65000000000E+04  0.30000000000E+03 0.  1.
     100001    1    1    2    0    0  0.42210050423E+02 -0.11615983099E+04 -0.63934542642E+04  0.65000000000E+04  0.15050000000E+03 0.  1.
     100001    1    1    2    0    0 -0.42210050423E+02  0.11615983099E+04  0.63934542642E+04  0.65000000000E+04  0.15050000000E+03 0. -1.
</event>
<event>
 4    1  0.5143956E-004  0.6500000E+04  0.7818608E-02  0.7223770E-01
         52   -1    0    0    0    0  0.00000000000E+00  0.00000000000E+00  0.64930732323E+04  0.65000000000E+04  0.30000000000E+03 0. -1.
        -52   -1    0    0    0    0 -0.00000000000E+00 -0.00000000000E+00 -0.64930732323E+04  0.65000000000E+04  0.30000000000E+03 0.  1.
     100001    1    1    2    0    0 -0.10383361356E+04  0.43907830724E+03 -0.63997201548E+04  0.65000000000E+04  0.15050000000E+03 0.  1.
     100001    1    1    2    0    0  0.10383361356E+04 -0.43907830724E+03  0.63997201548E+04  0.65000000000E+04  0.15050000000E+03 0. -1.
</event>
<event>
 4    1  0.5143956E-004  0.6500000E+04  0.7818608E-02  0.7223770E-01
         52   -1    0    0    0    0  0.00000000000E+00  0.00000000000E+00  0.64930732323E+04  0.65000000000E+04  0.30000000000E+03 0.  1.
        -52   -1    0    0    0    0 -0.00000000000E+00 -0.00000000000E+00 -0.64930732323E+04  0.65000000000E+04  0.30000000000E+03 0. -1.
     100001    1    1    2    0    0 -0.99680117059E+02 -0.55032719725E+03 -0.64741450092E+04  0.65000000000E+04  0.15050000000E+03 0. -1.
     100001    1    1    2    0    0  0.99680117059E+02  0.55032719725E+03  0.64741450092E+04  0.65000000000E+04  0.15050000000E+03 0.  1.
</event>
<event>
 4    1  0.5143956E-004  0.6500000E+04  0.7818608E-02  0.7223770E-01
         52   -1    0    0    0    0  0.00000000000E+00  0.00000000000E+00  0.64930732323E+04  0.65000000000E+04  0.30000000000E+03 0.  1.
        -52   -1    0    0    0    0 -0.00000000000E+00 -0.00000000000E+00 -0.64930732323E+04  0.65000000000E+04  0.30000000000E+03 0. -1.
     100001    1    1    2    0    0  0.30937265360E+03 -0.16878103237E+03 -0.64886941116E+04  0.65000000000E+04  0.15050000000E+03 0. -1.
     100001    1    1    2    0    0 -0.30937265360E+03  0.16878103237E+03  0.64886941116E+04  0.65000000000E+04  0.15050000000E+03 0.  1.
</event>
<event>
 4    1  0.5143956E-004  0.6500000E+04  0.7818608E-02  0.7223770E-01
         52   -1    0    0    0    0  0.00000000000E+00  0.00000000000E+00  0.64930732323E+04  0.65000000000E+04  0.30000000000E+03 0.  1.
        -52   -1    0    0    0    0 -0.00000000000E+00 -0.00000000000E+00 -0.64930732323E+04  0.65000000000E+04  0.30000000000E+03 0.  1.
     100001    1    1    2    0    0  0.12601116028E+03 -0.30385604327E+03 -0.64899262278E+04  0.65000000000E+04  0.15050000000E+03 0.  1.
     100001    1    1    2    0    0 -0.12601116028E+03  0.30385604327E+03  0.64899262278E+04  0.65000000000E+04  0.15050000000E+03 0.  1.
</event>
<event>
 4    1  0.5143956E-004  0.6500000E+04  0.7818608E-02  0.7223770E-01
         52   -1    0    0    0    0  0.00000000000E+00  0.00000000000E+00  0.64930732323E+04  0.65000000000E+04  0.30000000000E+03 0. -1.
        -52   -1    0    0    0    0 -0.00000000000E+00 -0.00000000000E+00 -0.64930732323E+04  0.65000000000E+04  0.30000000000E+03 0.  1.
     100001    1    1    2    0    0 -0.21254776894E+04  0.41326272687E+03  0.61269003795E+04  0.65000000000E+04  0.15050000000E+03 0. -1.
     100001    1    1    2    0    0  0.21254776894E+04 -0.41326272687E+03 -0.61269003795E+04  0.65000000000E+04  0.15050000000E+03 0.  1.
</event>
<event>
 4    1  0.5143956E-004  0.6500000E+04  0.7818608E-02  0.7223770E-01
         52   -1    0    0    0    0  0.00000000000E+00  0.00000000000E+00  0.64930732323E+04  0.65000000000E+04  0.30000000000E+03 0.  1.
        -52   -1    0    0    0    0 -0.00000000000E+00 -0.00000000000E+00 -0.64930732323E+04  0.65000000000E+04  0.30000000000E+03 0. -1.
     100001    1    1    2    0    0 -0.46174178015E+03  0.23496312443E+02  0.64817892747E+04  0.65000000000E+04  0.15050000000E+03 0.  1.
     100001    1    1    2    0    0  0.46174178015E+03 -0.23496312443E+02 -0.64817892747E+04  0.65000000000E+04  0.15050000000E+03 0. -1.
</event>
<event>
 4    1  0.5143956E-004  0.6500000E+04  0.7818608E-02  0.7223770E-01
         52   -1    0    0    0    0  0.00000000000E+00  0.00000000000E+00  0.64930732323E+04  0.65000000000E+04  0.30000000000E+03 0.  1.
        -52   -1    0    0    0    0 -0.00000000000E+00 -0.00000000000E+00 -0.64930732323E+04  0.65000000000E+04  0.30000000000E+03 0. -1.
     100001    1    1    2    0    0 -0.19499405225E+04  0.26666345283E+02  0.61987394375E+04  0.65000000000E+04  0.15050000000E+03 0.  1.
     100001    1    1    2    0    0  0.19499405225E+04 -0.26666345283E+02 -0.61987394375E+04  0.65000000000E+04  0.15050000000E+03 0. -1.
</event>
<event>
 4    1  0.5143956E-004  0.6500000E+04  0.7818608E-02  0.7223770E-01
         52   -1    0    0    0    0  0.00000000000E+00  0.00000000000E+00  0.64930732323E+04  0.65000000000E+04  0.30000000000E+03 0.  1.
        -52   -1    0    0    0    0 -0.00000000000E+00 -0.00000000000E+00 -0.64930732323E+04  0.65000000000E+04  0.30000000000E+03 0. -1.
     100001    1    1    2    0    0  0.13502568117E+03  0.10103088436E+04  0.64178184655E+04  0.65000000000E+04  0.15050000000E+03 0.  1.
     100001    1    1    2    0    0 -0.13502568117E+03 -0.10103088436E+04 -0.64178184655E+04  0.65000000000E+04  0.15050000000E+03 0. -1.
</event>
<event>
 4    1  0.5143956E-004  0.6500000E+04  0.7818608E-02  0.7223770E-01
         52   -1    0    0    0    0  0.00000000000E+00  0.00000000000E+00  0.64930732323E+04  0.65000000000E+04  0.30000000000E+03 0. -1.
        -52   -1    0    0    0    0 -0.00000000000E+00 -0.00000000000E+00 -0.64930732323E+04  0.65000000000E+04  0.30000000000E+03 0.  1.
     100001    1    1    2    0    0  0.57503148545E+03 -0.35368745211E+04 -0.54209968790E+04  0.65000000000E+04  0.15050000000E+03 0.  1.
     100001    1    1    2    0    0 -0.57503148545E+03  0.35368745211E+04  0.54209968790E+04  0.65000000000E+04  0.15050000000E+03 0. -1.
</event>
<event>
 4    1  0.5143956E-004  0.6500000E+04  0.7818608E-02  0.7223770E-01
         52   -1    0    0    0    0  0.00000000000E+00  0.00000000000E+00  0.64930732323E+04  0.65000000000E+04  0.30000000000E+03 0.  1.
        -52   -1    0    0    0    0 -0.00000000000E+00 -0.00000000000E+00 -0.64930732323E+04  0.65000000000E+04  0.30000000000E+03 0. -1.
     100001    1    1    2    0    0 -0.33352775495E+04  0.34534263375E+03  0.55663284024E+04  0.65000000000E+04  0.15050000000E+03 0.  1.
     100001    1    1    2    0    0  0.33352775495E+04 -0.34534263375E+03 -0.55663284024E+04  0.65000000000E+04  0.15050000000E+03 0. -1.
</event>
<event>
 4    1  0.5143956E-004  0.6500000E+04  0.7818608E-02  0.7223770E-01
         52   -1    0    0    0    0  0.00000000000E+00  0.00000000000E+00  0.64930732323E+04  0.65000000000E+04  0.30000000000E+03 0.  1.
        -52   -1    0    0    0    0 -0.00000000000E+00 -0.00000000000E+00 -0.64930732323E+04  0.65000000000E+04  0.30000000000E+03 0. -1.
     100001    1    1    2    0    0  0.46182847234E+03 -0.92475229416E+03  0.64155200418E+04  0.65000000000E+04  0.15050000000E+03 0.  1.
     100001    1    1    2    0    0 -0.46182847234E+03  0.92475229416E+03 -0.64155200418E+04  0.65000000000E+04  0.15050000000E+03 0. -1.
</event>
<event>
 4    1  0.5143956E-004  0.6500000E+04  0.7818608E-02  0.7223770E-01
         52   -1    0    0    0    0  0.00000000000E+00  0.00000000000E+00  0.64930732323E+04  0.65000000000E+04  0.30000000000E+03 0. -1.
        -52   -1    0    0    0    0 -0.00000000000E+00 -0.00000000000E+00 -0.64930732323E+04  0.65000000000E+04  0.30000000000E+03 0.  1.
     100001    1    1    2    0    0 -0.15867531296E+03 -0.95342151923E+03 -0.64259753580E+04  0.65000000000E+04  0.15050000000E+03 0.  1.
     100001    1    1    2    0    0  0.15867531296E+03  0.95342151923E+03  0.64259753580E+04  0.65000000000E+04  0.15050000000E+03 0. -1.
</event>
<event>
 4    1  0.5143956E-004  0.6500000E+04  0.7818608E-02  0.7223770E-01
         52   -1    0    0    0    0  0.00000000000E+00  0.00000000000E+00  0.64930732323E+04  0.65000000000E+04  0.30000000000E+03 0.  1.
        -52   -1    0    0    0    0 -0.00000000000E+00 -0.00000000000E+00 -0.64930732323E+04  0.65000000000E+04  0.30000000000E+03 0. -1.
     100001    1    1    2    0    0  0.28799180044E+04 -0.24139448702E+03 -0.58202363130E+04  0.65000000000E+04  0.15050000000E+03 0. -1.
     100001    1    1    2    0    0 -0.28799180044E+04  0.24139448702E+03  0.58202363130E+04  0.65000000000E+04  0.15050000000E+03 0.  1.
</event>
<event>
 4    1  0.5143956E-004  0.6500000E+04  0.7818608E-02  0.7223770E-01
         52   -1    0    0    0    0  0.00000000000E+00  0.00000000000E+00  0.64930732323E+04  0.65000000000E+04  0.30000000000E+03 0.  1.
        -52   -1    0    0    0    0 -0.00000000000E+00 -0.00000000000E+00 -0.64930732323E+04  0.65000000000E+04  0.30000000000E+03 0. -1.
     100001    1    1    2    0    0 -0.13775202695E+04  0.36538105377E+03  0.63400539700E+04  0.65000000000E+04  0.15050000000E+03 0.  1.
     100001    1    1    2    0    0  0.13775202695E+04 -0.36538105377E+03 -0.63400539700E+04  0.65000000000E+04  0.15050000000E+03 0. -1.
</event>
<event>
 4    1  0.5143956E-004  0.6500000E+04  0.7818608E-02  0.7223770E-01
         52   -1    0    0    0    0  0.00000000000E+00  0.00000000000E+00  0.64930732323E+04  0.65000000000E+04  0.30000000000E+03 0. -1.
        -52   -1    0    0    0    0 -0.00000000000E+00 -0.00000000000E+00 -0.64930732323E+04  0.65000000000E+04  0.30000000000E+03 0. -1.
     100001    1    1    2    0    0 -0.62646021536E+02  0.18529266058E+03 -0.64953130684E+04  0.65000000000E+04  0.15050000000E+03 0. -1.
     100001    1    1    2    0    0  0.62646021536E+02 -0.18529266058E+03  0.64953130684E+04  0.65000000000E+04  0.15050000000E+03 0. -1.
</event>
<event>
 4    1  0.5143956E-004  0.6500000E+04  0.7818608E-02  0.7223770E-01
         52   -1    0    0    0    0  0.00000000000E+00  0.00000000000E+00  0.64930732323E+04  0.65000000000E+04  0.30000000000E+03 0. -1.
        -52   -1    0    0    0    0 -0.00000000000E+00 -0.00000000000E+00 -0.64930732323E+04  0.65000000000E+04  0.30000000000E+03 0.  1.
     100001    1    1    2    0    0 -0.42728051839E+04 -0.16669099455E+04  0.46034657426E+04  0.65000000000E+04  0.15050000000E+03 0. -1.
     100001    1    1    2    0    0  0.42728051839E+04  0.16669099455E+04 -0.46034657426E+04  0.65000000000E+04  0.15050000000E+03 0.  1.
</event>
<event>
 4    1  0.5143956E-004  0.6500000E+04  0.7818608E-02  0.7223770E-01
         52   -1    0    0    0    0  0.00000000000E+00  0.00000000000E+00  0.64930732323E+04  0.65000000000E+04  0.30000000000E+03 0.  1.
        -52   -1    0    0    0    0 -0.00000000000E+00 -0.00000000000E+00 -0.64930732323E+04  0.65000000000E+04  0.30000000000E+03 0. -1.
     100001    1    1    2    0    0 -0.20458545820E+03  0.30261465301E+03  0.64879826535E+04  0.65000000000E+04  0.15050000000E+03 0.  1.
     100001    1    1    2    0    0  0.20458545820E+03 -0.30261465301E+03 -0.64879826535E+04  0.65000000000E+04  0.15050000000E+03 0. -1.
</event>
<event>
 4    1  0.5143956E-004  0.6500000E+04  0.7818608E-02  0.7223770E-01
         52   -1    0    0    0    0  0.00000000000E+00  0.00000000000E+00  0.64930732323E+04  0.65000000000E+04  0.30000000000E+03 0. -1.
        -52   -1    0    0    0    0 -0.00000000000E+00 -0.00000000000E+00 -0.64930732323E+04  0.65000000000E+04  0.30000000000E+03 0.  1.
     100001    1    1    2    0    0  0.10706129016E+04  0.77567062053E+03 -0.63623480613E+04  0.65000000000E+04  0.15050000000E+03 0.  1.
     100001    1    1    2    0    0 -0.10706129016E+04 -0.77567062053E+03  0.63623480613E+04  0.65000000000E+04  0.15050000000E+03 0. -1.
</event>
<event>
 4    1  0.5143956E-004  0.6500000E+04  0.7818608E-02  0.7223770E-01
         52   -1    0    0    0    0  0.00000000000E+00  0.00000000000E+00  0.64930732323E+04  0.65000000000E+04  0.30000000000E+03 0. -1.
        -52   -1    0    0    0    0 -0.00000000000E+00 -0.00000000000E+00 -0.64930732323E+04  0.65000000000E+04  0.30000000000E+03 0. -1.
     100001    1    1    2    0    0  0.24082143415E+04  0.73926779787E+03 -0.59901032177E+04  0.65000000000E+04  0.15050000000E+03 0. -1.
     100001    1    1    2    0    0 -0.24082143415E+04 -0.73926779787E+03  0.59901032177E+04  0.65000000000E+04  0.15050000000E+03 0. -1.
</event>
<event>
 4    1  0.5143956E-004  0.6500000E+04  0.7818608E-02  0.7223770E-01
         52   -1    0    0    0    0  0.00000000000E+00  0.00000000000E+00  0.64930732323E+04  0.65000000000E+04  0.30000000000E+03 0. -1.
        -52   -1    0    0    0    0 -0.00000000000E+00 -0.00000000000E+00 -0.64930732323E+04  0.65000000000E+04  0.30000000000E+03 0.  1.
     100001    1    1    2    0    0  0.23455215378E+04 -0.81008892619E+03  0.60058000631E+04  0.65000000000E+04  0.15050000000E+03 0. -1.
     100001    1    1    2    0    0 -0.23455215378E+04  0.81008892619E+03 -0.60058000631E+04  0.65000000000E+04  0.15050000000E+03 0.  1.
</event>
<event>
 4    1  0.5143956E-004  0.6500000E+04  0.7818608E-02  0.7223770E-01
         52   -1    0    0    0    0  0.00000000000E+00  0.00000000000E+00  0.64930732323E+04  0.65000000000E+04  0.30000000000E+03 0. -1.
        -52   -1    0    0    0    0 -0.00000000000E+00 -0.00000000000E+00 -0.64930732323E+04  0.65000000000E+04  0.30000000000E+03 0.  1.
     100001    1    1    2    0    0 -0.55768802748E+04  0.18854349564E+04  0.27515252453E+04  0.65000000000E+04  0.15050000000E+03 0. -1.
     100001    1    1    2    0    0  0.55768802748E+04 -0.18854349564E+04 -0.27515252453E+04  0.65000000000E+04  0.15050000000E+03 0.  1.
</event>
<event>
 4    1  0.5143956E-004  0.6500000E+04  0.7818608E-02  0.7223770E-01
         52   -1    0    0    0    0  0.00000000000E+00  0.00000000000E+00  0.64930732323E+04  0.65000000000E+04  0.30000000000E+03 0. -1.
        -52   -1    0    0    0    0 -0.00000000000E+00 -0.00000000000E+00 -0.64930732323E+04  0.65000000000E+04  0.30000000000E+03 0.  1.
     100001    1    1    2    0    0  0.12768039080E+03  0.10533468633E+04 -0.64110457691E+04  0.65000000000E+04  0.15050000000E+03 0.  1.
     100001    1    1    2    0    0 -0.12768039080E+03 -0.10533468633E+04  0.64110457691E+04  0.65000000000E+04  0.15050000000E+03 0. -1.
</event>
<event>
 4    1  0.6985082E-004  0.6500000E+04  0.7818608E-02  0.7223770E-01
         52   -1    0    0    0    0  0.00000000000E+00  0.00000000000E+00  0.64930732323E+04  0.65000000000E+04  0.30000000000E+03 0. -1.
        -52   -1    0    0    0    0 -0.00000000000E+00 -0.00000000000E+00 -0.64930732323E+04  0.65000000000E+04  0.30000000000E+03 0.  1.
     100001    1    1    2    0    0 -0.31126650115E+02  0.14620396922E+03 -0.64965379458E+04  0.65000000000E+04  0.15050000000E+03 0.  1.
     100001    1    1    2    0    0  0.31126650115E+02 -0.14620396922E+03  0.64965379458E+04  0.65000000000E+04  0.15050000000E+03 0. -1.
</event>
<event>
 4    1  0.5143956E-004  0.6500000E+04  0.7818608E-02  0.7223770E-01
         52   -1    0    0    0    0  0.00000000000E+00  0.00000000000E+00  0.64930732323E+04  0.65000000000E+04  0.30000000000E+03 0. -1.
        -52   -1    0    0    0    0 -0.00000000000E+00 -0.00000000000E+00 -0.64930732323E+04  0.65000000000E+04  0.30000000000E+03 0.  1.
     100001    1    1    2    0    0 -0.66489693810E+03  0.39351268649E+03  0.64521631704E+04  0.65000000000E+04  0.15050000000E+03 0. -1.
     100001    1    1    2    0    0  0.66489693810E+03 -0.39351268649E+03 -0.64521631704E+04  0.65000000000E+04  0.15050000000E+03 0.  1.
</event>
<event>
 4    1  0.5143956E-004  0.6500000E+04  0.7818608E-02  0.7223770E-01
         52   -1    0    0    0    0  0.00000000000E+00  0.00000000000E+00  0.64930732323E+04  0.65000000000E+04  0.30000000000E+03 0. -1.
        -52   -1    0    0    0    0 -0.00000000000E+00 -0.00000000000E+00 -0.64930732323E+04  0.65000000000E+04  0.30000000000E+03 0.  1.
     100001    1    1    2    0    0 -0.18641382169E+03  0.25290138544E+03 -0.64906579425E+04  0.65000000000E+04  0.15050000000E+03 0.  1.
     100001    1    1    2    0    0  0.18641382169E+03 -0.25290138544E+03  0.64906579425E+04  0.65000000000E+04  0.15050000000E+03 0. -1.
</event>
<event>
 4    1  0.5547897E-004  0.6500000E+04  0.7818608E-02  0.7223770E-01
         52   -1    0    0    0    0  0.00000000000E+00  0.00000000000E+00  0.64930732323E+04  0.65000000000E+04  0.30000000000E+03 0. -1.
        -52   -1    0    0    0    0 -0.00000000000E+00 -0.00000000000E+00 -0.64930732323E+04  0.65000000000E+04  0.30000000000E+03 0.  1.
     100001    1    1    2    0    0 -0.13841712215E+03  0.24146980289E+03 -0.64922941080E+04  0.65000000000E+04  0.15050000000E+03 0.  1.
     100001    1    1    2    0    0  0.13841712215E+03 -0.24146980289E+03  0.64922941080E+04  0.65000000000E+04  0.15050000000E+03 0. -1.
</event>
<event>
 4    1  0.5143956E-004  0.6500000E+04  0.7818608E-02  0.7223770E-01
         52   -1    0    0    0    0  0.00000000000E+00  0.00000000000E+00  0.64930732323E+04  0.65000000000E+04  0.30000000000E+03 0. -1.
        -52   -1    0    0    0    0 -0.00000000000E+00 -0.00000000000E+00 -0.64930732323E+04  0.65000000000E+04  0.30000000000E+03 0.  1.
     100001    1    1    2    0    0 -0.20774667685E+04  0.14106551279E+04 -0.59934575735E+04  0.65000000000E+04  0.15050000000E+03 0.  1.
     100001    1    1    2    0    0  0.20774667685E+04 -0.14106551279E+04  0.59934575735E+04  0.65000000000E+04  0.15050000000E+03 0. -1.
</event>
<event>
 4    1  0.5143956E-004  0.6500000E+04  0.7818608E-02  0.7223770E-01
         52   -1    0    0    0    0  0.00000000000E+00  0.00000000000E+00  0.64930732323E+04  0.65000000000E+04  0.30000000000E+03 0. -1.
        -52   -1    0    0    0    0 -0.00000000000E+00 -0.00000000000E+00 -0.64930732323E+04  0.65000000000E+04  0.30000000000E+03 0.  1.
     100001    1    1    2    0    0 -0.30604671286E+03  0.31076476781E+01  0.64910457942E+04  0.65000000000E+04  0.15050000000E+03 0. -1.
     100001    1    1    2    0    0  0.30604671286E+03 -0.31076476781E+01 -0.64910457942E+04  0.65000000000E+04  0.15050000000E+03 0.  1.
</event>
<event>
 4    1  0.5143956E-004  0.6500000E+04  0.7818608E-02  0.7223770E-01
         52   -1    0    0    0    0  0.00000000000E+00  0.00000000000E+00  0.64930732323E+04  0.65000000000E+04  0.30000000000E+03 0. -1.
        -52   -1    0    0    0    0 -0.00000000000E+00 -0.00000000000E+00 -0.64930732323E+04  0.65000000000E+04  0.30000000000E+03 0.  1.
     100001    1    1    2    0    0 -0.56532315981E+03  0.59586224425E+04 -0.25303316112E+04  0.65000000000E+04  0.15050000000E+03 0.  1.
     100001    1    1    2    0    0  0.56532315981E+03 -0.59586224425E+04  0.25303316112E+04  0.65000000000E+04  0.15050000000E+03 0. -1.
</event>
<event>
 4    1  0.5143956E-004  0.6500000E+04  0.7818608E-02  0.7223770E-01
         52   -1    0    0    0    0  0.00000000000E+00  0.00000000000E+00  0.64930732323E+04  0.65000000000E+04  0.30000000000E+03 0. -1.
        -52   -1    0    0    0    0 -0.00000000000E+00 -0.00000000000E+00 -0.64930732323E+04  0.65000000000E+04  0.30000000000E+03 0.  1.
     100001    1    1    2    0    0  0.13469810983E+04 -0.17525810618E+04  0.61107651970E+04  0.65000000000E+04  0.15050000000E+03 0. -1.
     100001    1    1    2    0    0 -0.13469810983E+04  0.17525810618E+04 -0.61107651970E+04  0.65000000000E+04  0.15050000000E+03 0.  1.
</event>
<event>
 4    1  0.5143956E-004  0.6500000E+04  0.7818608E-02  0.7223770E-01
         52   -1    0    0    0    0  0.00000000000E+00  0.00000000000E+00  0.64930732323E+04  0.65000000000E+04  0.30000000000E+03 0. -1.
        -52   -1    0    0    0    0 -0.00000000000E+00 -0.00000000000E+00 -0.64930732323E+04  0.65000000000E+04  0.30000000000E+03 0.  1.
     100001    1    1    2    0    0  0.46481601319E+04 -0.80990172488E+02 -0.45404182330E+04  0.65000000000E+04  0.15050000000E+03 0.  1.
     100001    1    1    2    0    0 -0.46481601319E+04  0.80990172488E+02  0.45404182330E+04  0.65000000000E+04  0.15050000000E+03 0. -1.
</event>
<event>
 4    1  0.5143956E-004  0.6500000E+04  0.7818608E-02  0.7223770E-01
         52   -1    0    0    0    0  0.00000000000E+00  0.00000000000E+00  0.64930732323E+04  0.65000000000E+04  0.30000000000E+03 0.  1.
        -52   -1    0    0    0    0 -0.00000000000E+00 -0.00000000000E+00 -0.64930732323E+04  0.65000000000E+04  0.30000000000E+03 0. -1.
     100001    1    1    2    0    0 -0.21483624687E+03 -0.24556123129E+03  0.64900612338E+04  0.65000000000E+04  0.15050000000E+03 0.  1.
     100001    1    1    2    0    0  0.21483624687E+03  0.24556123129E+03 -0.64900612338E+04  0.65000000000E+04  0.15050000000E+03 0. -1.
</event>
<event>
 4    1  0.5143956E-004  0.6500000E+04  0.7818608E-02  0.7223770E-01
         52   -1    0    0    0    0  0.00000000000E+00  0.00000000000E+00  0.64930732323E+04  0.65000000000E+04  0.30000000000E+03 0. -1.
        -52   -1    0    0    0    0 -0.00000000000E+00 -0.00000000000E+00 -0.64930732323E+04  0.65000000000E+04  0.30000000000E+03 0.  1.
     100001    1    1    2    0    0 -0.52315986840E+03  0.50575417629E+02 -0.64769665453E+04  0.65000000000E+04  0.15050000000E+03 0.  1.
     100001    1    1    2    0    0  0.52315986840E+03 -0.50575417629E+02  0.64769665453E+04  0.65000000000E+04  0.15050000000E+03 0. -1.
</event>
<event>
 4    1  0.5143956E-004  0.6500000E+04  0.7818608E-02  0.7223770E-01
         52   -1    0    0    0    0  0.00000000000E+00  0.00000000000E+00  0.64930732323E+04  0.65000000000E+04  0.30000000000E+03 0. -1.
        -52   -1    0    0    0    0 -0.00000000000E+00 -0.00000000000E+00 -0.64930732323E+04  0.65000000000E+04  0.30000000000E+03 0.  1.
     100001    1    1    2    0    0 -0.13112874752E+04  0.14144170262E+04  0.62054249962E+04  0.65000000000E+04  0.15050000000E+03 0. -1.
     100001    1    1    2    0    0  0.13112874752E+04 -0.14144170262E+04 -0.62054249962E+04  0.65000000000E+04  0.15050000000E+03 0.  1.
</event>
<event>
 4    1  0.5143956E-004  0.6500000E+04  0.7818608E-02  0.7223770E-01
         52   -1    0    0    0    0  0.00000000000E+00  0.00000000000E+00  0.64930732323E+04  0.65000000000E+04  0.30000000000E+03 0.  1.
        -52   -1    0    0    0    0 -0.00000000000E+00 -0.00000000000E+00 -0.64930732323E+04  0.65000000000E+04  0.30000000000E+03 0. -1.
     100001    1    1    2    0    0  0.14282598021E+04  0.55794728392E+04  0.30094694756E+04  0.65000000000E+04  0.15050000000E+03 0.  1.
     100001    1    1    2    0    0 -0.14282598021E+04 -0.55794728392E+04 -0.30094694756E+04  0.65000000000E+04  0.15050000000E+03 0. -1.
</event>
<event>
 4    1  0.5143956E-004  0.6500000E+04  0.7818608E-02  0.7223770E-01
         52   -1    0    0    0    0  0.00000000000E+00  0.00000000000E+00  0.64930732323E+04  0.65000000000E+04  0.30000000000E+03 0. -1.
        -52   -1    0    0    0    0 -0.00000000000E+00 -0.00000000000E+00 -0.64930732323E+04  0.65000000000E+04  0.30000000000E+03 0.  1.
     100001    1    1    2    0    0 -0.60567386308E+03 -0.18962029418E+04 -0.61858648001E+04  0.65000000000E+04  0.15050000000E+03 0.  1.
     100001    1    1    2    0    0  0.60567386308E+03  0.18962029418E+04  0.61858648001E+04  0.65000000000E+04  0.15050000000E+03 0. -1.
</event>
<event>
 4    1  0.5143956E-004  0.6500000E+04  0.7818608E-02  0.7223770E-01
         52   -1    0    0    0    0  0.00000000000E+00  0.00000000000E+00  0.64930732323E+04  0.65000000000E+04  0.30000000000E+03 0.  1.
        -52   -1    0    0    0    0 -0.00000000000E+00 -0.00000000000E+00 -0.64930732323E+04  0.65000000000E+04  0.30000000000E+03 0. -1.
     100001    1    1    2    0    0 -0.28724772769E+03  0.36410119997E+03  0.64816871885E+04  0.65000000000E+04  0.15050000000E+03 0.  1.
     100001    1    1    2    0    0  0.28724772769E+03 -0.36410119997E+03 -0.64816871885E+04  0.65000000000E+04  0.15050000000E+03 0. -1.
</event>
<event>
 4    1  0.5143956E-004  0.6500000E+04  0.7818608E-02  0.7223770E-01
         52   -1    0    0    0    0  0.00000000000E+00  0.00000000000E+00  0.64930732323E+04  0.65000000000E+04  0.30000000000E+03 0.  1.
        -52   -1    0    0    0    0 -0.00000000000E+00 -0.00000000000E+00 -0.64930732323E+04  0.65000000000E+04  0.30000000000E+03 0. -1.
     100001    1    1    2    0    0  0.12940943650E+04 -0.11915949316E+03  0.63669828443E+04  0.65000000000E+04  0.15050000000E+03 0.  1.
     100001    1    1    2    0    0 -0.12940943650E+04  0.11915949316E+03 -0.63669828443E+04  0.65000000000E+04  0.15050000000E+03 0. -1.
</event>
<event>
 4    1  0.5143956E-004  0.6500000E+04  0.7818608E-02  0.7223770E-01
         52   -1    0    0    0    0  0.00000000000E+00  0.00000000000E+00  0.64930732323E+04  0.65000000000E+04  0.30000000000E+03 0. -1.
        -52   -1    0    0    0    0 -0.00000000000E+00 -0.00000000000E+00 -0.64930732323E+04  0.65000000000E+04  0.30000000000E+03 0.  1.
     100001    1    1    2    0    0 -0.10006703364E+04  0.57585912936E+03 -0.63948725469E+04  0.65000000000E+04  0.15050000000E+03 0.  1.
     100001    1    1    2    0    0  0.10006703364E+04 -0.57585912936E+03  0.63948725469E+04  0.65000000000E+04  0.15050000000E+03 0. -1.
</event>
<event>
 4    1  0.5143956E-004  0.6500000E+04  0.7818608E-02  0.7223770E-01
         52   -1    0    0    0    0  0.00000000000E+00  0.00000000000E+00  0.64930732323E+04  0.65000000000E+04  0.30000000000E+03 0.  1.
        -52   -1    0    0    0    0 -0.00000000000E+00 -0.00000000000E+00 -0.64930732323E+04  0.65000000000E+04  0.30000000000E+03 0. -1.
     100001    1    1    2    0    0  0.64411191229E+03 -0.19809191743E+03 -0.64632212701E+04  0.65000000000E+04  0.15050000000E+03 0. -1.
     100001    1    1    2    0    0 -0.64411191229E+03  0.19809191743E+03  0.64632212701E+04  0.65000000000E+04  0.15050000000E+03 0.  1.
</event>
<event>
 4    1  0.5143956E-004  0.6500000E+04  0.7818608E-02  0.7223770E-01
         52   -1    0    0    0    0  0.00000000000E+00  0.00000000000E+00  0.64930732323E+04  0.65000000000E+04  0.30000000000E+03 0. -1.
        -52   -1    0    0    0    0 -0.00000000000E+00 -0.00000000000E+00 -0.64930732323E+04  0.65000000000E+04  0.30000000000E+03 0.  1.
     100001    1    1    2    0    0  0.28438582670E+03 -0.18760067466E+04  0.62150682328E+04  0.65000000000E+04  0.15050000000E+03 0. -1.
     100001    1    1    2    0    0 -0.28438582670E+03  0.18760067466E+04 -0.62150682328E+04  0.65000000000E+04  0.15050000000E+03 0.  1.
</event>
<event>
 4    1  0.5143956E-004  0.6500000E+04  0.7818608E-02  0.7223770E-01
         52   -1    0    0    0    0  0.00000000000E+00  0.00000000000E+00  0.64930732323E+04  0.65000000000E+04  0.30000000000E+03 0. -1.
        -52   -1    0    0    0    0 -0.00000000000E+00 -0.00000000000E+00 -0.64930732323E+04  0.65000000000E+04  0.30000000000E+03 0.  1.
     100001    1    1    2    0    0 -0.13333553313E+04 -0.18982437433E+04  0.60701057653E+04  0.65000000000E+04  0.15050000000E+03 0. -1.
     100001    1    1    2    0    0  0.13333553313E+04  0.18982437433E+04 -0.60701057653E+04  0.65000000000E+04  0.15050000000E+03 0.  1.
</event>
<event>
 4    1  0.5143956E-004  0.6500000E+04  0.7818608E-02  0.7223770E-01
         52   -1    0    0    0    0  0.00000000000E+00  0.00000000000E+00  0.64930732323E+04  0.65000000000E+04  0.30000000000E+03 0. -1.
        -52   -1    0    0    0    0 -0.00000000000E+00 -0.00000000000E+00 -0.64930732323E+04  0.65000000000E+04  0.30000000000E+03 0.  1.
     100001    1    1    2    0    0  0.90510395814E+03  0.55388849265E+03 -0.64110329989E+04  0.65000000000E+04  0.15050000000E+03 0.  1.
     100001    1    1    2    0    0 -0.90510395814E+03 -0.55388849265E+03  0.64110329989E+04  0.65000000000E+04  0.15050000000E+03 0. -1.
</event>
<event>
 4    1  0.5143956E-004  0.6500000E+04  0.7818608E-02  0.7223770E-01
         52   -1    0    0    0    0  0.00000000000E+00  0.00000000000E+00  0.64930732323E+04  0.65000000000E+04  0.30000000000E+03 0.  1.
        -52   -1    0    0    0    0 -0.00000000000E+00 -0.00000000000E+00 -0.64930732323E+04  0.65000000000E+04  0.30000000000E+03 0. -1.
     100001    1    1    2    0    0  0.46353799850E+03  0.29373730292E+03  0.64750444532E+04  0.65000000000E+04  0.15050000000E+03 0.  1.
     100001    1    1    2    0    0 -0.46353799850E+03 -0.29373730292E+03 -0.64750444532E+04  0.65000000000E+04  0.15050000000E+03 0. -1.
</event>
<event>
 4    1  0.5143956E-004  0.6500000E+04  0.7818608E-02  0.7223770E-01
         52   -1    0    0    0    0  0.00000000000E+00  0.00000000000E+00  0.64930732323E+04  0.65000000000E+04  0.30000000000E+03 0. -1.
        -52   -1    0    0    0    0 -0.00000000000E+00 -0.00000000000E+00 -0.64930732323E+04  0.65000000000E+04  0.30000000000E+03 0. -1.
     100001    1    1    2    0    0  0.16248750918E+03 -0.42265574556E+03  0.64824616991E+04  0.65000000000E+04  0.15050000000E+03 0. -1.
     100001    1    1    2    0    0 -0.16248750918E+03  0.42265574556E+03 -0.64824616991E+04  0.65000000000E+04  0.15050000000E+03 0. -1.
</event>
<event>
 4    1  0.5143956E-004  0.6500000E+04  0.7818608E-02  0.7223770E-01
         52   -1    0    0    0    0  0.00000000000E+00  0.00000000000E+00  0.64930732323E+04  0.65000000000E+04  0.30000000000E+03 0.  1.
        -52   -1    0    0    0    0 -0.00000000000E+00 -0.00000000000E+00 -0.64930732323E+04  0.65000000000E+04  0.30000000000E+03 0. -1.
     100001    1    1    2    0    0  0.14569094590E+04  0.60693672295E+03 -0.63036808606E+04  0.65000000000E+04  0.15050000000E+03 0. -1.
     100001    1    1    2    0    0 -0.14569094590E+04 -0.60693672295E+03  0.63036808606E+04  0.65000000000E+04  0.15050000000E+03 0.  1.
</event>
<event>
 4    1  0.5143956E-004  0.6500000E+04  0.7818608E-02  0.7223770E-01
         52   -1    0    0    0    0  0.00000000000E+00  0.00000000000E+00  0.64930732323E+04  0.65000000000E+04  0.30000000000E+03 0. -1.
        -52   -1    0    0    0    0 -0.00000000000E+00 -0.00000000000E+00 -0.64930732323E+04  0.65000000000E+04  0.30000000000E+03 0.  1.
     100001    1    1    2    0    0  0.10915056002E+04  0.84601908592E+03  0.63498202322E+04  0.65000000000E+04  0.15050000000E+03 0. -1.
     100001    1    1    2    0    0 -0.10915056002E+04 -0.84601908592E+03 -0.63498202322E+04  0.65000000000E+04  0.15050000000E+03 0.  1.
</event>
<event>
 4    1  0.5143956E-004  0.6500000E+04  0.7818608E-02  0.7223770E-01
         52   -1    0    0    0    0  0.00000000000E+00  0.00000000000E+00  0.64930732323E+04  0.65000000000E+04  0.30000000000E+03 0.  1.
        -52   -1    0    0    0    0 -0.00000000000E+00 -0.00000000000E+00 -0.64930732323E+04  0.65000000000E+04  0.30000000000E+03 0. -1.
     100001    1    1    2    0    0 -0.21425122280E+04  0.89619164738E+03  0.60690882045E+04  0.65000000000E+04  0.15050000000E+03 0.  1.
     100001    1    1    2    0    0  0.21425122280E+04 -0.89619164738E+03 -0.60690882045E+04  0.65000000000E+04  0.15050000000E+03 0. -1.
</event>
<event>
 4    1  0.5143956E-004  0.6500000E+04  0.7818608E-02  0.7223770E-01
         52   -1    0    0    0    0  0.00000000000E+00  0.00000000000E+00  0.64930732323E+04  0.65000000000E+04  0.30000000000E+03 0.  1.
        -52   -1    0    0    0    0 -0.00000000000E+00 -0.00000000000E+00 -0.64930732323E+04  0.65000000000E+04  0.30000000000E+03 0. -1.
     100001    1    1    2    0    0  0.25818661784E+04  0.37881248017E+04 -0.46055865287E+04  0.65000000000E+04  0.15050000000E+03 0. -1.
     100001    1    1    2    0    0 -0.25818661784E+04 -0.37881248017E+04  0.46055865287E+04  0.65000000000E+04  0.15050000000E+03 0.  1.
</event>
<event>
 4    1  0.5143956E-004  0.6500000E+04  0.7818608E-02  0.7223770E-01
         52   -1    0    0    0    0  0.00000000000E+00  0.00000000000E+00  0.64930732323E+04  0.65000000000E+04  0.30000000000E+03 0.  1.
        -52   -1    0    0    0    0 -0.00000000000E+00 -0.00000000000E+00 -0.64930732323E+04  0.65000000000E+04  0.30000000000E+03 0. -1.
     100001    1    1    2    0    0  0.25253475065E+04 -0.31484761702E+04 -0.50928447381E+04  0.65000000000E+04  0.15050000000E+03 0. -1.
     100001    1    1    2    0    0 -0.25253475065E+04  0.31484761702E+04  0.50928447381E+04  0.65000000000E+04  0.15050000000E+03 0.  1.
</event>
<event>
 4    1  0.5143956E-004  0.6500000E+04  0.7818608E-02  0.7223770E-01
         52   -1    0    0    0    0  0.00000000000E+00  0.00000000000E+00  0.64930732323E+04  0.65000000000E+04  0.30000000000E+03 0. -1.
        -52   -1    0    0    0    0 -0.00000000000E+00 -0.00000000000E+00 -0.64930732323E+04  0.65000000000E+04  0.30000000000E+03 0. -1.
     100001    1    1    2    0    0 -0.10212135086E+03 -0.14700988658E+03  0.64957916433E+04  0.65000000000E+04  0.15050000000E+03 0. -1.
     100001    1    1    2    0    0  0.10212135086E+03  0.14700988658E+03 -0.64957916433E+04  0.65000000000E+04  0.15050000000E+03 0. -1.
</event>
<event>
 4    1  0.5143956E-004  0.6500000E+04  0.7818608E-02  0.7223770E-01
         52   -1    0    0    0    0  0.00000000000E+00  0.00000000000E+00  0.64930732323E+04  0.65000000000E+04  0.30000000000E+03 0. -1.
        -52   -1    0    0    0    0 -0.00000000000E+00 -0.00000000000E+00 -0.64930732323E+04  0.65000000000E+04  0.30000000000E+03 0.  1.
     100001    1    1    2    0    0 -0.15171681010E+03 -0.32758238994E+03 -0.64882217546E+04  0.65000000000E+04  0.15050000000E+03 0.  1.
     100001    1    1    2    0    0  0.15171681010E+03  0.32758238994E+03  0.64882217546E+04  0.65000000000E+04  0.15050000000E+03 0. -1.
</event>
<event>
 4    1  0.5143956E-004  0.6500000E+04  0.7818608E-02  0.7223770E-01
         52   -1    0    0    0    0  0.00000000000E+00  0.00000000000E+00  0.64930732323E+04  0.65000000000E+04  0.30000000000E+03 0.  1.
        -52   -1    0    0    0    0 -0.00000000000E+00 -0.00000000000E+00 -0.64930732323E+04  0.65000000000E+04  0.30000000000E+03 0. -1.
     100001    1    1    2    0    0 -0.56309208115E+03  0.20505409329E+03  0.64705664263E+04  0.65000000000E+04  0.15050000000E+03 0.  1.
     100001    1    1    2    0    0  0.56309208115E+03 -0.20505409329E+03 -0.64705664263E+04  0.65000000000E+04  0.15050000000E+03 0. -1.
</event>
<event>
 4    1  0.5143956E-004  0.6500000E+04  0.7818608E-02  0.7223770E-01
         52   -1    0    0    0    0  0.00000000000E+00  0.00000000000E+00  0.64930732323E+04  0.65000000000E+04  0.30000000000E+03 0. -1.
        -52   -1    0    0    0    0 -0.00000000000E+00 -0.00000000000E+00 -0.64930732323E+04  0.65000000000E+04  0.30000000000E+03 0.  1.
     100001    1    1    2    0    0  0.69930069291E+03  0.14891904650E+04  0.62865443648E+04  0.65000000000E+04  0.15050000000E+03 0. -1.
     100001    1    1    2    0    0 -0.69930069291E+03 -0.14891904650E+04 -0.62865443648E+04  0.65000000000E+04  0.15050000000E+03 0.  1.
</event>
<event>
 4    1  0.5143956E-004  0.6500000E+04  0.7818608E-02  0.7223770E-01
         52   -1    0    0    0    0  0.00000000000E+00  0.00000000000E+00  0.64930732323E+04  0.65000000000E+04  0.30000000000E+03 0. -1.
        -52   -1    0    0    0    0 -0.00000000000E+00 -0.00000000000E+00 -0.64930732323E+04  0.65000000000E+04  0.30000000000E+03 0.  1.
     100001    1    1    2    0    0  0.13098925076E+04 -0.15025240487E+04  0.61849779993E+04  0.65000000000E+04  0.15050000000E+03 0. -1.
     100001    1    1    2    0    0 -0.13098925076E+04  0.15025240487E+04 -0.61849779993E+04  0.65000000000E+04  0.15050000000E+03 0.  1.
</event>
<event>
 4    1  0.5143956E-004  0.6500000E+04  0.7818608E-02  0.7223770E-01
         52   -1    0    0    0    0  0.00000000000E+00  0.00000000000E+00  0.64930732323E+04  0.65000000000E+04  0.30000000000E+03 0.  1.
        -52   -1    0    0    0    0 -0.00000000000E+00 -0.00000000000E+00 -0.64930732323E+04  0.65000000000E+04  0.30000000000E+03 0. -1.
     100001    1    1    2    0    0  0.76359066830E+03  0.98459142683E+03 -0.63776844359E+04  0.65000000000E+04  0.15050000000E+03 0. -1.
     100001    1    1    2    0    0 -0.76359066830E+03 -0.98459142683E+03  0.63776844359E+04  0.65000000000E+04  0.15050000000E+03 0.  1.
</event>
<event>
 4    1  0.5143956E-004  0.6500000E+04  0.7818608E-02  0.7223770E-01
         52   -1    0    0    0    0  0.00000000000E+00  0.00000000000E+00  0.64930732323E+04  0.65000000000E+04  0.30000000000E+03 0. -1.
        -52   -1    0    0    0    0 -0.00000000000E+00 -0.00000000000E+00 -0.64930732323E+04  0.65000000000E+04  0.30000000000E+03 0.  1.
     100001    1    1    2    0    0  0.41731854480E+03 -0.93228500580E+03  0.64174792286E+04  0.65000000000E+04  0.15050000000E+03 0. -1.
     100001    1    1    2    0    0 -0.41731854480E+03  0.93228500580E+03 -0.64174792286E+04  0.65000000000E+04  0.15050000000E+03 0.  1.
</event>
<event>
 4    1  0.5143956E-004  0.6500000E+04  0.7818608E-02  0.7223770E-01
         52   -1    0    0    0    0  0.00000000000E+00  0.00000000000E+00  0.64930732323E+04  0.65000000000E+04  0.30000000000E+03 0. -1.
        -52   -1    0    0    0    0 -0.00000000000E+00 -0.00000000000E+00 -0.64930732323E+04  0.65000000000E+04  0.30000000000E+03 0.  1.
     100001    1    1    2    0    0  0.13353147494E+03 -0.26386066289E+04  0.59369414814E+04  0.65000000000E+04  0.15050000000E+03 0. -1.
     100001    1    1    2    0    0 -0.13353147494E+03  0.26386066289E+04 -0.59369414814E+04  0.65000000000E+04  0.15050000000E+03 0.  1.
</event>
<event>
 4    1  0.5143956E-004  0.6500000E+04  0.7818608E-02  0.7223770E-01
         52   -1    0    0    0    0  0.00000000000E+00  0.00000000000E+00  0.64930732323E+04  0.65000000000E+04  0.30000000000E+03 0.  1.
        -52   -1    0    0    0    0 -0.00000000000E+00 -0.00000000000E+00 -0.64930732323E+04  0.65000000000E+04  0.30000000000E+03 0. -1.
     100001    1    1    2    0    0 -0.10484513957E+04  0.46709118647E+03  0.63960867133E+04  0.65000000000E+04  0.15050000000E+03 0.  1.
     100001    1    1    2    0    0  0.10484513957E+04 -0.46709118647E+03 -0.63960867133E+04  0.65000000000E+04  0.15050000000E+03 0. -1.
</event>
<event>
 4    1  0.5143956E-004  0.6500000E+04  0.7818608E-02  0.7223770E-01
         52   -1    0    0    0    0  0.00000000000E+00  0.00000000000E+00  0.64930732323E+04  0.65000000000E+04  0.30000000000E+03 0.  1.
        -52   -1    0    0    0    0 -0.00000000000E+00 -0.00000000000E+00 -0.64930732323E+04  0.65000000000E+04  0.30000000000E+03 0. -1.
     100001    1    1    2    0    0  0.16941405026E+04 -0.11940598474E+04 -0.61588520674E+04  0.65000000000E+04  0.15050000000E+03 0. -1.
     100001    1    1    2    0    0 -0.16941405026E+04  0.11940598474E+04  0.61588520674E+04  0.65000000000E+04  0.15050000000E+03 0.  1.
</event>
<event>
 4    1  0.5143956E-004  0.6500000E+04  0.7818608E-02  0.7223770E-01
         52   -1    0    0    0    0  0.00000000000E+00  0.00000000000E+00  0.64930732323E+04  0.65000000000E+04  0.30000000000E+03 0.  1.
        -52   -1    0    0    0    0 -0.00000000000E+00 -0.00000000000E+00 -0.64930732323E+04  0.65000000000E+04  0.30000000000E+03 0. -1.
     100001    1    1    2    0    0  0.14655010320E+04 -0.46647502894E+02 -0.63306777272E+04  0.65000000000E+04  0.15050000000E+03 0. -1.
     100001    1    1    2    0    0 -0.14655010320E+04  0.46647502894E+02  0.63306777272E+04  0.65000000000E+04  0.15050000000E+03 0.  1.
</event>
<event>
 4    1  0.5143956E-004  0.6500000E+04  0.7818608E-02  0.7223770E-01
         52   -1    0    0    0    0  0.00000000000E+00  0.00000000000E+00  0.64930732323E+04  0.65000000000E+04  0.30000000000E+03 0. -1.
        -52   -1    0    0    0    0 -0.00000000000E+00 -0.00000000000E+00 -0.64930732323E+04  0.65000000000E+04  0.30000000000E+03 0.  1.
     100001    1    1    2    0    0  0.38028074769E+03  0.19596979687E+04  0.61840375301E+04  0.65000000000E+04  0.15050000000E+03 0. -1.
     100001    1    1    2    0    0 -0.38028074769E+03 -0.19596979687E+04 -0.61840375301E+04  0.65000000000E+04  0.15050000000E+03 0.  1.
</event>
<event>
 4    1  0.5143956E-004  0.6500000E+04  0.7818608E-02  0.7223770E-01
         52   -1    0    0    0    0  0.00000000000E+00  0.00000000000E+00  0.64930732323E+04  0.65000000000E+04  0.30000000000E+03 0. -1.
        -52   -1    0    0    0    0 -0.00000000000E+00 -0.00000000000E+00 -0.64930732323E+04  0.65000000000E+04  0.30000000000E+03 0.  1.
     100001    1    1    2    0    0 -0.28929737725E+03  0.42012135629E+02 -0.64916786549E+04  0.65000000000E+04  0.15050000000E+03 0.  1.
     100001    1    1    2    0    0  0.28929737725E+03 -0.42012135629E+02  0.64916786549E+04  0.65000000000E+04  0.15050000000E+03 0. -1.
</event>
<event>
 4    1  0.5143956E-004  0.6500000E+04  0.7818608E-02  0.7223770E-01
         52   -1    0    0    0    0  0.00000000000E+00  0.00000000000E+00  0.64930732323E+04  0.65000000000E+04  0.30000000000E+03 0. -1.
        -52   -1    0    0    0    0 -0.00000000000E+00 -0.00000000000E+00 -0.64930732323E+04  0.65000000000E+04  0.30000000000E+03 0. -1.
     100001    1    1    2    0    0  0.56033827638E+03  0.16608130804E+02 -0.64740323552E+04  0.65000000000E+04  0.15050000000E+03 0. -1.
     100001    1    1    2    0    0 -0.56033827638E+03 -0.16608130804E+02  0.64740323552E+04  0.65000000000E+04  0.15050000000E+03 0. -1.
</event>
<event>
 4    1  0.5143956E-004  0.6500000E+04  0.7818608E-02  0.7223770E-01
         52   -1    0    0    0    0  0.00000000000E+00  0.00000000000E+00  0.64930732323E+04  0.65000000000E+04  0.30000000000E+03 0.  1.
        -52   -1    0    0    0    0 -0.00000000000E+00 -0.00000000000E+00 -0.64930732323E+04  0.65000000000E+04  0.30000000000E+03 0. -1.
     100001    1    1    2    0    0  0.13863139523E+04 -0.73776157361E+03  0.63056475668E+04  0.65000000000E+04  0.15050000000E+03 0.  1.
     100001    1    1    2    0    0 -0.13863139523E+04  0.73776157361E+03 -0.63056475668E+04  0.65000000000E+04  0.15050000000E+03 0. -1.
</event>
<event>
 4    1  0.5143956E-004  0.6500000E+04  0.7818608E-02  0.7223770E-01
         52   -1    0    0    0    0  0.00000000000E+00  0.00000000000E+00  0.64930732323E+04  0.65000000000E+04  0.30000000000E+03 0.  1.
        -52   -1    0    0    0    0 -0.00000000000E+00 -0.00000000000E+00 -0.64930732323E+04  0.65000000000E+04  0.30000000000E+03 0. -1.
     100001    1    1    2    0    0  0.27082581652E+03  0.41801645276E+02  0.64924768578E+04  0.65000000000E+04  0.15050000000E+03 0.  1.
     100001    1    1    2    0    0 -0.27082581652E+03 -0.41801645276E+02 -0.64924768578E+04  0.65000000000E+04  0.15050000000E+03 0. -1.
</event>
<event>
 4    1  0.5143956E-004  0.6500000E+04  0.7818608E-02  0.7223770E-01
         52   -1    0    0    0    0  0.00000000000E+00  0.00000000000E+00  0.64930732323E+04  0.65000000000E+04  0.30000000000E+03 0. -1.
        -52   -1    0    0    0    0 -0.00000000000E+00 -0.00000000000E+00 -0.64930732323E+04  0.65000000000E+04  0.30000000000E+03 0.  1.
     100001    1    1    2    0    0 -0.49198119883E+03 -0.43515843863E+04  0.48009392392E+04  0.65000000000E+04  0.15050000000E+03 0. -1.
     100001    1    1    2    0    0  0.49198119883E+03  0.43515843863E+04 -0.48009392392E+04  0.65000000000E+04  0.15050000000E+03 0.  1.
</event>
<event>
 4    1  0.5143956E-004  0.6500000E+04  0.7818608E-02  0.7223770E-01
         52   -1    0    0    0    0  0.00000000000E+00  0.00000000000E+00  0.64930732323E+04  0.65000000000E+04  0.30000000000E+03 0. -1.
        -52   -1    0    0    0    0 -0.00000000000E+00 -0.00000000000E+00 -0.64930732323E+04  0.65000000000E+04  0.30000000000E+03 0.  1.
     100001    1    1    2    0    0  0.32652948616E+03  0.33208160221E+03 -0.64815468874E+04  0.65000000000E+04  0.15050000000E+03 0.  1.
     100001    1    1    2    0    0 -0.32652948616E+03 -0.33208160221E+03  0.64815468874E+04  0.65000000000E+04  0.15050000000E+03 0. -1.
</event>
<event>
 4    1  0.5143956E-004  0.6500000E+04  0.7818608E-02  0.7223770E-01
         52   -1    0    0    0    0  0.00000000000E+00  0.00000000000E+00  0.64930732323E+04  0.65000000000E+04  0.30000000000E+03 0. -1.
        -52   -1    0    0    0    0 -0.00000000000E+00 -0.00000000000E+00 -0.64930732323E+04  0.65000000000E+04  0.30000000000E+03 0.  1.
     100001    1    1    2    0    0 -0.10666676138E+04 -0.70217353712E+03  0.63715400238E+04  0.65000000000E+04  0.15050000000E+03 0. -1.
     100001    1    1    2    0    0  0.10666676138E+04  0.70217353712E+03 -0.63715400238E+04  0.65000000000E+04  0.15050000000E+03 0.  1.
</event>
<event>
 4    1  0.5143956E-004  0.6500000E+04  0.7818608E-02  0.7223770E-01
         52   -1    0    0    0    0  0.00000000000E+00  0.00000000000E+00  0.64930732323E+04  0.65000000000E+04  0.30000000000E+03 0. -1.
        -52   -1    0    0    0    0 -0.00000000000E+00 -0.00000000000E+00 -0.64930732323E+04  0.65000000000E+04  0.30000000000E+03 0.  1.
     100001    1    1    2    0    0 -0.12030581507E+04 -0.37911681337E+04 -0.51387785531E+04  0.65000000000E+04  0.15050000000E+03 0.  1.
     100001    1    1    2    0    0  0.12030581507E+04  0.37911681337E+04  0.51387785531E+04  0.65000000000E+04  0.15050000000E+03 0. -1.
</event>
<event>
 4    1  0.5143956E-004  0.6500000E+04  0.7818608E-02  0.7223770E-01
         52   -1    0    0    0    0  0.00000000000E+00  0.00000000000E+00  0.64930732323E+04  0.65000000000E+04  0.30000000000E+03 0.  1.
        -52   -1    0    0    0    0 -0.00000000000E+00 -0.00000000000E+00 -0.64930732323E+04  0.65000000000E+04  0.30000000000E+03 0. -1.
     100001    1    1    2    0    0 -0.26896367353E+04  0.61594071832E+03 -0.58833511721E+04  0.65000000000E+04  0.15050000000E+03 0. -1.
     100001    1    1    2    0    0  0.26896367353E+04 -0.61594071832E+03  0.58833511721E+04  0.65000000000E+04  0.15050000000E+03 0.  1.
</event>
<event>
 4    1  0.5143956E-004  0.6500000E+04  0.7818608E-02  0.7223770E-01
         52   -1    0    0    0    0  0.00000000000E+00  0.00000000000E+00  0.64930732323E+04  0.65000000000E+04  0.30000000000E+03 0. -1.
        -52   -1    0    0    0    0 -0.00000000000E+00 -0.00000000000E+00 -0.64930732323E+04  0.65000000000E+04  0.30000000000E+03 0.  1.
     100001    1    1    2    0    0  0.18000476935E+04 -0.18887668220E+04 -0.59514483904E+04  0.65000000000E+04  0.15050000000E+03 0.  1.
     100001    1    1    2    0    0 -0.18000476935E+04  0.18887668220E+04  0.59514483904E+04  0.65000000000E+04  0.15050000000E+03 0. -1.
</event>
<event>
 4    1  0.5143956E-004  0.6500000E+04  0.7818608E-02  0.7223770E-01
         52   -1    0    0    0    0  0.00000000000E+00  0.00000000000E+00  0.64930732323E+04  0.65000000000E+04  0.30000000000E+03 0.  1.
        -52   -1    0    0    0    0 -0.00000000000E+00 -0.00000000000E+00 -0.64930732323E+04  0.65000000000E+04  0.30000000000E+03 0. -1.
     100001    1    1    2    0    0 -0.47279911928E+03  0.63023131053E+03 -0.64503193129E+04  0.65000000000E+04  0.15050000000E+03 0. -1.
     100001    1    1    2    0    0  0.47279911928E+03 -0.63023131053E+03  0.64503193129E+04  0.65000000000E+04  0.15050000000E+03 0.  1.
</event>
<event>
 4    1  0.5143956E-004  0.6500000E+04  0.7818608E-02  0.7223770E-01
         52   -1    0    0    0    0  0.00000000000E+00  0.00000000000E+00  0.64930732323E+04  0.65000000000E+04  0.30000000000E+03 0. -1.
        -52   -1    0    0    0    0 -0.00000000000E+00 -0.00000000000E+00 -0.64930732323E+04  0.65000000000E+04  0.30000000000E+03 0.  1.
     100001    1    1    2    0    0  0.28053151779E+04 -0.19400631937E+04 -0.55311582247E+04  0.65000000000E+04  0.15050000000E+03 0.  1.
     100001    1    1    2    0    0 -0.28053151779E+04  0.19400631937E+04  0.55311582247E+04  0.65000000000E+04  0.15050000000E+03 0. -1.
</event>
<event>
 4    1  0.5143956E-004  0.6500000E+04  0.7818608E-02  0.7223770E-01
         52   -1    0    0    0    0  0.00000000000E+00  0.00000000000E+00  0.64930732323E+04  0.65000000000E+04  0.30000000000E+03 0. -1.
        -52   -1    0    0    0    0 -0.00000000000E+00 -0.00000000000E+00 -0.64930732323E+04  0.65000000000E+04  0.30000000000E+03 0.  1.
     100001    1    1    2    0    0 -0.14631687349E+04 -0.19052899770E+04  0.60379099949E+04  0.65000000000E+04  0.15050000000E+03 0. -1.
     100001    1    1    2    0    0  0.14631687349E+04  0.19052899770E+04 -0.60379099949E+04  0.65000000000E+04  0.15050000000E+03 0.  1.
</event>
<event>
 4    1  0.5143956E-004  0.6500000E+04  0.7818608E-02  0.7223770E-01
         52   -1    0    0    0    0  0.00000000000E+00  0.00000000000E+00  0.64930732323E+04  0.65000000000E+04  0.30000000000E+03 0.  1.
        -52   -1    0    0    0    0 -0.00000000000E+00 -0.00000000000E+00 -0.64930732323E+04  0.65000000000E+04  0.30000000000E+03 0. -1.
     100001    1    1    2    0    0 -0.14018106362E+03 -0.17618468627E+03  0.64943558553E+04  0.65000000000E+04  0.15050000000E+03 0.  1.
     100001    1    1    2    0    0  0.14018106362E+03  0.17618468627E+03 -0.64943558553E+04  0.65000000000E+04  0.15050000000E+03 0. -1.
</event>
<event>
 4    1  0.5143956E-004  0.6500000E+04  0.7818608E-02  0.7223770E-01
         52   -1    0    0    0    0  0.00000000000E+00  0.00000000000E+00  0.64930732323E+04  0.65000000000E+04  0.30000000000E+03 0. -1.
        -52   -1    0    0    0    0 -0.00000000000E+00 -0.00000000000E+00 -0.64930732323E+04  0.65000000000E+04  0.30000000000E+03 0.  1.
     100001    1    1    2    0    0  0.39542284028E+03  0.77718323445E+03 -0.64394857518E+04  0.65000000000E+04  0.15050000000E+03 0.  1.
     100001    1    1    2    0    0 -0.39542284028E+03 -0.77718323445E+03  0.64394857518E+04  0.65000000000E+04  0.15050000000E+03 0. -1.
</event>
<event>
 4    1  0.5143956E-004  0.6500000E+04  0.7818608E-02  0.7223770E-01
         52   -1    0    0    0    0  0.00000000000E+00  0.00000000000E+00  0.64930732323E+04  0.65000000000E+04  0.30000000000E+03 0.  1.
        -52   -1    0    0    0    0 -0.00000000000E+00 -0.00000000000E+00 -0.64930732323E+04  0.65000000000E+04  0.30000000000E+03 0. -1.
     100001    1    1    2    0    0  0.42970397232E+03  0.55364041212E+03 -0.64603549856E+04  0.65000000000E+04  0.15050000000E+03 0. -1.
     100001    1    1    2    0    0 -0.42970397232E+03 -0.55364041212E+03  0.64603549856E+04  0.65000000000E+04  0.15050000000E+03 0.  1.
</event>
<event>
 4    1  0.5143956E-004  0.6500000E+04  0.7818608E-02  0.7223770E-01
         52   -1    0    0    0    0  0.00000000000E+00  0.00000000000E+00  0.64930732323E+04  0.65000000000E+04  0.30000000000E+03 0.  1.
        -52   -1    0    0    0    0 -0.00000000000E+00 -0.00000000000E+00 -0.64930732323E+04  0.65000000000E+04  0.30000000000E+03 0. -1.
     100001    1    1    2    0    0  0.71221962524E+03 -0.30800126571E+03  0.64517616335E+04  0.65000000000E+04  0.15050000000E+03 0.  1.
     100001    1    1    2    0    0 -0.71221962524E+03  0.30800126571E+03 -0.64517616335E+04  0.65000000000E+04  0.15050000000E+03 0. -1.
</event>
<event>
 4    1  0.7852167E-004  0.6500000E+04  0.7818608E-02  0.7223770E-01
         52   -1    0    0    0    0  0.00000000000E+00  0.00000000000E+00  0.64930732323E+04  0.65000000000E+04  0.30000000000E+03 0. -1.
        -52   -1    0    0    0    0 -0.00000000000E+00 -0.00000000000E+00 -0.64930732323E+04  0.65000000000E+04  0.30000000000E+03 0. -1.
     100001    1    1    2    0    0 -0.15082505219E+03  0.25470610582E+02  0.64964569422E+04  0.65000000000E+04  0.15050000000E+03 0. -1.
     100001    1    1    2    0    0  0.15082505219E+03 -0.25470610582E+02 -0.64964569422E+04  0.65000000000E+04  0.15050000000E+03 0. -1.
</event>
<event>
 4    1  0.5143956E-004  0.6500000E+04  0.7818608E-02  0.7223770E-01
         52   -1    0    0    0    0  0.00000000000E+00  0.00000000000E+00  0.64930732323E+04  0.65000000000E+04  0.30000000000E+03 0.  1.
        -52   -1    0    0    0    0 -0.00000000000E+00 -0.00000000000E+00 -0.64930732323E+04  0.65000000000E+04  0.30000000000E+03 0. -1.
     100001    1    1    2    0    0 -0.40112955402E+04 -0.28289986729E+04 -0.42583593493E+04  0.65000000000E+04  0.15050000000E+03 0. -1.
     100001    1    1    2    0    0  0.40112955402E+04  0.28289986729E+04  0.42583593493E+04  0.65000000000E+04  0.15050000000E+03 0.  1.
</event>
<event>
 4    1  0.5143956E-004  0.6500000E+04  0.7818608E-02  0.7223770E-01
         52   -1    0    0    0    0  0.00000000000E+00  0.00000000000E+00  0.64930732323E+04  0.65000000000E+04  0.30000000000E+03 0. -1.
        -52   -1    0    0    0    0 -0.00000000000E+00 -0.00000000000E+00 -0.64930732323E+04  0.65000000000E+04  0.30000000000E+03 0. -1.
     100001    1    1    2    0    0 -0.33515856069E+03  0.22032580820E+02 -0.64895710994E+04  0.65000000000E+04  0.15050000000E+03 0. -1.
     100001    1    1    2    0    0  0.33515856069E+03 -0.22032580820E+02  0.64895710994E+04  0.65000000000E+04  0.15050000000E+03 0. -1.
</event>
<event>
 4    1  0.5143956E-004  0.6500000E+04  0.7818608E-02  0.7223770E-01
         52   -1    0    0    0    0  0.00000000000E+00  0.00000000000E+00  0.64930732323E+04  0.65000000000E+04  0.30000000000E+03 0.  1.
        -52   -1    0    0    0    0 -0.00000000000E+00 -0.00000000000E+00 -0.64930732323E+04  0.65000000000E+04  0.30000000000E+03 0. -1.
     100001    1    1    2    0    0  0.67628712757E+03  0.68695507537E+03 -0.64263580818E+04  0.65000000000E+04  0.15050000000E+03 0. -1.
     100001    1    1    2    0    0 -0.67628712757E+03 -0.68695507537E+03  0.64263580818E+04  0.65000000000E+04  0.15050000000E+03 0.  1.
</event>
<event>
 4    1  0.5143956E-004  0.6500000E+04  0.7818608E-02  0.7223770E-01
         52   -1    0    0    0    0  0.00000000000E+00  0.00000000000E+00  0.64930732323E+04  0.65000000000E+04  0.30000000000E+03 0.  1.
        -52   -1    0    0    0    0 -0.00000000000E+00 -0.00000000000E+00 -0.64930732323E+04  0.65000000000E+04  0.30000000000E+03 0. -1.
     100001    1    1    2    0    0  0.16038861692E+04 -0.97159956450E+03 -0.62218078717E+04  0.65000000000E+04  0.15050000000E+03 0. -1.
     100001    1    1    2    0    0 -0.16038861692E+04  0.97159956450E+03  0.62218078717E+04  0.65000000000E+04  0.15050000000E+03 0.  1.
</event>
<event>
 4    1  0.5143956E-004  0.6500000E+04  0.7818608E-02  0.7223770E-01
         52   -1    0    0    0    0  0.00000000000E+00  0.00000000000E+00  0.64930732323E+04  0.65000000000E+04  0.30000000000E+03 0.  1.
        -52   -1    0    0    0    0 -0.00000000000E+00 -0.00000000000E+00 -0.64930732323E+04  0.65000000000E+04  0.30000000000E+03 0. -1.
     100001    1    1    2    0    0 -0.76410583231E+02 -0.62669169025E+03 -0.64675164243E+04  0.65000000000E+04  0.15050000000E+03 0. -1.
     100001    1    1    2    0    0  0.76410583231E+02  0.62669169025E+03  0.64675164243E+04  0.65000000000E+04  0.15050000000E+03 0.  1.
</event>
<event>
 4    1  0.5143956E-004  0.6500000E+04  0.7818608E-02  0.7223770E-01
         52   -1    0    0    0    0  0.00000000000E+00  0.00000000000E+00  0.64930732323E+04  0.65000000000E+04  0.30000000000E+03 0.  1.
        -52   -1    0    0    0    0 -0.00000000000E+00 -0.00000000000E+00 -0.64930732323E+04  0.65000000000E+04  0.30000000000E+03 0. -1.
     100001    1    1    2    0    0 -0.29110021220E+03  0.36993471273E+03  0.64811849784E+04  0.65000000000E+04  0.15050000000E+03 0.  1.
     100001    1    1    2    0    0  0.29110021220E+03 -0.36993471273E+03 -0.64811849784E+04  0.65000000000E+04  0.15050000000E+03 0. -1.
</event>
<event>
 4    1  0.5143956E-004  0.6500000E+04  0.7818608E-02  0.7223770E-01
         52   -1    0    0    0    0  0.00000000000E+00  0.00000000000E+00  0.64930732323E+04  0.65000000000E+04  0.30000000000E+03 0.  1.
        -52   -1    0    0    0    0 -0.00000000000E+00 -0.00000000000E+00 -0.64930732323E+04  0.65000000000E+04  0.30000000000E+03 0.  1.
     100001    1    1    2    0    0  0.20643000533E+03 -0.38684539767E+03 -0.64834471573E+04  0.65000000000E+04  0.15050000000E+03 0.  1.
     100001    1    1    2    0    0 -0.20643000533E+03  0.38684539767E+03  0.64834471573E+04  0.65000000000E+04  0.15050000000E+03 0.  1.
</event>
<event>
 4    1  0.5143956E-004  0.6500000E+04  0.7818608E-02  0.7223770E-01
         52   -1    0    0    0    0  0.00000000000E+00  0.00000000000E+00  0.64930732323E+04  0.65000000000E+04  0.30000000000E+03 0. -1.
        -52   -1    0    0    0    0 -0.00000000000E+00 -0.00000000000E+00 -0.64930732323E+04  0.65000000000E+04  0.30000000000E+03 0.  1.
     100001    1    1    2    0    0 -0.41454026483E+03 -0.30687623439E+02  0.64849490660E+04  0.65000000000E+04  0.15050000000E+03 0. -1.
     100001    1    1    2    0    0  0.41454026483E+03  0.30687623439E+02 -0.64849490660E+04  0.65000000000E+04  0.15050000000E+03 0.  1.
</event>
<event>
 4    1  0.5143956E-004  0.6500000E+04  0.7818608E-02  0.7223770E-01
         52   -1    0    0    0    0  0.00000000000E+00  0.00000000000E+00  0.64930732323E+04  0.65000000000E+04  0.30000000000E+03 0. -1.
        -52   -1    0    0    0    0 -0.00000000000E+00 -0.00000000000E+00 -0.64930732323E+04  0.65000000000E+04  0.30000000000E+03 0. -1.
     100001    1    1    2    0    0 -0.34397520223E+02 -0.29914337431E+02 -0.64980975441E+04  0.65000000000E+04  0.15050000000E+03 0. -1.
     100001    1    1    2    0    0  0.34397520223E+02  0.29914337431E+02  0.64980975441E+04  0.65000000000E+04  0.15050000000E+03 0. -1.
</event>
<event>
 4    1  0.5143956E-004  0.6500000E+04  0.7818608E-02  0.7223770E-01
         52   -1    0    0    0    0  0.00000000000E+00  0.00000000000E+00  0.64930732323E+04  0.65000000000E+04  0.30000000000E+03 0. -1.
        -52   -1    0    0    0    0 -0.00000000000E+00 -0.00000000000E+00 -0.64930732323E+04  0.65000000000E+04  0.30000000000E+03 0.  1.
     100001    1    1    2    0    0 -0.36248866123E+04 -0.50912222594E+03 -0.53692030467E+04  0.65000000000E+04  0.15050000000E+03 0.  1.
     100001    1    1    2    0    0  0.36248866123E+04  0.50912222594E+03  0.53692030467E+04  0.65000000000E+04  0.15050000000E+03 0. -1.
</event>
<event>
 4    1  0.5143956E-004  0.6500000E+04  0.7818608E-02  0.7223770E-01
         52   -1    0    0    0    0  0.00000000000E+00  0.00000000000E+00  0.64930732323E+04  0.65000000000E+04  0.30000000000E+03 0.  1.
        -52   -1    0    0    0    0 -0.00000000000E+00 -0.00000000000E+00 -0.64930732323E+04  0.65000000000E+04  0.30000000000E+03 0. -1.
     100001    1    1    2    0    0  0.19141185588E+04  0.70288430076E+03 -0.61700448582E+04  0.65000000000E+04  0.15050000000E+03 0. -1.
     100001    1    1    2    0    0 -0.19141185588E+04 -0.70288430076E+03  0.61700448582E+04  0.65000000000E+04  0.15050000000E+03 0.  1.
</event>
<event>
 4    1  0.5143956E-004  0.6500000E+04  0.7818608E-02  0.7223770E-01
         52   -1    0    0    0    0  0.00000000000E+00  0.00000000000E+00  0.64930732323E+04  0.65000000000E+04  0.30000000000E+03 0. -1.
        -52   -1    0    0    0    0 -0.00000000000E+00 -0.00000000000E+00 -0.64930732323E+04  0.65000000000E+04  0.30000000000E+03 0.  1.
     100001    1    1    2    0    0 -0.25132881849E+03 -0.29408003498E+04 -0.57892898422E+04  0.65000000000E+04  0.15050000000E+03 0.  1.
     100001    1    1    2    0    0  0.25132881849E+03  0.29408003498E+04  0.57892898422E+04  0.65000000000E+04  0.15050000000E+03 0. -1.
</event>
<event>
 4    1  0.5143956E-004  0.6500000E+04  0.7818608E-02  0.7223770E-01
         52   -1    0    0    0    0  0.00000000000E+00  0.00000000000E+00  0.64930732323E+04  0.65000000000E+04  0.30000000000E+03 0.  1.
        -52   -1    0    0    0    0 -0.00000000000E+00 -0.00000000000E+00 -0.64930732323E+04  0.65000000000E+04  0.30000000000E+03 0. -1.
     100001    1    1    2    0    0  0.60090910921E+03 -0.72468157774E+03 -0.64297040837E+04  0.65000000000E+04  0.15050000000E+03 0. -1.
     100001    1    1    2    0    0 -0.60090910921E+03  0.72468157774E+03  0.64297040837E+04  0.65000000000E+04  0.15050000000E+03 0.  1.
</event>
<event>
 4    1  0.5143956E-004  0.6500000E+04  0.7818608E-02  0.7223770E-01
         52   -1    0    0    0    0  0.00000000000E+00  0.00000000000E+00  0.64930732323E+04  0.65000000000E+04  0.30000000000E+03 0.  1.
        -52   -1    0    0    0    0 -0.00000000000E+00 -0.00000000000E+00 -0.64930732323E+04  0.65000000000E+04  0.30000000000E+03 0. -1.
     100001    1    1    2    0    0  0.35922423776E+04  0.25957135280E+04  0.47524115700E+04  0.65000000000E+04  0.15050000000E+03 0.  1.
     100001    1    1    2    0    0 -0.35922423776E+04 -0.25957135280E+04 -0.47524115700E+04  0.65000000000E+04  0.15050000000E+03 0. -1.
</event>
<event>
 4    1  0.5143956E-004  0.6500000E+04  0.7818608E-02  0.7223770E-01
         52   -1    0    0    0    0  0.00000000000E+00  0.00000000000E+00  0.64930732323E+04  0.65000000000E+04  0.30000000000E+03 0.  1.
        -52   -1    0    0    0    0 -0.00000000000E+00 -0.00000000000E+00 -0.64930732323E+04  0.65000000000E+04  0.30000000000E+03 0. -1.
     100001    1    1    2    0    0 -0.32990912017E+04  0.12367949061E+04  0.54601909631E+04  0.65000000000E+04  0.15050000000E+03 0.  1.
     100001    1    1    2    0    0  0.32990912017E+04 -0.12367949061E+04 -0.54601909631E+04  0.65000000000E+04  0.15050000000E+03 0. -1.
</event>
<event>
 4    1  0.5143956E-004  0.6500000E+04  0.7818608E-02  0.7223770E-01
         52   -1    0    0    0    0  0.00000000000E+00  0.00000000000E+00  0.64930732323E+04  0.65000000000E+04  0.30000000000E+03 0.  1.
        -52   -1    0    0    0    0 -0.00000000000E+00 -0.00000000000E+00 -0.64930732323E+04  0.65000000000E+04  0.30000000000E+03 0.  1.
     100001    1    1    2    0    0 -0.40843137072E+03 -0.26595788521E+02  0.64853547497E+04  0.65000000000E+04  0.15050000000E+03 0.  1.
     100001    1    1    2    0    0  0.40843137072E+03  0.26595788521E+02 -0.64853547497E+04  0.65000000000E+04  0.15050000000E+03 0.  1.
</event>
<event>
 4    1  0.5143956E-004  0.6500000E+04  0.7818608E-02  0.7223770E-01
         52   -1    0    0    0    0  0.00000000000E+00  0.00000000000E+00  0.64930732323E+04  0.65000000000E+04  0.30000000000E+03 0. -1.
        -52   -1    0    0    0    0 -0.00000000000E+00 -0.00000000000E+00 -0.64930732323E+04  0.65000000000E+04  0.30000000000E+03 0.  1.
     100001    1    1    2    0    0 -0.27213019710E+03 -0.15793839690E+03 -0.64906355905E+04  0.65000000000E+04  0.15050000000E+03 0.  1.
     100001    1    1    2    0    0  0.27213019710E+03  0.15793839690E+03  0.64906355905E+04  0.65000000000E+04  0.15050000000E+03 0. -1.
</event>
<event>
 4    1  0.5143956E-004  0.6500000E+04  0.7818608E-02  0.7223770E-01
         52   -1    0    0    0    0  0.00000000000E+00  0.00000000000E+00  0.64930732323E+04  0.65000000000E+04  0.30000000000E+03 0. -1.
        -52   -1    0    0    0    0 -0.00000000000E+00 -0.00000000000E+00 -0.64930732323E+04  0.65000000000E+04  0.30000000000E+03 0.  1.
     100001    1    1    2    0    0  0.18249941742E+04  0.22401045490E+04  0.58205392898E+04  0.65000000000E+04  0.15050000000E+03 0. -1.
     100001    1    1    2    0    0 -0.18249941742E+04 -0.22401045490E+04 -0.58205392898E+04  0.65000000000E+04  0.15050000000E+03 0.  1.
</event>
<event>
 4    1  0.5143956E-004  0.6500000E+04  0.7818608E-02  0.7223770E-01
         52   -1    0    0    0    0  0.00000000000E+00  0.00000000000E+00  0.64930732323E+04  0.65000000000E+04  0.30000000000E+03 0.  1.
        -52   -1    0    0    0    0 -0.00000000000E+00 -0.00000000000E+00 -0.64930732323E+04  0.65000000000E+04  0.30000000000E+03 0. -1.
     100001    1    1    2    0    0 -0.72313565100E+03  0.11248871345E+04  0.63591708198E+04  0.65000000000E+04  0.15050000000E+03 0.  1.
     100001    1    1    2    0    0  0.72313565100E+03 -0.11248871345E+04 -0.63591708198E+04  0.65000000000E+04  0.15050000000E+03 0. -1.
</event>
<event>
 4    1  0.5143956E-004  0.6500000E+04  0.7818608E-02  0.7223770E-01
         52   -1    0    0    0    0  0.00000000000E+00  0.00000000000E+00  0.64930732323E+04  0.65000000000E+04  0.30000000000E+03 0.  1.
        -52   -1    0    0    0    0 -0.00000000000E+00 -0.00000000000E+00 -0.64930732323E+04  0.65000000000E+04  0.30000000000E+03 0. -1.
     100001    1    1    2    0    0 -0.50327373539E+03 -0.20388456185E+03 -0.64755305870E+04  0.65000000000E+04  0.15050000000E+03 0. -1.
     100001    1    1    2    0    0  0.50327373539E+03  0.20388456185E+03  0.64755305870E+04  0.65000000000E+04  0.15050000000E+03 0.  1.
</event>
<event>
 4    1  0.5143956E-004  0.6500000E+04  0.7818608E-02  0.7223770E-01
         52   -1    0    0    0    0  0.00000000000E+00  0.00000000000E+00  0.64930732323E+04  0.65000000000E+04  0.30000000000E+03 0. -1.
        -52   -1    0    0    0    0 -0.00000000000E+00 -0.00000000000E+00 -0.64930732323E+04  0.65000000000E+04  0.30000000000E+03 0.  1.
     100001    1    1    2    0    0  0.42716964966E+04  0.38670155251E+04  0.30043551254E+04  0.65000000000E+04  0.15050000000E+03 0. -1.
     100001    1    1    2    0    0 -0.42716964966E+04 -0.38670155251E+04 -0.30043551254E+04  0.65000000000E+04  0.15050000000E+03 0.  1.
</event>
<event>
 4    1  0.5143956E-004  0.6500000E+04  0.7818608E-02  0.7223770E-01
         52   -1    0    0    0    0  0.00000000000E+00  0.00000000000E+00  0.64930732323E+04  0.65000000000E+04  0.30000000000E+03 0. -1.
        -52   -1    0    0    0    0 -0.00000000000E+00 -0.00000000000E+00 -0.64930732323E+04  0.65000000000E+04  0.30000000000E+03 0.  1.
     100001    1    1    2    0    0 -0.37181354655E+04  0.35038792180E+04 -0.40156753898E+04  0.65000000000E+04  0.15050000000E+03 0.  1.
     100001    1    1    2    0    0  0.37181354655E+04 -0.35038792180E+04  0.40156753898E+04  0.65000000000E+04  0.15050000000E+03 0. -1.
</event>
<event>
 4    1  0.5143956E-004  0.6500000E+04  0.7818608E-02  0.7223770E-01
         52   -1    0    0    0    0  0.00000000000E+00  0.00000000000E+00  0.64930732323E+04  0.65000000000E+04  0.30000000000E+03 0. -1.
        -52   -1    0    0    0    0 -0.00000000000E+00 -0.00000000000E+00 -0.64930732323E+04  0.65000000000E+04  0.30000000000E+03 0.  1.
     100001    1    1    2    0    0  0.32759251903E+03 -0.12948722382E+03  0.64887029482E+04  0.65000000000E+04  0.15050000000E+03 0. -1.
     100001    1    1    2    0    0 -0.32759251903E+03  0.12948722382E+03 -0.64887029482E+04  0.65000000000E+04  0.15050000000E+03 0.  1.
</event>
<event>
 4    1  0.5143956E-004  0.6500000E+04  0.7818608E-02  0.7223770E-01
         52   -1    0    0    0    0  0.00000000000E+00  0.00000000000E+00  0.64930732323E+04  0.65000000000E+04  0.30000000000E+03 0. -1.
        -52   -1    0    0    0    0 -0.00000000000E+00 -0.00000000000E+00 -0.64930732323E+04  0.65000000000E+04  0.30000000000E+03 0.  1.
     100001    1    1    2    0    0  0.49599884273E+03  0.27921625304E+03  0.64732814848E+04  0.65000000000E+04  0.15050000000E+03 0. -1.
     100001    1    1    2    0    0 -0.49599884273E+03 -0.27921625304E+03 -0.64732814848E+04  0.65000000000E+04  0.15050000000E+03 0.  1.
</event>
<event>
 4    1  0.5143956E-004  0.6500000E+04  0.7818608E-02  0.7223770E-01
         52   -1    0    0    0    0  0.00000000000E+00  0.00000000000E+00  0.64930732323E+04  0.65000000000E+04  0.30000000000E+03 0.  1.
        -52   -1    0    0    0    0 -0.00000000000E+00 -0.00000000000E+00 -0.64930732323E+04  0.65000000000E+04  0.30000000000E+03 0. -1.
     100001    1    1    2    0    0  0.16091739803E+04 -0.73487111887E+03 -0.62528292228E+04  0.65000000000E+04  0.15050000000E+03 0. -1.
     100001    1    1    2    0    0 -0.16091739803E+04  0.73487111887E+03  0.62528292228E+04  0.65000000000E+04  0.15050000000E+03 0.  1.
</event>
<event>
 4    1  0.5143956E-004  0.6500000E+04  0.7818608E-02  0.7223770E-01
         52   -1    0    0    0    0  0.00000000000E+00  0.00000000000E+00  0.64930732323E+04  0.65000000000E+04  0.30000000000E+03 0.  1.
        -52   -1    0    0    0    0 -0.00000000000E+00 -0.00000000000E+00 -0.64930732323E+04  0.65000000000E+04  0.30000000000E+03 0.  1.
     100001    1    1    2    0    0 -0.72852723124E+02  0.23182108973E+02 -0.64978076934E+04  0.65000000000E+04  0.15050000000E+03 0.  1.
     100001    1    1    2    0    0  0.72852723124E+02 -0.23182108973E+02  0.64978076934E+04  0.65000000000E+04  0.15050000000E+03 0.  1.
</event>
<event>
 4    1  0.5143956E-004  0.6500000E+04  0.7818608E-02  0.7223770E-01
         52   -1    0    0    0    0  0.00000000000E+00  0.00000000000E+00  0.64930732323E+04  0.65000000000E+04  0.30000000000E+03 0.  1.
        -52   -1    0    0    0    0 -0.00000000000E+00 -0.00000000000E+00 -0.64930732323E+04  0.65000000000E+04  0.30000000000E+03 0. -1.
     100001    1    1    2    0    0  0.67907192934E+03 -0.20749228051E+03  0.64593465628E+04  0.65000000000E+04  0.15050000000E+03 0.  1.
     100001    1    1    2    0    0 -0.67907192934E+03  0.20749228051E+03 -0.64593465628E+04  0.65000000000E+04  0.15050000000E+03 0. -1.
</event>
<event>
 4    1  0.5143956E-004  0.6500000E+04  0.7818608E-02  0.7223770E-01
         52   -1    0    0    0    0  0.00000000000E+00  0.00000000000E+00  0.64930732323E+04  0.65000000000E+04  0.30000000000E+03 0. -1.
        -52   -1    0    0    0    0 -0.00000000000E+00 -0.00000000000E+00 -0.64930732323E+04  0.65000000000E+04  0.30000000000E+03 0.  1.
     100001    1    1    2    0    0  0.15125525011E+04  0.17571801529E+03 -0.63173299629E+04  0.65000000000E+04  0.15050000000E+03 0.  1.
     100001    1    1    2    0    0 -0.15125525011E+04 -0.17571801529E+03  0.63173299629E+04  0.65000000000E+04  0.15050000000E+03 0. -1.
</event>
<event>
 4    1  0.5143956E-004  0.6500000E+04  0.7818608E-02  0.7223770E-01
         52   -1    0    0    0    0  0.00000000000E+00  0.00000000000E+00  0.64930732323E+04  0.65000000000E+04  0.30000000000E+03 0.  1.
        -52   -1    0    0    0    0 -0.00000000000E+00 -0.00000000000E+00 -0.64930732323E+04  0.65000000000E+04  0.30000000000E+03 0. -1.
     100001    1    1    2    0    0  0.23445050826E+03 -0.23801125150E+04 -0.60421392838E+04  0.65000000000E+04  0.15050000000E+03 0. -1.
     100001    1    1    2    0    0 -0.23445050826E+03  0.23801125150E+04  0.60421392838E+04  0.65000000000E+04  0.15050000000E+03 0.  1.
</event>
<event>
 4    1  0.5143956E-004  0.6500000E+04  0.7818608E-02  0.7223770E-01
         52   -1    0    0    0    0  0.00000000000E+00  0.00000000000E+00  0.64930732323E+04  0.65000000000E+04  0.30000000000E+03 0.  1.
        -52   -1    0    0    0    0 -0.00000000000E+00 -0.00000000000E+00 -0.64930732323E+04  0.65000000000E+04  0.30000000000E+03 0. -1.
     100001    1    1    2    0    0 -0.76473436655E+03 -0.66410646741E+03  0.64188389681E+04  0.65000000000E+04  0.15050000000E+03 0.  1.
     100001    1    1    2    0    0  0.76473436655E+03  0.66410646741E+03 -0.64188389681E+04  0.65000000000E+04  0.15050000000E+03 0. -1.
</event>
<event>
 4    1  0.5143956E-004  0.6500000E+04  0.7818608E-02  0.7223770E-01
         52   -1    0    0    0    0  0.00000000000E+00  0.00000000000E+00  0.64930732323E+04  0.65000000000E+04  0.30000000000E+03 0.  1.
        -52   -1    0    0    0    0 -0.00000000000E+00 -0.00000000000E+00 -0.64930732323E+04  0.65000000000E+04  0.30000000000E+03 0. -1.
     100001    1    1    2    0    0 -0.13229291153E+04 -0.24605113517E+04  0.58671195824E+04  0.65000000000E+04  0.15050000000E+03 0.  1.
     100001    1    1    2    0    0  0.13229291153E+04  0.24605113517E+04 -0.58671195824E+04  0.65000000000E+04  0.15050000000E+03 0. -1.
</event>
<event>
 4    1  0.5143956E-004  0.6500000E+04  0.7818608E-02  0.7223770E-01
         52   -1    0    0    0    0  0.00000000000E+00  0.00000000000E+00  0.64930732323E+04  0.65000000000E+04  0.30000000000E+03 0.  1.
        -52   -1    0    0    0    0 -0.00000000000E+00 -0.00000000000E+00 -0.64930732323E+04  0.65000000000E+04  0.30000000000E+03 0. -1.
     100001    1    1    2    0    0 -0.25642374399E+03  0.35986815168E+03 -0.64832161407E+04  0.65000000000E+04  0.15050000000E+03 0. -1.
     100001    1    1    2    0    0  0.25642374399E+03 -0.35986815168E+03  0.64832161407E+04  0.65000000000E+04  0.15050000000E+03 0.  1.
</event>
<event>
 4    1  0.5143956E-004  0.6500000E+04  0.7818608E-02  0.7223770E-01
         52   -1    0    0    0    0  0.00000000000E+00  0.00000000000E+00  0.64930732323E+04  0.65000000000E+04  0.30000000000E+03 0. -1.
        -52   -1    0    0    0    0 -0.00000000000E+00 -0.00000000000E+00 -0.64930732323E+04  0.65000000000E+04  0.30000000000E+03 0.  1.
     100001    1    1    2    0    0 -0.21979104719E+03 -0.70882409839E+02  0.64941525490E+04  0.65000000000E+04  0.15050000000E+03 0. -1.
     100001    1    1    2    0    0  0.21979104719E+03  0.70882409839E+02 -0.64941525490E+04  0.65000000000E+04  0.15050000000E+03 0.  1.
</event>
<event>
 4    1  0.5143956E-004  0.6500000E+04  0.7818608E-02  0.7223770E-01
         52   -1    0    0    0    0  0.00000000000E+00  0.00000000000E+00  0.64930732323E+04  0.65000000000E+04  0.30000000000E+03 0.  1.
        -52   -1    0    0    0    0 -0.00000000000E+00 -0.00000000000E+00 -0.64930732323E+04  0.65000000000E+04  0.30000000000E+03 0.  1.
     100001    1    1    2    0    0  0.42683159682E+03 -0.17361738558E+03  0.64818995319E+04  0.65000000000E+04  0.15050000000E+03 0.  1.
     100001    1    1    2    0    0 -0.42683159682E+03  0.17361738558E+03 -0.64818995319E+04  0.65000000000E+04  0.15050000000E+03 0.  1.
</event>
<event>
 4    1  0.5143956E-004  0.6500000E+04  0.7818608E-02  0.7223770E-01
         52   -1    0    0    0    0  0.00000000000E+00  0.00000000000E+00  0.64930732323E+04  0.65000000000E+04  0.30000000000E+03 0.  1.
        -52   -1    0    0    0    0 -0.00000000000E+00 -0.00000000000E+00 -0.64930732323E+04  0.65000000000E+04  0.30000000000E+03 0. -1.
     100001    1    1    2    0    0  0.18945456780E+03 -0.29483165920E+03 -0.64888004292E+04  0.65000000000E+04  0.15050000000E+03 0. -1.
     100001    1    1    2    0    0 -0.18945456780E+03  0.29483165920E+03  0.64888004292E+04  0.65000000000E+04  0.15050000000E+03 0.  1.
</event>
<event>
 4    1  0.5143956E-004  0.6500000E+04  0.7818608E-02  0.7223770E-01
         52   -1    0    0    0    0  0.00000000000E+00  0.00000000000E+00  0.64930732323E+04  0.65000000000E+04  0.30000000000E+03 0.  1.
        -52   -1    0    0    0    0 -0.00000000000E+00 -0.00000000000E+00 -0.64930732323E+04  0.65000000000E+04  0.30000000000E+03 0. -1.
     100001    1    1    2    0    0  0.11641461682E+04 -0.20508577272E+04  0.60552535894E+04  0.65000000000E+04  0.15050000000E+03 0.  1.
     100001    1    1    2    0    0 -0.11641461682E+04  0.20508577272E+04 -0.60552535894E+04  0.65000000000E+04  0.15050000000E+03 0. -1.
</event>
<event>
 4    1  0.5143956E-004  0.6500000E+04  0.7818608E-02  0.7223770E-01
         52   -1    0    0    0    0  0.00000000000E+00  0.00000000000E+00  0.64930732323E+04  0.65000000000E+04  0.30000000000E+03 0. -1.
        -52   -1    0    0    0    0 -0.00000000000E+00 -0.00000000000E+00 -0.64930732323E+04  0.65000000000E+04  0.30000000000E+03 0.  1.
     100001    1    1    2    0    0 -0.16171104344E+03  0.11640690310E+04 -0.63910986989E+04  0.65000000000E+04  0.15050000000E+03 0.  1.
     100001    1    1    2    0    0  0.16171104344E+03 -0.11640690310E+04  0.63910986989E+04  0.65000000000E+04  0.15050000000E+03 0. -1.
</event>
<event>
 4    1  0.5143956E-004  0.6500000E+04  0.7818608E-02  0.7223770E-01
         52   -1    0    0    0    0  0.00000000000E+00  0.00000000000E+00  0.64930732323E+04  0.65000000000E+04  0.30000000000E+03 0.  1.
        -52   -1    0    0    0    0 -0.00000000000E+00 -0.00000000000E+00 -0.64930732323E+04  0.65000000000E+04  0.30000000000E+03 0.  1.
     100001    1    1    2    0    0 -0.14050359712E+04 -0.25322511569E+04 -0.58172955699E+04  0.65000000000E+04  0.15050000000E+03 0.  1.
     100001    1    1    2    0    0  0.14050359712E+04  0.25322511569E+04  0.58172955699E+04  0.65000000000E+04  0.15050000000E+03 0.  1.
</event>
<event>
 4    1  0.5143956E-004  0.6500000E+04  0.7818608E-02  0.7223770E-01
         52   -1    0    0    0    0  0.00000000000E+00  0.00000000000E+00  0.64930732323E+04  0.65000000000E+04  0.30000000000E+03 0.  1.
        -52   -1    0    0    0    0 -0.00000000000E+00 -0.00000000000E+00 -0.64930732323E+04  0.65000000000E+04  0.30000000000E+03 0. -1.
     100001    1    1    2    0    0 -0.11021476026E+03  0.58739233977E+03 -0.64707165520E+04  0.65000000000E+04  0.15050000000E+03 0. -1.
     100001    1    1    2    0    0  0.11021476026E+03 -0.58739233977E+03  0.64707165520E+04  0.65000000000E+04  0.15050000000E+03 0.  1.
</event>
<event>
 4    1  0.5143956E-004  0.6500000E+04  0.7818608E-02  0.7223770E-01
         52   -1    0    0    0    0  0.00000000000E+00  0.00000000000E+00  0.64930732323E+04  0.65000000000E+04  0.30000000000E+03 0.  1.
        -52   -1    0    0    0    0 -0.00000000000E+00 -0.00000000000E+00 -0.64930732323E+04  0.65000000000E+04  0.30000000000E+03 0. -1.
     100001    1    1    2    0    0 -0.15541760644E+04 -0.27256585157E+04  0.56905774897E+04  0.65000000000E+04  0.15050000000E+03 0.  1.
     100001    1    1    2    0    0  0.15541760644E+04  0.27256585157E+04 -0.56905774897E+04  0.65000000000E+04  0.15050000000E+03 0. -1.
</event>
<event>
 4    1  0.5143956E-004  0.6500000E+04  0.7818608E-02  0.7223770E-01
         52   -1    0    0    0    0  0.00000000000E+00  0.00000000000E+00  0.64930732323E+04  0.65000000000E+04  0.30000000000E+03 0.  1.
        -52   -1    0    0    0    0 -0.00000000000E+00 -0.00000000000E+00 -0.64930732323E+04  0.65000000000E+04  0.30000000000E+03 0. -1.
     100001    1    1    2    0    0  0.49327732120E+03 -0.10832504274E+04 -0.63883171294E+04  0.65000000000E+04  0.15050000000E+03 0. -1.
     100001    1    1    2    0    0 -0.49327732120E+03  0.10832504274E+04  0.63883171294E+04  0.65000000000E+04  0.15050000000E+03 0.  1.
</event>
<event>
 4    1  0.5143956E-004  0.6500000E+04  0.7818608E-02  0.7223770E-01
         52   -1    0    0    0    0  0.00000000000E+00  0.00000000000E+00  0.64930732323E+04  0.65000000000E+04  0.30000000000E+03 0. -1.
        -52   -1    0    0    0    0 -0.00000000000E+00 -0.00000000000E+00 -0.64930732323E+04  0.65000000000E+04  0.30000000000E+03 0.  1.
     100001    1    1    2    0    0  0.27354514478E+03 -0.11256028664E+03  0.64915216233E+04  0.65000000000E+04  0.15050000000E+03 0. -1.
     100001    1    1    2    0    0 -0.27354514478E+03  0.11256028664E+03 -0.64915216233E+04  0.65000000000E+04  0.15050000000E+03 0.  1.
</event>
<event>
 4    1  0.5143956E-004  0.6500000E+04  0.7818608E-02  0.7223770E-01
         52   -1    0    0    0    0  0.00000000000E+00  0.00000000000E+00  0.64930732323E+04  0.65000000000E+04  0.30000000000E+03 0.  1.
        -52   -1    0    0    0    0 -0.00000000000E+00 -0.00000000000E+00 -0.64930732323E+04  0.65000000000E+04  0.30000000000E+03 0. -1.
     100001    1    1    2    0    0  0.19680327848E+04  0.22763288127E+04 -0.57595593446E+04  0.65000000000E+04  0.15050000000E+03 0. -1.
     100001    1    1    2    0    0 -0.19680327848E+04 -0.22763288127E+04  0.57595593446E+04  0.65000000000E+04  0.15050000000E+03 0.  1.
</event>
<event>
 4    1  0.5143956E-004  0.6500000E+04  0.7818608E-02  0.7223770E-01
         52   -1    0    0    0    0  0.00000000000E+00  0.00000000000E+00  0.64930732323E+04  0.65000000000E+04  0.30000000000E+03 0. -1.
        -52   -1    0    0    0    0 -0.00000000000E+00 -0.00000000000E+00 -0.64930732323E+04  0.65000000000E+04  0.30000000000E+03 0. -1.
     100001    1    1    2    0    0  0.10151629374E+03 -0.27406291397E+03 -0.64916818862E+04  0.65000000000E+04  0.15050000000E+03 0. -1.
     100001    1    1    2    0    0 -0.10151629374E+03  0.27406291397E+03  0.64916818862E+04  0.65000000000E+04  0.15050000000E+03 0. -1.
</event>
<event>
 4    1  0.5143956E-004  0.6500000E+04  0.7818608E-02  0.7223770E-01
         52   -1    0    0    0    0  0.00000000000E+00  0.00000000000E+00  0.64930732323E+04  0.65000000000E+04  0.30000000000E+03 0.  1.
        -52   -1    0    0    0    0 -0.00000000000E+00 -0.00000000000E+00 -0.64930732323E+04  0.65000000000E+04  0.30000000000E+03 0. -1.
     100001    1    1    2    0    0  0.10051434272E+03 -0.13599221495E+04  0.63535705209E+04  0.65000000000E+04  0.15050000000E+03 0.  1.
     100001    1    1    2    0    0 -0.10051434272E+03  0.13599221495E+04 -0.63535705209E+04  0.65000000000E+04  0.15050000000E+03 0. -1.
</event>
<event>
 4    1  0.5143956E-004  0.6500000E+04  0.7818608E-02  0.7223770E-01
         52   -1    0    0    0    0  0.00000000000E+00  0.00000000000E+00  0.64930732323E+04  0.65000000000E+04  0.30000000000E+03 0.  1.
        -52   -1    0    0    0    0 -0.00000000000E+00 -0.00000000000E+00 -0.64930732323E+04  0.65000000000E+04  0.30000000000E+03 0. -1.
     100001    1    1    2    0    0 -0.24560698047E+04  0.22494974165E+03  0.60120269858E+04  0.65000000000E+04  0.15050000000E+03 0.  1.
     100001    1    1    2    0    0  0.24560698047E+04 -0.22494974165E+03 -0.60120269858E+04  0.65000000000E+04  0.15050000000E+03 0. -1.
</event>
<event>
 4    1  0.5143956E-004  0.6500000E+04  0.7818608E-02  0.7223770E-01
         52   -1    0    0    0    0  0.00000000000E+00  0.00000000000E+00  0.64930732323E+04  0.65000000000E+04  0.30000000000E+03 0.  1.
        -52   -1    0    0    0    0 -0.00000000000E+00 -0.00000000000E+00 -0.64930732323E+04  0.65000000000E+04  0.30000000000E+03 0. -1.
     100001    1    1    2    0    0  0.11509081734E+04  0.37092518721E+04  0.52100106215E+04  0.65000000000E+04  0.15050000000E+03 0.  1.
     100001    1    1    2    0    0 -0.11509081734E+04 -0.37092518721E+04 -0.52100106215E+04  0.65000000000E+04  0.15050000000E+03 0. -1.
</event>
<event>
 4    1  0.5143956E-004  0.6500000E+04  0.7818608E-02  0.7223770E-01
         52   -1    0    0    0    0  0.00000000000E+00  0.00000000000E+00  0.64930732323E+04  0.65000000000E+04  0.30000000000E+03 0. -1.
        -52   -1    0    0    0    0 -0.00000000000E+00 -0.00000000000E+00 -0.64930732323E+04  0.65000000000E+04  0.30000000000E+03 0.  1.
     100001    1    1    2    0    0  0.36288790987E+04  0.23521389546E+04 -0.48503637570E+04  0.65000000000E+04  0.15050000000E+03 0.  1.
     100001    1    1    2    0    0 -0.36288790987E+04 -0.23521389546E+04  0.48503637570E+04  0.65000000000E+04  0.15050000000E+03 0. -1.
</event>
<event>
 4    1  0.5143956E-004  0.6500000E+04  0.7818608E-02  0.7223770E-01
         52   -1    0    0    0    0  0.00000000000E+00  0.00000000000E+00  0.64930732323E+04  0.65000000000E+04  0.30000000000E+03 0.  1.
        -52   -1    0    0    0    0 -0.00000000000E+00 -0.00000000000E+00 -0.64930732323E+04  0.65000000000E+04  0.30000000000E+03 0. -1.
     100001    1    1    2    0    0  0.15255088160E+04 -0.17814481819E+04 -0.60602487554E+04  0.65000000000E+04  0.15050000000E+03 0. -1.
     100001    1    1    2    0    0 -0.15255088160E+04  0.17814481819E+04  0.60602487554E+04  0.65000000000E+04  0.15050000000E+03 0.  1.
</event>
<event>
 4    1  0.5143956E-004  0.6500000E+04  0.7818608E-02  0.7223770E-01
         52   -1    0    0    0    0  0.00000000000E+00  0.00000000000E+00  0.64930732323E+04  0.65000000000E+04  0.30000000000E+03 0. -1.
        -52   -1    0    0    0    0 -0.00000000000E+00 -0.00000000000E+00 -0.64930732323E+04  0.65000000000E+04  0.30000000000E+03 0.  1.
     100001    1    1    2    0    0 -0.49018300402E+03  0.41955083880E+04 -0.49380947478E+04  0.65000000000E+04  0.15050000000E+03 0.  1.
     100001    1    1    2    0    0  0.49018300402E+03 -0.41955083880E+04  0.49380947478E+04  0.65000000000E+04  0.15050000000E+03 0. -1.
</event>
<event>
 4    1  0.5143956E-004  0.6500000E+04  0.7818608E-02  0.7223770E-01
         52   -1    0    0    0    0  0.00000000000E+00  0.00000000000E+00  0.64930732323E+04  0.65000000000E+04  0.30000000000E+03 0.  1.
        -52   -1    0    0    0    0 -0.00000000000E+00 -0.00000000000E+00 -0.64930732323E+04  0.65000000000E+04  0.30000000000E+03 0. -1.
     100001    1    1    2    0    0 -0.21048459877E+04 -0.48563128526E+03 -0.61287140065E+04  0.65000000000E+04  0.15050000000E+03 0. -1.
     100001    1    1    2    0    0  0.21048459877E+04  0.48563128526E+03  0.61287140065E+04  0.65000000000E+04  0.15050000000E+03 0.  1.
</event>
<event>
 4    1  0.5143956E-004  0.6500000E+04  0.7818608E-02  0.7223770E-01
         52   -1    0    0    0    0  0.00000000000E+00  0.00000000000E+00  0.64930732323E+04  0.65000000000E+04  0.30000000000E+03 0. -1.
        -52   -1    0    0    0    0 -0.00000000000E+00 -0.00000000000E+00 -0.64930732323E+04  0.65000000000E+04  0.30000000000E+03 0.  1.
     100001    1    1    2    0    0  0.12529377910E+04  0.20496971465E+04  0.60379001524E+04  0.65000000000E+04  0.15050000000E+03 0. -1.
     100001    1    1    2    0    0 -0.12529377910E+04 -0.20496971465E+04 -0.60379001524E+04  0.65000000000E+04  0.15050000000E+03 0.  1.
</event>
<event>
 4    1  0.5143956E-004  0.6500000E+04  0.7818608E-02  0.7223770E-01
         52   -1    0    0    0    0  0.00000000000E+00  0.00000000000E+00  0.64930732323E+04  0.65000000000E+04  0.30000000000E+03 0. -1.
        -52   -1    0    0    0    0 -0.00000000000E+00 -0.00000000000E+00 -0.64930732323E+04  0.65000000000E+04  0.30000000000E+03 0.  1.
     100001    1    1    2    0    0  0.23178589408E+04  0.13043078399E+04  0.59290522632E+04  0.65000000000E+04  0.15050000000E+03 0. -1.
     100001    1    1    2    0    0 -0.23178589408E+04 -0.13043078399E+04 -0.59290522632E+04  0.65000000000E+04  0.15050000000E+03 0.  1.
</event>
<event>
 4    1  0.5143956E-004  0.6500000E+04  0.7818608E-02  0.7223770E-01
         52   -1    0    0    0    0  0.00000000000E+00  0.00000000000E+00  0.64930732323E+04  0.65000000000E+04  0.30000000000E+03 0.  1.
        -52   -1    0    0    0    0 -0.00000000000E+00 -0.00000000000E+00 -0.64930732323E+04  0.65000000000E+04  0.30000000000E+03 0. -1.
     100001    1    1    2    0    0  0.26788298549E+04  0.20351384805E+04  0.55596251424E+04  0.65000000000E+04  0.15050000000E+03 0.  1.
     100001    1    1    2    0    0 -0.26788298549E+04 -0.20351384805E+04 -0.55596251424E+04  0.65000000000E+04  0.15050000000E+03 0. -1.
</event>
<event>
 4    1  0.5143956E-004  0.6500000E+04  0.7818608E-02  0.7223770E-01
         52   -1    0    0    0    0  0.00000000000E+00  0.00000000000E+00  0.64930732323E+04  0.65000000000E+04  0.30000000000E+03 0. -1.
        -52   -1    0    0    0    0 -0.00000000000E+00 -0.00000000000E+00 -0.64930732323E+04  0.65000000000E+04  0.30000000000E+03 0.  1.
     100001    1    1    2    0    0 -0.15840804102E+04 -0.17741832687E+04 -0.60473393102E+04  0.65000000000E+04  0.15050000000E+03 0.  1.
     100001    1    1    2    0    0  0.15840804102E+04  0.17741832687E+04  0.60473393102E+04  0.65000000000E+04  0.15050000000E+03 0. -1.
</event>
<event>
 4    1  0.6935102E-004  0.6500000E+04  0.7818608E-02  0.7223770E-01
         52   -1    0    0    0    0  0.00000000000E+00  0.00000000000E+00  0.64930732323E+04  0.65000000000E+04  0.30000000000E+03 0. -1.
        -52   -1    0    0    0    0 -0.00000000000E+00 -0.00000000000E+00 -0.64930732323E+04  0.65000000000E+04  0.30000000000E+03 0.  1.
     100001    1    1    2    0    0  0.22320347344E+02  0.17320768127E+03 -0.64959103020E+04  0.65000000000E+04  0.15050000000E+03 0.  1.
     100001    1    1    2    0    0 -0.22320347344E+02 -0.17320768127E+03  0.64959103020E+04  0.65000000000E+04  0.15050000000E+03 0. -1.
</event>
<event>
 4    1  0.5143956E-004  0.6500000E+04  0.7818608E-02  0.7223770E-01
         52   -1    0    0    0    0  0.00000000000E+00  0.00000000000E+00  0.64930732323E+04  0.65000000000E+04  0.30000000000E+03 0.  1.
        -52   -1    0    0    0    0 -0.00000000000E+00 -0.00000000000E+00 -0.64930732323E+04  0.65000000000E+04  0.30000000000E+03 0.  1.
     100001    1    1    2    0    0  0.10436753359E+04  0.36011205401E+03  0.64037809809E+04  0.65000000000E+04  0.15050000000E+03 0.  1.
     100001    1    1    2    0    0 -0.10436753359E+04 -0.36011205401E+03 -0.64037809809E+04  0.65000000000E+04  0.15050000000E+03 0.  1.
</event>
<event>
 4    1  0.5143956E-004  0.6500000E+04  0.7818608E-02  0.7223770E-01
         52   -1    0    0    0    0  0.00000000000E+00  0.00000000000E+00  0.64930732323E+04  0.65000000000E+04  0.30000000000E+03 0. -1.
        -52   -1    0    0    0    0 -0.00000000000E+00 -0.00000000000E+00 -0.64930732323E+04  0.65000000000E+04  0.30000000000E+03 0.  1.
     100001    1    1    2    0    0 -0.10256764280E+04  0.18411977374E+04 -0.61469771845E+04  0.65000000000E+04  0.15050000000E+03 0.  1.
     100001    1    1    2    0    0  0.10256764280E+04 -0.18411977374E+04  0.61469771845E+04  0.65000000000E+04  0.15050000000E+03 0. -1.
</event>
<event>
 4    1  0.5143956E-004  0.6500000E+04  0.7818608E-02  0.7223770E-01
         52   -1    0    0    0    0  0.00000000000E+00  0.00000000000E+00  0.64930732323E+04  0.65000000000E+04  0.30000000000E+03 0. -1.
        -52   -1    0    0    0    0 -0.00000000000E+00 -0.00000000000E+00 -0.64930732323E+04  0.65000000000E+04  0.30000000000E+03 0. -1.
     100001    1    1    2    0    0  0.13414958327E+03 -0.33316563924E+03  0.64883244598E+04  0.65000000000E+04  0.15050000000E+03 0. -1.
     100001    1    1    2    0    0 -0.13414958327E+03  0.33316563924E+03 -0.64883244598E+04  0.65000000000E+04  0.15050000000E+03 0. -1.
</event>
<event>
 4    1  0.5143956E-004  0.6500000E+04  0.7818608E-02  0.7223770E-01
         52   -1    0    0    0    0  0.00000000000E+00  0.00000000000E+00  0.64930732323E+04  0.65000000000E+04  0.30000000000E+03 0.  1.
        -52   -1    0    0    0    0 -0.00000000000E+00 -0.00000000000E+00 -0.64930732323E+04  0.65000000000E+04  0.30000000000E+03 0. -1.
     100001    1    1    2    0    0  0.47074848630E+03  0.15360386346E+03 -0.64793635078E+04  0.65000000000E+04  0.15050000000E+03 0. -1.
     100001    1    1    2    0    0 -0.47074848630E+03 -0.15360386346E+03  0.64793635078E+04  0.65000000000E+04  0.15050000000E+03 0.  1.
</event>
<event>
 4    1  0.5143956E-004  0.6500000E+04  0.7818608E-02  0.7223770E-01
         52   -1    0    0    0    0  0.00000000000E+00  0.00000000000E+00  0.64930732323E+04  0.65000000000E+04  0.30000000000E+03 0. -1.
        -52   -1    0    0    0    0 -0.00000000000E+00 -0.00000000000E+00 -0.64930732323E+04  0.65000000000E+04  0.30000000000E+03 0.  1.
     100001    1    1    2    0    0  0.54000626459E+03 -0.44685043224E+03  0.64603457861E+04  0.65000000000E+04  0.15050000000E+03 0. -1.
     100001    1    1    2    0    0 -0.54000626459E+03  0.44685043224E+03 -0.64603457861E+04  0.65000000000E+04  0.15050000000E+03 0.  1.
</event>
<event>
 4    1  0.5143956E-004  0.6500000E+04  0.7818608E-02  0.7223770E-01
         52   -1    0    0    0    0  0.00000000000E+00  0.00000000000E+00  0.64930732323E+04  0.65000000000E+04  0.30000000000E+03 0.  1.
        -52   -1    0    0    0    0 -0.00000000000E+00 -0.00000000000E+00 -0.64930732323E+04  0.65000000000E+04  0.30000000000E+03 0. -1.
     100001    1    1    2    0    0 -0.19148768017E+04  0.44883560996E+04 -0.42913000487E+04  0.65000000000E+04  0.15050000000E+03 0. -1.
     100001    1    1    2    0    0  0.19148768017E+04 -0.44883560996E+04  0.42913000487E+04  0.65000000000E+04  0.15050000000E+03 0.  1.
</event>
<event>
 4    1  0.5143956E-004  0.6500000E+04  0.7818608E-02  0.7223770E-01
         52   -1    0    0    0    0  0.00000000000E+00  0.00000000000E+00  0.64930732323E+04  0.65000000000E+04  0.30000000000E+03 0. -1.
        -52   -1    0    0    0    0 -0.00000000000E+00 -0.00000000000E+00 -0.64930732323E+04  0.65000000000E+04  0.30000000000E+03 0.  1.
     100001    1    1    2    0    0  0.36621718196E+04 -0.44108101443E+04  0.30595099582E+04  0.65000000000E+04  0.15050000000E+03 0. -1.
     100001    1    1    2    0    0 -0.36621718196E+04  0.44108101443E+04 -0.30595099582E+04  0.65000000000E+04  0.15050000000E+03 0.  1.
</event>
<event>
 4    1  0.5143956E-004  0.6500000E+04  0.7818608E-02  0.7223770E-01
         52   -1    0    0    0    0  0.00000000000E+00  0.00000000000E+00  0.64930732323E+04  0.65000000000E+04  0.30000000000E+03 0. -1.
        -52   -1    0    0    0    0 -0.00000000000E+00 -0.00000000000E+00 -0.64930732323E+04  0.65000000000E+04  0.30000000000E+03 0.  1.
     100001    1    1    2    0    0 -0.12158140649E+04  0.48676119580E+03 -0.63649202232E+04  0.65000000000E+04  0.15050000000E+03 0.  1.
     100001    1    1    2    0    0  0.12158140649E+04 -0.48676119580E+03  0.63649202232E+04  0.65000000000E+04  0.15050000000E+03 0. -1.
</event>
<event>
 4    1  0.5143956E-004  0.6500000E+04  0.7818608E-02  0.7223770E-01
         52   -1    0    0    0    0  0.00000000000E+00  0.00000000000E+00  0.64930732323E+04  0.65000000000E+04  0.30000000000E+03 0.  1.
        -52   -1    0    0    0    0 -0.00000000000E+00 -0.00000000000E+00 -0.64930732323E+04  0.65000000000E+04  0.30000000000E+03 0. -1.
     100001    1    1    2    0    0 -0.19493629829E+04  0.82542328568E+03 -0.61437781625E+04  0.65000000000E+04  0.15050000000E+03 0. -1.
     100001    1    1    2    0    0  0.19493629829E+04 -0.82542328568E+03  0.61437781625E+04  0.65000000000E+04  0.15050000000E+03 0.  1.
</event>
<event>
 4    1  0.5143956E-004  0.6500000E+04  0.7818608E-02  0.7223770E-01
         52   -1    0    0    0    0  0.00000000000E+00  0.00000000000E+00  0.64930732323E+04  0.65000000000E+04  0.30000000000E+03 0. -1.
        -52   -1    0    0    0    0 -0.00000000000E+00 -0.00000000000E+00 -0.64930732323E+04  0.65000000000E+04  0.30000000000E+03 0.  1.
     100001    1    1    2    0    0 -0.15850664980E+04  0.15282580466E+04  0.61138646771E+04  0.65000000000E+04  0.15050000000E+03 0. -1.
     100001    1    1    2    0    0  0.15850664980E+04 -0.15282580466E+04 -0.61138646771E+04  0.65000000000E+04  0.15050000000E+03 0.  1.
</event>
<event>
 4    1  0.5143956E-004  0.6500000E+04  0.7818608E-02  0.7223770E-01
         52   -1    0    0    0    0  0.00000000000E+00  0.00000000000E+00  0.64930732323E+04  0.65000000000E+04  0.30000000000E+03 0. -1.
        -52   -1    0    0    0    0 -0.00000000000E+00 -0.00000000000E+00 -0.64930732323E+04  0.65000000000E+04  0.30000000000E+03 0.  1.
     100001    1    1    2    0    0  0.39729881775E+04 -0.83215792847E+03  0.50744682355E+04  0.65000000000E+04  0.15050000000E+03 0. -1.
     100001    1    1    2    0    0 -0.39729881775E+04  0.83215792847E+03 -0.50744682355E+04  0.65000000000E+04  0.15050000000E+03 0.  1.
</event>
<event>
 4    1  0.5143956E-004  0.6500000E+04  0.7818608E-02  0.7223770E-01
         52   -1    0    0    0    0  0.00000000000E+00  0.00000000000E+00  0.64930732323E+04  0.65000000000E+04  0.30000000000E+03 0. -1.
        -52   -1    0    0    0    0 -0.00000000000E+00 -0.00000000000E+00 -0.64930732323E+04  0.65000000000E+04  0.30000000000E+03 0.  1.
     100001    1    1    2    0    0 -0.24649469810E+04  0.54257017855E+04  0.25909739996E+04  0.65000000000E+04  0.15050000000E+03 0.  1.
     100001    1    1    2    0    0  0.24649469810E+04 -0.54257017855E+04 -0.25909739996E+04  0.65000000000E+04  0.15050000000E+03 0. -1.
</event>
<event>
 4    1  0.5143956E-004  0.6500000E+04  0.7818608E-02  0.7223770E-01
         52   -1    0    0    0    0  0.00000000000E+00  0.00000000000E+00  0.64930732323E+04  0.65000000000E+04  0.30000000000E+03 0. -1.
        -52   -1    0    0    0    0 -0.00000000000E+00 -0.00000000000E+00 -0.64930732323E+04  0.65000000000E+04  0.30000000000E+03 0.  1.
     100001    1    1    2    0    0 -0.12593338973E+04  0.16538047767E+04 -0.61568139200E+04  0.65000000000E+04  0.15050000000E+03 0.  1.
     100001    1    1    2    0    0  0.12593338973E+04 -0.16538047767E+04  0.61568139200E+04  0.65000000000E+04  0.15050000000E+03 0. -1.
</event>
<event>
 4    1  0.5143956E-004  0.6500000E+04  0.7818608E-02  0.7223770E-01
         52   -1    0    0    0    0  0.00000000000E+00  0.00000000000E+00  0.64930732323E+04  0.65000000000E+04  0.30000000000E+03 0. -1.
        -52   -1    0    0    0    0 -0.00000000000E+00 -0.00000000000E+00 -0.64930732323E+04  0.65000000000E+04  0.30000000000E+03 0.  1.
     100001    1    1    2    0    0  0.43010519551E+04  0.28507531156E+04  0.39498744921E+04  0.65000000000E+04  0.15050000000E+03 0. -1.
     100001    1    1    2    0    0 -0.43010519551E+04 -0.28507531156E+04 -0.39498744921E+04  0.65000000000E+04  0.15050000000E+03 0.  1.
</event>
<event>
 4    1  0.5143956E-004  0.6500000E+04  0.7818608E-02  0.7223770E-01
         52   -1    0    0    0    0  0.00000000000E+00  0.00000000000E+00  0.64930732323E+04  0.65000000000E+04  0.30000000000E+03 0. -1.
        -52   -1    0    0    0    0 -0.00000000000E+00 -0.00000000000E+00 -0.64930732323E+04  0.65000000000E+04  0.30000000000E+03 0.  1.
     100001    1    1    2    0    0 -0.79318640893E+03 -0.29215345889E+04  0.57500296275E+04  0.65000000000E+04  0.15050000000E+03 0. -1.
     100001    1    1    2    0    0  0.79318640893E+03  0.29215345889E+04 -0.57500296275E+04  0.65000000000E+04  0.15050000000E+03 0.  1.
</event>
<event>
 4    1  0.5143956E-004  0.6500000E+04  0.7818608E-02  0.7223770E-01
         52   -1    0    0    0    0  0.00000000000E+00  0.00000000000E+00  0.64930732323E+04  0.65000000000E+04  0.30000000000E+03 0.  1.
        -52   -1    0    0    0    0 -0.00000000000E+00 -0.00000000000E+00 -0.64930732323E+04  0.65000000000E+04  0.30000000000E+03 0. -1.
     100001    1    1    2    0    0 -0.94257416101E+03  0.95547764570E+03 -0.63581417230E+04  0.65000000000E+04  0.15050000000E+03 0. -1.
     100001    1    1    2    0    0  0.94257416101E+03 -0.95547764570E+03  0.63581417230E+04  0.65000000000E+04  0.15050000000E+03 0.  1.
</event>
<event>
 4    1  0.5143956E-004  0.6500000E+04  0.7818608E-02  0.7223770E-01
         52   -1    0    0    0    0  0.00000000000E+00  0.00000000000E+00  0.64930732323E+04  0.65000000000E+04  0.30000000000E+03 0. -1.
        -52   -1    0    0    0    0 -0.00000000000E+00 -0.00000000000E+00 -0.64930732323E+04  0.65000000000E+04  0.30000000000E+03 0.  1.
     100001    1    1    2    0    0 -0.10589839802E+04 -0.99663757653E+02 -0.64106138407E+04  0.65000000000E+04  0.15050000000E+03 0.  1.
     100001    1    1    2    0    0  0.10589839802E+04  0.99663757653E+02  0.64106138407E+04  0.65000000000E+04  0.15050000000E+03 0. -1.
</event>
<event>
 4    1  0.5143956E-004  0.6500000E+04  0.7818608E-02  0.7223770E-01
         52   -1    0    0    0    0  0.00000000000E+00  0.00000000000E+00  0.64930732323E+04  0.65000000000E+04  0.30000000000E+03 0.  1.
        -52   -1    0    0    0    0 -0.00000000000E+00 -0.00000000000E+00 -0.64930732323E+04  0.65000000000E+04  0.30000000000E+03 0. -1.
     100001    1    1    2    0    0  0.21821384533E+04  0.75517934890E+02 -0.61204508463E+04  0.65000000000E+04  0.15050000000E+03 0. -1.
     100001    1    1    2    0    0 -0.21821384533E+04 -0.75517934890E+02  0.61204508463E+04  0.65000000000E+04  0.15050000000E+03 0.  1.
</event>
<event>
 4    1  0.5143956E-004  0.6500000E+04  0.7818608E-02  0.7223770E-01
         52   -1    0    0    0    0  0.00000000000E+00  0.00000000000E+00  0.64930732323E+04  0.65000000000E+04  0.30000000000E+03 0. -1.
        -52   -1    0    0    0    0 -0.00000000000E+00 -0.00000000000E+00 -0.64930732323E+04  0.65000000000E+04  0.30000000000E+03 0.  1.
     100001    1    1    2    0    0  0.54935537030E+04  0.27431663627E+04 -0.21267947172E+04  0.65000000000E+04  0.15050000000E+03 0.  1.
     100001    1    1    2    0    0 -0.54935537030E+04 -0.27431663627E+04  0.21267947172E+04  0.65000000000E+04  0.15050000000E+03 0. -1.
</event>
<event>
 4    1  0.5143956E-004  0.6500000E+04  0.7818608E-02  0.7223770E-01
         52   -1    0    0    0    0  0.00000000000E+00  0.00000000000E+00  0.64930732323E+04  0.65000000000E+04  0.30000000000E+03 0. -1.
        -52   -1    0    0    0    0 -0.00000000000E+00 -0.00000000000E+00 -0.64930732323E+04  0.65000000000E+04  0.30000000000E+03 0. -1.
     100001    1    1    2    0    0  0.16367155267E+03  0.21272640765E+03 -0.64927119795E+04  0.65000000000E+04  0.15050000000E+03 0. -1.
     100001    1    1    2    0    0 -0.16367155267E+03 -0.21272640765E+03  0.64927119795E+04  0.65000000000E+04  0.15050000000E+03 0. -1.
</event>
<event>
 4    1  0.5143956E-004  0.6500000E+04  0.7818608E-02  0.7223770E-01
         52   -1    0    0    0    0  0.00000000000E+00  0.00000000000E+00  0.64930732323E+04  0.65000000000E+04  0.30000000000E+03 0. -1.
        -52   -1    0    0    0    0 -0.00000000000E+00 -0.00000000000E+00 -0.64930732323E+04  0.65000000000E+04  0.30000000000E+03 0.  1.
     100001    1    1    2    0    0 -0.16043070788E+04 -0.16824596844E+04  0.60681857221E+04  0.65000000000E+04  0.15050000000E+03 0. -1.
     100001    1    1    2    0    0  0.16043070788E+04  0.16824596844E+04 -0.60681857221E+04  0.65000000000E+04  0.15050000000E+03 0.  1.
</event>
<event>
 4    1  0.5143956E-004  0.6500000E+04  0.7818608E-02  0.7223770E-01
         52   -1    0    0    0    0  0.00000000000E+00  0.00000000000E+00  0.64930732323E+04  0.65000000000E+04  0.30000000000E+03 0. -1.
        -52   -1    0    0    0    0 -0.00000000000E+00 -0.00000000000E+00 -0.64930732323E+04  0.65000000000E+04  0.30000000000E+03 0.  1.
     100001    1    1    2    0    0 -0.72185045912E+03  0.49550014343E+03 -0.64390031272E+04  0.65000000000E+04  0.15050000000E+03 0.  1.
     100001    1    1    2    0    0  0.72185045912E+03 -0.49550014343E+03  0.64390031272E+04  0.65000000000E+04  0.15050000000E+03 0. -1.
</event>
<event>
 4    1  0.5143956E-004  0.6500000E+04  0.7818608E-02  0.7223770E-01
         52   -1    0    0    0    0  0.00000000000E+00  0.00000000000E+00  0.64930732323E+04  0.65000000000E+04  0.30000000000E+03 0.  1.
        -52   -1    0    0    0    0 -0.00000000000E+00 -0.00000000000E+00 -0.64930732323E+04  0.65000000000E+04  0.30000000000E+03 0.  1.
     100001    1    1    2    0    0  0.20883246613E+03  0.22080495823E+03 -0.64911465799E+04  0.65000000000E+04  0.15050000000E+03 0.  1.
     100001    1    1    2    0    0 -0.20883246613E+03 -0.22080495823E+03  0.64911465799E+04  0.65000000000E+04  0.15050000000E+03 0.  1.
</event>
<event>
 4    1  0.5143956E-004  0.6500000E+04  0.7818608E-02  0.7223770E-01
         52   -1    0    0    0    0  0.00000000000E+00  0.00000000000E+00  0.64930732323E+04  0.65000000000E+04  0.30000000000E+03 0. -1.
        -52   -1    0    0    0    0 -0.00000000000E+00 -0.00000000000E+00 -0.64930732323E+04  0.65000000000E+04  0.30000000000E+03 0.  1.
     100001    1    1    2    0    0 -0.13178808788E+04  0.55110845507E+04  0.31809569023E+04  0.65000000000E+04  0.15050000000E+03 0. -1.
     100001    1    1    2    0    0  0.13178808788E+04 -0.55110845507E+04 -0.31809569023E+04  0.65000000000E+04  0.15050000000E+03 0.  1.
</event>
<event>
 4    1  0.5143956E-004  0.6500000E+04  0.7818608E-02  0.7223770E-01
         52   -1    0    0    0    0  0.00000000000E+00  0.00000000000E+00  0.64930732323E+04  0.65000000000E+04  0.30000000000E+03 0. -1.
        -52   -1    0    0    0    0 -0.00000000000E+00 -0.00000000000E+00 -0.64930732323E+04  0.65000000000E+04  0.30000000000E+03 0. -1.
     100001    1    1    2    0    0 -0.20955901175E+03  0.90291986989E+02 -0.64942499280E+04  0.65000000000E+04  0.15050000000E+03 0. -1.
     100001    1    1    2    0    0  0.20955901175E+03 -0.90291986989E+02  0.64942499280E+04  0.65000000000E+04  0.15050000000E+03 0. -1.
</event>
<event>
 4    1  0.5143956E-004  0.6500000E+04  0.7818608E-02  0.7223770E-01
         52   -1    0    0    0    0  0.00000000000E+00  0.00000000000E+00  0.64930732323E+04  0.65000000000E+04  0.30000000000E+03 0. -1.
        -52   -1    0    0    0    0 -0.00000000000E+00 -0.00000000000E+00 -0.64930732323E+04  0.65000000000E+04  0.30000000000E+03 0.  1.
     100001    1    1    2    0    0  0.14922690621E+04 -0.25851646461E+04 -0.57721232271E+04  0.65000000000E+04  0.15050000000E+03 0.  1.
     100001    1    1    2    0    0 -0.14922690621E+04  0.25851646461E+04  0.57721232271E+04  0.65000000000E+04  0.15050000000E+03 0. -1.
</event>
<event>
 4    1  0.5143956E-004  0.6500000E+04  0.7818608E-02  0.7223770E-01
         52   -1    0    0    0    0  0.00000000000E+00  0.00000000000E+00  0.64930732323E+04  0.65000000000E+04  0.30000000000E+03 0. -1.
        -52   -1    0    0    0    0 -0.00000000000E+00 -0.00000000000E+00 -0.64930732323E+04  0.65000000000E+04  0.30000000000E+03 0.  1.
     100001    1    1    2    0    0  0.38016402713E+04 -0.26825684141E+04 -0.45363760538E+04  0.65000000000E+04  0.15050000000E+03 0.  1.
     100001    1    1    2    0    0 -0.38016402713E+04  0.26825684141E+04  0.45363760538E+04  0.65000000000E+04  0.15050000000E+03 0. -1.
</event>
<event>
 4    1  0.5143956E-004  0.6500000E+04  0.7818608E-02  0.7223770E-01
         52   -1    0    0    0    0  0.00000000000E+00  0.00000000000E+00  0.64930732323E+04  0.65000000000E+04  0.30000000000E+03 0.  1.
        -52   -1    0    0    0    0 -0.00000000000E+00 -0.00000000000E+00 -0.64930732323E+04  0.65000000000E+04  0.30000000000E+03 0. -1.
     100001    1    1    2    0    0  0.37387304762E+04  0.50756966234E+04  0.15768791848E+04  0.65000000000E+04  0.15050000000E+03 0. -1.
     100001    1    1    2    0    0 -0.37387304762E+04 -0.50756966234E+04 -0.15768791848E+04  0.65000000000E+04  0.15050000000E+03 0.  1.
</event>
<event>
 4    1  0.5143956E-004  0.6500000E+04  0.7818608E-02  0.7223770E-01
         52   -1    0    0    0    0  0.00000000000E+00  0.00000000000E+00  0.64930732323E+04  0.65000000000E+04  0.30000000000E+03 0. -1.
        -52   -1    0    0    0    0 -0.00000000000E+00 -0.00000000000E+00 -0.64930732323E+04  0.65000000000E+04  0.30000000000E+03 0.  1.
     100001    1    1    2    0    0  0.38034936965E+03 -0.86732275506E+02 -0.64865369512E+04  0.65000000000E+04  0.15050000000E+03 0.  1.
     100001    1    1    2    0    0 -0.38034936965E+03  0.86732275506E+02  0.64865369512E+04  0.65000000000E+04  0.15050000000E+03 0. -1.
</event>
<event>
 4    1  0.5143956E-004  0.6500000E+04  0.7818608E-02  0.7223770E-01
         52   -1    0    0    0    0  0.00000000000E+00  0.00000000000E+00  0.64930732323E+04  0.65000000000E+04  0.30000000000E+03 0.  1.
        -52   -1    0    0    0    0 -0.00000000000E+00 -0.00000000000E+00 -0.64930732323E+04  0.65000000000E+04  0.30000000000E+03 0.  1.
     100001    1    1    2    0    0 -0.15526293060E+03  0.52445304036E+03 -0.64751982349E+04  0.65000000000E+04  0.15050000000E+03 0.  1.
     100001    1    1    2    0    0  0.15526293060E+03 -0.52445304036E+03  0.64751982349E+04  0.65000000000E+04  0.15050000000E+03 0.  1.
</event>
<event>
 4    1  0.5143956E-004  0.6500000E+04  0.7818608E-02  0.7223770E-01
         52   -1    0    0    0    0  0.00000000000E+00  0.00000000000E+00  0.64930732323E+04  0.65000000000E+04  0.30000000000E+03 0. -1.
        -52   -1    0    0    0    0 -0.00000000000E+00 -0.00000000000E+00 -0.64930732323E+04  0.65000000000E+04  0.30000000000E+03 0.  1.
     100001    1    1    2    0    0 -0.40891528022E+03  0.14130309819E+03 -0.64838392545E+04  0.65000000000E+04  0.15050000000E+03 0.  1.
     100001    1    1    2    0    0  0.40891528022E+03 -0.14130309819E+03  0.64838392545E+04  0.65000000000E+04  0.15050000000E+03 0. -1.
</event>
<event>
 4    1  0.5143956E-004  0.6500000E+04  0.7818608E-02  0.7223770E-01
         52   -1    0    0    0    0  0.00000000000E+00  0.00000000000E+00  0.64930732323E+04  0.65000000000E+04  0.30000000000E+03 0. -1.
        -52   -1    0    0    0    0 -0.00000000000E+00 -0.00000000000E+00 -0.64930732323E+04  0.65000000000E+04  0.30000000000E+03 0.  1.
     100001    1    1    2    0    0  0.42408905464E+03 -0.43846349936E+03  0.64695631988E+04  0.65000000000E+04  0.15050000000E+03 0. -1.
     100001    1    1    2    0    0 -0.42408905464E+03  0.43846349936E+03 -0.64695631988E+04  0.65000000000E+04  0.15050000000E+03 0.  1.
</event>
<event>
 4    1  0.5143956E-004  0.6500000E+04  0.7818608E-02  0.7223770E-01
         52   -1    0    0    0    0  0.00000000000E+00  0.00000000000E+00  0.64930732323E+04  0.65000000000E+04  0.30000000000E+03 0.  1.
        -52   -1    0    0    0    0 -0.00000000000E+00 -0.00000000000E+00 -0.64930732323E+04  0.65000000000E+04  0.30000000000E+03 0. -1.
     100001    1    1    2    0    0  0.17099864733E+04 -0.29455076598E+04 -0.55341919588E+04  0.65000000000E+04  0.15050000000E+03 0. -1.
     100001    1    1    2    0    0 -0.17099864733E+04  0.29455076598E+04  0.55341919588E+04  0.65000000000E+04  0.15050000000E+03 0.  1.
</event>
<event>
 4    1  0.5143956E-004  0.6500000E+04  0.7818608E-02  0.7223770E-01
         52   -1    0    0    0    0  0.00000000000E+00  0.00000000000E+00  0.64930732323E+04  0.65000000000E+04  0.30000000000E+03 0. -1.
        -52   -1    0    0    0    0 -0.00000000000E+00 -0.00000000000E+00 -0.64930732323E+04  0.65000000000E+04  0.30000000000E+03 0.  1.
     100001    1    1    2    0    0  0.37844810676E+04 -0.37071274551E+04  0.37632776712E+04  0.65000000000E+04  0.15050000000E+03 0. -1.
     100001    1    1    2    0    0 -0.37844810676E+04  0.37071274551E+04 -0.37632776712E+04  0.65000000000E+04  0.15050000000E+03 0.  1.
</event>
<event>
 4    1  0.5143956E-004  0.6500000E+04  0.7818608E-02  0.7223770E-01
         52   -1    0    0    0    0  0.00000000000E+00  0.00000000000E+00  0.64930732323E+04  0.65000000000E+04  0.30000000000E+03 0. -1.
        -52   -1    0    0    0    0 -0.00000000000E+00 -0.00000000000E+00 -0.64930732323E+04  0.65000000000E+04  0.30000000000E+03 0. -1.
     100001    1    1    2    0    0  0.21205945747E+03 -0.46034030019E+03  0.64784618039E+04  0.65000000000E+04  0.15050000000E+03 0. -1.
     100001    1    1    2    0    0 -0.21205945747E+03  0.46034030019E+03 -0.64784618039E+04  0.65000000000E+04  0.15050000000E+03 0. -1.
</event>
<event>
 4    1  0.5143956E-004  0.6500000E+04  0.7818608E-02  0.7223770E-01
         52   -1    0    0    0    0  0.00000000000E+00  0.00000000000E+00  0.64930732323E+04  0.65000000000E+04  0.30000000000E+03 0. -1.
        -52   -1    0    0    0    0 -0.00000000000E+00 -0.00000000000E+00 -0.64930732323E+04  0.65000000000E+04  0.30000000000E+03 0.  1.
     100001    1    1    2    0    0 -0.77900190561E+03 -0.19230337569E+03  0.64485289170E+04  0.65000000000E+04  0.15050000000E+03 0. -1.
     100001    1    1    2    0    0  0.77900190561E+03  0.19230337569E+03 -0.64485289170E+04  0.65000000000E+04  0.15050000000E+03 0.  1.
</event>
<event>
 4    1  0.5143956E-004  0.6500000E+04  0.7818608E-02  0.7223770E-01
         52   -1    0    0    0    0  0.00000000000E+00  0.00000000000E+00  0.64930732323E+04  0.65000000000E+04  0.30000000000E+03 0.  1.
        -52   -1    0    0    0    0 -0.00000000000E+00 -0.00000000000E+00 -0.64930732323E+04  0.65000000000E+04  0.30000000000E+03 0. -1.
     100001    1    1    2    0    0  0.28328407307E+04 -0.53502725514E+04 -0.23615560063E+04  0.65000000000E+04  0.15050000000E+03 0.  1.
     100001    1    1    2    0    0 -0.28328407307E+04  0.53502725514E+04  0.23615560063E+04  0.65000000000E+04  0.15050000000E+03 0. -1.
</event>
<event>
 4    1  0.5143956E-004  0.6500000E+04  0.7818608E-02  0.7223770E-01
         52   -1    0    0    0    0  0.00000000000E+00  0.00000000000E+00  0.64930732323E+04  0.65000000000E+04  0.30000000000E+03 0.  1.
        -52   -1    0    0    0    0 -0.00000000000E+00 -0.00000000000E+00 -0.64930732323E+04  0.65000000000E+04  0.30000000000E+03 0. -1.
     100001    1    1    2    0    0 -0.20820480416E+04 -0.24157769495E+04 -0.56618413465E+04  0.65000000000E+04  0.15050000000E+03 0. -1.
     100001    1    1    2    0    0  0.20820480416E+04  0.24157769495E+04  0.56618413465E+04  0.65000000000E+04  0.15050000000E+03 0.  1.
</event>
<event>
 4    1  0.5143956E-004  0.6500000E+04  0.7818608E-02  0.7223770E-01
         52   -1    0    0    0    0  0.00000000000E+00  0.00000000000E+00  0.64930732323E+04  0.65000000000E+04  0.30000000000E+03 0.  1.
        -52   -1    0    0    0    0 -0.00000000000E+00 -0.00000000000E+00 -0.64930732323E+04  0.65000000000E+04  0.30000000000E+03 0. -1.
     100001    1    1    2    0    0 -0.41178444621E+03  0.43455628164E+03 -0.64706216207E+04  0.65000000000E+04  0.15050000000E+03 0. -1.
     100001    1    1    2    0    0  0.41178444621E+03 -0.43455628164E+03  0.64706216207E+04  0.65000000000E+04  0.15050000000E+03 0.  1.
</event>
<event>
 4    1  0.5143956E-004  0.6500000E+04  0.7818608E-02  0.7223770E-01
         52   -1    0    0    0    0  0.00000000000E+00  0.00000000000E+00  0.64930732323E+04  0.65000000000E+04  0.30000000000E+03 0.  1.
        -52   -1    0    0    0    0 -0.00000000000E+00 -0.00000000000E+00 -0.64930732323E+04  0.65000000000E+04  0.30000000000E+03 0. -1.
     100001    1    1    2    0    0  0.10957323110E+04  0.11705789816E+03  0.64041406840E+04  0.65000000000E+04  0.15050000000E+03 0.  1.
     100001    1    1    2    0    0 -0.10957323110E+04 -0.11705789816E+03 -0.64041406840E+04  0.65000000000E+04  0.15050000000E+03 0. -1.
</event>
<event>
 4    1  0.5143956E-004  0.6500000E+04  0.7818608E-02  0.7223770E-01
         52   -1    0    0    0    0  0.00000000000E+00  0.00000000000E+00  0.64930732323E+04  0.65000000000E+04  0.30000000000E+03 0.  1.
        -52   -1    0    0    0    0 -0.00000000000E+00 -0.00000000000E+00 -0.64930732323E+04  0.65000000000E+04  0.30000000000E+03 0. -1.
     100001    1    1    2    0    0 -0.55583559881E+03  0.13711807086E+04  0.63275793161E+04  0.65000000000E+04  0.15050000000E+03 0.  1.
     100001    1    1    2    0    0  0.55583559881E+03 -0.13711807086E+04 -0.63275793161E+04  0.65000000000E+04  0.15050000000E+03 0. -1.
</event>
<event>
 4    1  0.5143956E-004  0.6500000E+04  0.7818608E-02  0.7223770E-01
         52   -1    0    0    0    0  0.00000000000E+00  0.00000000000E+00  0.64930732323E+04  0.65000000000E+04  0.30000000000E+03 0.  1.
        -52   -1    0    0    0    0 -0.00000000000E+00 -0.00000000000E+00 -0.64930732323E+04  0.65000000000E+04  0.30000000000E+03 0. -1.
     100001    1    1    2    0    0 -0.50873531715E+04 -0.64085850481E+03 -0.39919278345E+04  0.65000000000E+04  0.15050000000E+03 0. -1.
     100001    1    1    2    0    0  0.50873531715E+04  0.64085850481E+03  0.39919278345E+04  0.65000000000E+04  0.15050000000E+03 0.  1.
</event>
<event>
 4    1  0.5143956E-004  0.6500000E+04  0.7818608E-02  0.7223770E-01
         52   -1    0    0    0    0  0.00000000000E+00  0.00000000000E+00  0.64930732323E+04  0.65000000000E+04  0.30000000000E+03 0.  1.
        -52   -1    0    0    0    0 -0.00000000000E+00 -0.00000000000E+00 -0.64930732323E+04  0.65000000000E+04  0.30000000000E+03 0. -1.
     100001    1    1    2    0    0 -0.43617658321E+04 -0.23159680596E+04 -0.42235814805E+04  0.65000000000E+04  0.15050000000E+03 0. -1.
     100001    1    1    2    0    0  0.43617658321E+04  0.23159680596E+04  0.42235814805E+04  0.65000000000E+04  0.15050000000E+03 0.  1.
</event>
<event>
 4    1  0.5143956E-004  0.6500000E+04  0.7818608E-02  0.7223770E-01
         52   -1    0    0    0    0  0.00000000000E+00  0.00000000000E+00  0.64930732323E+04  0.65000000000E+04  0.30000000000E+03 0. -1.
        -52   -1    0    0    0    0 -0.00000000000E+00 -0.00000000000E+00 -0.64930732323E+04  0.65000000000E+04  0.30000000000E+03 0.  1.
     100001    1    1    2    0    0  0.50677371333E+03  0.36601938465E+03  0.64681187345E+04  0.65000000000E+04  0.15050000000E+03 0. -1.
     100001    1    1    2    0    0 -0.50677371333E+03 -0.36601938465E+03 -0.64681187345E+04  0.65000000000E+04  0.15050000000E+03 0.  1.
</event>
<event>
 4    1  0.5143956E-004  0.6500000E+04  0.7818608E-02  0.7223770E-01
         52   -1    0    0    0    0  0.00000000000E+00  0.00000000000E+00  0.64930732323E+04  0.65000000000E+04  0.30000000000E+03 0. -1.
        -52   -1    0    0    0    0 -0.00000000000E+00 -0.00000000000E+00 -0.64930732323E+04  0.65000000000E+04  0.30000000000E+03 0.  1.
     100001    1    1    2    0    0  0.16483976313E+03  0.86005571834E+03 -0.64389814229E+04  0.65000000000E+04  0.15050000000E+03 0.  1.
     100001    1    1    2    0    0 -0.16483976313E+03 -0.86005571834E+03  0.64389814229E+04  0.65000000000E+04  0.15050000000E+03 0. -1.
</event>
<event>
 4    1  0.5143956E-004  0.6500000E+04  0.7818608E-02  0.7223770E-01
         52   -1    0    0    0    0  0.00000000000E+00  0.00000000000E+00  0.64930732323E+04  0.65000000000E+04  0.30000000000E+03 0. -1.
        -52   -1    0    0    0    0 -0.00000000000E+00 -0.00000000000E+00 -0.64930732323E+04  0.65000000000E+04  0.30000000000E+03 0. -1.
     100001    1    1    2    0    0 -0.17270485027E+03 -0.40061126812E+03 -0.64835972574E+04  0.65000000000E+04  0.15050000000E+03 0. -1.
     100001    1    1    2    0    0  0.17270485027E+03  0.40061126812E+03  0.64835972574E+04  0.65000000000E+04  0.15050000000E+03 0. -1.
</event>
<event>
 4    1  0.5143956E-004  0.6500000E+04  0.7818608E-02  0.7223770E-01
         52   -1    0    0    0    0  0.00000000000E+00  0.00000000000E+00  0.64930732323E+04  0.65000000000E+04  0.30000000000E+03 0. -1.
        -52   -1    0    0    0    0 -0.00000000000E+00 -0.00000000000E+00 -0.64930732323E+04  0.65000000000E+04  0.30000000000E+03 0.  1.
     100001    1    1    2    0    0  0.34883374721E+03 -0.48821310258E+03  0.64704955555E+04  0.65000000000E+04  0.15050000000E+03 0. -1.
     100001    1    1    2    0    0 -0.34883374721E+03  0.48821310258E+03 -0.64704955555E+04  0.65000000000E+04  0.15050000000E+03 0.  1.
</event>
<event>
 4    1  0.5143956E-004  0.6500000E+04  0.7818608E-02  0.7223770E-01
         52   -1    0    0    0    0  0.00000000000E+00  0.00000000000E+00  0.64930732323E+04  0.65000000000E+04  0.30000000000E+03 0. -1.
        -52   -1    0    0    0    0 -0.00000000000E+00 -0.00000000000E+00 -0.64930732323E+04  0.65000000000E+04  0.30000000000E+03 0.  1.
     100001    1    1    2    0    0 -0.14399512798E+04  0.30762190081E+03 -0.63292384082E+04  0.65000000000E+04  0.15050000000E+03 0.  1.
     100001    1    1    2    0    0  0.14399512798E+04 -0.30762190081E+03  0.63292384082E+04  0.65000000000E+04  0.15050000000E+03 0. -1.
</event>
<event>
 4    1  0.5143956E-004  0.6500000E+04  0.7818608E-02  0.7223770E-01
         52   -1    0    0    0    0  0.00000000000E+00  0.00000000000E+00  0.64930732323E+04  0.65000000000E+04  0.30000000000E+03 0. -1.
        -52   -1    0    0    0    0 -0.00000000000E+00 -0.00000000000E+00 -0.64930732323E+04  0.65000000000E+04  0.30000000000E+03 0.  1.
     100001    1    1    2    0    0 -0.96462341735E+01 -0.13761737961E+04 -0.63508583973E+04  0.65000000000E+04  0.15050000000E+03 0.  1.
     100001    1    1    2    0    0  0.96462341735E+01  0.13761737961E+04  0.63508583973E+04  0.65000000000E+04  0.15050000000E+03 0. -1.
</event>
<event>
 4    1  0.5143956E-004  0.6500000E+04  0.7818608E-02  0.7223770E-01
         52   -1    0    0    0    0  0.00000000000E+00  0.00000000000E+00  0.64930732323E+04  0.65000000000E+04  0.30000000000E+03 0.  1.
        -52   -1    0    0    0    0 -0.00000000000E+00 -0.00000000000E+00 -0.64930732323E+04  0.65000000000E+04  0.30000000000E+03 0. -1.
     100001    1    1    2    0    0  0.95464671261E+03  0.17665087242E+04  0.61802464620E+04  0.65000000000E+04  0.15050000000E+03 0.  1.
     100001    1    1    2    0    0 -0.95464671261E+03 -0.17665087242E+04 -0.61802464620E+04  0.65000000000E+04  0.15050000000E+03 0. -1.
</event>
<event>
 4    1  0.5143956E-004  0.6500000E+04  0.7818608E-02  0.7223770E-01
         52   -1    0    0    0    0  0.00000000000E+00  0.00000000000E+00  0.64930732323E+04  0.65000000000E+04  0.30000000000E+03 0. -1.
        -52   -1    0    0    0    0 -0.00000000000E+00 -0.00000000000E+00 -0.64930732323E+04  0.65000000000E+04  0.30000000000E+03 0.  1.
     100001    1    1    2    0    0  0.22029907121E+04  0.36024532635E+04  0.49392825549E+04  0.65000000000E+04  0.15050000000E+03 0. -1.
     100001    1    1    2    0    0 -0.22029907121E+04 -0.36024532635E+04 -0.49392825549E+04  0.65000000000E+04  0.15050000000E+03 0.  1.
</event>
<event>
 4    1  0.5143956E-004  0.6500000E+04  0.7818608E-02  0.7223770E-01
         52   -1    0    0    0    0  0.00000000000E+00  0.00000000000E+00  0.64930732323E+04  0.65000000000E+04  0.30000000000E+03 0. -1.
        -52   -1    0    0    0    0 -0.00000000000E+00 -0.00000000000E+00 -0.64930732323E+04  0.65000000000E+04  0.30000000000E+03 0.  1.
     100001    1    1    2    0    0 -0.11865923790E+04  0.13709705734E+04 -0.62401753151E+04  0.65000000000E+04  0.15050000000E+03 0.  1.
     100001    1    1    2    0    0  0.11865923790E+04 -0.13709705734E+04  0.62401753151E+04  0.65000000000E+04  0.15050000000E+03 0. -1.
</event>
<event>
 4    1  0.5143956E-004  0.6500000E+04  0.7818608E-02  0.7223770E-01
         52   -1    0    0    0    0  0.00000000000E+00  0.00000000000E+00  0.64930732323E+04  0.65000000000E+04  0.30000000000E+03 0. -1.
        -52   -1    0    0    0    0 -0.00000000000E+00 -0.00000000000E+00 -0.64930732323E+04  0.65000000000E+04  0.30000000000E+03 0.  1.
     100001    1    1    2    0    0 -0.18072944311E+03  0.70349193436E+03  0.64575371247E+04  0.65000000000E+04  0.15050000000E+03 0. -1.
     100001    1    1    2    0    0  0.18072944311E+03 -0.70349193436E+03 -0.64575371247E+04  0.65000000000E+04  0.15050000000E+03 0.  1.
</event>
<event>
 4    1  0.5143956E-004  0.6500000E+04  0.7818608E-02  0.7223770E-01
         52   -1    0    0    0    0  0.00000000000E+00  0.00000000000E+00  0.64930732323E+04  0.65000000000E+04  0.30000000000E+03 0.  1.
        -52   -1    0    0    0    0 -0.00000000000E+00 -0.00000000000E+00 -0.64930732323E+04  0.65000000000E+04  0.30000000000E+03 0.  1.
     100001    1    1    2    0    0  0.87704162569E+03  0.12631907997E+03  0.64375609688E+04  0.65000000000E+04  0.15050000000E+03 0.  1.
     100001    1    1    2    0    0 -0.87704162569E+03 -0.12631907997E+03 -0.64375609688E+04  0.65000000000E+04  0.15050000000E+03 0.  1.
</event>
<event>
 4    1  0.5143956E-004  0.6500000E+04  0.7818608E-02  0.7223770E-01
         52   -1    0    0    0    0  0.00000000000E+00  0.00000000000E+00  0.64930732323E+04  0.65000000000E+04  0.30000000000E+03 0. -1.
        -52   -1    0    0    0    0 -0.00000000000E+00 -0.00000000000E+00 -0.64930732323E+04  0.65000000000E+04  0.30000000000E+03 0.  1.
     100001    1    1    2    0    0  0.54404745184E+04  0.35207279146E+04 -0.48276465958E+03  0.65000000000E+04  0.15050000000E+03 0.  1.
     100001    1    1    2    0    0 -0.54404745184E+04 -0.35207279146E+04  0.48276465958E+03  0.65000000000E+04  0.15050000000E+03 0. -1.
</event>
<event>
 4    1  0.5143956E-004  0.6500000E+04  0.7818608E-02  0.7223770E-01
         52   -1    0    0    0    0  0.00000000000E+00  0.00000000000E+00  0.64930732323E+04  0.65000000000E+04  0.30000000000E+03 0. -1.
        -52   -1    0    0    0    0 -0.00000000000E+00 -0.00000000000E+00 -0.64930732323E+04  0.65000000000E+04  0.30000000000E+03 0.  1.
     100001    1    1    2    0    0  0.26797458131E+04 -0.67878793746E+02 -0.59196034155E+04  0.65000000000E+04  0.15050000000E+03 0.  1.
     100001    1    1    2    0    0 -0.26797458131E+04  0.67878793746E+02  0.59196034155E+04  0.65000000000E+04  0.15050000000E+03 0. -1.
</event>
<event>
 4    1  0.5143956E-004  0.6500000E+04  0.7818608E-02  0.7223770E-01
         52   -1    0    0    0    0  0.00000000000E+00  0.00000000000E+00  0.64930732323E+04  0.65000000000E+04  0.30000000000E+03 0. -1.
        -52   -1    0    0    0    0 -0.00000000000E+00 -0.00000000000E+00 -0.64930732323E+04  0.65000000000E+04  0.30000000000E+03 0.  1.
     100001    1    1    2    0    0 -0.21235306024E+04 -0.52901782686E+03 -0.61186687825E+04  0.65000000000E+04  0.15050000000E+03 0.  1.
     100001    1    1    2    0    0  0.21235306024E+04  0.52901782686E+03  0.61186687825E+04  0.65000000000E+04  0.15050000000E+03 0. -1.
</event>
<event>
 4    1  0.5143956E-004  0.6500000E+04  0.7818608E-02  0.7223770E-01
         52   -1    0    0    0    0  0.00000000000E+00  0.00000000000E+00  0.64930732323E+04  0.65000000000E+04  0.30000000000E+03 0.  1.
        -52   -1    0    0    0    0 -0.00000000000E+00 -0.00000000000E+00 -0.64930732323E+04  0.65000000000E+04  0.30000000000E+03 0.  1.
     100001    1    1    2    0    0 -0.32265066692E+02 -0.93398099610E+02  0.64975060993E+04  0.65000000000E+04  0.15050000000E+03 0.  1.
     100001    1    1    2    0    0  0.32265066692E+02  0.93398099610E+02 -0.64975060993E+04  0.65000000000E+04  0.15050000000E+03 0.  1.
</event>
<event>
 4    1  0.5143956E-004  0.6500000E+04  0.7818608E-02  0.7223770E-01
         52   -1    0    0    0    0  0.00000000000E+00  0.00000000000E+00  0.64930732323E+04  0.65000000000E+04  0.30000000000E+03 0. -1.
        -52   -1    0    0    0    0 -0.00000000000E+00 -0.00000000000E+00 -0.64930732323E+04  0.65000000000E+04  0.30000000000E+03 0.  1.
     100001    1    1    2    0    0 -0.25434897171E+04  0.82697646240E+03  0.59223407315E+04  0.65000000000E+04  0.15050000000E+03 0. -1.
     100001    1    1    2    0    0  0.25434897171E+04 -0.82697646240E+03 -0.59223407315E+04  0.65000000000E+04  0.15050000000E+03 0.  1.
</event>
<event>
 4    1  0.5143956E-004  0.6500000E+04  0.7818608E-02  0.7223770E-01
         52   -1    0    0    0    0  0.00000000000E+00  0.00000000000E+00  0.64930732323E+04  0.65000000000E+04  0.30000000000E+03 0.  1.
        -52   -1    0    0    0    0 -0.00000000000E+00 -0.00000000000E+00 -0.64930732323E+04  0.65000000000E+04  0.30000000000E+03 0.  1.
     100001    1    1    2    0    0 -0.34471145739E+02 -0.66621265941E+02 -0.64978244896E+04  0.65000000000E+04  0.15050000000E+03 0.  1.
     100001    1    1    2    0    0  0.34471145739E+02  0.66621265941E+02  0.64978244896E+04  0.65000000000E+04  0.15050000000E+03 0.  1.
</event>
<event>
 4    1  0.5143956E-004  0.6500000E+04  0.7818608E-02  0.7223770E-01
         52   -1    0    0    0    0  0.00000000000E+00  0.00000000000E+00  0.64930732323E+04  0.65000000000E+04  0.30000000000E+03 0. -1.
        -52   -1    0    0    0    0 -0.00000000000E+00 -0.00000000000E+00 -0.64930732323E+04  0.65000000000E+04  0.30000000000E+03 0.  1.
     100001    1    1    2    0    0 -0.18822774655E+04 -0.56577989515E+04  0.25833490506E+04  0.65000000000E+04  0.15050000000E+03 0. -1.
     100001    1    1    2    0    0  0.18822774655E+04  0.56577989515E+04 -0.25833490506E+04  0.65000000000E+04  0.15050000000E+03 0.  1.
</event>
<event>
 4    1  0.5143956E-004  0.6500000E+04  0.7818608E-02  0.7223770E-01
         52   -1    0    0    0    0  0.00000000000E+00  0.00000000000E+00  0.64930732323E+04  0.65000000000E+04  0.30000000000E+03 0.  1.
        -52   -1    0    0    0    0 -0.00000000000E+00 -0.00000000000E+00 -0.64930732323E+04  0.65000000000E+04  0.30000000000E+03 0. -1.
     100001    1    1    2    0    0 -0.16239146260E+04  0.73758849325E+03  0.62486970043E+04  0.65000000000E+04  0.15050000000E+03 0.  1.
     100001    1    1    2    0    0  0.16239146260E+04 -0.73758849325E+03 -0.62486970043E+04  0.65000000000E+04  0.15050000000E+03 0. -1.
</event>
<event>
 4    1  0.5143956E-004  0.6500000E+04  0.7818608E-02  0.7223770E-01
         52   -1    0    0    0    0  0.00000000000E+00  0.00000000000E+00  0.64930732323E+04  0.65000000000E+04  0.30000000000E+03 0. -1.
        -52   -1    0    0    0    0 -0.00000000000E+00 -0.00000000000E+00 -0.64930732323E+04  0.65000000000E+04  0.30000000000E+03 0.  1.
     100001    1    1    2    0    0  0.54516384583E+04 -0.18359425520E+04 -0.30226317697E+04  0.65000000000E+04  0.15050000000E+03 0.  1.
     100001    1    1    2    0    0 -0.54516384583E+04  0.18359425520E+04  0.30226317697E+04  0.65000000000E+04  0.15050000000E+03 0. -1.
</event>
<event>
 4    1  0.5143956E-004  0.6500000E+04  0.7818608E-02  0.7223770E-01
         52   -1    0    0    0    0  0.00000000000E+00  0.00000000000E+00  0.64930732323E+04  0.65000000000E+04  0.30000000000E+03 0.  1.
        -52   -1    0    0    0    0 -0.00000000000E+00 -0.00000000000E+00 -0.64930732323E+04  0.65000000000E+04  0.30000000000E+03 0. -1.
     100001    1    1    2    0    0  0.26098821311E+04 -0.37368291437E+03 -0.59393792682E+04  0.65000000000E+04  0.15050000000E+03 0. -1.
     100001    1    1    2    0    0 -0.26098821311E+04  0.37368291437E+03  0.59393792682E+04  0.65000000000E+04  0.15050000000E+03 0.  1.
</event>
<event>
 4    1  0.5143956E-004  0.6500000E+04  0.7818608E-02  0.7223770E-01
         52   -1    0    0    0    0  0.00000000000E+00  0.00000000000E+00  0.64930732323E+04  0.65000000000E+04  0.30000000000E+03 0.  1.
        -52   -1    0    0    0    0 -0.00000000000E+00 -0.00000000000E+00 -0.64930732323E+04  0.65000000000E+04  0.30000000000E+03 0.  1.
     100001    1    1    2    0    0  0.24523162560E+03 -0.20626339145E+03 -0.64903518097E+04  0.65000000000E+04  0.15050000000E+03 0.  1.
     100001    1    1    2    0    0 -0.24523162560E+03  0.20626339145E+03  0.64903518097E+04  0.65000000000E+04  0.15050000000E+03 0.  1.
</event>
<event>
 4    1  0.5143956E-004  0.6500000E+04  0.7818608E-02  0.7223770E-01
         52   -1    0    0    0    0  0.00000000000E+00  0.00000000000E+00  0.64930732323E+04  0.65000000000E+04  0.30000000000E+03 0.  1.
        -52   -1    0    0    0    0 -0.00000000000E+00 -0.00000000000E+00 -0.64930732323E+04  0.65000000000E+04  0.30000000000E+03 0. -1.
     100001    1    1    2    0    0  0.20557292559E+02  0.26077609050E+04  0.59520173227E+04  0.65000000000E+04  0.15050000000E+03 0.  1.
     100001    1    1    2    0    0 -0.20557292559E+02 -0.26077609050E+04 -0.59520173227E+04  0.65000000000E+04  0.15050000000E+03 0. -1.
</event>
<event>
 4    1  0.5143956E-004  0.6500000E+04  0.7818608E-02  0.7223770E-01
         52   -1    0    0    0    0  0.00000000000E+00  0.00000000000E+00  0.64930732323E+04  0.65000000000E+04  0.30000000000E+03 0.  1.
        -52   -1    0    0    0    0 -0.00000000000E+00 -0.00000000000E+00 -0.64930732323E+04  0.65000000000E+04  0.30000000000E+03 0. -1.
     100001    1    1    2    0    0  0.90614651697E+03 -0.19759964311E+03 -0.64317340291E+04  0.65000000000E+04  0.15050000000E+03 0. -1.
     100001    1    1    2    0    0 -0.90614651697E+03  0.19759964311E+03  0.64317340291E+04  0.65000000000E+04  0.15050000000E+03 0.  1.
</event>
<event>
 4    1  0.5143956E-004  0.6500000E+04  0.7818608E-02  0.7223770E-01
         52   -1    0    0    0    0  0.00000000000E+00  0.00000000000E+00  0.64930732323E+04  0.65000000000E+04  0.30000000000E+03 0.  1.
        -52   -1    0    0    0    0 -0.00000000000E+00 -0.00000000000E+00 -0.64930732323E+04  0.65000000000E+04  0.30000000000E+03 0. -1.
     100001    1    1    2    0    0  0.65487351295E+03  0.33656665005E+04  0.55200343694E+04  0.65000000000E+04  0.15050000000E+03 0.  1.
     100001    1    1    2    0    0 -0.65487351295E+03 -0.33656665005E+04 -0.55200343694E+04  0.65000000000E+04  0.15050000000E+03 0. -1.
</event>
<event>
 4    1  0.5143956E-004  0.6500000E+04  0.7818608E-02  0.7223770E-01
         52   -1    0    0    0    0  0.00000000000E+00  0.00000000000E+00  0.64930732323E+04  0.65000000000E+04  0.30000000000E+03 0. -1.
        -52   -1    0    0    0    0 -0.00000000000E+00 -0.00000000000E+00 -0.64930732323E+04  0.65000000000E+04  0.30000000000E+03 0.  1.
     100001    1    1    2    0    0  0.19429497225E+04 -0.20894418476E+04  0.58383669713E+04  0.65000000000E+04  0.15050000000E+03 0. -1.
     100001    1    1    2    0    0 -0.19429497225E+04  0.20894418476E+04 -0.58383669713E+04  0.65000000000E+04  0.15050000000E+03 0.  1.
</event>
<event>
 4    1  0.5143956E-004  0.6500000E+04  0.7818608E-02  0.7223770E-01
         52   -1    0    0    0    0  0.00000000000E+00  0.00000000000E+00  0.64930732323E+04  0.65000000000E+04  0.30000000000E+03 0. -1.
        -52   -1    0    0    0    0 -0.00000000000E+00 -0.00000000000E+00 -0.64930732323E+04  0.65000000000E+04  0.30000000000E+03 0.  1.
     100001    1    1    2    0    0  0.31037515844E+04 -0.26468757900E+04  0.50584705598E+04  0.65000000000E+04  0.15050000000E+03 0. -1.
     100001    1    1    2    0    0 -0.31037515844E+04  0.26468757900E+04 -0.50584705598E+04  0.65000000000E+04  0.15050000000E+03 0.  1.
</event>
<event>
 4    1  0.5143956E-004  0.6500000E+04  0.7818608E-02  0.7223770E-01
         52   -1    0    0    0    0  0.00000000000E+00  0.00000000000E+00  0.64930732323E+04  0.65000000000E+04  0.30000000000E+03 0.  1.
        -52   -1    0    0    0    0 -0.00000000000E+00 -0.00000000000E+00 -0.64930732323E+04  0.65000000000E+04  0.30000000000E+03 0. -1.
     100001    1    1    2    0    0  0.14060245567E+04 -0.81057360018E+03  0.62923298654E+04  0.65000000000E+04  0.15050000000E+03 0.  1.
     100001    1    1    2    0    0 -0.14060245567E+04  0.81057360018E+03 -0.62923298654E+04  0.65000000000E+04  0.15050000000E+03 0. -1.
</event>
<event>
 4    1  0.5143956E-004  0.6500000E+04  0.7818608E-02  0.7223770E-01
         52   -1    0    0    0    0  0.00000000000E+00  0.00000000000E+00  0.64930732323E+04  0.65000000000E+04  0.30000000000E+03 0. -1.
        -52   -1    0    0    0    0 -0.00000000000E+00 -0.00000000000E+00 -0.64930732323E+04  0.65000000000E+04  0.30000000000E+03 0.  1.
     100001    1    1    2    0    0  0.82359486267E+03 -0.10838054105E+04  0.63540858575E+04  0.65000000000E+04  0.15050000000E+03 0. -1.
     100001    1    1    2    0    0 -0.82359486267E+03  0.10838054105E+04 -0.63540858575E+04  0.65000000000E+04  0.15050000000E+03 0.  1.
</event>
<event>
 4    1  0.5143956E-004  0.6500000E+04  0.7818608E-02  0.7223770E-01
         52   -1    0    0    0    0  0.00000000000E+00  0.00000000000E+00  0.64930732323E+04  0.65000000000E+04  0.30000000000E+03 0.  1.
        -52   -1    0    0    0    0 -0.00000000000E+00 -0.00000000000E+00 -0.64930732323E+04  0.65000000000E+04  0.30000000000E+03 0. -1.
     100001    1    1    2    0    0  0.42555071488E+04 -0.38837677795E+04 -0.30057206276E+04  0.65000000000E+04  0.15050000000E+03 0. -1.
     100001    1    1    2    0    0 -0.42555071488E+04  0.38837677795E+04  0.30057206276E+04  0.65000000000E+04  0.15050000000E+03 0.  1.
</event>
<event>
 4    1  0.5143956E-004  0.6500000E+04  0.7818608E-02  0.7223770E-01
         52   -1    0    0    0    0  0.00000000000E+00  0.00000000000E+00  0.64930732323E+04  0.65000000000E+04  0.30000000000E+03 0. -1.
        -52   -1    0    0    0    0 -0.00000000000E+00 -0.00000000000E+00 -0.64930732323E+04  0.65000000000E+04  0.30000000000E+03 0.  1.
     100001    1    1    2    0    0 -0.54069887757E+03  0.61256978034E+03  0.64466854071E+04  0.65000000000E+04  0.15050000000E+03 0. -1.
     100001    1    1    2    0    0  0.54069887757E+03 -0.61256978034E+03 -0.64466854071E+04  0.65000000000E+04  0.15050000000E+03 0.  1.
</event>
<event>
 4    1  0.5143956E-004  0.6500000E+04  0.7818608E-02  0.7223770E-01
         52   -1    0    0    0    0  0.00000000000E+00  0.00000000000E+00  0.64930732323E+04  0.65000000000E+04  0.30000000000E+03 0. -1.
        -52   -1    0    0    0    0 -0.00000000000E+00 -0.00000000000E+00 -0.64930732323E+04  0.65000000000E+04  0.30000000000E+03 0.  1.
     100001    1    1    2    0    0 -0.49905467698E+04  0.27688701047E+04 -0.31072738907E+04  0.65000000000E+04  0.15050000000E+03 0.  1.
     100001    1    1    2    0    0  0.49905467698E+04 -0.27688701047E+04  0.31072738907E+04  0.65000000000E+04  0.15050000000E+03 0. -1.
</event>
<event>
 4    1  0.6747406E-004  0.6500000E+04  0.7818608E-02  0.7223770E-01
         52   -1    0    0    0    0  0.00000000000E+00  0.00000000000E+00  0.64930732323E+04  0.65000000000E+04  0.30000000000E+03 0. -1.
        -52   -1    0    0    0    0 -0.00000000000E+00 -0.00000000000E+00 -0.64930732323E+04  0.65000000000E+04  0.30000000000E+03 0.  1.
     100001    1    1    2    0    0 -0.54689420128E+02  0.17500219400E+03 -0.64956703310E+04  0.65000000000E+04  0.15050000000E+03 0.  1.
     100001    1    1    2    0    0  0.54689420128E+02 -0.17500219400E+03  0.64956703310E+04  0.65000000000E+04  0.15050000000E+03 0. -1.
</event>
<event>
 4    1  0.6723224E-004  0.6500000E+04  0.7818608E-02  0.7223770E-01
         52   -1    0    0    0    0  0.00000000000E+00  0.00000000000E+00  0.64930732323E+04  0.65000000000E+04  0.30000000000E+03 0. -1.
        -52   -1    0    0    0    0 -0.00000000000E+00 -0.00000000000E+00 -0.64930732323E+04  0.65000000000E+04  0.30000000000E+03 0. -1.
     100001    1    1    2    0    0 -0.95211092375E+02 -0.16776544081E+03 -0.64953937028E+04  0.65000000000E+04  0.15050000000E+03 0. -1.
     100001    1    1    2    0    0  0.95211092375E+02  0.16776544081E+03  0.64953937028E+04  0.65000000000E+04  0.15050000000E+03 0. -1.
</event>
<event>
 4    1  0.5143956E-004  0.6500000E+04  0.7818608E-02  0.7223770E-01
         52   -1    0    0    0    0  0.00000000000E+00  0.00000000000E+00  0.64930732323E+04  0.65000000000E+04  0.30000000000E+03 0.  1.
        -52   -1    0    0    0    0 -0.00000000000E+00 -0.00000000000E+00 -0.64930732323E+04  0.65000000000E+04  0.30000000000E+03 0. -1.
     100001    1    1    2    0    0 -0.93569213437E+03 -0.24589325843E+03 -0.64258358589E+04  0.65000000000E+04  0.15050000000E+03 0. -1.
     100001    1    1    2    0    0  0.93569213437E+03  0.24589325843E+03  0.64258358589E+04  0.65000000000E+04  0.15050000000E+03 0.  1.
</event>
<event>
 4    1  0.5143956E-004  0.6500000E+04  0.7818608E-02  0.7223770E-01
         52   -1    0    0    0    0  0.00000000000E+00  0.00000000000E+00  0.64930732323E+04  0.65000000000E+04  0.30000000000E+03 0. -1.
        -52   -1    0    0    0    0 -0.00000000000E+00 -0.00000000000E+00 -0.64930732323E+04  0.65000000000E+04  0.30000000000E+03 0.  1.
     100001    1    1    2    0    0  0.57542869767E+04  0.13390579346E+04  0.27060035084E+04  0.65000000000E+04  0.15050000000E+03 0. -1.
     100001    1    1    2    0    0 -0.57542869767E+04 -0.13390579346E+04 -0.27060035084E+04  0.65000000000E+04  0.15050000000E+03 0.  1.
</event>
<event>
 4    1  0.5143956E-004  0.6500000E+04  0.7818608E-02  0.7223770E-01
         52   -1    0    0    0    0  0.00000000000E+00  0.00000000000E+00  0.64930732323E+04  0.65000000000E+04  0.30000000000E+03 0. -1.
        -52   -1    0    0    0    0 -0.00000000000E+00 -0.00000000000E+00 -0.64930732323E+04  0.65000000000E+04  0.30000000000E+03 0. -1.
     100001    1    1    2    0    0 -0.20053322817E+03 -0.31436985110E+03  0.64875502134E+04  0.65000000000E+04  0.15050000000E+03 0. -1.
     100001    1    1    2    0    0  0.20053322817E+03  0.31436985110E+03 -0.64875502134E+04  0.65000000000E+04  0.15050000000E+03 0. -1.
</event>
<event>
 4    1  0.5143956E-004  0.6500000E+04  0.7818608E-02  0.7223770E-01
         52   -1    0    0    0    0  0.00000000000E+00  0.00000000000E+00  0.64930732323E+04  0.65000000000E+04  0.30000000000E+03 0.  1.
        -52   -1    0    0    0    0 -0.00000000000E+00 -0.00000000000E+00 -0.64930732323E+04  0.65000000000E+04  0.30000000000E+03 0. -1.
     100001    1    1    2    0    0 -0.83171217509E+03 -0.15158031285E+04 -0.62640199140E+04  0.65000000000E+04  0.15050000000E+03 0. -1.
     100001    1    1    2    0    0  0.83171217509E+03  0.15158031285E+04  0.62640199140E+04  0.65000000000E+04  0.15050000000E+03 0.  1.
</event>
<event>
 4    1  0.5143956E-004  0.6500000E+04  0.7818608E-02  0.7223770E-01
         52   -1    0    0    0    0  0.00000000000E+00  0.00000000000E+00  0.64930732323E+04  0.65000000000E+04  0.30000000000E+03 0.  1.
        -52   -1    0    0    0    0 -0.00000000000E+00 -0.00000000000E+00 -0.64930732323E+04  0.65000000000E+04  0.30000000000E+03 0. -1.
     100001    1    1    2    0    0  0.58327962101E+04 -0.81301641014E+03 -0.27467876581E+04  0.65000000000E+04  0.15050000000E+03 0. -1.
     100001    1    1    2    0    0 -0.58327962101E+04  0.81301641014E+03  0.27467876581E+04  0.65000000000E+04  0.15050000000E+03 0.  1.
</event>
<event>
 4    1  0.5143956E-004  0.6500000E+04  0.7818608E-02  0.7223770E-01
         52   -1    0    0    0    0  0.00000000000E+00  0.00000000000E+00  0.64930732323E+04  0.65000000000E+04  0.30000000000E+03 0. -1.
        -52   -1    0    0    0    0 -0.00000000000E+00 -0.00000000000E+00 -0.64930732323E+04  0.65000000000E+04  0.30000000000E+03 0. -1.
     100001    1    1    2    0    0  0.16046777725E+03  0.64697096617E+02  0.64959536735E+04  0.65000000000E+04  0.15050000000E+03 0. -1.
     100001    1    1    2    0    0 -0.16046777725E+03 -0.64697096617E+02 -0.64959536735E+04  0.65000000000E+04  0.15050000000E+03 0. -1.
</event>
<event>
 4    1  0.5143956E-004  0.6500000E+04  0.7818608E-02  0.7223770E-01
         52   -1    0    0    0    0  0.00000000000E+00  0.00000000000E+00  0.64930732323E+04  0.65000000000E+04  0.30000000000E+03 0. -1.
        -52   -1    0    0    0    0 -0.00000000000E+00 -0.00000000000E+00 -0.64930732323E+04  0.65000000000E+04  0.30000000000E+03 0.  1.
     100001    1    1    2    0    0  0.21877651824E+03  0.24148615006E+03 -0.64900825129E+04  0.65000000000E+04  0.15050000000E+03 0.  1.
     100001    1    1    2    0    0 -0.21877651824E+03 -0.24148615006E+03  0.64900825129E+04  0.65000000000E+04  0.15050000000E+03 0. -1.
</event>
<event>
 4    1  0.5143956E-004  0.6500000E+04  0.7818608E-02  0.7223770E-01
         52   -1    0    0    0    0  0.00000000000E+00  0.00000000000E+00  0.64930732323E+04  0.65000000000E+04  0.30000000000E+03 0.  1.
        -52   -1    0    0    0    0 -0.00000000000E+00 -0.00000000000E+00 -0.64930732323E+04  0.65000000000E+04  0.30000000000E+03 0. -1.
     100001    1    1    2    0    0  0.16012771206E+04  0.47731099916E+02  0.62976966484E+04  0.65000000000E+04  0.15050000000E+03 0.  1.
     100001    1    1    2    0    0 -0.16012771206E+04 -0.47731099916E+02 -0.62976966484E+04  0.65000000000E+04  0.15050000000E+03 0. -1.
</event>
<event>
 4    1  0.5143956E-004  0.6500000E+04  0.7818608E-02  0.7223770E-01
         52   -1    0    0    0    0  0.00000000000E+00  0.00000000000E+00  0.64930732323E+04  0.65000000000E+04  0.30000000000E+03 0.  1.
        -52   -1    0    0    0    0 -0.00000000000E+00 -0.00000000000E+00 -0.64930732323E+04  0.65000000000E+04  0.30000000000E+03 0. -1.
     100001    1    1    2    0    0  0.10918845349E+04 -0.27653171377E+03  0.63998959463E+04  0.65000000000E+04  0.15050000000E+03 0.  1.
     100001    1    1    2    0    0 -0.10918845349E+04  0.27653171377E+03 -0.63998959463E+04  0.65000000000E+04  0.15050000000E+03 0. -1.
</event>
<event>
 4    1  0.5143956E-004  0.6500000E+04  0.7818608E-02  0.7223770E-01
         52   -1    0    0    0    0  0.00000000000E+00  0.00000000000E+00  0.64930732323E+04  0.65000000000E+04  0.30000000000E+03 0.  1.
        -52   -1    0    0    0    0 -0.00000000000E+00 -0.00000000000E+00 -0.64930732323E+04  0.65000000000E+04  0.30000000000E+03 0. -1.
     100001    1    1    2    0    0  0.17723330560E+04  0.46703848797E+03 -0.62344254217E+04  0.65000000000E+04  0.15050000000E+03 0. -1.
     100001    1    1    2    0    0 -0.17723330560E+04 -0.46703848797E+03  0.62344254217E+04  0.65000000000E+04  0.15050000000E+03 0.  1.
</event>
<event>
 4    1  0.5143956E-004  0.6500000E+04  0.7818608E-02  0.7223770E-01
         52   -1    0    0    0    0  0.00000000000E+00  0.00000000000E+00  0.64930732323E+04  0.65000000000E+04  0.30000000000E+03 0. -1.
        -52   -1    0    0    0    0 -0.00000000000E+00 -0.00000000000E+00 -0.64930732323E+04  0.65000000000E+04  0.30000000000E+03 0.  1.
     100001    1    1    2    0    0 -0.66231744988E+02 -0.21586454525E+04 -0.61288834967E+04  0.65000000000E+04  0.15050000000E+03 0.  1.
     100001    1    1    2    0    0  0.66231744988E+02  0.21586454525E+04  0.61288834967E+04  0.65000000000E+04  0.15050000000E+03 0. -1.
</event>
<event>
 4    1  0.5143956E-004  0.6500000E+04  0.7818608E-02  0.7223770E-01
         52   -1    0    0    0    0  0.00000000000E+00  0.00000000000E+00  0.64930732323E+04  0.65000000000E+04  0.30000000000E+03 0.  1.
        -52   -1    0    0    0    0 -0.00000000000E+00 -0.00000000000E+00 -0.64930732323E+04  0.65000000000E+04  0.30000000000E+03 0. -1.
     100001    1    1    2    0    0  0.28912977023E+04  0.12680514353E+04  0.56797704975E+04  0.65000000000E+04  0.15050000000E+03 0.  1.
     100001    1    1    2    0    0 -0.28912977023E+04 -0.12680514353E+04 -0.56797704975E+04  0.65000000000E+04  0.15050000000E+03 0. -1.
</event>
<event>
 4    1  0.5143956E-004  0.6500000E+04  0.7818608E-02  0.7223770E-01
         52   -1    0    0    0    0  0.00000000000E+00  0.00000000000E+00  0.64930732323E+04  0.65000000000E+04  0.30000000000E+03 0. -1.
        -52   -1    0    0    0    0 -0.00000000000E+00 -0.00000000000E+00 -0.64930732323E+04  0.65000000000E+04  0.30000000000E+03 0.  1.
     100001    1    1    2    0    0  0.21589649751E+04 -0.82431643928E+03  0.60734440307E+04  0.65000000000E+04  0.15050000000E+03 0. -1.
     100001    1    1    2    0    0 -0.21589649751E+04  0.82431643928E+03 -0.60734440307E+04  0.65000000000E+04  0.15050000000E+03 0.  1.
</event>
<event>
 4    1  0.5143956E-004  0.6500000E+04  0.7818608E-02  0.7223770E-01
         52   -1    0    0    0    0  0.00000000000E+00  0.00000000000E+00  0.64930732323E+04  0.65000000000E+04  0.30000000000E+03 0.  1.
        -52   -1    0    0    0    0 -0.00000000000E+00 -0.00000000000E+00 -0.64930732323E+04  0.65000000000E+04  0.30000000000E+03 0. -1.
     100001    1    1    2    0    0  0.23830098181E+04 -0.52670151201E+03  0.60225575526E+04  0.65000000000E+04  0.15050000000E+03 0.  1.
     100001    1    1    2    0    0 -0.23830098181E+04  0.52670151201E+03 -0.60225575526E+04  0.65000000000E+04  0.15050000000E+03 0. -1.
</event>
<event>
 4    1  0.5143956E-004  0.6500000E+04  0.7818608E-02  0.7223770E-01
         52   -1    0    0    0    0  0.00000000000E+00  0.00000000000E+00  0.64930732323E+04  0.65000000000E+04  0.30000000000E+03 0. -1.
        -52   -1    0    0    0    0 -0.00000000000E+00 -0.00000000000E+00 -0.64930732323E+04  0.65000000000E+04  0.30000000000E+03 0.  1.
     100001    1    1    2    0    0  0.30393178474E+04 -0.68769950676E+03 -0.57023649621E+04  0.65000000000E+04  0.15050000000E+03 0.  1.
     100001    1    1    2    0    0 -0.30393178474E+04  0.68769950676E+03  0.57023649621E+04  0.65000000000E+04  0.15050000000E+03 0. -1.
</event>
<event>
 4    1  0.5143956E-004  0.6500000E+04  0.7818608E-02  0.7223770E-01
         52   -1    0    0    0    0  0.00000000000E+00  0.00000000000E+00  0.64930732323E+04  0.65000000000E+04  0.30000000000E+03 0. -1.
        -52   -1    0    0    0    0 -0.00000000000E+00 -0.00000000000E+00 -0.64930732323E+04  0.65000000000E+04  0.30000000000E+03 0.  1.
     100001    1    1    2    0    0  0.26687170010E+04 -0.30951271922E+04  0.50522754262E+04  0.65000000000E+04  0.15050000000E+03 0. -1.
     100001    1    1    2    0    0 -0.26687170010E+04  0.30951271922E+04 -0.50522754262E+04  0.65000000000E+04  0.15050000000E+03 0.  1.
</event>
<event>
 4    1  0.5143956E-004  0.6500000E+04  0.7818608E-02  0.7223770E-01
         52   -1    0    0    0    0  0.00000000000E+00  0.00000000000E+00  0.64930732323E+04  0.65000000000E+04  0.30000000000E+03 0.  1.
        -52   -1    0    0    0    0 -0.00000000000E+00 -0.00000000000E+00 -0.64930732323E+04  0.65000000000E+04  0.30000000000E+03 0. -1.
     100001    1    1    2    0    0  0.72409775896E+03 -0.25472241888E+04 -0.59341959116E+04  0.65000000000E+04  0.15050000000E+03 0. -1.
     100001    1    1    2    0    0 -0.72409775896E+03  0.25472241888E+04  0.59341959116E+04  0.65000000000E+04  0.15050000000E+03 0.  1.
</event>
<event>
 4    1  0.5143956E-004  0.6500000E+04  0.7818608E-02  0.7223770E-01
         52   -1    0    0    0    0  0.00000000000E+00  0.00000000000E+00  0.64930732323E+04  0.65000000000E+04  0.30000000000E+03 0.  1.
        -52   -1    0    0    0    0 -0.00000000000E+00 -0.00000000000E+00 -0.64930732323E+04  0.65000000000E+04  0.30000000000E+03 0. -1.
     100001    1    1    2    0    0 -0.50043042689E+04  0.16813028774E+04  0.37891303974E+04  0.65000000000E+04  0.15050000000E+03 0.  1.
     100001    1    1    2    0    0  0.50043042689E+04 -0.16813028774E+04 -0.37891303974E+04  0.65000000000E+04  0.15050000000E+03 0. -1.
</event>
<event>
 4    1  0.5143956E-004  0.6500000E+04  0.7818608E-02  0.7223770E-01
         52   -1    0    0    0    0  0.00000000000E+00  0.00000000000E+00  0.64930732323E+04  0.65000000000E+04  0.30000000000E+03 0. -1.
        -52   -1    0    0    0    0 -0.00000000000E+00 -0.00000000000E+00 -0.64930732323E+04  0.65000000000E+04  0.30000000000E+03 0.  1.
     100001    1    1    2    0    0  0.24323161110E+04 -0.10127228894E+04  0.59401667010E+04  0.65000000000E+04  0.15050000000E+03 0. -1.
     100001    1    1    2    0    0 -0.24323161110E+04  0.10127228894E+04 -0.59401667010E+04  0.65000000000E+04  0.15050000000E+03 0.  1.
</event>
<event>
 4    1  0.5143956E-004  0.6500000E+04  0.7818608E-02  0.7223770E-01
         52   -1    0    0    0    0  0.00000000000E+00  0.00000000000E+00  0.64930732323E+04  0.65000000000E+04  0.30000000000E+03 0.  1.
        -52   -1    0    0    0    0 -0.00000000000E+00 -0.00000000000E+00 -0.64930732323E+04  0.65000000000E+04  0.30000000000E+03 0. -1.
     100001    1    1    2    0    0  0.81131135109E+03 -0.32024854811E+03  0.64394537431E+04  0.65000000000E+04  0.15050000000E+03 0.  1.
     100001    1    1    2    0    0 -0.81131135109E+03  0.32024854811E+03 -0.64394537431E+04  0.65000000000E+04  0.15050000000E+03 0. -1.
</event>
<event>
 4    1  0.5143956E-004  0.6500000E+04  0.7818608E-02  0.7223770E-01
         52   -1    0    0    0    0  0.00000000000E+00  0.00000000000E+00  0.64930732323E+04  0.65000000000E+04  0.30000000000E+03 0.  1.
        -52   -1    0    0    0    0 -0.00000000000E+00 -0.00000000000E+00 -0.64930732323E+04  0.65000000000E+04  0.30000000000E+03 0. -1.
     100001    1    1    2    0    0  0.12645138007E+04 -0.30279700842E+02 -0.63739656210E+04  0.65000000000E+04  0.15050000000E+03 0. -1.
     100001    1    1    2    0    0 -0.12645138007E+04  0.30279700842E+02  0.63739656210E+04  0.65000000000E+04  0.15050000000E+03 0.  1.
</event>
<event>
 4    1  0.7166962E-004  0.6500000E+04  0.7818608E-02  0.7223770E-01
         52   -1    0    0    0    0  0.00000000000E+00  0.00000000000E+00  0.64930732323E+04  0.65000000000E+04  0.30000000000E+03 0.  1.
        -52   -1    0    0    0    0 -0.00000000000E+00 -0.00000000000E+00 -0.64930732323E+04  0.65000000000E+04  0.30000000000E+03 0.  1.
     100001    1    1    2    0    0 -0.24500231640E+02  0.12358550926E+03 -0.64970359481E+04  0.65000000000E+04  0.15050000000E+03 0.  1.
     100001    1    1    2    0    0  0.24500231640E+02 -0.12358550926E+03  0.64970359481E+04  0.65000000000E+04  0.15050000000E+03 0.  1.
</event>
<event>
 4    1  0.6832931E-004  0.6500000E+04  0.7818608E-02  0.7223770E-01
         52   -1    0    0    0    0  0.00000000000E+00  0.00000000000E+00  0.64930732323E+04  0.65000000000E+04  0.30000000000E+03 0. -1.
        -52   -1    0    0    0    0 -0.00000000000E+00 -0.00000000000E+00 -0.64930732323E+04  0.65000000000E+04  0.30000000000E+03 0. -1.
     100001    1    1    2    0    0  0.33251903932E+02  0.14706836801E+03 -0.64965079047E+04  0.65000000000E+04  0.15050000000E+03 0. -1.
     100001    1    1    2    0    0 -0.33251903932E+02 -0.14706836801E+03  0.64965079047E+04  0.65000000000E+04  0.15050000000E+03 0. -1.
</event>
<event>
 4    1  0.5143956E-004  0.6500000E+04  0.7818608E-02  0.7223770E-01
         52   -1    0    0    0    0  0.00000000000E+00  0.00000000000E+00  0.64930732323E+04  0.65000000000E+04  0.30000000000E+03 0.  1.
        -52   -1    0    0    0    0 -0.00000000000E+00 -0.00000000000E+00 -0.64930732323E+04  0.65000000000E+04  0.30000000000E+03 0. -1.
     100001    1    1    2    0    0  0.61329419205E+03 -0.10889494771E+04 -0.63769435485E+04  0.65000000000E+04  0.15050000000E+03 0. -1.
     100001    1    1    2    0    0 -0.61329419205E+03  0.10889494771E+04  0.63769435485E+04  0.65000000000E+04  0.15050000000E+03 0.  1.
</event>
<event>
 4    1  0.5143956E-004  0.6500000E+04  0.7818608E-02  0.7223770E-01
         52   -1    0    0    0    0  0.00000000000E+00  0.00000000000E+00  0.64930732323E+04  0.65000000000E+04  0.30000000000E+03 0.  1.
        -52   -1    0    0    0    0 -0.00000000000E+00 -0.00000000000E+00 -0.64930732323E+04  0.65000000000E+04  0.30000000000E+03 0. -1.
     100001    1    1    2    0    0 -0.16936694060E+03 -0.65435338255E+03  0.64630090701E+04  0.65000000000E+04  0.15050000000E+03 0.  1.
     100001    1    1    2    0    0  0.16936694060E+03  0.65435338255E+03 -0.64630090701E+04  0.65000000000E+04  0.15050000000E+03 0. -1.
</event>
<event>
 4    1  0.5143956E-004  0.6500000E+04  0.7818608E-02  0.7223770E-01
         52   -1    0    0    0    0  0.00000000000E+00  0.00000000000E+00  0.64930732323E+04  0.65000000000E+04  0.30000000000E+03 0. -1.
        -52   -1    0    0    0    0 -0.00000000000E+00 -0.00000000000E+00 -0.64930732323E+04  0.65000000000E+04  0.30000000000E+03 0.  1.
     100001    1    1    2    0    0 -0.31453007275E+04  0.56858665075E+04  0.73178838712E+02  0.65000000000E+04  0.15050000000E+03 0.  1.
     100001    1    1    2    0    0  0.31453007275E+04 -0.56858665075E+04 -0.73178838712E+02  0.65000000000E+04  0.15050000000E+03 0. -1.
</event>
<event>
 4    1  0.5143956E-004  0.6500000E+04  0.7818608E-02  0.7223770E-01
         52   -1    0    0    0    0  0.00000000000E+00  0.00000000000E+00  0.64930732323E+04  0.65000000000E+04  0.30000000000E+03 0. -1.
        -52   -1    0    0    0    0 -0.00000000000E+00 -0.00000000000E+00 -0.64930732323E+04  0.65000000000E+04  0.30000000000E+03 0.  1.
     100001    1    1    2    0    0 -0.98349988929E+03 -0.16577672764E+04  0.62057944999E+04  0.65000000000E+04  0.15050000000E+03 0. -1.
     100001    1    1    2    0    0  0.98349988929E+03  0.16577672764E+04 -0.62057944999E+04  0.65000000000E+04  0.15050000000E+03 0.  1.
</event>
<event>
 4    1  0.5143956E-004  0.6500000E+04  0.7818608E-02  0.7223770E-01
         52   -1    0    0    0    0  0.00000000000E+00  0.00000000000E+00  0.64930732323E+04  0.65000000000E+04  0.30000000000E+03 0. -1.
        -52   -1    0    0    0    0 -0.00000000000E+00 -0.00000000000E+00 -0.64930732323E+04  0.65000000000E+04  0.30000000000E+03 0.  1.
     100001    1    1    2    0    0  0.53744415777E+04 -0.30714694025E+04 -0.19770693430E+04  0.65000000000E+04  0.15050000000E+03 0. -1.
     100001    1    1    2    0    0 -0.53744415777E+04  0.30714694025E+04  0.19770693430E+04  0.65000000000E+04  0.15050000000E+03 0.  1.
</event>
<event>
 4    1  0.5143956E-004  0.6500000E+04  0.7818608E-02  0.7223770E-01
         52   -1    0    0    0    0  0.00000000000E+00  0.00000000000E+00  0.64930732323E+04  0.65000000000E+04  0.30000000000E+03 0. -1.
        -52   -1    0    0    0    0 -0.00000000000E+00 -0.00000000000E+00 -0.64930732323E+04  0.65000000000E+04  0.30000000000E+03 0.  1.
     100001    1    1    2    0    0  0.60688049836E+03  0.17248123117E+04 -0.62357091257E+04  0.65000000000E+04  0.15050000000E+03 0.  1.
     100001    1    1    2    0    0 -0.60688049836E+03 -0.17248123117E+04  0.62357091257E+04  0.65000000000E+04  0.15050000000E+03 0. -1.
</event>
<event>
 4    1  0.5143956E-004  0.6500000E+04  0.7818608E-02  0.7223770E-01
         52   -1    0    0    0    0  0.00000000000E+00  0.00000000000E+00  0.64930732323E+04  0.65000000000E+04  0.30000000000E+03 0. -1.
        -52   -1    0    0    0    0 -0.00000000000E+00 -0.00000000000E+00 -0.64930732323E+04  0.65000000000E+04  0.30000000000E+03 0.  1.
     100001    1    1    2    0    0 -0.17501213835E+04 -0.80083845700E+02  0.62576362527E+04  0.65000000000E+04  0.15050000000E+03 0. -1.
     100001    1    1    2    0    0  0.17501213835E+04  0.80083845700E+02 -0.62576362527E+04  0.65000000000E+04  0.15050000000E+03 0.  1.
</event>
<event>
 4    1  0.5143956E-004  0.6500000E+04  0.7818608E-02  0.7223770E-01
         52   -1    0    0    0    0  0.00000000000E+00  0.00000000000E+00  0.64930732323E+04  0.65000000000E+04  0.30000000000E+03 0. -1.
        -52   -1    0    0    0    0 -0.00000000000E+00 -0.00000000000E+00 -0.64930732323E+04  0.65000000000E+04  0.30000000000E+03 0.  1.
     100001    1    1    2    0    0  0.18059240519E+04  0.20022701738E+04  0.59124362339E+04  0.65000000000E+04  0.15050000000E+03 0. -1.
     100001    1    1    2    0    0 -0.18059240519E+04 -0.20022701738E+04 -0.59124362339E+04  0.65000000000E+04  0.15050000000E+03 0.  1.
</event>
<event>
 4    1  0.5143956E-004  0.6500000E+04  0.7818608E-02  0.7223770E-01
         52   -1    0    0    0    0  0.00000000000E+00  0.00000000000E+00  0.64930732323E+04  0.65000000000E+04  0.30000000000E+03 0.  1.
        -52   -1    0    0    0    0 -0.00000000000E+00 -0.00000000000E+00 -0.64930732323E+04  0.65000000000E+04  0.30000000000E+03 0. -1.
     100001    1    1    2    0    0  0.54093828045E+03 -0.51457451303E+03 -0.64552264559E+04  0.65000000000E+04  0.15050000000E+03 0. -1.
     100001    1    1    2    0    0 -0.54093828045E+03  0.51457451303E+03  0.64552264559E+04  0.65000000000E+04  0.15050000000E+03 0.  1.
</event>
<event>
 4    1  0.5143956E-004  0.6500000E+04  0.7818608E-02  0.7223770E-01
         52   -1    0    0    0    0  0.00000000000E+00  0.00000000000E+00  0.64930732323E+04  0.65000000000E+04  0.30000000000E+03 0. -1.
        -52   -1    0    0    0    0 -0.00000000000E+00 -0.00000000000E+00 -0.64930732323E+04  0.65000000000E+04  0.30000000000E+03 0. -1.
     100001    1    1    2    0    0  0.16374435356E+03 -0.36635808639E+02 -0.64960907748E+04  0.65000000000E+04  0.15050000000E+03 0. -1.
     100001    1    1    2    0    0 -0.16374435356E+03  0.36635808639E+02  0.64960907748E+04  0.65000000000E+04  0.15050000000E+03 0. -1.
</event>
<event>
 4    1  0.5143956E-004  0.6500000E+04  0.7818608E-02  0.7223770E-01
         52   -1    0    0    0    0  0.00000000000E+00  0.00000000000E+00  0.64930732323E+04  0.65000000000E+04  0.30000000000E+03 0.  1.
        -52   -1    0    0    0    0 -0.00000000000E+00 -0.00000000000E+00 -0.64930732323E+04  0.65000000000E+04  0.30000000000E+03 0. -1.
     100001    1    1    2    0    0  0.72646333736E+03  0.27775659521E+03 -0.64515464846E+04  0.65000000000E+04  0.15050000000E+03 0. -1.
     100001    1    1    2    0    0 -0.72646333736E+03 -0.27775659521E+03  0.64515464846E+04  0.65000000000E+04  0.15050000000E+03 0.  1.
</event>
<event>
 4    1  0.5143956E-004  0.6500000E+04  0.7818608E-02  0.7223770E-01
         52   -1    0    0    0    0  0.00000000000E+00  0.00000000000E+00  0.64930732323E+04  0.65000000000E+04  0.30000000000E+03 0. -1.
        -52   -1    0    0    0    0 -0.00000000000E+00 -0.00000000000E+00 -0.64930732323E+04  0.65000000000E+04  0.30000000000E+03 0.  1.
     100001    1    1    2    0    0  0.28887423264E+03 -0.59151751169E+02  0.64915639485E+04  0.65000000000E+04  0.15050000000E+03 0. -1.
     100001    1    1    2    0    0 -0.28887423264E+03  0.59151751169E+02 -0.64915639485E+04  0.65000000000E+04  0.15050000000E+03 0.  1.
</event>
<event>
 4    1  0.5143956E-004  0.6500000E+04  0.7818608E-02  0.7223770E-01
         52   -1    0    0    0    0  0.00000000000E+00  0.00000000000E+00  0.64930732323E+04  0.65000000000E+04  0.30000000000E+03 0.  1.
        -52   -1    0    0    0    0 -0.00000000000E+00 -0.00000000000E+00 -0.64930732323E+04  0.65000000000E+04  0.30000000000E+03 0. -1.
     100001    1    1    2    0    0 -0.42037107408E+03  0.18412269956E+04  0.62177585238E+04  0.65000000000E+04  0.15050000000E+03 0.  1.
     100001    1    1    2    0    0  0.42037107408E+03 -0.18412269956E+04 -0.62177585238E+04  0.65000000000E+04  0.15050000000E+03 0. -1.
</event>
<event>
 4    1  0.5143956E-004  0.6500000E+04  0.7818608E-02  0.7223770E-01
         52   -1    0    0    0    0  0.00000000000E+00  0.00000000000E+00  0.64930732323E+04  0.65000000000E+04  0.30000000000E+03 0. -1.
        -52   -1    0    0    0    0 -0.00000000000E+00 -0.00000000000E+00 -0.64930732323E+04  0.65000000000E+04  0.30000000000E+03 0.  1.
     100001    1    1    2    0    0  0.41855476550E+02  0.66689740417E+03 -0.64638104645E+04  0.65000000000E+04  0.15050000000E+03 0.  1.
     100001    1    1    2    0    0 -0.41855476550E+02 -0.66689740417E+03  0.64638104645E+04  0.65000000000E+04  0.15050000000E+03 0. -1.
</event>
<event>
 4    1  0.5143956E-004  0.6500000E+04  0.7818608E-02  0.7223770E-01
         52   -1    0    0    0    0  0.00000000000E+00  0.00000000000E+00  0.64930732323E+04  0.65000000000E+04  0.30000000000E+03 0.  1.
        -52   -1    0    0    0    0 -0.00000000000E+00 -0.00000000000E+00 -0.64930732323E+04  0.65000000000E+04  0.30000000000E+03 0. -1.
     100001    1    1    2    0    0  0.31830129085E+04 -0.56619828836E+04 -0.19423799776E+03  0.65000000000E+04  0.15050000000E+03 0. -1.
     100001    1    1    2    0    0 -0.31830129085E+04  0.56619828836E+04  0.19423799776E+03  0.65000000000E+04  0.15050000000E+03 0.  1.
</event>
<event>
 4    1  0.5143956E-004  0.6500000E+04  0.7818608E-02  0.7223770E-01
         52   -1    0    0    0    0  0.00000000000E+00  0.00000000000E+00  0.64930732323E+04  0.65000000000E+04  0.30000000000E+03 0.  1.
        -52   -1    0    0    0    0 -0.00000000000E+00 -0.00000000000E+00 -0.64930732323E+04  0.65000000000E+04  0.30000000000E+03 0. -1.
     100001    1    1    2    0    0  0.35222227623E+04 -0.47167056156E+04  0.27520873347E+04  0.65000000000E+04  0.15050000000E+03 0.  1.
     100001    1    1    2    0    0 -0.35222227623E+04  0.47167056156E+04 -0.27520873347E+04  0.65000000000E+04  0.15050000000E+03 0. -1.
</event>
<event>
 4    1  0.5143956E-004  0.6500000E+04  0.7818608E-02  0.7223770E-01
         52   -1    0    0    0    0  0.00000000000E+00  0.00000000000E+00  0.64930732323E+04  0.65000000000E+04  0.30000000000E+03 0.  1.
        -52   -1    0    0    0    0 -0.00000000000E+00 -0.00000000000E+00 -0.64930732323E+04  0.65000000000E+04  0.30000000000E+03 0. -1.
     100001    1    1    2    0    0  0.12530146852E+03  0.15064289891E+04 -0.63199937494E+04  0.65000000000E+04  0.15050000000E+03 0. -1.
     100001    1    1    2    0    0 -0.12530146852E+03 -0.15064289891E+04  0.63199937494E+04  0.65000000000E+04  0.15050000000E+03 0.  1.
</event>
<event>
 4    1  0.5143956E-004  0.6500000E+04  0.7818608E-02  0.7223770E-01
         52   -1    0    0    0    0  0.00000000000E+00  0.00000000000E+00  0.64930732323E+04  0.65000000000E+04  0.30000000000E+03 0.  1.
        -52   -1    0    0    0    0 -0.00000000000E+00 -0.00000000000E+00 -0.64930732323E+04  0.65000000000E+04  0.30000000000E+03 0. -1.
     100001    1    1    2    0    0 -0.23348022575E+03  0.11768951028E+04  0.63865291553E+04  0.65000000000E+04  0.15050000000E+03 0.  1.
     100001    1    1    2    0    0  0.23348022575E+03 -0.11768951028E+04 -0.63865291553E+04  0.65000000000E+04  0.15050000000E+03 0. -1.
</event>
<event>
 4    1  0.5143956E-004  0.6500000E+04  0.7818608E-02  0.7223770E-01
         52   -1    0    0    0    0  0.00000000000E+00  0.00000000000E+00  0.64930732323E+04  0.65000000000E+04  0.30000000000E+03 0. -1.
        -52   -1    0    0    0    0 -0.00000000000E+00 -0.00000000000E+00 -0.64930732323E+04  0.65000000000E+04  0.30000000000E+03 0.  1.
     100001    1    1    2    0    0  0.23871794137E+04  0.17295941794E+04  0.57911335826E+04  0.65000000000E+04  0.15050000000E+03 0. -1.
     100001    1    1    2    0    0 -0.23871794137E+04 -0.17295941794E+04 -0.57911335826E+04  0.65000000000E+04  0.15050000000E+03 0.  1.
</event>
<event>
 4    1  0.5143956E-004  0.6500000E+04  0.7818608E-02  0.7223770E-01
         52   -1    0    0    0    0  0.00000000000E+00  0.00000000000E+00  0.64930732323E+04  0.65000000000E+04  0.30000000000E+03 0.  1.
        -52   -1    0    0    0    0 -0.00000000000E+00 -0.00000000000E+00 -0.64930732323E+04  0.65000000000E+04  0.30000000000E+03 0.  1.
     100001    1    1    2    0    0  0.64759372655E+03  0.63167512146E+03 -0.64349793050E+04  0.65000000000E+04  0.15050000000E+03 0.  1.
     100001    1    1    2    0    0 -0.64759372655E+03 -0.63167512146E+03  0.64349793050E+04  0.65000000000E+04  0.15050000000E+03 0.  1.
</event>
<event>
 4    1  0.5143956E-004  0.6500000E+04  0.7818608E-02  0.7223770E-01
         52   -1    0    0    0    0  0.00000000000E+00  0.00000000000E+00  0.64930732323E+04  0.65000000000E+04  0.30000000000E+03 0. -1.
        -52   -1    0    0    0    0 -0.00000000000E+00 -0.00000000000E+00 -0.64930732323E+04  0.65000000000E+04  0.30000000000E+03 0.  1.
     100001    1    1    2    0    0 -0.58840774997E+03 -0.29546060927E+04  0.57577277555E+04  0.65000000000E+04  0.15050000000E+03 0. -1.
     100001    1    1    2    0    0  0.58840774997E+03  0.29546060927E+04 -0.57577277555E+04  0.65000000000E+04  0.15050000000E+03 0.  1.
</event>
<event>
 4    1  0.5143956E-004  0.6500000E+04  0.7818608E-02  0.7223770E-01
         52   -1    0    0    0    0  0.00000000000E+00  0.00000000000E+00  0.64930732323E+04  0.65000000000E+04  0.30000000000E+03 0. -1.
        -52   -1    0    0    0    0 -0.00000000000E+00 -0.00000000000E+00 -0.64930732323E+04  0.65000000000E+04  0.30000000000E+03 0.  1.
     100001    1    1    2    0    0  0.30033885459E+03  0.76558076851E+03 -0.64460090296E+04  0.65000000000E+04  0.15050000000E+03 0.  1.
     100001    1    1    2    0    0 -0.30033885459E+03 -0.76558076851E+03  0.64460090296E+04  0.65000000000E+04  0.15050000000E+03 0. -1.
</event>
<event>
 4    1  0.5143956E-004  0.6500000E+04  0.7818608E-02  0.7223770E-01
         52   -1    0    0    0    0  0.00000000000E+00  0.00000000000E+00  0.64930732323E+04  0.65000000000E+04  0.30000000000E+03 0.  1.
        -52   -1    0    0    0    0 -0.00000000000E+00 -0.00000000000E+00 -0.64930732323E+04  0.65000000000E+04  0.30000000000E+03 0. -1.
     100001    1    1    2    0    0  0.16242104589E+03 -0.84392085119E+02  0.64956791123E+04  0.65000000000E+04  0.15050000000E+03 0.  1.
     100001    1    1    2    0    0 -0.16242104589E+03  0.84392085119E+02 -0.64956791123E+04  0.65000000000E+04  0.15050000000E+03 0. -1.
</event>
<event>
 4    1  0.5143956E-004  0.6500000E+04  0.7818608E-02  0.7223770E-01
         52   -1    0    0    0    0  0.00000000000E+00  0.00000000000E+00  0.64930732323E+04  0.65000000000E+04  0.30000000000E+03 0.  1.
        -52   -1    0    0    0    0 -0.00000000000E+00 -0.00000000000E+00 -0.64930732323E+04  0.65000000000E+04  0.30000000000E+03 0. -1.
     100001    1    1    2    0    0 -0.25341307817E+04  0.90409067393E+03 -0.59150782738E+04  0.65000000000E+04  0.15050000000E+03 0. -1.
     100001    1    1    2    0    0  0.25341307817E+04 -0.90409067393E+03  0.59150782738E+04  0.65000000000E+04  0.15050000000E+03 0.  1.
</event>
<event>
 4    1  0.5143956E-004  0.6500000E+04  0.7818608E-02  0.7223770E-01
         52   -1    0    0    0    0  0.00000000000E+00  0.00000000000E+00  0.64930732323E+04  0.65000000000E+04  0.30000000000E+03 0. -1.
        -52   -1    0    0    0    0 -0.00000000000E+00 -0.00000000000E+00 -0.64930732323E+04  0.65000000000E+04  0.30000000000E+03 0.  1.
     100001    1    1    2    0    0 -0.28999013057E+03  0.30176289471E+04 -0.57477970573E+04  0.65000000000E+04  0.15050000000E+03 0.  1.
     100001    1    1    2    0    0  0.28999013057E+03 -0.30176289471E+04  0.57477970573E+04  0.65000000000E+04  0.15050000000E+03 0. -1.
</event>
<event>
 4    1  0.5143956E-004  0.6500000E+04  0.7818608E-02  0.7223770E-01
         52   -1    0    0    0    0  0.00000000000E+00  0.00000000000E+00  0.64930732323E+04  0.65000000000E+04  0.30000000000E+03 0.  1.
        -52   -1    0    0    0    0 -0.00000000000E+00 -0.00000000000E+00 -0.64930732323E+04  0.65000000000E+04  0.30000000000E+03 0. -1.
     100001    1    1    2    0    0  0.26119487715E+04 -0.10255560039E+04  0.58611695290E+04  0.65000000000E+04  0.15050000000E+03 0.  1.
     100001    1    1    2    0    0 -0.26119487715E+04  0.10255560039E+04 -0.58611695290E+04  0.65000000000E+04  0.15050000000E+03 0. -1.
</event>
<event>
 4    1  0.5143956E-004  0.6500000E+04  0.7818608E-02  0.7223770E-01
         52   -1    0    0    0    0  0.00000000000E+00  0.00000000000E+00  0.64930732323E+04  0.65000000000E+04  0.30000000000E+03 0. -1.
        -52   -1    0    0    0    0 -0.00000000000E+00 -0.00000000000E+00 -0.64930732323E+04  0.65000000000E+04  0.30000000000E+03 0.  1.
     100001    1    1    2    0    0  0.17399946024E+03  0.26470604303E+03 -0.64905319234E+04  0.65000000000E+04  0.15050000000E+03 0.  1.
     100001    1    1    2    0    0 -0.17399946024E+03 -0.26470604303E+03  0.64905319234E+04  0.65000000000E+04  0.15050000000E+03 0. -1.
</event>
<event>
 4    1  0.5143956E-004  0.6500000E+04  0.7818608E-02  0.7223770E-01
         52   -1    0    0    0    0  0.00000000000E+00  0.00000000000E+00  0.64930732323E+04  0.65000000000E+04  0.30000000000E+03 0. -1.
        -52   -1    0    0    0    0 -0.00000000000E+00 -0.00000000000E+00 -0.64930732323E+04  0.65000000000E+04  0.30000000000E+03 0.  1.
     100001    1    1    2    0    0 -0.15132363637E+04  0.66198118970E+03  0.62848425885E+04  0.65000000000E+04  0.15050000000E+03 0. -1.
     100001    1    1    2    0    0  0.15132363637E+04 -0.66198118970E+03 -0.62848425885E+04  0.65000000000E+04  0.15050000000E+03 0.  1.
</event>
<event>
 4    1  0.5143956E-004  0.6500000E+04  0.7818608E-02  0.7223770E-01
         52   -1    0    0    0    0  0.00000000000E+00  0.00000000000E+00  0.64930732323E+04  0.65000000000E+04  0.30000000000E+03 0. -1.
        -52   -1    0    0    0    0 -0.00000000000E+00 -0.00000000000E+00 -0.64930732323E+04  0.65000000000E+04  0.30000000000E+03 0.  1.
     100001    1    1    2    0    0 -0.46131936756E+04  0.30519522369E+04 -0.34104811104E+04  0.65000000000E+04  0.15050000000E+03 0.  1.
     100001    1    1    2    0    0  0.46131936756E+04 -0.30519522369E+04  0.34104811104E+04  0.65000000000E+04  0.15050000000E+03 0. -1.
</event>
<event>
 4    1  0.5143956E-004  0.6500000E+04  0.7818608E-02  0.7223770E-01
         52   -1    0    0    0    0  0.00000000000E+00  0.00000000000E+00  0.64930732323E+04  0.65000000000E+04  0.30000000000E+03 0.  1.
        -52   -1    0    0    0    0 -0.00000000000E+00 -0.00000000000E+00 -0.64930732323E+04  0.65000000000E+04  0.30000000000E+03 0. -1.
     100001    1    1    2    0    0 -0.11464170582E+04 -0.25704975647E+01 -0.63963326267E+04  0.65000000000E+04  0.15050000000E+03 0. -1.
     100001    1    1    2    0    0  0.11464170582E+04  0.25704975647E+01  0.63963326267E+04  0.65000000000E+04  0.15050000000E+03 0.  1.
</event>
<event>
 4    1  0.5143956E-004  0.6500000E+04  0.7818608E-02  0.7223770E-01
         52   -1    0    0    0    0  0.00000000000E+00  0.00000000000E+00  0.64930732323E+04  0.65000000000E+04  0.30000000000E+03 0. -1.
        -52   -1    0    0    0    0 -0.00000000000E+00 -0.00000000000E+00 -0.64930732323E+04  0.65000000000E+04  0.30000000000E+03 0. -1.
     100001    1    1    2    0    0 -0.12104424303E+03 -0.37501414208E+03  0.64862980532E+04  0.65000000000E+04  0.15050000000E+03 0. -1.
     100001    1    1    2    0    0  0.12104424303E+03  0.37501414208E+03 -0.64862980532E+04  0.65000000000E+04  0.15050000000E+03 0. -1.
</event>
<event>
 4    1  0.5143956E-004  0.6500000E+04  0.7818608E-02  0.7223770E-01
         52   -1    0    0    0    0  0.00000000000E+00  0.00000000000E+00  0.64930732323E+04  0.65000000000E+04  0.30000000000E+03 0.  1.
        -52   -1    0    0    0    0 -0.00000000000E+00 -0.00000000000E+00 -0.64930732323E+04  0.65000000000E+04  0.30000000000E+03 0. -1.
     100001    1    1    2    0    0  0.46830744745E+03  0.13044757332E+04 -0.63487306563E+04  0.65000000000E+04  0.15050000000E+03 0. -1.
     100001    1    1    2    0    0 -0.46830744745E+03 -0.13044757332E+04  0.63487306563E+04  0.65000000000E+04  0.15050000000E+03 0.  1.
</event>
<event>
 4    1  0.5143956E-004  0.6500000E+04  0.7818608E-02  0.7223770E-01
         52   -1    0    0    0    0  0.00000000000E+00  0.00000000000E+00  0.64930732323E+04  0.65000000000E+04  0.30000000000E+03 0. -1.
        -52   -1    0    0    0    0 -0.00000000000E+00 -0.00000000000E+00 -0.64930732323E+04  0.65000000000E+04  0.30000000000E+03 0.  1.
     100001    1    1    2    0    0 -0.14304390335E+04 -0.54943481987E+02  0.63386256503E+04  0.65000000000E+04  0.15050000000E+03 0. -1.
     100001    1    1    2    0    0  0.14304390335E+04  0.54943481987E+02 -0.63386256503E+04  0.65000000000E+04  0.15050000000E+03 0.  1.
</event>
<event>
 4    1  0.5143956E-004  0.6500000E+04  0.7818608E-02  0.7223770E-01
         52   -1    0    0    0    0  0.00000000000E+00  0.00000000000E+00  0.64930732323E+04  0.65000000000E+04  0.30000000000E+03 0.  1.
        -52   -1    0    0    0    0 -0.00000000000E+00 -0.00000000000E+00 -0.64930732323E+04  0.65000000000E+04  0.30000000000E+03 0. -1.
     100001    1    1    2    0    0 -0.20979452974E+03  0.42347650137E+03  0.64810495800E+04  0.65000000000E+04  0.15050000000E+03 0.  1.
     100001    1    1    2    0    0  0.20979452974E+03 -0.42347650137E+03 -0.64810495800E+04  0.65000000000E+04  0.15050000000E+03 0. -1.
</event>
<event>
 4    1  0.5143956E-004  0.6500000E+04  0.7818608E-02  0.7223770E-01
         52   -1    0    0    0    0  0.00000000000E+00  0.00000000000E+00  0.64930732323E+04  0.65000000000E+04  0.30000000000E+03 0. -1.
        -52   -1    0    0    0    0 -0.00000000000E+00 -0.00000000000E+00 -0.64930732323E+04  0.65000000000E+04  0.30000000000E+03 0.  1.
     100001    1    1    2    0    0 -0.11699691761E+03  0.23176846153E+03 -0.64930689856E+04  0.65000000000E+04  0.15050000000E+03 0.  1.
     100001    1    1    2    0    0  0.11699691761E+03 -0.23176846153E+03  0.64930689856E+04  0.65000000000E+04  0.15050000000E+03 0. -1.
</event>
<event>
 4    1  0.5143956E-004  0.6500000E+04  0.7818608E-02  0.7223770E-01
         52   -1    0    0    0    0  0.00000000000E+00  0.00000000000E+00  0.64930732323E+04  0.65000000000E+04  0.30000000000E+03 0.  1.
        -52   -1    0    0    0    0 -0.00000000000E+00 -0.00000000000E+00 -0.64930732323E+04  0.65000000000E+04  0.30000000000E+03 0. -1.
     100001    1    1    2    0    0  0.89949877788E+03 -0.64297117314E+04 -0.27759457906E+03  0.65000000000E+04  0.15050000000E+03 0.  1.
     100001    1    1    2    0    0 -0.89949877788E+03  0.64297117314E+04  0.27759457906E+03  0.65000000000E+04  0.15050000000E+03 0. -1.
</event>
<event>
 4    1  0.5143956E-004  0.6500000E+04  0.7818608E-02  0.7223770E-01
         52   -1    0    0    0    0  0.00000000000E+00  0.00000000000E+00  0.64930732323E+04  0.65000000000E+04  0.30000000000E+03 0.  1.
        -52   -1    0    0    0    0 -0.00000000000E+00 -0.00000000000E+00 -0.64930732323E+04  0.65000000000E+04  0.30000000000E+03 0. -1.
     100001    1    1    2    0    0 -0.12437257749E+04 -0.21852179010E+04 -0.59921046947E+04  0.65000000000E+04  0.15050000000E+03 0. -1.
     100001    1    1    2    0    0  0.12437257749E+04  0.21852179010E+04  0.59921046947E+04  0.65000000000E+04  0.15050000000E+03 0.  1.
</event>
<event>
 4    1  0.5143956E-004  0.6500000E+04  0.7818608E-02  0.7223770E-01
         52   -1    0    0    0    0  0.00000000000E+00  0.00000000000E+00  0.64930732323E+04  0.65000000000E+04  0.30000000000E+03 0.  1.
        -52   -1    0    0    0    0 -0.00000000000E+00 -0.00000000000E+00 -0.64930732323E+04  0.65000000000E+04  0.30000000000E+03 0. -1.
     100001    1    1    2    0    0  0.26013262476E+03  0.11526052855E+03 -0.64920255528E+04  0.65000000000E+04  0.15050000000E+03 0. -1.
     100001    1    1    2    0    0 -0.26013262476E+03 -0.11526052855E+03  0.64920255528E+04  0.65000000000E+04  0.15050000000E+03 0.  1.
</event>
<event>
 4    1  0.6030870E-004  0.6500000E+04  0.7818608E-02  0.7223770E-01
         52   -1    0    0    0    0  0.00000000000E+00  0.00000000000E+00  0.64930732323E+04  0.65000000000E+04  0.30000000000E+03 0.  1.
        -52   -1    0    0    0    0 -0.00000000000E+00 -0.00000000000E+00 -0.64930732323E+04  0.65000000000E+04  0.30000000000E+03 0. -1.
     100001    1    1    2    0    0 -0.21518358375E+03 -0.70040953304E+02  0.64943159794E+04  0.65000000000E+04  0.15050000000E+03 0.  1.
     100001    1    1    2    0    0  0.21518358375E+03  0.70040953304E+02 -0.64943159794E+04  0.65000000000E+04  0.15050000000E+03 0. -1.
</event>
<event>
 4    1  0.5143956E-004  0.6500000E+04  0.7818608E-02  0.7223770E-01
         52   -1    0    0    0    0  0.00000000000E+00  0.00000000000E+00  0.64930732323E+04  0.65000000000E+04  0.30000000000E+03 0. -1.
        -52   -1    0    0    0    0 -0.00000000000E+00 -0.00000000000E+00 -0.64930732323E+04  0.65000000000E+04  0.30000000000E+03 0.  1.
     100001    1    1    2    0    0  0.23161141634E+04  0.72406520505E+03 -0.60281584676E+04  0.65000000000E+04  0.15050000000E+03 0.  1.
     100001    1    1    2    0    0 -0.23161141634E+04 -0.72406520505E+03  0.60281584676E+04  0.65000000000E+04  0.15050000000E+03 0. -1.
</event>
<event>
 4    1  0.5143956E-004  0.6500000E+04  0.7818608E-02  0.7223770E-01
         52   -1    0    0    0    0  0.00000000000E+00  0.00000000000E+00  0.64930732323E+04  0.65000000000E+04  0.30000000000E+03 0. -1.
        -52   -1    0    0    0    0 -0.00000000000E+00 -0.00000000000E+00 -0.64930732323E+04  0.65000000000E+04  0.30000000000E+03 0.  1.
     100001    1    1    2    0    0  0.36529047618E+03  0.25682102826E+04  0.59580373079E+04  0.65000000000E+04  0.15050000000E+03 0. -1.
     100001    1    1    2    0    0 -0.36529047618E+03 -0.25682102826E+04 -0.59580373079E+04  0.65000000000E+04  0.15050000000E+03 0.  1.
</event>
<event>
 4    1  0.5143956E-004  0.6500000E+04  0.7818608E-02  0.7223770E-01
         52   -1    0    0    0    0  0.00000000000E+00  0.00000000000E+00  0.64930732323E+04  0.65000000000E+04  0.30000000000E+03 0. -1.
        -52   -1    0    0    0    0 -0.00000000000E+00 -0.00000000000E+00 -0.64930732323E+04  0.65000000000E+04  0.30000000000E+03 0.  1.
     100001    1    1    2    0    0 -0.13826723129E+04  0.14888602467E+03  0.63477082460E+04  0.65000000000E+04  0.15050000000E+03 0. -1.
     100001    1    1    2    0    0  0.13826723129E+04 -0.14888602467E+03 -0.63477082460E+04  0.65000000000E+04  0.15050000000E+03 0.  1.
</event>
<event>
 4    1  0.5143956E-004  0.6500000E+04  0.7818608E-02  0.7223770E-01
         52   -1    0    0    0    0  0.00000000000E+00  0.00000000000E+00  0.64930732323E+04  0.65000000000E+04  0.30000000000E+03 0.  1.
        -52   -1    0    0    0    0 -0.00000000000E+00 -0.00000000000E+00 -0.64930732323E+04  0.65000000000E+04  0.30000000000E+03 0. -1.
     100001    1    1    2    0    0  0.70894400640E+03 -0.66740296321E+03 -0.64248985541E+04  0.65000000000E+04  0.15050000000E+03 0. -1.
     100001    1    1    2    0    0 -0.70894400640E+03  0.66740296321E+03  0.64248985541E+04  0.65000000000E+04  0.15050000000E+03 0.  1.
</event>
<event>
 4    1  0.5143956E-004  0.6500000E+04  0.7818608E-02  0.7223770E-01
         52   -1    0    0    0    0  0.00000000000E+00  0.00000000000E+00  0.64930732323E+04  0.65000000000E+04  0.30000000000E+03 0.  1.
        -52   -1    0    0    0    0 -0.00000000000E+00 -0.00000000000E+00 -0.64930732323E+04  0.65000000000E+04  0.30000000000E+03 0. -1.
     100001    1    1    2    0    0  0.42054263394E+03 -0.38185358079E+03  0.64733825382E+04  0.65000000000E+04  0.15050000000E+03 0.  1.
     100001    1    1    2    0    0 -0.42054263394E+03  0.38185358079E+03 -0.64733825382E+04  0.65000000000E+04  0.15050000000E+03 0. -1.
</event>
<event>
 4    1  0.5143956E-004  0.6500000E+04  0.7818608E-02  0.7223770E-01
         52   -1    0    0    0    0  0.00000000000E+00  0.00000000000E+00  0.64930732323E+04  0.65000000000E+04  0.30000000000E+03 0. -1.
        -52   -1    0    0    0    0 -0.00000000000E+00 -0.00000000000E+00 -0.64930732323E+04  0.65000000000E+04  0.30000000000E+03 0.  1.
     100001    1    1    2    0    0  0.20935306821E+04  0.24277853243E+04  0.56524629545E+04  0.65000000000E+04  0.15050000000E+03 0. -1.
     100001    1    1    2    0    0 -0.20935306821E+04 -0.24277853243E+04 -0.56524629545E+04  0.65000000000E+04  0.15050000000E+03 0.  1.
</event>
<event>
 4    1  0.5143956E-004  0.6500000E+04  0.7818608E-02  0.7223770E-01
         52   -1    0    0    0    0  0.00000000000E+00  0.00000000000E+00  0.64930732323E+04  0.65000000000E+04  0.30000000000E+03 0.  1.
        -52   -1    0    0    0    0 -0.00000000000E+00 -0.00000000000E+00 -0.64930732323E+04  0.65000000000E+04  0.30000000000E+03 0. -1.
     100001    1    1    2    0    0  0.13603470604E+04  0.25222466451E+04 -0.58322446354E+04  0.65000000000E+04  0.15050000000E+03 0. -1.
     100001    1    1    2    0    0 -0.13603470604E+04 -0.25222466451E+04  0.58322446354E+04  0.65000000000E+04  0.15050000000E+03 0.  1.
</event>
<event>
 4    1  0.5143956E-004  0.6500000E+04  0.7818608E-02  0.7223770E-01
         52   -1    0    0    0    0  0.00000000000E+00  0.00000000000E+00  0.64930732323E+04  0.65000000000E+04  0.30000000000E+03 0.  1.
        -52   -1    0    0    0    0 -0.00000000000E+00 -0.00000000000E+00 -0.64930732323E+04  0.65000000000E+04  0.30000000000E+03 0. -1.
     100001    1    1    2    0    0  0.89934420997E+03 -0.21809921763E+04  0.60548990800E+04  0.65000000000E+04  0.15050000000E+03 0.  1.
     100001    1    1    2    0    0 -0.89934420997E+03  0.21809921763E+04 -0.60548990800E+04  0.65000000000E+04  0.15050000000E+03 0. -1.
</event>
<event>
 4    1  0.5143956E-004  0.6500000E+04  0.7818608E-02  0.7223770E-01
         52   -1    0    0    0    0  0.00000000000E+00  0.00000000000E+00  0.64930732323E+04  0.65000000000E+04  0.30000000000E+03 0. -1.
        -52   -1    0    0    0    0 -0.00000000000E+00 -0.00000000000E+00 -0.64930732323E+04  0.65000000000E+04  0.30000000000E+03 0.  1.
     100001    1    1    2    0    0 -0.11497488789E+04 -0.17763847044E+04  0.61440934765E+04  0.65000000000E+04  0.15050000000E+03 0. -1.
     100001    1    1    2    0    0  0.11497488789E+04  0.17763847044E+04 -0.61440934765E+04  0.65000000000E+04  0.15050000000E+03 0.  1.
</event>
<event>
 4    1  0.5143956E-004  0.6500000E+04  0.7818608E-02  0.7223770E-01
         52   -1    0    0    0    0  0.00000000000E+00  0.00000000000E+00  0.64930732323E+04  0.65000000000E+04  0.30000000000E+03 0. -1.
        -52   -1    0    0    0    0 -0.00000000000E+00 -0.00000000000E+00 -0.64930732323E+04  0.65000000000E+04  0.30000000000E+03 0. -1.
     100001    1    1    2    0    0  0.72499650937E+02  0.16569652285E+03  0.64957400050E+04  0.65000000000E+04  0.15050000000E+03 0. -1.
     100001    1    1    2    0    0 -0.72499650937E+02 -0.16569652285E+03 -0.64957400050E+04  0.65000000000E+04  0.15050000000E+03 0. -1.
</event>
<event>
 4    1  0.5143956E-004  0.6500000E+04  0.7818608E-02  0.7223770E-01
         52   -1    0    0    0    0  0.00000000000E+00  0.00000000000E+00  0.64930732323E+04  0.65000000000E+04  0.30000000000E+03 0.  1.
        -52   -1    0    0    0    0 -0.00000000000E+00 -0.00000000000E+00 -0.64930732323E+04  0.65000000000E+04  0.30000000000E+03 0. -1.
     100001    1    1    2    0    0 -0.48911190635E+04  0.10711869852E+04 -0.41420843182E+04  0.65000000000E+04  0.15050000000E+03 0. -1.
     100001    1    1    2    0    0  0.48911190635E+04 -0.10711869852E+04  0.41420843182E+04  0.65000000000E+04  0.15050000000E+03 0.  1.
</event>
<event>
 4    1  0.5143956E-004  0.6500000E+04  0.7818608E-02  0.7223770E-01
         52   -1    0    0    0    0  0.00000000000E+00  0.00000000000E+00  0.64930732323E+04  0.65000000000E+04  0.30000000000E+03 0.  1.
        -52   -1    0    0    0    0 -0.00000000000E+00 -0.00000000000E+00 -0.64930732323E+04  0.65000000000E+04  0.30000000000E+03 0. -1.
     100001    1    1    2    0    0  0.62880915303E+03  0.93576321424E+03 -0.63997106189E+04  0.65000000000E+04  0.15050000000E+03 0. -1.
     100001    1    1    2    0    0 -0.62880915303E+03 -0.93576321424E+03  0.63997106189E+04  0.65000000000E+04  0.15050000000E+03 0.  1.
</event>
<event>
 4    1  0.7244147E-004  0.6500000E+04  0.7818608E-02  0.7223770E-01
         52   -1    0    0    0    0  0.00000000000E+00  0.00000000000E+00  0.64930732323E+04  0.65000000000E+04  0.30000000000E+03 0. -1.
        -52   -1    0    0    0    0 -0.00000000000E+00 -0.00000000000E+00 -0.64930732323E+04  0.65000000000E+04  0.30000000000E+03 0. -1.
     100001    1    1    2    0    0  0.26610417506E+02  0.15115933425E+03 -0.64964446039E+04  0.65000000000E+04  0.15050000000E+03 0. -1.
     100001    1    1    2    0    0 -0.26610417506E+02 -0.15115933425E+03  0.64964446039E+04  0.65000000000E+04  0.15050000000E+03 0. -1.
</event>
<event>
 4    1  0.5143956E-004  0.6500000E+04  0.7818608E-02  0.7223770E-01
         52   -1    0    0    0    0  0.00000000000E+00  0.00000000000E+00  0.64930732323E+04  0.65000000000E+04  0.30000000000E+03 0.  1.
        -52   -1    0    0    0    0 -0.00000000000E+00 -0.00000000000E+00 -0.64930732323E+04  0.65000000000E+04  0.30000000000E+03 0. -1.
     100001    1    1    2    0    0 -0.14098389534E+04 -0.19854908666E+04 -0.60247431393E+04  0.65000000000E+04  0.15050000000E+03 0. -1.
     100001    1    1    2    0    0  0.14098389534E+04  0.19854908666E+04  0.60247431393E+04  0.65000000000E+04  0.15050000000E+03 0.  1.
</event>
<event>
 4    1  0.5143956E-004  0.6500000E+04  0.7818608E-02  0.7223770E-01
         52   -1    0    0    0    0  0.00000000000E+00  0.00000000000E+00  0.64930732323E+04  0.65000000000E+04  0.30000000000E+03 0. -1.
        -52   -1    0    0    0    0 -0.00000000000E+00 -0.00000000000E+00 -0.64930732323E+04  0.65000000000E+04  0.30000000000E+03 0.  1.
     100001    1    1    2    0    0 -0.40951899810E+03 -0.79293401825E+03  0.64366838965E+04  0.65000000000E+04  0.15050000000E+03 0. -1.
     100001    1    1    2    0    0  0.40951899810E+03  0.79293401825E+03 -0.64366838965E+04  0.65000000000E+04  0.15050000000E+03 0.  1.
</event>
<event>
 4    1  0.8097116E-004  0.6500000E+04  0.7818608E-02  0.7223770E-01
         52   -1    0    0    0    0  0.00000000000E+00  0.00000000000E+00  0.64930732323E+04  0.65000000000E+04  0.30000000000E+03 0.  1.
        -52   -1    0    0    0    0 -0.00000000000E+00 -0.00000000000E+00 -0.64930732323E+04  0.65000000000E+04  0.30000000000E+03 0.  1.
     100001    1    1    2    0    0  0.12920022155E+03 -0.42091056092E+02 -0.64968365683E+04  0.65000000000E+04  0.15050000000E+03 0.  1.
     100001    1    1    2    0    0 -0.12920022155E+03  0.42091056092E+02  0.64968365683E+04  0.65000000000E+04  0.15050000000E+03 0.  1.
</event>
<event>
 4    1  0.5143956E-004  0.6500000E+04  0.7818608E-02  0.7223770E-01
         52   -1    0    0    0    0  0.00000000000E+00  0.00000000000E+00  0.64930732323E+04  0.65000000000E+04  0.30000000000E+03 0. -1.
        -52   -1    0    0    0    0 -0.00000000000E+00 -0.00000000000E+00 -0.64930732323E+04  0.65000000000E+04  0.30000000000E+03 0. -1.
     100001    1    1    2    0    0 -0.29337754545E+03 -0.31187995051E+03  0.64841352748E+04  0.65000000000E+04  0.15050000000E+03 0. -1.
     100001    1    1    2    0    0  0.29337754545E+03  0.31187995051E+03 -0.64841352748E+04  0.65000000000E+04  0.15050000000E+03 0. -1.
</event>
<event>
 4    1  0.5143956E-004  0.6500000E+04  0.7818608E-02  0.7223770E-01
         52   -1    0    0    0    0  0.00000000000E+00  0.00000000000E+00  0.64930732323E+04  0.65000000000E+04  0.30000000000E+03 0.  1.
        -52   -1    0    0    0    0 -0.00000000000E+00 -0.00000000000E+00 -0.64930732323E+04  0.65000000000E+04  0.30000000000E+03 0.  1.
     100001    1    1    2    0    0 -0.51125876234E+02  0.33603652085E+03 -0.64893617060E+04  0.65000000000E+04  0.15050000000E+03 0.  1.
     100001    1    1    2    0    0  0.51125876234E+02 -0.33603652085E+03  0.64893617060E+04  0.65000000000E+04  0.15050000000E+03 0.  1.
</event>
<event>
 4    1  0.5143956E-004  0.6500000E+04  0.7818608E-02  0.7223770E-01
         52   -1    0    0    0    0  0.00000000000E+00  0.00000000000E+00  0.64930732323E+04  0.65000000000E+04  0.30000000000E+03 0.  1.
        -52   -1    0    0    0    0 -0.00000000000E+00 -0.00000000000E+00 -0.64930732323E+04  0.65000000000E+04  0.30000000000E+03 0. -1.
     100001    1    1    2    0    0 -0.36571600906E+04  0.51041897381E+04 -0.16732533996E+04  0.65000000000E+04  0.15050000000E+03 0.  1.
     100001    1    1    2    0    0  0.36571600906E+04 -0.51041897381E+04  0.16732533996E+04  0.65000000000E+04  0.15050000000E+03 0. -1.
</event>
<event>
 4    1  0.6921011E-004  0.6500000E+04  0.7818608E-02  0.7223770E-01
         52   -1    0    0    0    0  0.00000000000E+00  0.00000000000E+00  0.64930732323E+04  0.65000000000E+04  0.30000000000E+03 0.  1.
        -52   -1    0    0    0    0 -0.00000000000E+00 -0.00000000000E+00 -0.64930732323E+04  0.65000000000E+04  0.30000000000E+03 0.  1.
     100001    1    1    2    0    0  0.76503721318E+02  0.85778747832E+02 -0.64972408711E+04  0.65000000000E+04  0.15050000000E+03 0.  1.
     100001    1    1    2    0    0 -0.76503721318E+02 -0.85778747832E+02  0.64972408711E+04  0.65000000000E+04  0.15050000000E+03 0.  1.
</event>
<event>
 4    1  0.5143956E-004  0.6500000E+04  0.7818608E-02  0.7223770E-01
         52   -1    0    0    0    0  0.00000000000E+00  0.00000000000E+00  0.64930732323E+04  0.65000000000E+04  0.30000000000E+03 0. -1.
        -52   -1    0    0    0    0 -0.00000000000E+00 -0.00000000000E+00 -0.64930732323E+04  0.65000000000E+04  0.30000000000E+03 0.  1.
     100001    1    1    2    0    0  0.25764628786E+04 -0.34578567773E+04  0.48613182670E+04  0.65000000000E+04  0.15050000000E+03 0. -1.
     100001    1    1    2    0    0 -0.25764628786E+04  0.34578567773E+04 -0.48613182670E+04  0.65000000000E+04  0.15050000000E+03 0.  1.
</event>
<event>
 4    1  0.5143956E-004  0.6500000E+04  0.7818608E-02  0.7223770E-01
         52   -1    0    0    0    0  0.00000000000E+00  0.00000000000E+00  0.64930732323E+04  0.65000000000E+04  0.30000000000E+03 0. -1.
        -52   -1    0    0    0    0 -0.00000000000E+00 -0.00000000000E+00 -0.64930732323E+04  0.65000000000E+04  0.30000000000E+03 0.  1.
     100001    1    1    2    0    0  0.54176853367E+04  0.23825788695E+04  0.26831610598E+04  0.65000000000E+04  0.15050000000E+03 0. -1.
     100001    1    1    2    0    0 -0.54176853367E+04 -0.23825788695E+04 -0.26831610598E+04  0.65000000000E+04  0.15050000000E+03 0.  1.
</event>
<event>
 4    1  0.5143956E-004  0.6500000E+04  0.7818608E-02  0.7223770E-01
         52   -1    0    0    0    0  0.00000000000E+00  0.00000000000E+00  0.64930732323E+04  0.65000000000E+04  0.30000000000E+03 0. -1.
        -52   -1    0    0    0    0 -0.00000000000E+00 -0.00000000000E+00 -0.64930732323E+04  0.65000000000E+04  0.30000000000E+03 0.  1.
     100001    1    1    2    0    0  0.94601775666E+03  0.71210068442E+03  0.63894688957E+04  0.65000000000E+04  0.15050000000E+03 0. -1.
     100001    1    1    2    0    0 -0.94601775666E+03 -0.71210068442E+03 -0.63894688957E+04  0.65000000000E+04  0.15050000000E+03 0.  1.
</event>
<event>
 4    1  0.5143956E-004  0.6500000E+04  0.7818608E-02  0.7223770E-01
         52   -1    0    0    0    0  0.00000000000E+00  0.00000000000E+00  0.64930732323E+04  0.65000000000E+04  0.30000000000E+03 0. -1.
        -52   -1    0    0    0    0 -0.00000000000E+00 -0.00000000000E+00 -0.64930732323E+04  0.65000000000E+04  0.30000000000E+03 0.  1.
     100001    1    1    2    0    0 -0.97193063877E+02  0.35095196041E+03 -0.64880456210E+04  0.65000000000E+04  0.15050000000E+03 0.  1.
     100001    1    1    2    0    0  0.97193063877E+02 -0.35095196041E+03  0.64880456210E+04  0.65000000000E+04  0.15050000000E+03 0. -1.
</event>
<event>
 4    1  0.5143956E-004  0.6500000E+04  0.7818608E-02  0.7223770E-01
         52   -1    0    0    0    0  0.00000000000E+00  0.00000000000E+00  0.64930732323E+04  0.65000000000E+04  0.30000000000E+03 0. -1.
        -52   -1    0    0    0    0 -0.00000000000E+00 -0.00000000000E+00 -0.64930732323E+04  0.65000000000E+04  0.30000000000E+03 0.  1.
     100001    1    1    2    0    0 -0.27037807650E+03  0.13833356444E+04  0.63435501055E+04  0.65000000000E+04  0.15050000000E+03 0. -1.
     100001    1    1    2    0    0  0.27037807650E+03 -0.13833356444E+04 -0.63435501055E+04  0.65000000000E+04  0.15050000000E+03 0.  1.
</event>
<event>
 4    1  0.5143956E-004  0.6500000E+04  0.7818608E-02  0.7223770E-01
         52   -1    0    0    0    0  0.00000000000E+00  0.00000000000E+00  0.64930732323E+04  0.65000000000E+04  0.30000000000E+03 0. -1.
        -52   -1    0    0    0    0 -0.00000000000E+00 -0.00000000000E+00 -0.64930732323E+04  0.65000000000E+04  0.30000000000E+03 0.  1.
     100001    1    1    2    0    0  0.21718919649E+03  0.59371199761E+03  0.64674326179E+04  0.65000000000E+04  0.15050000000E+03 0. -1.
     100001    1    1    2    0    0 -0.21718919649E+03 -0.59371199761E+03 -0.64674326179E+04  0.65000000000E+04  0.15050000000E+03 0.  1.
</event>
<event>
 4    1  0.5143956E-004  0.6500000E+04  0.7818608E-02  0.7223770E-01
         52   -1    0    0    0    0  0.00000000000E+00  0.00000000000E+00  0.64930732323E+04  0.65000000000E+04  0.30000000000E+03 0. -1.
        -52   -1    0    0    0    0 -0.00000000000E+00 -0.00000000000E+00 -0.64930732323E+04  0.65000000000E+04  0.30000000000E+03 0.  1.
     100001    1    1    2    0    0 -0.48603991277E+04 -0.46056069839E+03 -0.42885608206E+04  0.65000000000E+04  0.15050000000E+03 0.  1.
     100001    1    1    2    0    0  0.48603991277E+04  0.46056069839E+03  0.42885608206E+04  0.65000000000E+04  0.15050000000E+03 0. -1.
</event>
<event>
 4    1  0.5143956E-004  0.6500000E+04  0.7818608E-02  0.7223770E-01
         52   -1    0    0    0    0  0.00000000000E+00  0.00000000000E+00  0.64930732323E+04  0.65000000000E+04  0.30000000000E+03 0.  1.
        -52   -1    0    0    0    0 -0.00000000000E+00 -0.00000000000E+00 -0.64930732323E+04  0.65000000000E+04  0.30000000000E+03 0. -1.
     100001    1    1    2    0    0  0.30250630397E+04 -0.26510514805E+04  0.51037505233E+04  0.65000000000E+04  0.15050000000E+03 0.  1.
     100001    1    1    2    0    0 -0.30250630397E+04  0.26510514805E+04 -0.51037505233E+04  0.65000000000E+04  0.15050000000E+03 0. -1.
</event>
<event>
 4    1  0.5143956E-004  0.6500000E+04  0.7818608E-02  0.7223770E-01
         52   -1    0    0    0    0  0.00000000000E+00  0.00000000000E+00  0.64930732323E+04  0.65000000000E+04  0.30000000000E+03 0.  1.
        -52   -1    0    0    0    0 -0.00000000000E+00 -0.00000000000E+00 -0.64930732323E+04  0.65000000000E+04  0.30000000000E+03 0. -1.
     100001    1    1    2    0    0 -0.46389401474E+03  0.14205656795E+04 -0.63240924442E+04  0.65000000000E+04  0.15050000000E+03 0. -1.
     100001    1    1    2    0    0  0.46389401474E+03 -0.14205656795E+04  0.63240924442E+04  0.65000000000E+04  0.15050000000E+03 0.  1.
</event>
<event>
 4    1  0.5143956E-004  0.6500000E+04  0.7818608E-02  0.7223770E-01
         52   -1    0    0    0    0  0.00000000000E+00  0.00000000000E+00  0.64930732323E+04  0.65000000000E+04  0.30000000000E+03 0.  1.
        -52   -1    0    0    0    0 -0.00000000000E+00 -0.00000000000E+00 -0.64930732323E+04  0.65000000000E+04  0.30000000000E+03 0. -1.
     100001    1    1    2    0    0 -0.93996240853E+03  0.36869178828E+04 -0.52678702476E+04  0.65000000000E+04  0.15050000000E+03 0. -1.
     100001    1    1    2    0    0  0.93996240853E+03 -0.36869178828E+04  0.52678702476E+04  0.65000000000E+04  0.15050000000E+03 0.  1.
</event>
<event>
 4    1  0.5143956E-004  0.6500000E+04  0.7818608E-02  0.7223770E-01
         52   -1    0    0    0    0  0.00000000000E+00  0.00000000000E+00  0.64930732323E+04  0.65000000000E+04  0.30000000000E+03 0. -1.
        -52   -1    0    0    0    0 -0.00000000000E+00 -0.00000000000E+00 -0.64930732323E+04  0.65000000000E+04  0.30000000000E+03 0.  1.
     100001    1    1    2    0    0  0.26530390948E+03  0.24197545441E+03  0.64883288654E+04  0.65000000000E+04  0.15050000000E+03 0. -1.
     100001    1    1    2    0    0 -0.26530390948E+03 -0.24197545441E+03 -0.64883288654E+04  0.65000000000E+04  0.15050000000E+03 0.  1.
</event>
<event>
 4    1  0.5143956E-004  0.6500000E+04  0.7818608E-02  0.7223770E-01
         52   -1    0    0    0    0  0.00000000000E+00  0.00000000000E+00  0.64930732323E+04  0.65000000000E+04  0.30000000000E+03 0. -1.
        -52   -1    0    0    0    0 -0.00000000000E+00 -0.00000000000E+00 -0.64930732323E+04  0.65000000000E+04  0.30000000000E+03 0.  1.
     100001    1    1    2    0    0  0.18661804223E+04  0.11183946131E+03  0.62235208939E+04  0.65000000000E+04  0.15050000000E+03 0. -1.
     100001    1    1    2    0    0 -0.18661804223E+04 -0.11183946131E+03 -0.62235208939E+04  0.65000000000E+04  0.15050000000E+03 0.  1.
</event>
<event>
 4    1  0.5143956E-004  0.6500000E+04  0.7818608E-02  0.7223770E-01
         52   -1    0    0    0    0  0.00000000000E+00  0.00000000000E+00  0.64930732323E+04  0.65000000000E+04  0.30000000000E+03 0. -1.
        -52   -1    0    0    0    0 -0.00000000000E+00 -0.00000000000E+00 -0.64930732323E+04  0.65000000000E+04  0.30000000000E+03 0. -1.
     100001    1    1    2    0    0  0.93062214917E+03 -0.61812947005E+03  0.64015004588E+04  0.65000000000E+04  0.15050000000E+03 0. -1.
     100001    1    1    2    0    0 -0.93062214917E+03  0.61812947005E+03 -0.64015004588E+04  0.65000000000E+04  0.15050000000E+03 0. -1.
</event>
<event>
 4    1  0.5143956E-004  0.6500000E+04  0.7818608E-02  0.7223770E-01
         52   -1    0    0    0    0  0.00000000000E+00  0.00000000000E+00  0.64930732323E+04  0.65000000000E+04  0.30000000000E+03 0. -1.
        -52   -1    0    0    0    0 -0.00000000000E+00 -0.00000000000E+00 -0.64930732323E+04  0.65000000000E+04  0.30000000000E+03 0.  1.
     100001    1    1    2    0    0  0.13851714527E+03 -0.64360540509E+04  0.88621160241E+03  0.65000000000E+04  0.15050000000E+03 0. -1.
     100001    1    1    2    0    0 -0.13851714527E+03  0.64360540509E+04 -0.88621160241E+03  0.65000000000E+04  0.15050000000E+03 0.  1.
</event>
<event>
 4    1  0.5143956E-004  0.6500000E+04  0.7818608E-02  0.7223770E-01
         52   -1    0    0    0    0  0.00000000000E+00  0.00000000000E+00  0.64930732323E+04  0.65000000000E+04  0.30000000000E+03 0. -1.
        -52   -1    0    0    0    0 -0.00000000000E+00 -0.00000000000E+00 -0.64930732323E+04  0.65000000000E+04  0.30000000000E+03 0.  1.
     100001    1    1    2    0    0 -0.62701172807E+03 -0.38738991871E+04  0.51794894663E+04  0.65000000000E+04  0.15050000000E+03 0. -1.
     100001    1    1    2    0    0  0.62701172807E+03  0.38738991871E+04 -0.51794894663E+04  0.65000000000E+04  0.15050000000E+03 0.  1.
</event>
<event>
 4    1  0.5143956E-004  0.6500000E+04  0.7818608E-02  0.7223770E-01
         52   -1    0    0    0    0  0.00000000000E+00  0.00000000000E+00  0.64930732323E+04  0.65000000000E+04  0.30000000000E+03 0. -1.
        -52   -1    0    0    0    0 -0.00000000000E+00 -0.00000000000E+00 -0.64930732323E+04  0.65000000000E+04  0.30000000000E+03 0. -1.
     100001    1    1    2    0    0 -0.25289920030E+03  0.11181423467E+03  0.64923716253E+04  0.65000000000E+04  0.15050000000E+03 0. -1.
     100001    1    1    2    0    0  0.25289920030E+03 -0.11181423467E+03 -0.64923716253E+04  0.65000000000E+04  0.15050000000E+03 0. -1.
</event>
<event>
 4    1  0.8132338E-004  0.6500000E+04  0.7818608E-02  0.7223770E-01
         52   -1    0    0    0    0  0.00000000000E+00  0.00000000000E+00  0.64930732323E+04  0.65000000000E+04  0.30000000000E+03 0.  1.
        -52   -1    0    0    0    0 -0.00000000000E+00 -0.00000000000E+00 -0.64930732323E+04  0.65000000000E+04  0.30000000000E+03 0.  1.
     100001    1    1    2    0    0 -0.13595369091E+03  0.26829277267E+02  0.64967797049E+04  0.65000000000E+04  0.15050000000E+03 0.  1.
     100001    1    1    2    0    0  0.13595369091E+03 -0.26829277267E+02 -0.64967797049E+04  0.65000000000E+04  0.15050000000E+03 0.  1.
</event>
<event>
 4    1  0.5143956E-004  0.6500000E+04  0.7818608E-02  0.7223770E-01
         52   -1    0    0    0    0  0.00000000000E+00  0.00000000000E+00  0.64930732323E+04  0.65000000000E+04  0.30000000000E+03 0. -1.
        -52   -1    0    0    0    0 -0.00000000000E+00 -0.00000000000E+00 -0.64930732323E+04  0.65000000000E+04  0.30000000000E+03 0.  1.
     100001    1    1    2    0    0  0.38620767827E+04  0.98427972516E+03 -0.51325340815E+04  0.65000000000E+04  0.15050000000E+03 0.  1.
     100001    1    1    2    0    0 -0.38620767827E+04 -0.98427972516E+03  0.51325340815E+04  0.65000000000E+04  0.15050000000E+03 0. -1.
</event>
<event>
 4    1  0.5143956E-004  0.6500000E+04  0.7818608E-02  0.7223770E-01
         52   -1    0    0    0    0  0.00000000000E+00  0.00000000000E+00  0.64930732323E+04  0.65000000000E+04  0.30000000000E+03 0.  1.
        -52   -1    0    0    0    0 -0.00000000000E+00 -0.00000000000E+00 -0.64930732323E+04  0.65000000000E+04  0.30000000000E+03 0. -1.
     100001    1    1    2    0    0  0.71159081177E+03  0.10774351393E+03 -0.64582799259E+04  0.65000000000E+04  0.15050000000E+03 0. -1.
     100001    1    1    2    0    0 -0.71159081177E+03 -0.10774351393E+03  0.64582799259E+04  0.65000000000E+04  0.15050000000E+03 0.  1.
</event>
<event>
 4    1  0.5143956E-004  0.6500000E+04  0.7818608E-02  0.7223770E-01
         52   -1    0    0    0    0  0.00000000000E+00  0.00000000000E+00  0.64930732323E+04  0.65000000000E+04  0.30000000000E+03 0. -1.
        -52   -1    0    0    0    0 -0.00000000000E+00 -0.00000000000E+00 -0.64930732323E+04  0.65000000000E+04  0.30000000000E+03 0. -1.
     100001    1    1    2    0    0 -0.51080663993E+02  0.12625780879E+03  0.64968299563E+04  0.65000000000E+04  0.15050000000E+03 0. -1.
     100001    1    1    2    0    0  0.51080663993E+02 -0.12625780879E+03 -0.64968299563E+04  0.65000000000E+04  0.15050000000E+03 0. -1.
</event>
<event>
 4    1  0.5143956E-004  0.6500000E+04  0.7818608E-02  0.7223770E-01
         52   -1    0    0    0    0  0.00000000000E+00  0.00000000000E+00  0.64930732323E+04  0.65000000000E+04  0.30000000000E+03 0. -1.
        -52   -1    0    0    0    0 -0.00000000000E+00 -0.00000000000E+00 -0.64930732323E+04  0.65000000000E+04  0.30000000000E+03 0.  1.
     100001    1    1    2    0    0  0.76405126720E+02  0.11623840985E+04  0.63929942292E+04  0.65000000000E+04  0.15050000000E+03 0. -1.
     100001    1    1    2    0    0 -0.76405126720E+02 -0.11623840985E+04 -0.63929942292E+04  0.65000000000E+04  0.15050000000E+03 0.  1.
</event>
<event>
 4    1  0.5143956E-004  0.6500000E+04  0.7818608E-02  0.7223770E-01
         52   -1    0    0    0    0  0.00000000000E+00  0.00000000000E+00  0.64930732323E+04  0.65000000000E+04  0.30000000000E+03 0.  1.
        -52   -1    0    0    0    0 -0.00000000000E+00 -0.00000000000E+00 -0.64930732323E+04  0.65000000000E+04  0.30000000000E+03 0. -1.
     100001    1    1    2    0    0 -0.62864310061E+04  0.49910177778E+03  0.15681302148E+04  0.65000000000E+04  0.15050000000E+03 0. -1.
     100001    1    1    2    0    0  0.62864310061E+04 -0.49910177778E+03 -0.15681302148E+04  0.65000000000E+04  0.15050000000E+03 0.  1.
</event>
<event>
 4    1  0.5143956E-004  0.6500000E+04  0.7818608E-02  0.7223770E-01
         52   -1    0    0    0    0  0.00000000000E+00  0.00000000000E+00  0.64930732323E+04  0.65000000000E+04  0.30000000000E+03 0. -1.
        -52   -1    0    0    0    0 -0.00000000000E+00 -0.00000000000E+00 -0.64930732323E+04  0.65000000000E+04  0.30000000000E+03 0.  1.
     100001    1    1    2    0    0  0.19294289564E+03 -0.52340029948E+03  0.64742702226E+04  0.65000000000E+04  0.15050000000E+03 0. -1.
     100001    1    1    2    0    0 -0.19294289564E+03  0.52340029948E+03 -0.64742702226E+04  0.65000000000E+04  0.15050000000E+03 0.  1.
</event>
<event>
 4    1  0.5143956E-004  0.6500000E+04  0.7818608E-02  0.7223770E-01
         52   -1    0    0    0    0  0.00000000000E+00  0.00000000000E+00  0.64930732323E+04  0.65000000000E+04  0.30000000000E+03 0.  1.
        -52   -1    0    0    0    0 -0.00000000000E+00 -0.00000000000E+00 -0.64930732323E+04  0.65000000000E+04  0.30000000000E+03 0. -1.
     100001    1    1    2    0    0 -0.23533402158E+03 -0.16663901994E+03  0.64918563667E+04  0.65000000000E+04  0.15050000000E+03 0.  1.
     100001    1    1    2    0    0  0.23533402158E+03  0.16663901994E+03 -0.64918563667E+04  0.65000000000E+04  0.15050000000E+03 0. -1.
</event>
<event>
 4    1  0.5143956E-004  0.6500000E+04  0.7818608E-02  0.7223770E-01
         52   -1    0    0    0    0  0.00000000000E+00  0.00000000000E+00  0.64930732323E+04  0.65000000000E+04  0.30000000000E+03 0. -1.
        -52   -1    0    0    0    0 -0.00000000000E+00 -0.00000000000E+00 -0.64930732323E+04  0.65000000000E+04  0.30000000000E+03 0.  1.
     100001    1    1    2    0    0  0.21230438401E+04  0.61399221918E+04  0.14625348346E+03  0.65000000000E+04  0.15050000000E+03 0. -1.
     100001    1    1    2    0    0 -0.21230438401E+04 -0.61399221918E+04 -0.14625348346E+03  0.65000000000E+04  0.15050000000E+03 0.  1.
</event>
<event>
 4    1  0.5143956E-004  0.6500000E+04  0.7818608E-02  0.7223770E-01
         52   -1    0    0    0    0  0.00000000000E+00  0.00000000000E+00  0.64930732323E+04  0.65000000000E+04  0.30000000000E+03 0. -1.
        -52   -1    0    0    0    0 -0.00000000000E+00 -0.00000000000E+00 -0.64930732323E+04  0.65000000000E+04  0.30000000000E+03 0.  1.
     100001    1    1    2    0    0 -0.67687000380E+03 -0.14319202173E+03  0.64613228361E+04  0.65000000000E+04  0.15050000000E+03 0. -1.
     100001    1    1    2    0    0  0.67687000380E+03  0.14319202173E+03 -0.64613228361E+04  0.65000000000E+04  0.15050000000E+03 0.  1.
</event>
<event>
 4    1  0.5143956E-004  0.6500000E+04  0.7818608E-02  0.7223770E-01
         52   -1    0    0    0    0  0.00000000000E+00  0.00000000000E+00  0.64930732323E+04  0.65000000000E+04  0.30000000000E+03 0.  1.
        -52   -1    0    0    0    0 -0.00000000000E+00 -0.00000000000E+00 -0.64930732323E+04  0.65000000000E+04  0.30000000000E+03 0. -1.
     100001    1    1    2    0    0 -0.14750037844E+04  0.28734115887E+04 -0.56387249825E+04  0.65000000000E+04  0.15050000000E+03 0. -1.
     100001    1    1    2    0    0  0.14750037844E+04 -0.28734115887E+04  0.56387249825E+04  0.65000000000E+04  0.15050000000E+03 0.  1.
</event>
<event>
 4    1  0.5143956E-004  0.6500000E+04  0.7818608E-02  0.7223770E-01
         52   -1    0    0    0    0  0.00000000000E+00  0.00000000000E+00  0.64930732323E+04  0.65000000000E+04  0.30000000000E+03 0. -1.
        -52   -1    0    0    0    0 -0.00000000000E+00 -0.00000000000E+00 -0.64930732323E+04  0.65000000000E+04  0.30000000000E+03 0.  1.
     100001    1    1    2    0    0 -0.75061828533E+03 -0.74676653314E+03  0.64114165116E+04  0.65000000000E+04  0.15050000000E+03 0. -1.
     100001    1    1    2    0    0  0.75061828533E+03  0.74676653314E+03 -0.64114165116E+04  0.65000000000E+04  0.15050000000E+03 0.  1.
</event>
<event>
 4    1  0.5143956E-004  0.6500000E+04  0.7818608E-02  0.7223770E-01
         52   -1    0    0    0    0  0.00000000000E+00  0.00000000000E+00  0.64930732323E+04  0.65000000000E+04  0.30000000000E+03 0. -1.
        -52   -1    0    0    0    0 -0.00000000000E+00 -0.00000000000E+00 -0.64930732323E+04  0.65000000000E+04  0.30000000000E+03 0.  1.
     100001    1    1    2    0    0 -0.55861781658E+02 -0.83753783413E+03  0.64438156078E+04  0.65000000000E+04  0.15050000000E+03 0. -1.
     100001    1    1    2    0    0  0.55861781658E+02  0.83753783413E+03 -0.64438156078E+04  0.65000000000E+04  0.15050000000E+03 0.  1.
</event>
<event>
 4    1  0.5143956E-004  0.6500000E+04  0.7818608E-02  0.7223770E-01
         52   -1    0    0    0    0  0.00000000000E+00  0.00000000000E+00  0.64930732323E+04  0.65000000000E+04  0.30000000000E+03 0.  1.
        -52   -1    0    0    0    0 -0.00000000000E+00 -0.00000000000E+00 -0.64930732323E+04  0.65000000000E+04  0.30000000000E+03 0. -1.
     100001    1    1    2    0    0 -0.88783566677E+02  0.64307799264E+03  0.64657496026E+04  0.65000000000E+04  0.15050000000E+03 0.  1.
     100001    1    1    2    0    0  0.88783566677E+02 -0.64307799264E+03 -0.64657496026E+04  0.65000000000E+04  0.15050000000E+03 0. -1.
</event>
<event>
 4    1  0.5143956E-004  0.6500000E+04  0.7818608E-02  0.7223770E-01
         52   -1    0    0    0    0  0.00000000000E+00  0.00000000000E+00  0.64930732323E+04  0.65000000000E+04  0.30000000000E+03 0. -1.
        -52   -1    0    0    0    0 -0.00000000000E+00 -0.00000000000E+00 -0.64930732323E+04  0.65000000000E+04  0.30000000000E+03 0.  1.
     100001    1    1    2    0    0  0.46349707167E+04 -0.20111086384E+04 -0.40865435578E+04  0.65000000000E+04  0.15050000000E+03 0.  1.
     100001    1    1    2    0    0 -0.46349707167E+04  0.20111086384E+04  0.40865435578E+04  0.65000000000E+04  0.15050000000E+03 0. -1.
</event>
<event>
 4    1  0.5143956E-004  0.6500000E+04  0.7818608E-02  0.7223770E-01
         52   -1    0    0    0    0  0.00000000000E+00  0.00000000000E+00  0.64930732323E+04  0.65000000000E+04  0.30000000000E+03 0. -1.
        -52   -1    0    0    0    0 -0.00000000000E+00 -0.00000000000E+00 -0.64930732323E+04  0.65000000000E+04  0.30000000000E+03 0.  1.
     100001    1    1    2    0    0 -0.55940982419E+03  0.74659572101E+03  0.64309412397E+04  0.65000000000E+04  0.15050000000E+03 0. -1.
     100001    1    1    2    0    0  0.55940982419E+03 -0.74659572101E+03 -0.64309412397E+04  0.65000000000E+04  0.15050000000E+03 0.  1.
</event>
<event>
 4    1  0.5143956E-004  0.6500000E+04  0.7818608E-02  0.7223770E-01
         52   -1    0    0    0    0  0.00000000000E+00  0.00000000000E+00  0.64930732323E+04  0.65000000000E+04  0.30000000000E+03 0.  1.
        -52   -1    0    0    0    0 -0.00000000000E+00 -0.00000000000E+00 -0.64930732323E+04  0.65000000000E+04  0.30000000000E+03 0. -1.
     100001    1    1    2    0    0 -0.11978886935E+04 -0.70769546775E+03  0.63475648522E+04  0.65000000000E+04  0.15050000000E+03 0.  1.
     100001    1    1    2    0    0  0.11978886935E+04  0.70769546775E+03 -0.63475648522E+04  0.65000000000E+04  0.15050000000E+03 0. -1.
</event>
<event>
 4    1  0.5143956E-004  0.6500000E+04  0.7818608E-02  0.7223770E-01
         52   -1    0    0    0    0  0.00000000000E+00  0.00000000000E+00  0.64930732323E+04  0.65000000000E+04  0.30000000000E+03 0.  1.
        -52   -1    0    0    0    0 -0.00000000000E+00 -0.00000000000E+00 -0.64930732323E+04  0.65000000000E+04  0.30000000000E+03 0. -1.
     100001    1    1    2    0    0 -0.34433882734E+04  0.20482765549E+04  0.51161499297E+04  0.65000000000E+04  0.15050000000E+03 0.  1.
     100001    1    1    2    0    0  0.34433882734E+04 -0.20482765549E+04 -0.51161499297E+04  0.65000000000E+04  0.15050000000E+03 0. -1.
</event>
<event>
 4    1  0.5143956E-004  0.6500000E+04  0.7818608E-02  0.7223770E-01
         52   -1    0    0    0    0  0.00000000000E+00  0.00000000000E+00  0.64930732323E+04  0.65000000000E+04  0.30000000000E+03 0.  1.
        -52   -1    0    0    0    0 -0.00000000000E+00 -0.00000000000E+00 -0.64930732323E+04  0.65000000000E+04  0.30000000000E+03 0. -1.
     100001    1    1    2    0    0 -0.12759780117E+04 -0.11510531832E+04  0.62669216074E+04  0.65000000000E+04  0.15050000000E+03 0.  1.
     100001    1    1    2    0    0  0.12759780117E+04  0.11510531832E+04 -0.62669216074E+04  0.65000000000E+04  0.15050000000E+03 0. -1.
</event>
<event>
 4    1  0.5143956E-004  0.6500000E+04  0.7818608E-02  0.7223770E-01
         52   -1    0    0    0    0  0.00000000000E+00  0.00000000000E+00  0.64930732323E+04  0.65000000000E+04  0.30000000000E+03 0.  1.
        -52   -1    0    0    0    0 -0.00000000000E+00 -0.00000000000E+00 -0.64930732323E+04  0.65000000000E+04  0.30000000000E+03 0. -1.
     100001    1    1    2    0    0  0.14934950226E+04 -0.43886881279E+04  0.45537060603E+04  0.65000000000E+04  0.15050000000E+03 0.  1.
     100001    1    1    2    0    0 -0.14934950226E+04  0.43886881279E+04 -0.45537060603E+04  0.65000000000E+04  0.15050000000E+03 0. -1.
</event>
<event>
 4    1  0.5143956E-004  0.6500000E+04  0.7818608E-02  0.7223770E-01
         52   -1    0    0    0    0  0.00000000000E+00  0.00000000000E+00  0.64930732323E+04  0.65000000000E+04  0.30000000000E+03 0. -1.
        -52   -1    0    0    0    0 -0.00000000000E+00 -0.00000000000E+00 -0.64930732323E+04  0.65000000000E+04  0.30000000000E+03 0.  1.
     100001    1    1    2    0    0  0.29204520589E+03  0.25150059580E+03  0.64868179255E+04  0.65000000000E+04  0.15050000000E+03 0. -1.
     100001    1    1    2    0    0 -0.29204520589E+03 -0.25150059580E+03 -0.64868179255E+04  0.65000000000E+04  0.15050000000E+03 0.  1.
</event>
<event>
 4    1  0.5143956E-004  0.6500000E+04  0.7818608E-02  0.7223770E-01
         52   -1    0    0    0    0  0.00000000000E+00  0.00000000000E+00  0.64930732323E+04  0.65000000000E+04  0.30000000000E+03 0.  1.
        -52   -1    0    0    0    0 -0.00000000000E+00 -0.00000000000E+00 -0.64930732323E+04  0.65000000000E+04  0.30000000000E+03 0. -1.
     100001    1    1    2    0    0  0.14630589089E+04 -0.25881428309E+04  0.57782631531E+04  0.65000000000E+04  0.15050000000E+03 0.  1.
     100001    1    1    2    0    0 -0.14630589089E+04  0.25881428309E+04 -0.57782631531E+04  0.65000000000E+04  0.15050000000E+03 0. -1.
</event>
<event>
 4    1  0.5143956E-004  0.6500000E+04  0.7818608E-02  0.7223770E-01
         52   -1    0    0    0    0  0.00000000000E+00  0.00000000000E+00  0.64930732323E+04  0.65000000000E+04  0.30000000000E+03 0.  1.
        -52   -1    0    0    0    0 -0.00000000000E+00 -0.00000000000E+00 -0.64930732323E+04  0.65000000000E+04  0.30000000000E+03 0.  1.
     100001    1    1    2    0    0 -0.36268151832E+03  0.15435110197E+02  0.64881101735E+04  0.65000000000E+04  0.15050000000E+03 0.  1.
     100001    1    1    2    0    0  0.36268151832E+03 -0.15435110197E+02 -0.64881101735E+04  0.65000000000E+04  0.15050000000E+03 0.  1.
</event>
<event>
 4    1  0.5143956E-004  0.6500000E+04  0.7818608E-02  0.7223770E-01
         52   -1    0    0    0    0  0.00000000000E+00  0.00000000000E+00  0.64930732323E+04  0.65000000000E+04  0.30000000000E+03 0. -1.
        -52   -1    0    0    0    0 -0.00000000000E+00 -0.00000000000E+00 -0.64930732323E+04  0.65000000000E+04  0.30000000000E+03 0.  1.
     100001    1    1    2    0    0 -0.18941176324E+03  0.52226067513E+03 -0.64744665202E+04  0.65000000000E+04  0.15050000000E+03 0.  1.
     100001    1    1    2    0    0  0.18941176324E+03 -0.52226067513E+03  0.64744665202E+04  0.65000000000E+04  0.15050000000E+03 0. -1.
</event>
<event>
 4    1  0.5143956E-004  0.6500000E+04  0.7818608E-02  0.7223770E-01
         52   -1    0    0    0    0  0.00000000000E+00  0.00000000000E+00  0.64930732323E+04  0.65000000000E+04  0.30000000000E+03 0. -1.
        -52   -1    0    0    0    0 -0.00000000000E+00 -0.00000000000E+00 -0.64930732323E+04  0.65000000000E+04  0.30000000000E+03 0.  1.
     100001    1    1    2    0    0  0.48704595935E+04  0.77222398115E+03  0.42319786414E+04  0.65000000000E+04  0.15050000000E+03 0. -1.
     100001    1    1    2    0    0 -0.48704595935E+04 -0.77222398115E+03 -0.42319786414E+04  0.65000000000E+04  0.15050000000E+03 0.  1.
</event>
<event>
 4    1  0.5143956E-004  0.6500000E+04  0.7818608E-02  0.7223770E-01
         52   -1    0    0    0    0  0.00000000000E+00  0.00000000000E+00  0.64930732323E+04  0.65000000000E+04  0.30000000000E+03 0. -1.
        -52   -1    0    0    0    0 -0.00000000000E+00 -0.00000000000E+00 -0.64930732323E+04  0.65000000000E+04  0.30000000000E+03 0. -1.
     100001    1    1    2    0    0 -0.17937622298E+02 -0.43202224214E+03 -0.64838557027E+04  0.65000000000E+04  0.15050000000E+03 0. -1.
     100001    1    1    2    0    0  0.17937622298E+02  0.43202224214E+03  0.64838557027E+04  0.65000000000E+04  0.15050000000E+03 0. -1.
</event>
<event>
 4    1  0.5143956E-004  0.6500000E+04  0.7818608E-02  0.7223770E-01
         52   -1    0    0    0    0  0.00000000000E+00  0.00000000000E+00  0.64930732323E+04  0.65000000000E+04  0.30000000000E+03 0.  1.
        -52   -1    0    0    0    0 -0.00000000000E+00 -0.00000000000E+00 -0.64930732323E+04  0.65000000000E+04  0.30000000000E+03 0. -1.
     100001    1    1    2    0    0  0.42979420196E+04 -0.17489143673E+04 -0.45493233213E+04  0.65000000000E+04  0.15050000000E+03 0. -1.
     100001    1    1    2    0    0 -0.42979420196E+04  0.17489143673E+04  0.45493233213E+04  0.65000000000E+04  0.15050000000E+03 0.  1.
</event>
<event>
 4    1  0.5143956E-004  0.6500000E+04  0.7818608E-02  0.7223770E-01
         52   -1    0    0    0    0  0.00000000000E+00  0.00000000000E+00  0.64930732323E+04  0.65000000000E+04  0.30000000000E+03 0.  1.
        -52   -1    0    0    0    0 -0.00000000000E+00 -0.00000000000E+00 -0.64930732323E+04  0.65000000000E+04  0.30000000000E+03 0. -1.
     100001    1    1    2    0    0  0.63014944035E+03  0.80645818471E+03 -0.64171556494E+04  0.65000000000E+04  0.15050000000E+03 0. -1.
     100001    1    1    2    0    0 -0.63014944035E+03 -0.80645818471E+03  0.64171556494E+04  0.65000000000E+04  0.15050000000E+03 0.  1.
</event>
<event>
 4    1  0.5143956E-004  0.6500000E+04  0.7818608E-02  0.7223770E-01
         52   -1    0    0    0    0  0.00000000000E+00  0.00000000000E+00  0.64930732323E+04  0.65000000000E+04  0.30000000000E+03 0.  1.
        -52   -1    0    0    0    0 -0.00000000000E+00 -0.00000000000E+00 -0.64930732323E+04  0.65000000000E+04  0.30000000000E+03 0. -1.
     100001    1    1    2    0    0 -0.17354783251E+03 -0.14553427160E+04  0.63308142035E+04  0.65000000000E+04  0.15050000000E+03 0.  1.
     100001    1    1    2    0    0  0.17354783251E+03  0.14553427160E+04 -0.63308142035E+04  0.65000000000E+04  0.15050000000E+03 0. -1.
</event>
<event>
 4    1  0.5143956E-004  0.6500000E+04  0.7818608E-02  0.7223770E-01
         52   -1    0    0    0    0  0.00000000000E+00  0.00000000000E+00  0.64930732323E+04  0.65000000000E+04  0.30000000000E+03 0. -1.
        -52   -1    0    0    0    0 -0.00000000000E+00 -0.00000000000E+00 -0.64930732323E+04  0.65000000000E+04  0.30000000000E+03 0.  1.
     100001    1    1    2    0    0 -0.23377146309E+03 -0.27879741584E+03  0.64880638602E+04  0.65000000000E+04  0.15050000000E+03 0. -1.
     100001    1    1    2    0    0  0.23377146309E+03  0.27879741584E+03 -0.64880638602E+04  0.65000000000E+04  0.15050000000E+03 0.  1.
</event>
<event>
 4    1  0.5143956E-004  0.6500000E+04  0.7818608E-02  0.7223770E-01
         52   -1    0    0    0    0  0.00000000000E+00  0.00000000000E+00  0.64930732323E+04  0.65000000000E+04  0.30000000000E+03 0. -1.
        -52   -1    0    0    0    0 -0.00000000000E+00 -0.00000000000E+00 -0.64930732323E+04  0.65000000000E+04  0.30000000000E+03 0. -1.
     100001    1    1    2    0    0 -0.63198666539E+03 -0.54495269742E+03  0.64444525883E+04  0.65000000000E+04  0.15050000000E+03 0. -1.
     100001    1    1    2    0    0  0.63198666539E+03  0.54495269742E+03 -0.64444525883E+04  0.65000000000E+04  0.15050000000E+03 0. -1.
</event>
<event>
 4    1  0.5290190E-004  0.6500000E+04  0.7818608E-02  0.7223770E-01
         52   -1    0    0    0    0  0.00000000000E+00  0.00000000000E+00  0.64930732323E+04  0.65000000000E+04  0.30000000000E+03 0. -1.
        -52   -1    0    0    0    0 -0.00000000000E+00 -0.00000000000E+00 -0.64930732323E+04  0.65000000000E+04  0.30000000000E+03 0. -1.
     100001    1    1    2    0    0  0.15318972648E+03 -0.25439507727E+03 -0.64914686938E+04  0.65000000000E+04  0.15050000000E+03 0. -1.
     100001    1    1    2    0    0 -0.15318972648E+03  0.25439507727E+03  0.64914686938E+04  0.65000000000E+04  0.15050000000E+03 0. -1.
</event>
<event>
 4    1  0.5143956E-004  0.6500000E+04  0.7818608E-02  0.7223770E-01
         52   -1    0    0    0    0  0.00000000000E+00  0.00000000000E+00  0.64930732323E+04  0.65000000000E+04  0.30000000000E+03 0.  1.
        -52   -1    0    0    0    0 -0.00000000000E+00 -0.00000000000E+00 -0.64930732323E+04  0.65000000000E+04  0.30000000000E+03 0. -1.
     100001    1    1    2    0    0 -0.74109123424E+02  0.83027190664E+03 -0.64445718360E+04  0.65000000000E+04  0.15050000000E+03 0. -1.
     100001    1    1    2    0    0  0.74109123424E+02 -0.83027190664E+03  0.64445718360E+04  0.65000000000E+04  0.15050000000E+03 0.  1.
</event>
<event>
 4    1  0.5143956E-004  0.6500000E+04  0.7818608E-02  0.7223770E-01
         52   -1    0    0    0    0  0.00000000000E+00  0.00000000000E+00  0.64930732323E+04  0.65000000000E+04  0.30000000000E+03 0. -1.
        -52   -1    0    0    0    0 -0.00000000000E+00 -0.00000000000E+00 -0.64930732323E+04  0.65000000000E+04  0.30000000000E+03 0.  1.
     100001    1    1    2    0    0 -0.34551827717E+04  0.25851147230E+04  0.48586256939E+04  0.65000000000E+04  0.15050000000E+03 0. -1.
     100001    1    1    2    0    0  0.34551827717E+04 -0.25851147230E+04 -0.48586256939E+04  0.65000000000E+04  0.15050000000E+03 0.  1.
</event>
<event>
 4    1  0.5143956E-004  0.6500000E+04  0.7818608E-02  0.7223770E-01
         52   -1    0    0    0    0  0.00000000000E+00  0.00000000000E+00  0.64930732323E+04  0.65000000000E+04  0.30000000000E+03 0. -1.
        -52   -1    0    0    0    0 -0.00000000000E+00 -0.00000000000E+00 -0.64930732323E+04  0.65000000000E+04  0.30000000000E+03 0.  1.
     100001    1    1    2    0    0 -0.25452784098E+03 -0.13209575368E+04 -0.63574866507E+04  0.65000000000E+04  0.15050000000E+03 0.  1.
     100001    1    1    2    0    0  0.25452784098E+03  0.13209575368E+04  0.63574866507E+04  0.65000000000E+04  0.15050000000E+03 0. -1.
</event>
<event>
 4    1  0.5143956E-004  0.6500000E+04  0.7818608E-02  0.7223770E-01
         52   -1    0    0    0    0  0.00000000000E+00  0.00000000000E+00  0.64930732323E+04  0.65000000000E+04  0.30000000000E+03 0. -1.
        -52   -1    0    0    0    0 -0.00000000000E+00 -0.00000000000E+00 -0.64930732323E+04  0.65000000000E+04  0.30000000000E+03 0.  1.
     100001    1    1    2    0    0  0.61175078493E+03  0.58184632867E+03 -0.64431797722E+04  0.65000000000E+04  0.15050000000E+03 0.  1.
     100001    1    1    2    0    0 -0.61175078493E+03 -0.58184632867E+03  0.64431797722E+04  0.65000000000E+04  0.15050000000E+03 0. -1.
</event>
<event>
 4    1  0.5143956E-004  0.6500000E+04  0.7818608E-02  0.7223770E-01
         52   -1    0    0    0    0  0.00000000000E+00  0.00000000000E+00  0.64930732323E+04  0.65000000000E+04  0.30000000000E+03 0.  1.
        -52   -1    0    0    0    0 -0.00000000000E+00 -0.00000000000E+00 -0.64930732323E+04  0.65000000000E+04  0.30000000000E+03 0. -1.
     100001    1    1    2    0    0  0.35148970340E+04  0.28575652570E+04 -0.46590953406E+04  0.65000000000E+04  0.15050000000E+03 0. -1.
     100001    1    1    2    0    0 -0.35148970340E+04 -0.28575652570E+04  0.46590953406E+04  0.65000000000E+04  0.15050000000E+03 0.  1.
</event>
<event>
 4    1  0.5143956E-004  0.6500000E+04  0.7818608E-02  0.7223770E-01
         52   -1    0    0    0    0  0.00000000000E+00  0.00000000000E+00  0.64930732323E+04  0.65000000000E+04  0.30000000000E+03 0. -1.
        -52   -1    0    0    0    0 -0.00000000000E+00 -0.00000000000E+00 -0.64930732323E+04  0.65000000000E+04  0.30000000000E+03 0.  1.
     100001    1    1    2    0    0  0.89763806581E+03  0.14915666022E+04  0.62607367557E+04  0.65000000000E+04  0.15050000000E+03 0. -1.
     100001    1    1    2    0    0 -0.89763806581E+03 -0.14915666022E+04 -0.62607367557E+04  0.65000000000E+04  0.15050000000E+03 0.  1.
</event>
<event>
 4    1  0.5143956E-004  0.6500000E+04  0.7818608E-02  0.7223770E-01
         52   -1    0    0    0    0  0.00000000000E+00  0.00000000000E+00  0.64930732323E+04  0.65000000000E+04  0.30000000000E+03 0. -1.
        -52   -1    0    0    0    0 -0.00000000000E+00 -0.00000000000E+00 -0.64930732323E+04  0.65000000000E+04  0.30000000000E+03 0.  1.
     100001    1    1    2    0    0  0.64535702344E+03 -0.26235385388E+04  0.59099838915E+04  0.65000000000E+04  0.15050000000E+03 0. -1.
     100001    1    1    2    0    0 -0.64535702344E+03  0.26235385388E+04 -0.59099838915E+04  0.65000000000E+04  0.15050000000E+03 0.  1.
</event>
<event>
 4    1  0.5143956E-004  0.6500000E+04  0.7818608E-02  0.7223770E-01
         52   -1    0    0    0    0  0.00000000000E+00  0.00000000000E+00  0.64930732323E+04  0.65000000000E+04  0.30000000000E+03 0.  1.
        -52   -1    0    0    0    0 -0.00000000000E+00 -0.00000000000E+00 -0.64930732323E+04  0.65000000000E+04  0.30000000000E+03 0. -1.
     100001    1    1    2    0    0  0.16804774516E+03 -0.40052039685E+03 -0.64837252500E+04  0.65000000000E+04  0.15050000000E+03 0. -1.
     100001    1    1    2    0    0 -0.16804774516E+03  0.40052039685E+03  0.64837252500E+04  0.65000000000E+04  0.15050000000E+03 0.  1.
</event>
<event>
 4    1  0.5143956E-004  0.6500000E+04  0.7818608E-02  0.7223770E-01
         52   -1    0    0    0    0  0.00000000000E+00  0.00000000000E+00  0.64930732323E+04  0.65000000000E+04  0.30000000000E+03 0.  1.
        -52   -1    0    0    0    0 -0.00000000000E+00 -0.00000000000E+00 -0.64930732323E+04  0.65000000000E+04  0.30000000000E+03 0. -1.
     100001    1    1    2    0    0 -0.49546371949E+03 -0.37461591490E+04 -0.52866016573E+04  0.65000000000E+04  0.15050000000E+03 0. -1.
     100001    1    1    2    0    0  0.49546371949E+03  0.37461591490E+04  0.52866016573E+04  0.65000000000E+04  0.15050000000E+03 0.  1.
</event>
<event>
 4    1  0.5143956E-004  0.6500000E+04  0.7818608E-02  0.7223770E-01
         52   -1    0    0    0    0  0.00000000000E+00  0.00000000000E+00  0.64930732323E+04  0.65000000000E+04  0.30000000000E+03 0.  1.
        -52   -1    0    0    0    0 -0.00000000000E+00 -0.00000000000E+00 -0.64930732323E+04  0.65000000000E+04  0.30000000000E+03 0. -1.
     100001    1    1    2    0    0 -0.30230681830E+04 -0.11678757425E+04 -0.56324483807E+04  0.65000000000E+04  0.15050000000E+03 0. -1.
     100001    1    1    2    0    0  0.30230681830E+04  0.11678757425E+04  0.56324483807E+04  0.65000000000E+04  0.15050000000E+03 0.  1.
</event>
<event>
 4    1  0.5143956E-004  0.6500000E+04  0.7818608E-02  0.7223770E-01
         52   -1    0    0    0    0  0.00000000000E+00  0.00000000000E+00  0.64930732323E+04  0.65000000000E+04  0.30000000000E+03 0. -1.
        -52   -1    0    0    0    0 -0.00000000000E+00 -0.00000000000E+00 -0.64930732323E+04  0.65000000000E+04  0.30000000000E+03 0.  1.
     100001    1    1    2    0    0 -0.20840458238E+04  0.31745482268E+04  0.52731723194E+04  0.65000000000E+04  0.15050000000E+03 0. -1.
     100001    1    1    2    0    0  0.20840458238E+04 -0.31745482268E+04 -0.52731723194E+04  0.65000000000E+04  0.15050000000E+03 0.  1.
</event>
<event>
 4    1  0.5143956E-004  0.6500000E+04  0.7818608E-02  0.7223770E-01
         52   -1    0    0    0    0  0.00000000000E+00  0.00000000000E+00  0.64930732323E+04  0.65000000000E+04  0.30000000000E+03 0.  1.
        -52   -1    0    0    0    0 -0.00000000000E+00 -0.00000000000E+00 -0.64930732323E+04  0.65000000000E+04  0.30000000000E+03 0. -1.
     100001    1    1    2    0    0  0.16100918372E+04 -0.39691799333E+04  0.48867744661E+04  0.65000000000E+04  0.15050000000E+03 0.  1.
     100001    1    1    2    0    0 -0.16100918372E+04  0.39691799333E+04 -0.48867744661E+04  0.65000000000E+04  0.15050000000E+03 0. -1.
</event>
<event>
 4    1  0.5143956E-004  0.6500000E+04  0.7818608E-02  0.7223770E-01
         52   -1    0    0    0    0  0.00000000000E+00  0.00000000000E+00  0.64930732323E+04  0.65000000000E+04  0.30000000000E+03 0. -1.
        -52   -1    0    0    0    0 -0.00000000000E+00 -0.00000000000E+00 -0.64930732323E+04  0.65000000000E+04  0.30000000000E+03 0.  1.
     100001    1    1    2    0    0  0.10925259790E+04 -0.96738028511E+03  0.63322912219E+04  0.65000000000E+04  0.15050000000E+03 0. -1.
     100001    1    1    2    0    0 -0.10925259790E+04  0.96738028511E+03 -0.63322912219E+04  0.65000000000E+04  0.15050000000E+03 0.  1.
</event>
<event>
 4    1  0.5143956E-004  0.6500000E+04  0.7818608E-02  0.7223770E-01
         52   -1    0    0    0    0  0.00000000000E+00  0.00000000000E+00  0.64930732323E+04  0.65000000000E+04  0.30000000000E+03 0.  1.
        -52   -1    0    0    0    0 -0.00000000000E+00 -0.00000000000E+00 -0.64930732323E+04  0.65000000000E+04  0.30000000000E+03 0. -1.
     100001    1    1    2    0    0 -0.74579629019E+03 -0.57160434115E+04  0.29996642081E+04  0.65000000000E+04  0.15050000000E+03 0.  1.
     100001    1    1    2    0    0  0.74579629019E+03  0.57160434115E+04 -0.29996642081E+04  0.65000000000E+04  0.15050000000E+03 0. -1.
</event>
<event>
 4    1  0.5143956E-004  0.6500000E+04  0.7818608E-02  0.7223770E-01
         52   -1    0    0    0    0  0.00000000000E+00  0.00000000000E+00  0.64930732323E+04  0.65000000000E+04  0.30000000000E+03 0.  1.
        -52   -1    0    0    0    0 -0.00000000000E+00 -0.00000000000E+00 -0.64930732323E+04  0.65000000000E+04  0.30000000000E+03 0. -1.
     100001    1    1    2    0    0 -0.63268548171E+03 -0.14865469438E+03 -0.64656755728E+04  0.65000000000E+04  0.15050000000E+03 0. -1.
     100001    1    1    2    0    0  0.63268548171E+03  0.14865469438E+03  0.64656755728E+04  0.65000000000E+04  0.15050000000E+03 0.  1.
</event>
<event>
 4    1  0.5143956E-004  0.6500000E+04  0.7818608E-02  0.7223770E-01
         52   -1    0    0    0    0  0.00000000000E+00  0.00000000000E+00  0.64930732323E+04  0.65000000000E+04  0.30000000000E+03 0.  1.
        -52   -1    0    0    0    0 -0.00000000000E+00 -0.00000000000E+00 -0.64930732323E+04  0.65000000000E+04  0.30000000000E+03 0. -1.
     100001    1    1    2    0    0  0.10170757506E+04 -0.10381303985E+03 -0.64173304045E+04  0.65000000000E+04  0.15050000000E+03 0. -1.
     100001    1    1    2    0    0 -0.10170757506E+04  0.10381303985E+03  0.64173304045E+04  0.65000000000E+04  0.15050000000E+03 0.  1.
</event>
<event>
 4    1  0.5143956E-004  0.6500000E+04  0.7818608E-02  0.7223770E-01
         52   -1    0    0    0    0  0.00000000000E+00  0.00000000000E+00  0.64930732323E+04  0.65000000000E+04  0.30000000000E+03 0.  1.
        -52   -1    0    0    0    0 -0.00000000000E+00 -0.00000000000E+00 -0.64930732323E+04  0.65000000000E+04  0.30000000000E+03 0.  1.
     100001    1    1    2    0    0 -0.68237092474E+02 -0.20126170191E+03 -0.64947815342E+04  0.65000000000E+04  0.15050000000E+03 0.  1.
     100001    1    1    2    0    0  0.68237092474E+02  0.20126170191E+03  0.64947815342E+04  0.65000000000E+04  0.15050000000E+03 0.  1.
</event>
<event>
 4    1  0.5143956E-004  0.6500000E+04  0.7818608E-02  0.7223770E-01
         52   -1    0    0    0    0  0.00000000000E+00  0.00000000000E+00  0.64930732323E+04  0.65000000000E+04  0.30000000000E+03 0. -1.
        -52   -1    0    0    0    0 -0.00000000000E+00 -0.00000000000E+00 -0.64930732323E+04  0.65000000000E+04  0.30000000000E+03 0.  1.
     100001    1    1    2    0    0  0.12346986918E+04 -0.35306386603E+04  0.53138930682E+04  0.65000000000E+04  0.15050000000E+03 0. -1.
     100001    1    1    2    0    0 -0.12346986918E+04  0.35306386603E+04 -0.53138930682E+04  0.65000000000E+04  0.15050000000E+03 0.  1.
</event>
<event>
 4    1  0.5143956E-004  0.6500000E+04  0.7818608E-02  0.7223770E-01
         52   -1    0    0    0    0  0.00000000000E+00  0.00000000000E+00  0.64930732323E+04  0.65000000000E+04  0.30000000000E+03 0.  1.
        -52   -1    0    0    0    0 -0.00000000000E+00 -0.00000000000E+00 -0.64930732323E+04  0.65000000000E+04  0.30000000000E+03 0. -1.
     100001    1    1    2    0    0  0.79628999016E+03 -0.13145021413E+03  0.64479448542E+04  0.65000000000E+04  0.15050000000E+03 0.  1.
     100001    1    1    2    0    0 -0.79628999016E+03  0.13145021413E+03 -0.64479448542E+04  0.65000000000E+04  0.15050000000E+03 0. -1.
</event>
<event>
 4    1  0.5143956E-004  0.6500000E+04  0.7818608E-02  0.7223770E-01
         52   -1    0    0    0    0  0.00000000000E+00  0.00000000000E+00  0.64930732323E+04  0.65000000000E+04  0.30000000000E+03 0. -1.
        -52   -1    0    0    0    0 -0.00000000000E+00 -0.00000000000E+00 -0.64930732323E+04  0.65000000000E+04  0.30000000000E+03 0.  1.
     100001    1    1    2    0    0 -0.36400004040E+03 -0.14434148164E+04  0.63254570893E+04  0.65000000000E+04  0.15050000000E+03 0. -1.
     100001    1    1    2    0    0  0.36400004040E+03  0.14434148164E+04 -0.63254570893E+04  0.65000000000E+04  0.15050000000E+03 0.  1.
</event>
<event>
 4    1  0.5143956E-004  0.6500000E+04  0.7818608E-02  0.7223770E-01
         52   -1    0    0    0    0  0.00000000000E+00  0.00000000000E+00  0.64930732323E+04  0.65000000000E+04  0.30000000000E+03 0. -1.
        -52   -1    0    0    0    0 -0.00000000000E+00 -0.00000000000E+00 -0.64930732323E+04  0.65000000000E+04  0.30000000000E+03 0.  1.
     100001    1    1    2    0    0 -0.52480202102E+04 -0.32610204496E+04 -0.20128038281E+04  0.65000000000E+04  0.15050000000E+03 0.  1.
     100001    1    1    2    0    0  0.52480202102E+04  0.32610204496E+04  0.20128038281E+04  0.65000000000E+04  0.15050000000E+03 0. -1.
</event>
<event>
 4    1  0.5143956E-004  0.6500000E+04  0.7818608E-02  0.7223770E-01
         52   -1    0    0    0    0  0.00000000000E+00  0.00000000000E+00  0.64930732323E+04  0.65000000000E+04  0.30000000000E+03 0.  1.
        -52   -1    0    0    0    0 -0.00000000000E+00 -0.00000000000E+00 -0.64930732323E+04  0.65000000000E+04  0.30000000000E+03 0. -1.
     100001    1    1    2    0    0  0.60895266784E+03 -0.45006655882E+03 -0.64539884173E+04  0.65000000000E+04  0.15050000000E+03 0. -1.
     100001    1    1    2    0    0 -0.60895266784E+03  0.45006655882E+03  0.64539884173E+04  0.65000000000E+04  0.15050000000E+03 0.  1.
</event>
<event>
 4    1  0.5143956E-004  0.6500000E+04  0.7818608E-02  0.7223770E-01
         52   -1    0    0    0    0  0.00000000000E+00  0.00000000000E+00  0.64930732323E+04  0.65000000000E+04  0.30000000000E+03 0.  1.
        -52   -1    0    0    0    0 -0.00000000000E+00 -0.00000000000E+00 -0.64930732323E+04  0.65000000000E+04  0.30000000000E+03 0. -1.
     100001    1    1    2    0    0 -0.39575168253E+04  0.35055311145E+04  0.37784470266E+04  0.65000000000E+04  0.15050000000E+03 0.  1.
     100001    1    1    2    0    0  0.39575168253E+04 -0.35055311145E+04 -0.37784470266E+04  0.65000000000E+04  0.15050000000E+03 0. -1.
</event>
<event>
 4    1  0.5143956E-004  0.6500000E+04  0.7818608E-02  0.7223770E-01
         52   -1    0    0    0    0  0.00000000000E+00  0.00000000000E+00  0.64930732323E+04  0.65000000000E+04  0.30000000000E+03 0.  1.
        -52   -1    0    0    0    0 -0.00000000000E+00 -0.00000000000E+00 -0.64930732323E+04  0.65000000000E+04  0.30000000000E+03 0. -1.
     100001    1    1    2    0    0 -0.27484043631E+04  0.10740279595E+04  0.57896534567E+04  0.65000000000E+04  0.15050000000E+03 0.  1.
     100001    1    1    2    0    0  0.27484043631E+04 -0.10740279595E+04 -0.57896534567E+04  0.65000000000E+04  0.15050000000E+03 0. -1.
</event>
<event>
 4    1  0.5143956E-004  0.6500000E+04  0.7818608E-02  0.7223770E-01
         52   -1    0    0    0    0  0.00000000000E+00  0.00000000000E+00  0.64930732323E+04  0.65000000000E+04  0.30000000000E+03 0.  1.
        -52   -1    0    0    0    0 -0.00000000000E+00 -0.00000000000E+00 -0.64930732323E+04  0.65000000000E+04  0.30000000000E+03 0. -1.
     100001    1    1    2    0    0  0.11651877361E+04 -0.18231824036E+04  0.61274540564E+04  0.65000000000E+04  0.15050000000E+03 0.  1.
     100001    1    1    2    0    0 -0.11651877361E+04  0.18231824036E+04 -0.61274540564E+04  0.65000000000E+04  0.15050000000E+03 0. -1.
</event>
<event>
 4    1  0.5143956E-004  0.6500000E+04  0.7818608E-02  0.7223770E-01
         52   -1    0    0    0    0  0.00000000000E+00  0.00000000000E+00  0.64930732323E+04  0.65000000000E+04  0.30000000000E+03 0. -1.
        -52   -1    0    0    0    0 -0.00000000000E+00 -0.00000000000E+00 -0.64930732323E+04  0.65000000000E+04  0.30000000000E+03 0.  1.
     100001    1    1    2    0    0 -0.19865027588E+03  0.71280862680E+03  0.64559888227E+04  0.65000000000E+04  0.15050000000E+03 0. -1.
     100001    1    1    2    0    0  0.19865027588E+03 -0.71280862680E+03 -0.64559888227E+04  0.65000000000E+04  0.15050000000E+03 0.  1.
</event>
<event>
 4    1  0.5143956E-004  0.6500000E+04  0.7818608E-02  0.7223770E-01
         52   -1    0    0    0    0  0.00000000000E+00  0.00000000000E+00  0.64930732323E+04  0.65000000000E+04  0.30000000000E+03 0. -1.
        -52   -1    0    0    0    0 -0.00000000000E+00 -0.00000000000E+00 -0.64930732323E+04  0.65000000000E+04  0.30000000000E+03 0.  1.
     100001    1    1    2    0    0  0.63113414560E+03 -0.49568662227E+03 -0.64485125582E+04  0.65000000000E+04  0.15050000000E+03 0.  1.
     100001    1    1    2    0    0 -0.63113414560E+03  0.49568662227E+03  0.64485125582E+04  0.65000000000E+04  0.15050000000E+03 0. -1.
</event>
<event>
 4    1  0.5143956E-004  0.6500000E+04  0.7818608E-02  0.7223770E-01
         52   -1    0    0    0    0  0.00000000000E+00  0.00000000000E+00  0.64930732323E+04  0.65000000000E+04  0.30000000000E+03 0.  1.
        -52   -1    0    0    0    0 -0.00000000000E+00 -0.00000000000E+00 -0.64930732323E+04  0.65000000000E+04  0.30000000000E+03 0. -1.
     100001    1    1    2    0    0 -0.24525043810E+04 -0.17153165849E+03 -0.60152430459E+04  0.65000000000E+04  0.15050000000E+03 0. -1.
     100001    1    1    2    0    0  0.24525043810E+04  0.17153165849E+03  0.60152430459E+04  0.65000000000E+04  0.15050000000E+03 0.  1.
</event>
<event>
 4    1  0.5143956E-004  0.6500000E+04  0.7818608E-02  0.7223770E-01
         52   -1    0    0    0    0  0.00000000000E+00  0.00000000000E+00  0.64930732323E+04  0.65000000000E+04  0.30000000000E+03 0. -1.
        -52   -1    0    0    0    0 -0.00000000000E+00 -0.00000000000E+00 -0.64930732323E+04  0.65000000000E+04  0.30000000000E+03 0.  1.
     100001    1    1    2    0    0 -0.51440010746E+03 -0.36331426012E+04  0.53631163626E+04  0.65000000000E+04  0.15050000000E+03 0. -1.
     100001    1    1    2    0    0  0.51440010746E+03  0.36331426012E+04 -0.53631163626E+04  0.65000000000E+04  0.15050000000E+03 0.  1.
</event>
<event>
 4    1  0.5376861E-004  0.6500000E+04  0.7818608E-02  0.7223770E-01
         52   -1    0    0    0    0  0.00000000000E+00  0.00000000000E+00  0.64930732323E+04  0.65000000000E+04  0.30000000000E+03 0.  1.
        -52   -1    0    0    0    0 -0.00000000000E+00 -0.00000000000E+00 -0.64930732323E+04  0.65000000000E+04  0.30000000000E+03 0. -1.
     100001    1    1    2    0    0 -0.22908489551E+03  0.10542863896E+03 -0.64933623542E+04  0.65000000000E+04  0.15050000000E+03 0. -1.
     100001    1    1    2    0    0  0.22908489551E+03 -0.10542863896E+03  0.64933623542E+04  0.65000000000E+04  0.15050000000E+03 0.  1.
</event>
<event>
 4    1  0.5143956E-004  0.6500000E+04  0.7818608E-02  0.7223770E-01
         52   -1    0    0    0    0  0.00000000000E+00  0.00000000000E+00  0.64930732323E+04  0.65000000000E+04  0.30000000000E+03 0.  1.
        -52   -1    0    0    0    0 -0.00000000000E+00 -0.00000000000E+00 -0.64930732323E+04  0.65000000000E+04  0.30000000000E+03 0. -1.
     100001    1    1    2    0    0  0.62685835158E+03 -0.25790824982E+03  0.64628075704E+04  0.65000000000E+04  0.15050000000E+03 0.  1.
     100001    1    1    2    0    0 -0.62685835158E+03  0.25790824982E+03 -0.64628075704E+04  0.65000000000E+04  0.15050000000E+03 0. -1.
</event>
<event>
 4    1  0.5143956E-004  0.6500000E+04  0.7818608E-02  0.7223770E-01
         52   -1    0    0    0    0  0.00000000000E+00  0.00000000000E+00  0.64930732323E+04  0.65000000000E+04  0.30000000000E+03 0.  1.
        -52   -1    0    0    0    0 -0.00000000000E+00 -0.00000000000E+00 -0.64930732323E+04  0.65000000000E+04  0.30000000000E+03 0. -1.
     100001    1    1    2    0    0  0.43294062762E+03  0.14807785710E+04  0.63124644147E+04  0.65000000000E+04  0.15050000000E+03 0.  1.
     100001    1    1    2    0    0 -0.43294062762E+03 -0.14807785710E+04 -0.63124644147E+04  0.65000000000E+04  0.15050000000E+03 0. -1.
</event>
<event>
 4    1  0.5143956E-004  0.6500000E+04  0.7818608E-02  0.7223770E-01
         52   -1    0    0    0    0  0.00000000000E+00  0.00000000000E+00  0.64930732323E+04  0.65000000000E+04  0.30000000000E+03 0.  1.
        -52   -1    0    0    0    0 -0.00000000000E+00 -0.00000000000E+00 -0.64930732323E+04  0.65000000000E+04  0.30000000000E+03 0. -1.
     100001    1    1    2    0    0  0.72732567745E+03  0.15660292303E+03 -0.64555265187E+04  0.65000000000E+04  0.15050000000E+03 0. -1.
     100001    1    1    2    0    0 -0.72732567745E+03 -0.15660292303E+03  0.64555265187E+04  0.65000000000E+04  0.15050000000E+03 0.  1.
</event>
<event>
 4    1  0.5143956E-004  0.6500000E+04  0.7818608E-02  0.7223770E-01
         52   -1    0    0    0    0  0.00000000000E+00  0.00000000000E+00  0.64930732323E+04  0.65000000000E+04  0.30000000000E+03 0. -1.
        -52   -1    0    0    0    0 -0.00000000000E+00 -0.00000000000E+00 -0.64930732323E+04  0.65000000000E+04  0.30000000000E+03 0. -1.
     100001    1    1    2    0    0  0.18345843990E+02 -0.40140793818E+02 -0.64981075627E+04  0.65000000000E+04  0.15050000000E+03 0. -1.
     100001    1    1    2    0    0 -0.18345843990E+02  0.40140793818E+02  0.64981075627E+04  0.65000000000E+04  0.15050000000E+03 0. -1.
</event>
<event>
 4    1  0.5143956E-004  0.6500000E+04  0.7818608E-02  0.7223770E-01
         52   -1    0    0    0    0  0.00000000000E+00  0.00000000000E+00  0.64930732323E+04  0.65000000000E+04  0.30000000000E+03 0.  1.
        -52   -1    0    0    0    0 -0.00000000000E+00 -0.00000000000E+00 -0.64930732323E+04  0.65000000000E+04  0.30000000000E+03 0. -1.
     100001    1    1    2    0    0  0.30896876332E+03  0.10997002401E+03 -0.64899764751E+04  0.65000000000E+04  0.15050000000E+03 0. -1.
     100001    1    1    2    0    0 -0.30896876332E+03 -0.10997002401E+03  0.64899764751E+04  0.65000000000E+04  0.15050000000E+03 0.  1.
</event>
<event>
 4    1  0.5215343E-004  0.6500000E+04  0.7818608E-02  0.7223770E-01
         52   -1    0    0    0    0  0.00000000000E+00  0.00000000000E+00  0.64930732323E+04  0.65000000000E+04  0.30000000000E+03 0.  1.
        -52   -1    0    0    0    0 -0.00000000000E+00 -0.00000000000E+00 -0.64930732323E+04  0.65000000000E+04  0.30000000000E+03 0. -1.
     100001    1    1    2    0    0 -0.25996169724E+03 -0.82595293700E+02  0.64925301450E+04  0.65000000000E+04  0.15050000000E+03 0.  1.
     100001    1    1    2    0    0  0.25996169724E+03  0.82595293700E+02 -0.64925301450E+04  0.65000000000E+04  0.15050000000E+03 0. -1.
</event>
<event>
 4    1  0.5143956E-004  0.6500000E+04  0.7818608E-02  0.7223770E-01
         52   -1    0    0    0    0  0.00000000000E+00  0.00000000000E+00  0.64930732323E+04  0.65000000000E+04  0.30000000000E+03 0. -1.
        -52   -1    0    0    0    0 -0.00000000000E+00 -0.00000000000E+00 -0.64930732323E+04  0.65000000000E+04  0.30000000000E+03 0.  1.
     100001    1    1    2    0    0 -0.21878830502E+04  0.56660947599E+04 -0.23099540429E+04  0.65000000000E+04  0.15050000000E+03 0.  1.
     100001    1    1    2    0    0  0.21878830502E+04 -0.56660947599E+04  0.23099540429E+04  0.65000000000E+04  0.15050000000E+03 0. -1.
</event>
<event>
 4    1  0.5143956E-004  0.6500000E+04  0.7818608E-02  0.7223770E-01
         52   -1    0    0    0    0  0.00000000000E+00  0.00000000000E+00  0.64930732323E+04  0.65000000000E+04  0.30000000000E+03 0.  1.
        -52   -1    0    0    0    0 -0.00000000000E+00 -0.00000000000E+00 -0.64930732323E+04  0.65000000000E+04  0.30000000000E+03 0. -1.
     100001    1    1    2    0    0  0.58673925208E+04 -0.21666788762E+04 -0.17625428801E+04  0.65000000000E+04  0.15050000000E+03 0.  1.
     100001    1    1    2    0    0 -0.58673925208E+04  0.21666788762E+04  0.17625428801E+04  0.65000000000E+04  0.15050000000E+03 0. -1.
</event>
<event>
 4    1  0.5143956E-004  0.6500000E+04  0.7818608E-02  0.7223770E-01
         52   -1    0    0    0    0  0.00000000000E+00  0.00000000000E+00  0.64930732323E+04  0.65000000000E+04  0.30000000000E+03 0.  1.
        -52   -1    0    0    0    0 -0.00000000000E+00 -0.00000000000E+00 -0.64930732323E+04  0.65000000000E+04  0.30000000000E+03 0. -1.
     100001    1    1    2    0    0  0.31251756585E+04  0.25669472423E+04 -0.50863944704E+04  0.65000000000E+04  0.15050000000E+03 0. -1.
     100001    1    1    2    0    0 -0.31251756585E+04 -0.25669472423E+04  0.50863944704E+04  0.65000000000E+04  0.15050000000E+03 0.  1.
</event>
<event>
 4    1  0.5143956E-004  0.6500000E+04  0.7818608E-02  0.7223770E-01
         52   -1    0    0    0    0  0.00000000000E+00  0.00000000000E+00  0.64930732323E+04  0.65000000000E+04  0.30000000000E+03 0.  1.
        -52   -1    0    0    0    0 -0.00000000000E+00 -0.00000000000E+00 -0.64930732323E+04  0.65000000000E+04  0.30000000000E+03 0. -1.
     100001    1    1    2    0    0 -0.29288710887E+03  0.89702510611E+03 -0.64293788853E+04  0.65000000000E+04  0.15050000000E+03 0. -1.
     100001    1    1    2    0    0  0.29288710887E+03 -0.89702510611E+03  0.64293788853E+04  0.65000000000E+04  0.15050000000E+03 0.  1.
</event>
<event>
 4    1  0.5143956E-004  0.6500000E+04  0.7818608E-02  0.7223770E-01
         52   -1    0    0    0    0  0.00000000000E+00  0.00000000000E+00  0.64930732323E+04  0.65000000000E+04  0.30000000000E+03 0. -1.
        -52   -1    0    0    0    0 -0.00000000000E+00 -0.00000000000E+00 -0.64930732323E+04  0.65000000000E+04  0.30000000000E+03 0.  1.
     100001    1    1    2    0    0  0.34991661682E+04  0.54749611189E+04  0.89367916291E+02  0.65000000000E+04  0.15050000000E+03 0. -1.
     100001    1    1    2    0    0 -0.34991661682E+04 -0.54749611189E+04 -0.89367916291E+02  0.65000000000E+04  0.15050000000E+03 0.  1.
</event>
<event>
 4    1  0.5143956E-004  0.6500000E+04  0.7818608E-02  0.7223770E-01
         52   -1    0    0    0    0  0.00000000000E+00  0.00000000000E+00  0.64930732323E+04  0.65000000000E+04  0.30000000000E+03 0. -1.
        -52   -1    0    0    0    0 -0.00000000000E+00 -0.00000000000E+00 -0.64930732323E+04  0.65000000000E+04  0.30000000000E+03 0.  1.
     100001    1    1    2    0    0 -0.19971472251E+04  0.86747220950E+03 -0.61226011365E+04  0.65000000000E+04  0.15050000000E+03 0.  1.
     100001    1    1    2    0    0  0.19971472251E+04 -0.86747220950E+03  0.61226011365E+04  0.65000000000E+04  0.15050000000E+03 0. -1.
</event>
<event>
 4    1  0.5143956E-004  0.6500000E+04  0.7818608E-02  0.7223770E-01
         52   -1    0    0    0    0  0.00000000000E+00  0.00000000000E+00  0.64930732323E+04  0.65000000000E+04  0.30000000000E+03 0. -1.
        -52   -1    0    0    0    0 -0.00000000000E+00 -0.00000000000E+00 -0.64930732323E+04  0.65000000000E+04  0.30000000000E+03 0. -1.
     100001    1    1    2    0    0  0.30438738906E+03  0.42457180608E+02  0.64909857075E+04  0.65000000000E+04  0.15050000000E+03 0. -1.
     100001    1    1    2    0    0 -0.30438738906E+03 -0.42457180608E+02 -0.64909857075E+04  0.65000000000E+04  0.15050000000E+03 0. -1.
</event>
<event>
 4    1  0.5143956E-004  0.6500000E+04  0.7818608E-02  0.7223770E-01
         52   -1    0    0    0    0  0.00000000000E+00  0.00000000000E+00  0.64930732323E+04  0.65000000000E+04  0.30000000000E+03 0. -1.
        -52   -1    0    0    0    0 -0.00000000000E+00 -0.00000000000E+00 -0.64930732323E+04  0.65000000000E+04  0.30000000000E+03 0.  1.
     100001    1    1    2    0    0  0.23990428551E+04  0.17809854273E+03 -0.60365738659E+04  0.65000000000E+04  0.15050000000E+03 0.  1.
     100001    1    1    2    0    0 -0.23990428551E+04 -0.17809854273E+03  0.60365738659E+04  0.65000000000E+04  0.15050000000E+03 0. -1.
</event>
<event>
 4    1  0.5143956E-004  0.6500000E+04  0.7818608E-02  0.7223770E-01
         52   -1    0    0    0    0  0.00000000000E+00  0.00000000000E+00  0.64930732323E+04  0.65000000000E+04  0.30000000000E+03 0. -1.
        -52   -1    0    0    0    0 -0.00000000000E+00 -0.00000000000E+00 -0.64930732323E+04  0.65000000000E+04  0.30000000000E+03 0.  1.
     100001    1    1    2    0    0 -0.42277460952E+03 -0.57270795096E+03 -0.64591498653E+04  0.65000000000E+04  0.15050000000E+03 0.  1.
     100001    1    1    2    0    0  0.42277460952E+03  0.57270795096E+03  0.64591498653E+04  0.65000000000E+04  0.15050000000E+03 0. -1.
</event>
<event>
 4    1  0.5143956E-004  0.6500000E+04  0.7818608E-02  0.7223770E-01
         52   -1    0    0    0    0  0.00000000000E+00  0.00000000000E+00  0.64930732323E+04  0.65000000000E+04  0.30000000000E+03 0.  1.
        -52   -1    0    0    0    0 -0.00000000000E+00 -0.00000000000E+00 -0.64930732323E+04  0.65000000000E+04  0.30000000000E+03 0. -1.
     100001    1    1    2    0    0 -0.39150148373E+02  0.36908386485E+03 -0.64876493522E+04  0.65000000000E+04  0.15050000000E+03 0. -1.
     100001    1    1    2    0    0  0.39150148373E+02 -0.36908386485E+03  0.64876493522E+04  0.65000000000E+04  0.15050000000E+03 0.  1.
</event>
<event>
 4    1  0.5143956E-004  0.6500000E+04  0.7818608E-02  0.7223770E-01
         52   -1    0    0    0    0  0.00000000000E+00  0.00000000000E+00  0.64930732323E+04  0.65000000000E+04  0.30000000000E+03 0.  1.
        -52   -1    0    0    0    0 -0.00000000000E+00 -0.00000000000E+00 -0.64930732323E+04  0.65000000000E+04  0.30000000000E+03 0. -1.
     100001    1    1    2    0    0 -0.39061991170E+03  0.41861443723E+04 -0.49548926456E+04  0.65000000000E+04  0.15050000000E+03 0. -1.
     100001    1    1    2    0    0  0.39061991170E+03 -0.41861443723E+04  0.49548926456E+04  0.65000000000E+04  0.15050000000E+03 0.  1.
</event>
<event>
 4    1  0.5143956E-004  0.6500000E+04  0.7818608E-02  0.7223770E-01
         52   -1    0    0    0    0  0.00000000000E+00  0.00000000000E+00  0.64930732323E+04  0.65000000000E+04  0.30000000000E+03 0.  1.
        -52   -1    0    0    0    0 -0.00000000000E+00 -0.00000000000E+00 -0.64930732323E+04  0.65000000000E+04  0.30000000000E+03 0. -1.
     100001    1    1    2    0    0  0.65902507777E+03  0.12979635420E+03 -0.64634502089E+04  0.65000000000E+04  0.15050000000E+03 0. -1.
     100001    1    1    2    0    0 -0.65902507777E+03 -0.12979635420E+03  0.64634502089E+04  0.65000000000E+04  0.15050000000E+03 0.  1.
</event>
<event>
 4    1  0.5143956E-004  0.6500000E+04  0.7818608E-02  0.7223770E-01
         52   -1    0    0    0    0  0.00000000000E+00  0.00000000000E+00  0.64930732323E+04  0.65000000000E+04  0.30000000000E+03 0. -1.
        -52   -1    0    0    0    0 -0.00000000000E+00 -0.00000000000E+00 -0.64930732323E+04  0.65000000000E+04  0.30000000000E+03 0.  1.
     100001    1    1    2    0    0 -0.94536879168E+03 -0.64081780515E+04  0.51853800018E+03  0.65000000000E+04  0.15050000000E+03 0. -1.
     100001    1    1    2    0    0  0.94536879168E+03  0.64081780515E+04 -0.51853800018E+03  0.65000000000E+04  0.15050000000E+03 0.  1.
</event>
<event>
 4    1  0.5143956E-004  0.6500000E+04  0.7818608E-02  0.7223770E-01
         52   -1    0    0    0    0  0.00000000000E+00  0.00000000000E+00  0.64930732323E+04  0.65000000000E+04  0.30000000000E+03 0. -1.
        -52   -1    0    0    0    0 -0.00000000000E+00 -0.00000000000E+00 -0.64930732323E+04  0.65000000000E+04  0.30000000000E+03 0. -1.
     100001    1    1    2    0    0  0.84317052036E+03  0.12223498009E+04 -0.63263160044E+04  0.65000000000E+04  0.15050000000E+03 0. -1.
     100001    1    1    2    0    0 -0.84317052036E+03 -0.12223498009E+04  0.63263160044E+04  0.65000000000E+04  0.15050000000E+03 0. -1.
</event>
<event>
 4    1  0.5143956E-004  0.6500000E+04  0.7818608E-02  0.7223770E-01
         52   -1    0    0    0    0  0.00000000000E+00  0.00000000000E+00  0.64930732323E+04  0.65000000000E+04  0.30000000000E+03 0. -1.
        -52   -1    0    0    0    0 -0.00000000000E+00 -0.00000000000E+00 -0.64930732323E+04  0.65000000000E+04  0.30000000000E+03 0.  1.
     100001    1    1    2    0    0  0.36295778946E+04  0.56632536277E+03 -0.53602975329E+04  0.65000000000E+04  0.15050000000E+03 0.  1.
     100001    1    1    2    0    0 -0.36295778946E+04 -0.56632536277E+03  0.53602975329E+04  0.65000000000E+04  0.15050000000E+03 0. -1.
</event>
<event>
 4    1  0.5143956E-004  0.6500000E+04  0.7818608E-02  0.7223770E-01
         52   -1    0    0    0    0  0.00000000000E+00  0.00000000000E+00  0.64930732323E+04  0.65000000000E+04  0.30000000000E+03 0.  1.
        -52   -1    0    0    0    0 -0.00000000000E+00 -0.00000000000E+00 -0.64930732323E+04  0.65000000000E+04  0.30000000000E+03 0. -1.
     100001    1    1    2    0    0 -0.10819265739E+04 -0.17399091651E+03  0.64051941266E+04  0.65000000000E+04  0.15050000000E+03 0.  1.
     100001    1    1    2    0    0  0.10819265739E+04  0.17399091651E+03 -0.64051941266E+04  0.65000000000E+04  0.15050000000E+03 0. -1.
</event>
<event>
 4    1  0.5143956E-004  0.6500000E+04  0.7818608E-02  0.7223770E-01
         52   -1    0    0    0    0  0.00000000000E+00  0.00000000000E+00  0.64930732323E+04  0.65000000000E+04  0.30000000000E+03 0.  1.
        -52   -1    0    0    0    0 -0.00000000000E+00 -0.00000000000E+00 -0.64930732323E+04  0.65000000000E+04  0.30000000000E+03 0. -1.
     100001    1    1    2    0    0 -0.16313551532E+04 -0.48137339130E+04 -0.40489499785E+04  0.65000000000E+04  0.15050000000E+03 0. -1.
     100001    1    1    2    0    0  0.16313551532E+04  0.48137339130E+04  0.40489499785E+04  0.65000000000E+04  0.15050000000E+03 0.  1.
</event>
<event>
 4    1  0.5143956E-004  0.6500000E+04  0.7818608E-02  0.7223770E-01
         52   -1    0    0    0    0  0.00000000000E+00  0.00000000000E+00  0.64930732323E+04  0.65000000000E+04  0.30000000000E+03 0.  1.
        -52   -1    0    0    0    0 -0.00000000000E+00 -0.00000000000E+00 -0.64930732323E+04  0.65000000000E+04  0.30000000000E+03 0. -1.
     100001    1    1    2    0    0 -0.76223845734E+02  0.79656941102E+03 -0.64487996440E+04  0.65000000000E+04  0.15050000000E+03 0. -1.
     100001    1    1    2    0    0  0.76223845734E+02 -0.79656941102E+03  0.64487996440E+04  0.65000000000E+04  0.15050000000E+03 0.  1.
</event>
<event>
 4    1  0.5143956E-004  0.6500000E+04  0.7818608E-02  0.7223770E-01
         52   -1    0    0    0    0  0.00000000000E+00  0.00000000000E+00  0.64930732323E+04  0.65000000000E+04  0.30000000000E+03 0. -1.
        -52   -1    0    0    0    0 -0.00000000000E+00 -0.00000000000E+00 -0.64930732323E+04  0.65000000000E+04  0.30000000000E+03 0.  1.
     100001    1    1    2    0    0 -0.10071418907E+03  0.54208690385E+03 -0.64748241822E+04  0.65000000000E+04  0.15050000000E+03 0.  1.
     100001    1    1    2    0    0  0.10071418907E+03 -0.54208690385E+03  0.64748241822E+04  0.65000000000E+04  0.15050000000E+03 0. -1.
</event>
<event>
 4    1  0.5143956E-004  0.6500000E+04  0.7818608E-02  0.7223770E-01
         52   -1    0    0    0    0  0.00000000000E+00  0.00000000000E+00  0.64930732323E+04  0.65000000000E+04  0.30000000000E+03 0.  1.
        -52   -1    0    0    0    0 -0.00000000000E+00 -0.00000000000E+00 -0.64930732323E+04  0.65000000000E+04  0.30000000000E+03 0. -1.
     100001    1    1    2    0    0  0.18475279883E+04 -0.30200340354E+04  0.54491636521E+04  0.65000000000E+04  0.15050000000E+03 0.  1.
     100001    1    1    2    0    0 -0.18475279883E+04  0.30200340354E+04 -0.54491636521E+04  0.65000000000E+04  0.15050000000E+03 0. -1.
</event>
<event>
 4    1  0.5143956E-004  0.6500000E+04  0.7818608E-02  0.7223770E-01
         52   -1    0    0    0    0  0.00000000000E+00  0.00000000000E+00  0.64930732323E+04  0.65000000000E+04  0.30000000000E+03 0. -1.
        -52   -1    0    0    0    0 -0.00000000000E+00 -0.00000000000E+00 -0.64930732323E+04  0.65000000000E+04  0.30000000000E+03 0.  1.
     100001    1    1    2    0    0  0.57162923230E+04  0.29099053873E+04 -0.10410583387E+04  0.65000000000E+04  0.15050000000E+03 0.  1.
     100001    1    1    2    0    0 -0.57162923230E+04 -0.29099053873E+04  0.10410583387E+04  0.65000000000E+04  0.15050000000E+03 0. -1.
</event>
<event>
 4    1  0.5143956E-004  0.6500000E+04  0.7818608E-02  0.7223770E-01
         52   -1    0    0    0    0  0.00000000000E+00  0.00000000000E+00  0.64930732323E+04  0.65000000000E+04  0.30000000000E+03 0.  1.
        -52   -1    0    0    0    0 -0.00000000000E+00 -0.00000000000E+00 -0.64930732323E+04  0.65000000000E+04  0.30000000000E+03 0. -1.
     100001    1    1    2    0    0  0.31082167806E+04  0.31560499485E+03  0.56979585539E+04  0.65000000000E+04  0.15050000000E+03 0.  1.
     100001    1    1    2    0    0 -0.31082167806E+04 -0.31560499485E+03 -0.56979585539E+04  0.65000000000E+04  0.15050000000E+03 0. -1.
</event>
<event>
 4    1  0.5143956E-004  0.6500000E+04  0.7818608E-02  0.7223770E-01
         52   -1    0    0    0    0  0.00000000000E+00  0.00000000000E+00  0.64930732323E+04  0.65000000000E+04  0.30000000000E+03 0.  1.
        -52   -1    0    0    0    0 -0.00000000000E+00 -0.00000000000E+00 -0.64930732323E+04  0.65000000000E+04  0.30000000000E+03 0. -1.
     100001    1    1    2    0    0  0.65036444754E+03 -0.31342129616E+03  0.64580293377E+04  0.65000000000E+04  0.15050000000E+03 0.  1.
     100001    1    1    2    0    0 -0.65036444754E+03  0.31342129616E+03 -0.64580293377E+04  0.65000000000E+04  0.15050000000E+03 0. -1.
</event>
<event>
 4    1  0.5143956E-004  0.6500000E+04  0.7818608E-02  0.7223770E-01
         52   -1    0    0    0    0  0.00000000000E+00  0.00000000000E+00  0.64930732323E+04  0.65000000000E+04  0.30000000000E+03 0. -1.
        -52   -1    0    0    0    0 -0.00000000000E+00 -0.00000000000E+00 -0.64930732323E+04  0.65000000000E+04  0.30000000000E+03 0.  1.
     100001    1    1    2    0    0  0.33321312339E+04  0.43233799936E+04  0.35259944160E+04  0.65000000000E+04  0.15050000000E+03 0. -1.
     100001    1    1    2    0    0 -0.33321312339E+04 -0.43233799936E+04 -0.35259944160E+04  0.65000000000E+04  0.15050000000E+03 0.  1.
</event>
<event>
 4    1  0.5143956E-004  0.6500000E+04  0.7818608E-02  0.7223770E-01
         52   -1    0    0    0    0  0.00000000000E+00  0.00000000000E+00  0.64930732323E+04  0.65000000000E+04  0.30000000000E+03 0. -1.
        -52   -1    0    0    0    0 -0.00000000000E+00 -0.00000000000E+00 -0.64930732323E+04  0.65000000000E+04  0.30000000000E+03 0. -1.
     100001    1    1    2    0    0 -0.40900909831E+03  0.25048230673E+03 -0.64805339226E+04  0.65000000000E+04  0.15050000000E+03 0. -1.
     100001    1    1    2    0    0  0.40900909831E+03 -0.25048230673E+03  0.64805339226E+04  0.65000000000E+04  0.15050000000E+03 0. -1.
</event>
<event>
 4    1  0.5143956E-004  0.6500000E+04  0.7818608E-02  0.7223770E-01
         52   -1    0    0    0    0  0.00000000000E+00  0.00000000000E+00  0.64930732323E+04  0.65000000000E+04  0.30000000000E+03 0. -1.
        -52   -1    0    0    0    0 -0.00000000000E+00 -0.00000000000E+00 -0.64930732323E+04  0.65000000000E+04  0.30000000000E+03 0.  1.
     100001    1    1    2    0    0  0.54564330293E+03 -0.84793885475E+03  0.64195500492E+04  0.65000000000E+04  0.15050000000E+03 0. -1.
     100001    1    1    2    0    0 -0.54564330293E+03  0.84793885475E+03 -0.64195500492E+04  0.65000000000E+04  0.15050000000E+03 0.  1.
</event>
<event>
 4    1  0.5143956E-004  0.6500000E+04  0.7818608E-02  0.7223770E-01
         52   -1    0    0    0    0  0.00000000000E+00  0.00000000000E+00  0.64930732323E+04  0.65000000000E+04  0.30000000000E+03 0. -1.
        -52   -1    0    0    0    0 -0.00000000000E+00 -0.00000000000E+00 -0.64930732323E+04  0.65000000000E+04  0.30000000000E+03 0.  1.
     100001    1    1    2    0    0 -0.11660541006E+03  0.56476564978E+03 -0.64726186887E+04  0.65000000000E+04  0.15050000000E+03 0.  1.
     100001    1    1    2    0    0  0.11660541006E+03 -0.56476564978E+03  0.64726186887E+04  0.65000000000E+04  0.15050000000E+03 0. -1.
</event>
<event>
 4    1  0.5143956E-004  0.6500000E+04  0.7818608E-02  0.7223770E-01
         52   -1    0    0    0    0  0.00000000000E+00  0.00000000000E+00  0.64930732323E+04  0.65000000000E+04  0.30000000000E+03 0. -1.
        -52   -1    0    0    0    0 -0.00000000000E+00 -0.00000000000E+00 -0.64930732323E+04  0.65000000000E+04  0.30000000000E+03 0.  1.
     100001    1    1    2    0    0 -0.24940313780E+04 -0.31187003649E+04  0.51264866399E+04  0.65000000000E+04  0.15050000000E+03 0. -1.
     100001    1    1    2    0    0  0.24940313780E+04  0.31187003649E+04 -0.51264866399E+04  0.65000000000E+04  0.15050000000E+03 0.  1.
</event>
<event>
 4    1  0.5143956E-004  0.6500000E+04  0.7818608E-02  0.7223770E-01
         52   -1    0    0    0    0  0.00000000000E+00  0.00000000000E+00  0.64930732323E+04  0.65000000000E+04  0.30000000000E+03 0.  1.
        -52   -1    0    0    0    0 -0.00000000000E+00 -0.00000000000E+00 -0.64930732323E+04  0.65000000000E+04  0.30000000000E+03 0. -1.
     100001    1    1    2    0    0 -0.65537213194E+03 -0.19941583731E+03 -0.64620484711E+04  0.65000000000E+04  0.15050000000E+03 0. -1.
     100001    1    1    2    0    0  0.65537213194E+03  0.19941583731E+03  0.64620484711E+04  0.65000000000E+04  0.15050000000E+03 0.  1.
</event>
<event>
 4    1  0.5143956E-004  0.6500000E+04  0.7818608E-02  0.7223770E-01
         52   -1    0    0    0    0  0.00000000000E+00  0.00000000000E+00  0.64930732323E+04  0.65000000000E+04  0.30000000000E+03 0. -1.
        -52   -1    0    0    0    0 -0.00000000000E+00 -0.00000000000E+00 -0.64930732323E+04  0.65000000000E+04  0.30000000000E+03 0.  1.
     100001    1    1    2    0    0 -0.58908635609E+03 -0.34502778650E+03  0.64622970252E+04  0.65000000000E+04  0.15050000000E+03 0. -1.
     100001    1    1    2    0    0  0.58908635609E+03  0.34502778650E+03 -0.64622970252E+04  0.65000000000E+04  0.15050000000E+03 0.  1.
</event>
<event>
 4    1  0.5143956E-004  0.6500000E+04  0.7818608E-02  0.7223770E-01
         52   -1    0    0    0    0  0.00000000000E+00  0.00000000000E+00  0.64930732323E+04  0.65000000000E+04  0.30000000000E+03 0. -1.
        -52   -1    0    0    0    0 -0.00000000000E+00 -0.00000000000E+00 -0.64930732323E+04  0.65000000000E+04  0.30000000000E+03 0.  1.
     100001    1    1    2    0    0 -0.14014012461E+04  0.34267171184E+03 -0.63360871518E+04  0.65000000000E+04  0.15050000000E+03 0.  1.
     100001    1    1    2    0    0  0.14014012461E+04 -0.34267171184E+03  0.63360871518E+04  0.65000000000E+04  0.15050000000E+03 0. -1.
</event>
<event>
 4    1  0.5143956E-004  0.6500000E+04  0.7818608E-02  0.7223770E-01
         52   -1    0    0    0    0  0.00000000000E+00  0.00000000000E+00  0.64930732323E+04  0.65000000000E+04  0.30000000000E+03 0. -1.
        -52   -1    0    0    0    0 -0.00000000000E+00 -0.00000000000E+00 -0.64930732323E+04  0.65000000000E+04  0.30000000000E+03 0.  1.
     100001    1    1    2    0    0  0.37727277465E+04 -0.61036836808E+03 -0.52555994479E+04  0.65000000000E+04  0.15050000000E+03 0.  1.
     100001    1    1    2    0    0 -0.37727277465E+04  0.61036836808E+03  0.52555994479E+04  0.65000000000E+04  0.15050000000E+03 0. -1.
</event>
<event>
 4    1  0.5143956E-004  0.6500000E+04  0.7818608E-02  0.7223770E-01
         52   -1    0    0    0    0  0.00000000000E+00  0.00000000000E+00  0.64930732323E+04  0.65000000000E+04  0.30000000000E+03 0. -1.
        -52   -1    0    0    0    0 -0.00000000000E+00 -0.00000000000E+00 -0.64930732323E+04  0.65000000000E+04  0.30000000000E+03 0.  1.
     100001    1    1    2    0    0  0.21562304651E+04 -0.11021708851E+04 -0.60301939663E+04  0.65000000000E+04  0.15050000000E+03 0.  1.
     100001    1    1    2    0    0 -0.21562304651E+04  0.11021708851E+04  0.60301939663E+04  0.65000000000E+04  0.15050000000E+03 0. -1.
</event>
<event>
 4    1  0.5143956E-004  0.6500000E+04  0.7818608E-02  0.7223770E-01
         52   -1    0    0    0    0  0.00000000000E+00  0.00000000000E+00  0.64930732323E+04  0.65000000000E+04  0.30000000000E+03 0.  1.
        -52   -1    0    0    0    0 -0.00000000000E+00 -0.00000000000E+00 -0.64930732323E+04  0.65000000000E+04  0.30000000000E+03 0. -1.
     100001    1    1    2    0    0  0.20979708438E+04 -0.26013016968E+04 -0.55730689544E+04  0.65000000000E+04  0.15050000000E+03 0. -1.
     100001    1    1    2    0    0 -0.20979708438E+04  0.26013016968E+04  0.55730689544E+04  0.65000000000E+04  0.15050000000E+03 0.  1.
</event>
<event>
 4    1  0.5143956E-004  0.6500000E+04  0.7818608E-02  0.7223770E-01
         52   -1    0    0    0    0  0.00000000000E+00  0.00000000000E+00  0.64930732323E+04  0.65000000000E+04  0.30000000000E+03 0. -1.
        -52   -1    0    0    0    0 -0.00000000000E+00 -0.00000000000E+00 -0.64930732323E+04  0.65000000000E+04  0.30000000000E+03 0.  1.
     100001    1    1    2    0    0 -0.28693010737E+03  0.15415837307E+04  0.63062302896E+04  0.65000000000E+04  0.15050000000E+03 0. -1.
     100001    1    1    2    0    0  0.28693010737E+03 -0.15415837307E+04 -0.63062302896E+04  0.65000000000E+04  0.15050000000E+03 0.  1.
</event>
<event>
 4    1  0.5143956E-004  0.6500000E+04  0.7818608E-02  0.7223770E-01
         52   -1    0    0    0    0  0.00000000000E+00  0.00000000000E+00  0.64930732323E+04  0.65000000000E+04  0.30000000000E+03 0. -1.
        -52   -1    0    0    0    0 -0.00000000000E+00 -0.00000000000E+00 -0.64930732323E+04  0.65000000000E+04  0.30000000000E+03 0.  1.
     100001    1    1    2    0    0 -0.35085604403E+04  0.29879837544E+04  0.45814087866E+04  0.65000000000E+04  0.15050000000E+03 0. -1.
     100001    1    1    2    0    0  0.35085604403E+04 -0.29879837544E+04 -0.45814087866E+04  0.65000000000E+04  0.15050000000E+03 0.  1.
</event>
<event>
 4    1  0.5143956E-004  0.6500000E+04  0.7818608E-02  0.7223770E-01
         52   -1    0    0    0    0  0.00000000000E+00  0.00000000000E+00  0.64930732323E+04  0.65000000000E+04  0.30000000000E+03 0.  1.
        -52   -1    0    0    0    0 -0.00000000000E+00 -0.00000000000E+00 -0.64930732323E+04  0.65000000000E+04  0.30000000000E+03 0. -1.
     100001    1    1    2    0    0  0.54878097293E+03  0.30875732571E+03  0.64676779533E+04  0.65000000000E+04  0.15050000000E+03 0.  1.
     100001    1    1    2    0    0 -0.54878097293E+03 -0.30875732571E+03 -0.64676779533E+04  0.65000000000E+04  0.15050000000E+03 0. -1.
</event>
<event>
 4    1  0.5143956E-004  0.6500000E+04  0.7818608E-02  0.7223770E-01
         52   -1    0    0    0    0  0.00000000000E+00  0.00000000000E+00  0.64930732323E+04  0.65000000000E+04  0.30000000000E+03 0. -1.
        -52   -1    0    0    0    0 -0.00000000000E+00 -0.00000000000E+00 -0.64930732323E+04  0.65000000000E+04  0.30000000000E+03 0.  1.
     100001    1    1    2    0    0  0.46741111492E+04  0.11222877489E+04  0.43726999581E+04  0.65000000000E+04  0.15050000000E+03 0. -1.
     100001    1    1    2    0    0 -0.46741111492E+04 -0.11222877489E+04 -0.43726999581E+04  0.65000000000E+04  0.15050000000E+03 0.  1.
</event>
<event>
 4    1  0.5143956E-004  0.6500000E+04  0.7818608E-02  0.7223770E-01
         52   -1    0    0    0    0  0.00000000000E+00  0.00000000000E+00  0.64930732323E+04  0.65000000000E+04  0.30000000000E+03 0.  1.
        -52   -1    0    0    0    0 -0.00000000000E+00 -0.00000000000E+00 -0.64930732323E+04  0.65000000000E+04  0.30000000000E+03 0. -1.
     100001    1    1    2    0    0  0.25204899537E+04 -0.31365438437E+04  0.51026045173E+04  0.65000000000E+04  0.15050000000E+03 0.  1.
     100001    1    1    2    0    0 -0.25204899537E+04  0.31365438437E+04 -0.51026045173E+04  0.65000000000E+04  0.15050000000E+03 0. -1.
</event>
<event>
 4    1  0.5143956E-004  0.6500000E+04  0.7818608E-02  0.7223770E-01
         52   -1    0    0    0    0  0.00000000000E+00  0.00000000000E+00  0.64930732323E+04  0.65000000000E+04  0.30000000000E+03 0.  1.
        -52   -1    0    0    0    0 -0.00000000000E+00 -0.00000000000E+00 -0.64930732323E+04  0.65000000000E+04  0.30000000000E+03 0. -1.
     100001    1    1    2    0    0 -0.22830738728E+04 -0.43812649089E+04  0.42213080010E+04  0.65000000000E+04  0.15050000000E+03 0.  1.
     100001    1    1    2    0    0  0.22830738728E+04  0.43812649089E+04 -0.42213080010E+04  0.65000000000E+04  0.15050000000E+03 0. -1.
</event>
<event>
 4    1  0.5143956E-004  0.6500000E+04  0.7818608E-02  0.7223770E-01
         52   -1    0    0    0    0  0.00000000000E+00  0.00000000000E+00  0.64930732323E+04  0.65000000000E+04  0.30000000000E+03 0. -1.
        -52   -1    0    0    0    0 -0.00000000000E+00 -0.00000000000E+00 -0.64930732323E+04  0.65000000000E+04  0.30000000000E+03 0.  1.
     100001    1    1    2    0    0  0.21271631506E+04  0.19643013341E+02 -0.61402069047E+04  0.65000000000E+04  0.15050000000E+03 0.  1.
     100001    1    1    2    0    0 -0.21271631506E+04 -0.19643013341E+02  0.61402069047E+04  0.65000000000E+04  0.15050000000E+03 0. -1.
</event>
<event>
 4    1  0.5143956E-004  0.6500000E+04  0.7818608E-02  0.7223770E-01
         52   -1    0    0    0    0  0.00000000000E+00  0.00000000000E+00  0.64930732323E+04  0.65000000000E+04  0.30000000000E+03 0.  1.
        -52   -1    0    0    0    0 -0.00000000000E+00 -0.00000000000E+00 -0.64930732323E+04  0.65000000000E+04  0.30000000000E+03 0. -1.
     100001    1    1    2    0    0 -0.31510334310E+04  0.15017486659E+04 -0.54811576342E+04  0.65000000000E+04  0.15050000000E+03 0. -1.
     100001    1    1    2    0    0  0.31510334310E+04 -0.15017486659E+04  0.54811576342E+04  0.65000000000E+04  0.15050000000E+03 0.  1.
</event>
<event>
 4    1  0.5143956E-004  0.6500000E+04  0.7818608E-02  0.7223770E-01
         52   -1    0    0    0    0  0.00000000000E+00  0.00000000000E+00  0.64930732323E+04  0.65000000000E+04  0.30000000000E+03 0. -1.
        -52   -1    0    0    0    0 -0.00000000000E+00 -0.00000000000E+00 -0.64930732323E+04  0.65000000000E+04  0.30000000000E+03 0.  1.
     100001    1    1    2    0    0 -0.30136014076E+04  0.47002816259E+04  0.33245915454E+04  0.65000000000E+04  0.15050000000E+03 0.  1.
     100001    1    1    2    0    0  0.30136014076E+04 -0.47002816259E+04 -0.33245915454E+04  0.65000000000E+04  0.15050000000E+03 0. -1.
</event>
<event>
 4    1  0.5143956E-004  0.6500000E+04  0.7818608E-02  0.7223770E-01
         52   -1    0    0    0    0  0.00000000000E+00  0.00000000000E+00  0.64930732323E+04  0.65000000000E+04  0.30000000000E+03 0. -1.
        -52   -1    0    0    0    0 -0.00000000000E+00 -0.00000000000E+00 -0.64930732323E+04  0.65000000000E+04  0.30000000000E+03 0.  1.
     100001    1    1    2    0    0 -0.10251889182E+04 -0.23073320307E+04 -0.59877004211E+04  0.65000000000E+04  0.15050000000E+03 0.  1.
     100001    1    1    2    0    0  0.10251889182E+04  0.23073320307E+04  0.59877004211E+04  0.65000000000E+04  0.15050000000E+03 0. -1.
</event>
<event>
 4    1  0.5143956E-004  0.6500000E+04  0.7818608E-02  0.7223770E-01
         52   -1    0    0    0    0  0.00000000000E+00  0.00000000000E+00  0.64930732323E+04  0.65000000000E+04  0.30000000000E+03 0.  1.
        -52   -1    0    0    0    0 -0.00000000000E+00 -0.00000000000E+00 -0.64930732323E+04  0.65000000000E+04  0.30000000000E+03 0. -1.
     100001    1    1    2    0    0  0.15398313614E+03 -0.57264399146E+03  0.64711450148E+04  0.65000000000E+04  0.15050000000E+03 0.  1.
     100001    1    1    2    0    0 -0.15398313614E+03  0.57264399146E+03 -0.64711450148E+04  0.65000000000E+04  0.15050000000E+03 0. -1.
</event>
<event>
 4    1  0.5143956E-004  0.6500000E+04  0.7818608E-02  0.7223770E-01
         52   -1    0    0    0    0  0.00000000000E+00  0.00000000000E+00  0.64930732323E+04  0.65000000000E+04  0.30000000000E+03 0. -1.
        -52   -1    0    0    0    0 -0.00000000000E+00 -0.00000000000E+00 -0.64930732323E+04  0.65000000000E+04  0.30000000000E+03 0.  1.
     100001    1    1    2    0    0  0.43670629689E+04  0.28669961233E+03  0.48035314205E+04  0.65000000000E+04  0.15050000000E+03 0. -1.
     100001    1    1    2    0    0 -0.43670629689E+04 -0.28669961233E+03 -0.48035314205E+04  0.65000000000E+04  0.15050000000E+03 0.  1.
</event>
<event>
 4    1  0.5143956E-004  0.6500000E+04  0.7818608E-02  0.7223770E-01
         52   -1    0    0    0    0  0.00000000000E+00  0.00000000000E+00  0.64930732323E+04  0.65000000000E+04  0.30000000000E+03 0.  1.
        -52   -1    0    0    0    0 -0.00000000000E+00 -0.00000000000E+00 -0.64930732323E+04  0.65000000000E+04  0.30000000000E+03 0. -1.
     100001    1    1    2    0    0 -0.12009688620E+03 -0.95329706160E+03  0.64268305719E+04  0.65000000000E+04  0.15050000000E+03 0.  1.
     100001    1    1    2    0    0  0.12009688620E+03  0.95329706160E+03 -0.64268305719E+04  0.65000000000E+04  0.15050000000E+03 0. -1.
</event>
<event>
 4    1  0.5143956E-004  0.6500000E+04  0.7818608E-02  0.7223770E-01
         52   -1    0    0    0    0  0.00000000000E+00  0.00000000000E+00  0.64930732323E+04  0.65000000000E+04  0.30000000000E+03 0.  1.
        -52   -1    0    0    0    0 -0.00000000000E+00 -0.00000000000E+00 -0.64930732323E+04  0.65000000000E+04  0.30000000000E+03 0. -1.
     100001    1    1    2    0    0 -0.10180815341E+04  0.25327313064E+04 -0.58971291210E+04  0.65000000000E+04  0.15050000000E+03 0. -1.
     100001    1    1    2    0    0  0.10180815341E+04 -0.25327313064E+04  0.58971291210E+04  0.65000000000E+04  0.15050000000E+03 0.  1.
</event>
<event>
 4    1  0.5143956E-004  0.6500000E+04  0.7818608E-02  0.7223770E-01
         52   -1    0    0    0    0  0.00000000000E+00  0.00000000000E+00  0.64930732323E+04  0.65000000000E+04  0.30000000000E+03 0. -1.
        -52   -1    0    0    0    0 -0.00000000000E+00 -0.00000000000E+00 -0.64930732323E+04  0.65000000000E+04  0.30000000000E+03 0.  1.
     100001    1    1    2    0    0 -0.18640334189E+03 -0.25538960752E+03  0.64905608149E+04  0.65000000000E+04  0.15050000000E+03 0. -1.
     100001    1    1    2    0    0  0.18640334189E+03  0.25538960752E+03 -0.64905608149E+04  0.65000000000E+04  0.15050000000E+03 0.  1.
</event>
<event>
 4    1  0.5143956E-004  0.6500000E+04  0.7818608E-02  0.7223770E-01
         52   -1    0    0    0    0  0.00000000000E+00  0.00000000000E+00  0.64930732323E+04  0.65000000000E+04  0.30000000000E+03 0. -1.
        -52   -1    0    0    0    0 -0.00000000000E+00 -0.00000000000E+00 -0.64930732323E+04  0.65000000000E+04  0.30000000000E+03 0.  1.
     100001    1    1    2    0    0 -0.19232042625E+04  0.19831186000E+04  0.58818258843E+04  0.65000000000E+04  0.15050000000E+03 0. -1.
     100001    1    1    2    0    0  0.19232042625E+04 -0.19831186000E+04 -0.58818258843E+04  0.65000000000E+04  0.15050000000E+03 0.  1.
</event>
<event>
 4    1  0.5376333E-004  0.6500000E+04  0.7818608E-02  0.7223770E-01
         52   -1    0    0    0    0  0.00000000000E+00  0.00000000000E+00  0.64930732323E+04  0.65000000000E+04  0.30000000000E+03 0. -1.
        -52   -1    0    0    0    0 -0.00000000000E+00 -0.00000000000E+00 -0.64930732323E+04  0.65000000000E+04  0.30000000000E+03 0. -1.
     100001    1    1    2    0    0 -0.24484884381E+03  0.82729119183E+02 -0.64931159459E+04  0.65000000000E+04  0.15050000000E+03 0. -1.
     100001    1    1    2    0    0  0.24484884381E+03 -0.82729119183E+02  0.64931159459E+04  0.65000000000E+04  0.15050000000E+03 0. -1.
</event>
<event>
 4    1  0.5143956E-004  0.6500000E+04  0.7818608E-02  0.7223770E-01
         52   -1    0    0    0    0  0.00000000000E+00  0.00000000000E+00  0.64930732323E+04  0.65000000000E+04  0.30000000000E+03 0.  1.
        -52   -1    0    0    0    0 -0.00000000000E+00 -0.00000000000E+00 -0.64930732323E+04  0.65000000000E+04  0.30000000000E+03 0. -1.
     100001    1    1    2    0    0 -0.12894652155E+04 -0.19656737815E+04 -0.60581148712E+04  0.65000000000E+04  0.15050000000E+03 0. -1.
     100001    1    1    2    0    0  0.12894652155E+04  0.19656737815E+04  0.60581148712E+04  0.65000000000E+04  0.15050000000E+03 0.  1.
</event>
<event>
 4    1  0.5143956E-004  0.6500000E+04  0.7818608E-02  0.7223770E-01
         52   -1    0    0    0    0  0.00000000000E+00  0.00000000000E+00  0.64930732323E+04  0.65000000000E+04  0.30000000000E+03 0.  1.
        -52   -1    0    0    0    0 -0.00000000000E+00 -0.00000000000E+00 -0.64930732323E+04  0.65000000000E+04  0.30000000000E+03 0. -1.
     100001    1    1    2    0    0  0.44811544958E+03 -0.22806287354E+03  0.64787753179E+04  0.65000000000E+04  0.15050000000E+03 0.  1.
     100001    1    1    2    0    0 -0.44811544958E+03  0.22806287354E+03 -0.64787753179E+04  0.65000000000E+04  0.15050000000E+03 0. -1.
</event>
<event>
 4    1  0.5143956E-004  0.6500000E+04  0.7818608E-02  0.7223770E-01
         52   -1    0    0    0    0  0.00000000000E+00  0.00000000000E+00  0.64930732323E+04  0.65000000000E+04  0.30000000000E+03 0.  1.
        -52   -1    0    0    0    0 -0.00000000000E+00 -0.00000000000E+00 -0.64930732323E+04  0.65000000000E+04  0.30000000000E+03 0. -1.
     100001    1    1    2    0    0 -0.30600092780E+04  0.19815737946E+04  0.53793176394E+04  0.65000000000E+04  0.15050000000E+03 0.  1.
     100001    1    1    2    0    0  0.30600092780E+04 -0.19815737946E+04 -0.53793176394E+04  0.65000000000E+04  0.15050000000E+03 0. -1.
</event>
<event>
 4    1  0.5143956E-004  0.6500000E+04  0.7818608E-02  0.7223770E-01
         52   -1    0    0    0    0  0.00000000000E+00  0.00000000000E+00  0.64930732323E+04  0.65000000000E+04  0.30000000000E+03 0. -1.
        -52   -1    0    0    0    0 -0.00000000000E+00 -0.00000000000E+00 -0.64930732323E+04  0.65000000000E+04  0.30000000000E+03 0.  1.
     100001    1    1    2    0    0  0.16120878080E+04  0.18255378406E+04 -0.60246107129E+04  0.65000000000E+04  0.15050000000E+03 0.  1.
     100001    1    1    2    0    0 -0.16120878080E+04 -0.18255378406E+04  0.60246107129E+04  0.65000000000E+04  0.15050000000E+03 0. -1.
</event>
<event>
 4    1  0.5143956E-004  0.6500000E+04  0.7818608E-02  0.7223770E-01
         52   -1    0    0    0    0  0.00000000000E+00  0.00000000000E+00  0.64930732323E+04  0.65000000000E+04  0.30000000000E+03 0. -1.
        -52   -1    0    0    0    0 -0.00000000000E+00 -0.00000000000E+00 -0.64930732323E+04  0.65000000000E+04  0.30000000000E+03 0.  1.
     100001    1    1    2    0    0  0.39787803449E+03  0.33835840844E+03  0.64772337002E+04  0.65000000000E+04  0.15050000000E+03 0. -1.
     100001    1    1    2    0    0 -0.39787803449E+03 -0.33835840844E+03 -0.64772337002E+04  0.65000000000E+04  0.15050000000E+03 0.  1.
</event>
<event>
 4    1  0.5143956E-004  0.6500000E+04  0.7818608E-02  0.7223770E-01
         52   -1    0    0    0    0  0.00000000000E+00  0.00000000000E+00  0.64930732323E+04  0.65000000000E+04  0.30000000000E+03 0.  1.
        -52   -1    0    0    0    0 -0.00000000000E+00 -0.00000000000E+00 -0.64930732323E+04  0.65000000000E+04  0.30000000000E+03 0. -1.
     100001    1    1    2    0    0 -0.83799877165E+03 -0.83693646809E+03 -0.63894166523E+04  0.65000000000E+04  0.15050000000E+03 0. -1.
     100001    1    1    2    0    0  0.83799877165E+03  0.83693646809E+03  0.63894166523E+04  0.65000000000E+04  0.15050000000E+03 0.  1.
</event>
<event>
 4    1  0.5143956E-004  0.6500000E+04  0.7818608E-02  0.7223770E-01
         52   -1    0    0    0    0  0.00000000000E+00  0.00000000000E+00  0.64930732323E+04  0.65000000000E+04  0.30000000000E+03 0. -1.
        -52   -1    0    0    0    0 -0.00000000000E+00 -0.00000000000E+00 -0.64930732323E+04  0.65000000000E+04  0.30000000000E+03 0.  1.
     100001    1    1    2    0    0  0.12606437281E+04  0.74519788677E+03  0.63310984237E+04  0.65000000000E+04  0.15050000000E+03 0. -1.
     100001    1    1    2    0    0 -0.12606437281E+04 -0.74519788677E+03 -0.63310984237E+04  0.65000000000E+04  0.15050000000E+03 0.  1.
</event>
<event>
 4    1  0.5143956E-004  0.6500000E+04  0.7818608E-02  0.7223770E-01
         52   -1    0    0    0    0  0.00000000000E+00  0.00000000000E+00  0.64930732323E+04  0.65000000000E+04  0.30000000000E+03 0.  1.
        -52   -1    0    0    0    0 -0.00000000000E+00 -0.00000000000E+00 -0.64930732323E+04  0.65000000000E+04  0.30000000000E+03 0. -1.
     100001    1    1    2    0    0  0.41980530880E+04  0.33836352590E+04  0.36269425766E+04  0.65000000000E+04  0.15050000000E+03 0.  1.
     100001    1    1    2    0    0 -0.41980530880E+04 -0.33836352590E+04 -0.36269425766E+04  0.65000000000E+04  0.15050000000E+03 0. -1.
</event>
<event>
 4    1  0.5143956E-004  0.6500000E+04  0.7818608E-02  0.7223770E-01
         52   -1    0    0    0    0  0.00000000000E+00  0.00000000000E+00  0.64930732323E+04  0.65000000000E+04  0.30000000000E+03 0. -1.
        -52   -1    0    0    0    0 -0.00000000000E+00 -0.00000000000E+00 -0.64930732323E+04  0.65000000000E+04  0.30000000000E+03 0.  1.
     100001    1    1    2    0    0 -0.31845582492E+03 -0.71651872089E+03  0.64507779810E+04  0.65000000000E+04  0.15050000000E+03 0. -1.
     100001    1    1    2    0    0  0.31845582492E+03  0.71651872089E+03 -0.64507779810E+04  0.65000000000E+04  0.15050000000E+03 0.  1.
</event>
<event>
 4    1  0.5143956E-004  0.6500000E+04  0.7818608E-02  0.7223770E-01
         52   -1    0    0    0    0  0.00000000000E+00  0.00000000000E+00  0.64930732323E+04  0.65000000000E+04  0.30000000000E+03 0. -1.
        -52   -1    0    0    0    0 -0.00000000000E+00 -0.00000000000E+00 -0.64930732323E+04  0.65000000000E+04  0.30000000000E+03 0.  1.
     100001    1    1    2    0    0  0.23419084284E+03 -0.10503202525E+04 -0.64085358520E+04  0.65000000000E+04  0.15050000000E+03 0.  1.
     100001    1    1    2    0    0 -0.23419084284E+03  0.10503202525E+04  0.64085358520E+04  0.65000000000E+04  0.15050000000E+03 0. -1.
</event>
<event>
 4    1  0.5143956E-004  0.6500000E+04  0.7818608E-02  0.7223770E-01
         52   -1    0    0    0    0  0.00000000000E+00  0.00000000000E+00  0.64930732323E+04  0.65000000000E+04  0.30000000000E+03 0.  1.
        -52   -1    0    0    0    0 -0.00000000000E+00 -0.00000000000E+00 -0.64930732323E+04  0.65000000000E+04  0.30000000000E+03 0. -1.
     100001    1    1    2    0    0 -0.20950953493E+04  0.29042017995E+04  0.54225028479E+04  0.65000000000E+04  0.15050000000E+03 0.  1.
     100001    1    1    2    0    0  0.20950953493E+04 -0.29042017995E+04 -0.54225028479E+04  0.65000000000E+04  0.15050000000E+03 0. -1.
</event>
<event>
 4    1  0.5143956E-004  0.6500000E+04  0.7818608E-02  0.7223770E-01
         52   -1    0    0    0    0  0.00000000000E+00  0.00000000000E+00  0.64930732323E+04  0.65000000000E+04  0.30000000000E+03 0.  1.
        -52   -1    0    0    0    0 -0.00000000000E+00 -0.00000000000E+00 -0.64930732323E+04  0.65000000000E+04  0.30000000000E+03 0. -1.
     100001    1    1    2    0    0 -0.33379545882E+04 -0.33800244872E+04  0.44340549594E+04  0.65000000000E+04  0.15050000000E+03 0.  1.
     100001    1    1    2    0    0  0.33379545882E+04  0.33800244872E+04 -0.44340549594E+04  0.65000000000E+04  0.15050000000E+03 0. -1.
</event>
<event>
 4    1  0.5143956E-004  0.6500000E+04  0.7818608E-02  0.7223770E-01
         52   -1    0    0    0    0  0.00000000000E+00  0.00000000000E+00  0.64930732323E+04  0.65000000000E+04  0.30000000000E+03 0. -1.
        -52   -1    0    0    0    0 -0.00000000000E+00 -0.00000000000E+00 -0.64930732323E+04  0.65000000000E+04  0.30000000000E+03 0.  1.
     100001    1    1    2    0    0  0.40261228530E+03  0.11241355253E+04  0.63876108537E+04  0.65000000000E+04  0.15050000000E+03 0. -1.
     100001    1    1    2    0    0 -0.40261228530E+03 -0.11241355253E+04 -0.63876108537E+04  0.65000000000E+04  0.15050000000E+03 0.  1.
</event>
<event>
 4    1  0.5143956E-004  0.6500000E+04  0.7818608E-02  0.7223770E-01
         52   -1    0    0    0    0  0.00000000000E+00  0.00000000000E+00  0.64930732323E+04  0.65000000000E+04  0.30000000000E+03 0.  1.
        -52   -1    0    0    0    0 -0.00000000000E+00 -0.00000000000E+00 -0.64930732323E+04  0.65000000000E+04  0.30000000000E+03 0. -1.
     100001    1    1    2    0    0  0.70539456061E+03 -0.47169766701E+04  0.44136038968E+04  0.65000000000E+04  0.15050000000E+03 0.  1.
     100001    1    1    2    0    0 -0.70539456061E+03  0.47169766701E+04 -0.44136038968E+04  0.65000000000E+04  0.15050000000E+03 0. -1.
</event>
<event>
 4    1  0.5143956E-004  0.6500000E+04  0.7818608E-02  0.7223770E-01
         52   -1    0    0    0    0  0.00000000000E+00  0.00000000000E+00  0.64930732323E+04  0.65000000000E+04  0.30000000000E+03 0. -1.
        -52   -1    0    0    0    0 -0.00000000000E+00 -0.00000000000E+00 -0.64930732323E+04  0.65000000000E+04  0.30000000000E+03 0.  1.
     100001    1    1    2    0    0 -0.40213538310E+03  0.12519168433E+04 -0.63638306939E+04  0.65000000000E+04  0.15050000000E+03 0.  1.
     100001    1    1    2    0    0  0.40213538310E+03 -0.12519168433E+04  0.63638306939E+04  0.65000000000E+04  0.15050000000E+03 0. -1.
</event>
<event>
 4    1  0.5143956E-004  0.6500000E+04  0.7818608E-02  0.7223770E-01
         52   -1    0    0    0    0  0.00000000000E+00  0.00000000000E+00  0.64930732323E+04  0.65000000000E+04  0.30000000000E+03 0. -1.
        -52   -1    0    0    0    0 -0.00000000000E+00 -0.00000000000E+00 -0.64930732323E+04  0.65000000000E+04  0.30000000000E+03 0. -1.
     100001    1    1    2    0    0 -0.40041334245E+03 -0.90418136438E+02 -0.64852789813E+04  0.65000000000E+04  0.15050000000E+03 0. -1.
     100001    1    1    2    0    0  0.40041334245E+03  0.90418136438E+02  0.64852789813E+04  0.65000000000E+04  0.15050000000E+03 0. -1.
</event>
<event>
 4    1  0.5143956E-004  0.6500000E+04  0.7818608E-02  0.7223770E-01
         52   -1    0    0    0    0  0.00000000000E+00  0.00000000000E+00  0.64930732323E+04  0.65000000000E+04  0.30000000000E+03 0.  1.
        -52   -1    0    0    0    0 -0.00000000000E+00 -0.00000000000E+00 -0.64930732323E+04  0.65000000000E+04  0.30000000000E+03 0. -1.
     100001    1    1    2    0    0 -0.99280552505E+03 -0.14761622796E+03  0.64202722986E+04  0.65000000000E+04  0.15050000000E+03 0.  1.
     100001    1    1    2    0    0  0.99280552505E+03  0.14761622796E+03 -0.64202722986E+04  0.65000000000E+04  0.15050000000E+03 0. -1.
</event>
<event>
 4    1  0.5143956E-004  0.6500000E+04  0.7818608E-02  0.7223770E-01
         52   -1    0    0    0    0  0.00000000000E+00  0.00000000000E+00  0.64930732323E+04  0.65000000000E+04  0.30000000000E+03 0.  1.
        -52   -1    0    0    0    0 -0.00000000000E+00 -0.00000000000E+00 -0.64930732323E+04  0.65000000000E+04  0.30000000000E+03 0. -1.
     100001    1    1    2    0    0  0.24586913889E+04 -0.13205928018E+04  0.58684087329E+04  0.65000000000E+04  0.15050000000E+03 0.  1.
     100001    1    1    2    0    0 -0.24586913889E+04  0.13205928018E+04 -0.58684087329E+04  0.65000000000E+04  0.15050000000E+03 0. -1.
</event>
<event>
 4    1  0.5143956E-004  0.6500000E+04  0.7818608E-02  0.7223770E-01
         52   -1    0    0    0    0  0.00000000000E+00  0.00000000000E+00  0.64930732323E+04  0.65000000000E+04  0.30000000000E+03 0. -1.
        -52   -1    0    0    0    0 -0.00000000000E+00 -0.00000000000E+00 -0.64930732323E+04  0.65000000000E+04  0.30000000000E+03 0.  1.
     100001    1    1    2    0    0  0.13128387503E+03  0.36018164955E+04  0.54071279092E+04  0.65000000000E+04  0.15050000000E+03 0. -1.
     100001    1    1    2    0    0 -0.13128387503E+03 -0.36018164955E+04 -0.54071279092E+04  0.65000000000E+04  0.15050000000E+03 0.  1.
</event>
<event>
 4    1  0.5143956E-004  0.6500000E+04  0.7818608E-02  0.7223770E-01
         52   -1    0    0    0    0  0.00000000000E+00  0.00000000000E+00  0.64930732323E+04  0.65000000000E+04  0.30000000000E+03 0. -1.
        -52   -1    0    0    0    0 -0.00000000000E+00 -0.00000000000E+00 -0.64930732323E+04  0.65000000000E+04  0.30000000000E+03 0.  1.
     100001    1    1    2    0    0 -0.36916900419E+04  0.33616068968E+04  0.41591313342E+04  0.65000000000E+04  0.15050000000E+03 0. -1.
     100001    1    1    2    0    0  0.36916900419E+04 -0.33616068968E+04 -0.41591313342E+04  0.65000000000E+04  0.15050000000E+03 0.  1.
</event>
<event>
 4    1  0.5143956E-004  0.6500000E+04  0.7818608E-02  0.7223770E-01
         52   -1    0    0    0    0  0.00000000000E+00  0.00000000000E+00  0.64930732323E+04  0.65000000000E+04  0.30000000000E+03 0.  1.
        -52   -1    0    0    0    0 -0.00000000000E+00 -0.00000000000E+00 -0.64930732323E+04  0.65000000000E+04  0.30000000000E+03 0. -1.
     100001    1    1    2    0    0 -0.39924104218E+03 -0.19433128731E+04  0.61880119116E+04  0.65000000000E+04  0.15050000000E+03 0.  1.
     100001    1    1    2    0    0  0.39924104218E+03  0.19433128731E+04 -0.61880119116E+04  0.65000000000E+04  0.15050000000E+03 0. -1.
</event>
<event>
 4    1  0.5143956E-004  0.6500000E+04  0.7818608E-02  0.7223770E-01
         52   -1    0    0    0    0  0.00000000000E+00  0.00000000000E+00  0.64930732323E+04  0.65000000000E+04  0.30000000000E+03 0.  1.
        -52   -1    0    0    0    0 -0.00000000000E+00 -0.00000000000E+00 -0.64930732323E+04  0.65000000000E+04  0.30000000000E+03 0. -1.
     100001    1    1    2    0    0  0.71661010194E+03 -0.12099653576E+04 -0.63442732874E+04  0.65000000000E+04  0.15050000000E+03 0. -1.
     100001    1    1    2    0    0 -0.71661010194E+03  0.12099653576E+04  0.63442732874E+04  0.65000000000E+04  0.15050000000E+03 0.  1.
</event>
<event>
 4    1  0.5143956E-004  0.6500000E+04  0.7818608E-02  0.7223770E-01
         52   -1    0    0    0    0  0.00000000000E+00  0.00000000000E+00  0.64930732323E+04  0.65000000000E+04  0.30000000000E+03 0.  1.
        -52   -1    0    0    0    0 -0.00000000000E+00 -0.00000000000E+00 -0.64930732323E+04  0.65000000000E+04  0.30000000000E+03 0. -1.
     100001    1    1    2    0    0  0.35829126596E+03  0.83222725355E+03 -0.64347785445E+04  0.65000000000E+04  0.15050000000E+03 0. -1.
     100001    1    1    2    0    0 -0.35829126596E+03 -0.83222725355E+03  0.64347785445E+04  0.65000000000E+04  0.15050000000E+03 0.  1.
</event>
<event>
 4    1  0.5143956E-004  0.6500000E+04  0.7818608E-02  0.7223770E-01
         52   -1    0    0    0    0  0.00000000000E+00  0.00000000000E+00  0.64930732323E+04  0.65000000000E+04  0.30000000000E+03 0. -1.
        -52   -1    0    0    0    0 -0.00000000000E+00 -0.00000000000E+00 -0.64930732323E+04  0.65000000000E+04  0.30000000000E+03 0.  1.
     100001    1    1    2    0    0 -0.46607476892E+04 -0.44683702481E+04 -0.73379019684E+03  0.65000000000E+04  0.15050000000E+03 0.  1.
     100001    1    1    2    0    0  0.46607476892E+04  0.44683702481E+04  0.73379019684E+03  0.65000000000E+04  0.15050000000E+03 0. -1.
</event>
<event>
 4    1  0.5143956E-004  0.6500000E+04  0.7818608E-02  0.7223770E-01
         52   -1    0    0    0    0  0.00000000000E+00  0.00000000000E+00  0.64930732323E+04  0.65000000000E+04  0.30000000000E+03 0.  1.
        -52   -1    0    0    0    0 -0.00000000000E+00 -0.00000000000E+00 -0.64930732323E+04  0.65000000000E+04  0.30000000000E+03 0. -1.
     100001    1    1    2    0    0 -0.27122987364E+03  0.50215153541E+03 -0.64731466800E+04  0.65000000000E+04  0.15050000000E+03 0. -1.
     100001    1    1    2    0    0  0.27122987364E+03 -0.50215153541E+03  0.64731466800E+04  0.65000000000E+04  0.15050000000E+03 0.  1.
</event>
<event>
 4    1  0.5143956E-004  0.6500000E+04  0.7818608E-02  0.7223770E-01
         52   -1    0    0    0    0  0.00000000000E+00  0.00000000000E+00  0.64930732323E+04  0.65000000000E+04  0.30000000000E+03 0.  1.
        -52   -1    0    0    0    0 -0.00000000000E+00 -0.00000000000E+00 -0.64930732323E+04  0.65000000000E+04  0.30000000000E+03 0. -1.
     100001    1    1    2    0    0 -0.31754160888E+03 -0.57022008639E+02 -0.64902438758E+04  0.65000000000E+04  0.15050000000E+03 0. -1.
     100001    1    1    2    0    0  0.31754160888E+03  0.57022008639E+02  0.64902438758E+04  0.65000000000E+04  0.15050000000E+03 0.  1.
</event>
<event>
 4    1  0.5143956E-004  0.6500000E+04  0.7818608E-02  0.7223770E-01
         52   -1    0    0    0    0  0.00000000000E+00  0.00000000000E+00  0.64930732323E+04  0.65000000000E+04  0.30000000000E+03 0.  1.
        -52   -1    0    0    0    0 -0.00000000000E+00 -0.00000000000E+00 -0.64930732323E+04  0.65000000000E+04  0.30000000000E+03 0. -1.
     100001    1    1    2    0    0 -0.27990613336E+03 -0.35581861885E+03  0.64824683121E+04  0.65000000000E+04  0.15050000000E+03 0.  1.
     100001    1    1    2    0    0  0.27990613336E+03  0.35581861885E+03 -0.64824683121E+04  0.65000000000E+04  0.15050000000E+03 0. -1.
</event>
<event>
 4    1  0.5143956E-004  0.6500000E+04  0.7818608E-02  0.7223770E-01
         52   -1    0    0    0    0  0.00000000000E+00  0.00000000000E+00  0.64930732323E+04  0.65000000000E+04  0.30000000000E+03 0. -1.
        -52   -1    0    0    0    0 -0.00000000000E+00 -0.00000000000E+00 -0.64930732323E+04  0.65000000000E+04  0.30000000000E+03 0.  1.
     100001    1    1    2    0    0 -0.22561719090E+04  0.21459465726E+03 -0.60902370397E+04  0.65000000000E+04  0.15050000000E+03 0.  1.
     100001    1    1    2    0    0  0.22561719090E+04 -0.21459465726E+03  0.60902370397E+04  0.65000000000E+04  0.15050000000E+03 0. -1.
</event>
<event>
 4    1  0.5143956E-004  0.6500000E+04  0.7818608E-02  0.7223770E-01
         52   -1    0    0    0    0  0.00000000000E+00  0.00000000000E+00  0.64930732323E+04  0.65000000000E+04  0.30000000000E+03 0. -1.
        -52   -1    0    0    0    0 -0.00000000000E+00 -0.00000000000E+00 -0.64930732323E+04  0.65000000000E+04  0.30000000000E+03 0.  1.
     100001    1    1    2    0    0 -0.61999477473E+03  0.64130935405E+04  0.84568757222E+03  0.65000000000E+04  0.15050000000E+03 0.  1.
     100001    1    1    2    0    0  0.61999477473E+03 -0.64130935405E+04 -0.84568757222E+03  0.65000000000E+04  0.15050000000E+03 0. -1.
</event>
<event>
 4    1  0.5143956E-004  0.6500000E+04  0.7818608E-02  0.7223770E-01
         52   -1    0    0    0    0  0.00000000000E+00  0.00000000000E+00  0.64930732323E+04  0.65000000000E+04  0.30000000000E+03 0.  1.
        -52   -1    0    0    0    0 -0.00000000000E+00 -0.00000000000E+00 -0.64930732323E+04  0.65000000000E+04  0.30000000000E+03 0. -1.
     100001    1    1    2    0    0  0.25786696674E+03 -0.29563901526E+03 -0.64864051639E+04  0.65000000000E+04  0.15050000000E+03 0. -1.
     100001    1    1    2    0    0 -0.25786696674E+03  0.29563901526E+03  0.64864051639E+04  0.65000000000E+04  0.15050000000E+03 0.  1.
</event>
<event>
 4    1  0.5143956E-004  0.6500000E+04  0.7818608E-02  0.7223770E-01
         52   -1    0    0    0    0  0.00000000000E+00  0.00000000000E+00  0.64930732323E+04  0.65000000000E+04  0.30000000000E+03 0. -1.
        -52   -1    0    0    0    0 -0.00000000000E+00 -0.00000000000E+00 -0.64930732323E+04  0.65000000000E+04  0.30000000000E+03 0.  1.
     100001    1    1    2    0    0  0.58176685260E+03 -0.33019089058E+03 -0.64637350700E+04  0.65000000000E+04  0.15050000000E+03 0.  1.
     100001    1    1    2    0    0 -0.58176685260E+03  0.33019089058E+03  0.64637350700E+04  0.65000000000E+04  0.15050000000E+03 0. -1.
</event>
<event>
 4    1  0.5143956E-004  0.6500000E+04  0.7818608E-02  0.7223770E-01
         52   -1    0    0    0    0  0.00000000000E+00  0.00000000000E+00  0.64930732323E+04  0.65000000000E+04  0.30000000000E+03 0. -1.
        -52   -1    0    0    0    0 -0.00000000000E+00 -0.00000000000E+00 -0.64930732323E+04  0.65000000000E+04  0.30000000000E+03 0.  1.
     100001    1    1    2    0    0  0.44996423705E+04  0.38805875367E+04  0.26308950297E+04  0.65000000000E+04  0.15050000000E+03 0. -1.
     100001    1    1    2    0    0 -0.44996423705E+04 -0.38805875367E+04 -0.26308950297E+04  0.65000000000E+04  0.15050000000E+03 0.  1.
</event>
<event>
 4    1  0.5143956E-004  0.6500000E+04  0.7818608E-02  0.7223770E-01
         52   -1    0    0    0    0  0.00000000000E+00  0.00000000000E+00  0.64930732323E+04  0.65000000000E+04  0.30000000000E+03 0.  1.
        -52   -1    0    0    0    0 -0.00000000000E+00 -0.00000000000E+00 -0.64930732323E+04  0.65000000000E+04  0.30000000000E+03 0. -1.
     100001    1    1    2    0    0  0.14495419303E+04 -0.10149412804E+04 -0.62526851944E+04  0.65000000000E+04  0.15050000000E+03 0. -1.
     100001    1    1    2    0    0 -0.14495419303E+04  0.10149412804E+04  0.62526851944E+04  0.65000000000E+04  0.15050000000E+03 0.  1.
</event>
<event>
 4    1  0.5143956E-004  0.6500000E+04  0.7818608E-02  0.7223770E-01
         52   -1    0    0    0    0  0.00000000000E+00  0.00000000000E+00  0.64930732323E+04  0.65000000000E+04  0.30000000000E+03 0.  1.
        -52   -1    0    0    0    0 -0.00000000000E+00 -0.00000000000E+00 -0.64930732323E+04  0.65000000000E+04  0.30000000000E+03 0. -1.
     100001    1    1    2    0    0 -0.13234458959E+04  0.26601531182E+04  0.57792236588E+04  0.65000000000E+04  0.15050000000E+03 0.  1.
     100001    1    1    2    0    0  0.13234458959E+04 -0.26601531182E+04 -0.57792236588E+04  0.65000000000E+04  0.15050000000E+03 0. -1.
</event>
<event>
 4    1  0.5143956E-004  0.6500000E+04  0.7818608E-02  0.7223770E-01
         52   -1    0    0    0    0  0.00000000000E+00  0.00000000000E+00  0.64930732323E+04  0.65000000000E+04  0.30000000000E+03 0. -1.
        -52   -1    0    0    0    0 -0.00000000000E+00 -0.00000000000E+00 -0.64930732323E+04  0.65000000000E+04  0.30000000000E+03 0.  1.
     100001    1    1    2    0    0  0.13875346233E+04 -0.15697135023E+04 -0.61512679132E+04  0.65000000000E+04  0.15050000000E+03 0.  1.
     100001    1    1    2    0    0 -0.13875346233E+04  0.15697135023E+04  0.61512679132E+04  0.65000000000E+04  0.15050000000E+03 0. -1.
</event>
<event>
 4    1  0.5143956E-004  0.6500000E+04  0.7818608E-02  0.7223770E-01
         52   -1    0    0    0    0  0.00000000000E+00  0.00000000000E+00  0.64930732323E+04  0.65000000000E+04  0.30000000000E+03 0. -1.
        -52   -1    0    0    0    0 -0.00000000000E+00 -0.00000000000E+00 -0.64930732323E+04  0.65000000000E+04  0.30000000000E+03 0.  1.
     100001    1    1    2    0    0  0.35160078586E+03 -0.17145794038E+04  0.62581102663E+04  0.65000000000E+04  0.15050000000E+03 0. -1.
     100001    1    1    2    0    0 -0.35160078586E+03  0.17145794038E+04 -0.62581102663E+04  0.65000000000E+04  0.15050000000E+03 0.  1.
</event>
<event>
 4    1  0.5143956E-004  0.6500000E+04  0.7818608E-02  0.7223770E-01
         52   -1    0    0    0    0  0.00000000000E+00  0.00000000000E+00  0.64930732323E+04  0.65000000000E+04  0.30000000000E+03 0. -1.
        -52   -1    0    0    0    0 -0.00000000000E+00 -0.00000000000E+00 -0.64930732323E+04  0.65000000000E+04  0.30000000000E+03 0. -1.
     100001    1    1    2    0    0  0.28717924660E+02 -0.81126849900E+03 -0.64473536008E+04  0.65000000000E+04  0.15050000000E+03 0. -1.
     100001    1    1    2    0    0 -0.28717924660E+02  0.81126849900E+03  0.64473536008E+04  0.65000000000E+04  0.15050000000E+03 0. -1.
</event>
<event>
 4    1  0.5143956E-004  0.6500000E+04  0.7818608E-02  0.7223770E-01
         52   -1    0    0    0    0  0.00000000000E+00  0.00000000000E+00  0.64930732323E+04  0.65000000000E+04  0.30000000000E+03 0. -1.
        -52   -1    0    0    0    0 -0.00000000000E+00 -0.00000000000E+00 -0.64930732323E+04  0.65000000000E+04  0.30000000000E+03 0.  1.
     100001    1    1    2    0    0 -0.49047226548E+04  0.29233402320E+04 -0.31024389304E+04  0.65000000000E+04  0.15050000000E+03 0.  1.
     100001    1    1    2    0    0  0.49047226548E+04 -0.29233402320E+04  0.31024389304E+04  0.65000000000E+04  0.15050000000E+03 0. -1.
</event>
<event>
 4    1  0.5143956E-004  0.6500000E+04  0.7818608E-02  0.7223770E-01
         52   -1    0    0    0    0  0.00000000000E+00  0.00000000000E+00  0.64930732323E+04  0.65000000000E+04  0.30000000000E+03 0.  1.
        -52   -1    0    0    0    0 -0.00000000000E+00 -0.00000000000E+00 -0.64930732323E+04  0.65000000000E+04  0.30000000000E+03 0.  1.
     100001    1    1    2    0    0 -0.40832659092E+02 -0.17064971341E+04 -0.62700518320E+04  0.65000000000E+04  0.15050000000E+03 0.  1.
     100001    1    1    2    0    0  0.40832659092E+02  0.17064971341E+04  0.62700518320E+04  0.65000000000E+04  0.15050000000E+03 0.  1.
</event>
<event>
 4    1  0.5143956E-004  0.6500000E+04  0.7818608E-02  0.7223770E-01
         52   -1    0    0    0    0  0.00000000000E+00  0.00000000000E+00  0.64930732323E+04  0.65000000000E+04  0.30000000000E+03 0. -1.
        -52   -1    0    0    0    0 -0.00000000000E+00 -0.00000000000E+00 -0.64930732323E+04  0.65000000000E+04  0.30000000000E+03 0.  1.
     100001    1    1    2    0    0 -0.72126194874E+03 -0.37426527937E+03  0.64472518527E+04  0.65000000000E+04  0.15050000000E+03 0. -1.
     100001    1    1    2    0    0  0.72126194874E+03  0.37426527937E+03 -0.64472518527E+04  0.65000000000E+04  0.15050000000E+03 0.  1.
</event>
<event>
 4    1  0.5143956E-004  0.6500000E+04  0.7818608E-02  0.7223770E-01
         52   -1    0    0    0    0  0.00000000000E+00  0.00000000000E+00  0.64930732323E+04  0.65000000000E+04  0.30000000000E+03 0. -1.
        -52   -1    0    0    0    0 -0.00000000000E+00 -0.00000000000E+00 -0.64930732323E+04  0.65000000000E+04  0.30000000000E+03 0.  1.
     100001    1    1    2    0    0  0.15487377186E+04 -0.21131828963E+04  0.59466981827E+04  0.65000000000E+04  0.15050000000E+03 0. -1.
     100001    1    1    2    0    0 -0.15487377186E+04  0.21131828963E+04 -0.59466981827E+04  0.65000000000E+04  0.15050000000E+03 0.  1.
</event>
<event>
 4    1  0.5143956E-004  0.6500000E+04  0.7818608E-02  0.7223770E-01
         52   -1    0    0    0    0  0.00000000000E+00  0.00000000000E+00  0.64930732323E+04  0.65000000000E+04  0.30000000000E+03 0. -1.
        -52   -1    0    0    0    0 -0.00000000000E+00 -0.00000000000E+00 -0.64930732323E+04  0.65000000000E+04  0.30000000000E+03 0.  1.
     100001    1    1    2    0    0 -0.74584281734E+03  0.42323260535E+03  0.64414239422E+04  0.65000000000E+04  0.15050000000E+03 0. -1.
     100001    1    1    2    0    0  0.74584281734E+03 -0.42323260535E+03 -0.64414239422E+04  0.65000000000E+04  0.15050000000E+03 0.  1.
</event>
<event>
 4    1  0.5143956E-004  0.6500000E+04  0.7818608E-02  0.7223770E-01
         52   -1    0    0    0    0  0.00000000000E+00  0.00000000000E+00  0.64930732323E+04  0.65000000000E+04  0.30000000000E+03 0. -1.
        -52   -1    0    0    0    0 -0.00000000000E+00 -0.00000000000E+00 -0.64930732323E+04  0.65000000000E+04  0.30000000000E+03 0. -1.
     100001    1    1    2    0    0 -0.32220342583E+03 -0.88380028742E+02  0.64896628320E+04  0.65000000000E+04  0.15050000000E+03 0. -1.
     100001    1    1    2    0    0  0.32220342583E+03  0.88380028742E+02 -0.64896628320E+04  0.65000000000E+04  0.15050000000E+03 0. -1.
</event>
<event>
 4    1  0.5143956E-004  0.6500000E+04  0.7818608E-02  0.7223770E-01
         52   -1    0    0    0    0  0.00000000000E+00  0.00000000000E+00  0.64930732323E+04  0.65000000000E+04  0.30000000000E+03 0.  1.
        -52   -1    0    0    0    0 -0.00000000000E+00 -0.00000000000E+00 -0.64930732323E+04  0.65000000000E+04  0.30000000000E+03 0. -1.
     100001    1    1    2    0    0 -0.12161763979E+04 -0.65544957947E+03 -0.63496968879E+04  0.65000000000E+04  0.15050000000E+03 0. -1.
     100001    1    1    2    0    0  0.12161763979E+04  0.65544957947E+03  0.63496968879E+04  0.65000000000E+04  0.15050000000E+03 0.  1.
</event>
<event>
 4    1  0.5143956E-004  0.6500000E+04  0.7818608E-02  0.7223770E-01
         52   -1    0    0    0    0  0.00000000000E+00  0.00000000000E+00  0.64930732323E+04  0.65000000000E+04  0.30000000000E+03 0.  1.
        -52   -1    0    0    0    0 -0.00000000000E+00 -0.00000000000E+00 -0.64930732323E+04  0.65000000000E+04  0.30000000000E+03 0. -1.
     100001    1    1    2    0    0 -0.18200245269E+04 -0.29185501767E+04  0.55133406695E+04  0.65000000000E+04  0.15050000000E+03 0.  1.
     100001    1    1    2    0    0  0.18200245269E+04  0.29185501767E+04 -0.55133406695E+04  0.65000000000E+04  0.15050000000E+03 0. -1.
</event>
<event>
 4    1  0.5143956E-004  0.6500000E+04  0.7818608E-02  0.7223770E-01
         52   -1    0    0    0    0  0.00000000000E+00  0.00000000000E+00  0.64930732323E+04  0.65000000000E+04  0.30000000000E+03 0. -1.
        -52   -1    0    0    0    0 -0.00000000000E+00 -0.00000000000E+00 -0.64930732323E+04  0.65000000000E+04  0.30000000000E+03 0.  1.
     100001    1    1    2    0    0 -0.10977425897E+04  0.88123889436E+03  0.63439521568E+04  0.65000000000E+04  0.15050000000E+03 0. -1.
     100001    1    1    2    0    0  0.10977425897E+04 -0.88123889436E+03 -0.63439521568E+04  0.65000000000E+04  0.15050000000E+03 0.  1.
</event>
<event>
 4    1  0.5143956E-004  0.6500000E+04  0.7818608E-02  0.7223770E-01
         52   -1    0    0    0    0  0.00000000000E+00  0.00000000000E+00  0.64930732323E+04  0.65000000000E+04  0.30000000000E+03 0.  1.
        -52   -1    0    0    0    0 -0.00000000000E+00 -0.00000000000E+00 -0.64930732323E+04  0.65000000000E+04  0.30000000000E+03 0. -1.
     100001    1    1    2    0    0  0.73702864062E+03 -0.27129895476E+04  0.58586539621E+04  0.65000000000E+04  0.15050000000E+03 0.  1.
     100001    1    1    2    0    0 -0.73702864062E+03  0.27129895476E+04 -0.58586539621E+04  0.65000000000E+04  0.15050000000E+03 0. -1.
</event>
<event>
 4    1  0.5143956E-004  0.6500000E+04  0.7818608E-02  0.7223770E-01
         52   -1    0    0    0    0  0.00000000000E+00  0.00000000000E+00  0.64930732323E+04  0.65000000000E+04  0.30000000000E+03 0.  1.
        -52   -1    0    0    0    0 -0.00000000000E+00 -0.00000000000E+00 -0.64930732323E+04  0.65000000000E+04  0.30000000000E+03 0. -1.
     100001    1    1    2    0    0  0.10372113493E+04 -0.22525210537E+04  0.60064707832E+04  0.65000000000E+04  0.15050000000E+03 0.  1.
     100001    1    1    2    0    0 -0.10372113493E+04  0.22525210537E+04 -0.60064707832E+04  0.65000000000E+04  0.15050000000E+03 0. -1.
</event>
<event>
 4    1  0.5143956E-004  0.6500000E+04  0.7818608E-02  0.7223770E-01
         52   -1    0    0    0    0  0.00000000000E+00  0.00000000000E+00  0.64930732323E+04  0.65000000000E+04  0.30000000000E+03 0. -1.
        -52   -1    0    0    0    0 -0.00000000000E+00 -0.00000000000E+00 -0.64930732323E+04  0.65000000000E+04  0.30000000000E+03 0.  1.
     100001    1    1    2    0    0  0.21079538504E+03  0.20212438806E+03  0.64916916738E+04  0.65000000000E+04  0.15050000000E+03 0. -1.
     100001    1    1    2    0    0 -0.21079538504E+03 -0.20212438806E+03 -0.64916916738E+04  0.65000000000E+04  0.15050000000E+03 0.  1.
</event>
<event>
 4    1  0.5143956E-004  0.6500000E+04  0.7818608E-02  0.7223770E-01
         52   -1    0    0    0    0  0.00000000000E+00  0.00000000000E+00  0.64930732323E+04  0.65000000000E+04  0.30000000000E+03 0.  1.
        -52   -1    0    0    0    0 -0.00000000000E+00 -0.00000000000E+00 -0.64930732323E+04  0.65000000000E+04  0.30000000000E+03 0.  1.
     100001    1    1    2    0    0  0.15751698652E+03  0.29484779044E+03  0.64896535292E+04  0.65000000000E+04  0.15050000000E+03 0.  1.
     100001    1    1    2    0    0 -0.15751698652E+03 -0.29484779044E+03 -0.64896535292E+04  0.65000000000E+04  0.15050000000E+03 0.  1.
</event>
<event>
 4    1  0.5143956E-004  0.6500000E+04  0.7818608E-02  0.7223770E-01
         52   -1    0    0    0    0  0.00000000000E+00  0.00000000000E+00  0.64930732323E+04  0.65000000000E+04  0.30000000000E+03 0.  1.
        -52   -1    0    0    0    0 -0.00000000000E+00 -0.00000000000E+00 -0.64930732323E+04  0.65000000000E+04  0.30000000000E+03 0. -1.
     100001    1    1    2    0    0 -0.18845437074E+04  0.51124657966E+03 -0.61979409242E+04  0.65000000000E+04  0.15050000000E+03 0. -1.
     100001    1    1    2    0    0  0.18845437074E+04 -0.51124657966E+03  0.61979409242E+04  0.65000000000E+04  0.15050000000E+03 0.  1.
</event>
<event>
 4    1  0.5143956E-004  0.6500000E+04  0.7818608E-02  0.7223770E-01
         52   -1    0    0    0    0  0.00000000000E+00  0.00000000000E+00  0.64930732323E+04  0.65000000000E+04  0.30000000000E+03 0. -1.
        -52   -1    0    0    0    0 -0.00000000000E+00 -0.00000000000E+00 -0.64930732323E+04  0.65000000000E+04  0.30000000000E+03 0.  1.
     100001    1    1    2    0    0 -0.62956073759E+03 -0.87094274214E+03 -0.64087800530E+04  0.65000000000E+04  0.15050000000E+03 0.  1.
     100001    1    1    2    0    0  0.62956073759E+03  0.87094274214E+03  0.64087800530E+04  0.65000000000E+04  0.15050000000E+03 0. -1.
</event>
<event>
 4    1  0.5143956E-004  0.6500000E+04  0.7818608E-02  0.7223770E-01
         52   -1    0    0    0    0  0.00000000000E+00  0.00000000000E+00  0.64930732323E+04  0.65000000000E+04  0.30000000000E+03 0.  1.
        -52   -1    0    0    0    0 -0.00000000000E+00 -0.00000000000E+00 -0.64930732323E+04  0.65000000000E+04  0.30000000000E+03 0. -1.
     100001    1    1    2    0    0  0.39419700599E+03 -0.27682515542E+03  0.64803801049E+04  0.65000000000E+04  0.15050000000E+03 0.  1.
     100001    1    1    2    0    0 -0.39419700599E+03  0.27682515542E+03 -0.64803801049E+04  0.65000000000E+04  0.15050000000E+03 0. -1.
</event>
<event>
 4    1  0.5143956E-004  0.6500000E+04  0.7818608E-02  0.7223770E-01
         52   -1    0    0    0    0  0.00000000000E+00  0.00000000000E+00  0.64930732323E+04  0.65000000000E+04  0.30000000000E+03 0. -1.
        -52   -1    0    0    0    0 -0.00000000000E+00 -0.00000000000E+00 -0.64930732323E+04  0.65000000000E+04  0.30000000000E+03 0.  1.
     100001    1    1    2    0    0  0.47704422175E+03 -0.85106136556E+03 -0.64245990624E+04  0.65000000000E+04  0.15050000000E+03 0.  1.
     100001    1    1    2    0    0 -0.47704422175E+03  0.85106136556E+03  0.64245990624E+04  0.65000000000E+04  0.15050000000E+03 0. -1.
</event>
<event>
 4    1  0.5143956E-004  0.6500000E+04  0.7818608E-02  0.7223770E-01
         52   -1    0    0    0    0  0.00000000000E+00  0.00000000000E+00  0.64930732323E+04  0.65000000000E+04  0.30000000000E+03 0. -1.
        -52   -1    0    0    0    0 -0.00000000000E+00 -0.00000000000E+00 -0.64930732323E+04  0.65000000000E+04  0.30000000000E+03 0.  1.
     100001    1    1    2    0    0 -0.33602981479E+04 -0.19462928158E+04  0.52103445551E+04  0.65000000000E+04  0.15050000000E+03 0. -1.
     100001    1    1    2    0    0  0.33602981479E+04  0.19462928158E+04 -0.52103445551E+04  0.65000000000E+04  0.15050000000E+03 0.  1.
</event>
<event>
 4    1  0.5143956E-004  0.6500000E+04  0.7818608E-02  0.7223770E-01
         52   -1    0    0    0    0  0.00000000000E+00  0.00000000000E+00  0.64930732323E+04  0.65000000000E+04  0.30000000000E+03 0.  1.
        -52   -1    0    0    0    0 -0.00000000000E+00 -0.00000000000E+00 -0.64930732323E+04  0.65000000000E+04  0.30000000000E+03 0. -1.
     100001    1    1    2    0    0  0.18715941243E+04 -0.12995542408E+04 -0.60856917404E+04  0.65000000000E+04  0.15050000000E+03 0. -1.
     100001    1    1    2    0    0 -0.18715941243E+04  0.12995542408E+04  0.60856917404E+04  0.65000000000E+04  0.15050000000E+03 0.  1.
</event>
<event>
 4    1  0.5143956E-004  0.6500000E+04  0.7818608E-02  0.7223770E-01
         52   -1    0    0    0    0  0.00000000000E+00  0.00000000000E+00  0.64930732323E+04  0.65000000000E+04  0.30000000000E+03 0. -1.
        -52   -1    0    0    0    0 -0.00000000000E+00 -0.00000000000E+00 -0.64930732323E+04  0.65000000000E+04  0.30000000000E+03 0.  1.
     100001    1    1    2    0    0  0.70311530474E+03 -0.26273946229E+03 -0.64547615443E+04  0.65000000000E+04  0.15050000000E+03 0.  1.
     100001    1    1    2    0    0 -0.70311530474E+03  0.26273946229E+03  0.64547615443E+04  0.65000000000E+04  0.15050000000E+03 0. -1.
</event>
<event>
 4    1  0.5143956E-004  0.6500000E+04  0.7818608E-02  0.7223770E-01
         52   -1    0    0    0    0  0.00000000000E+00  0.00000000000E+00  0.64930732323E+04  0.65000000000E+04  0.30000000000E+03 0.  1.
        -52   -1    0    0    0    0 -0.00000000000E+00 -0.00000000000E+00 -0.64930732323E+04  0.65000000000E+04  0.30000000000E+03 0.  1.
     100001    1    1    2    0    0  0.13943467259E+04  0.15431829550E+04  0.61564383637E+04  0.65000000000E+04  0.15050000000E+03 0.  1.
     100001    1    1    2    0    0 -0.13943467259E+04 -0.15431829550E+04 -0.61564383637E+04  0.65000000000E+04  0.15050000000E+03 0.  1.
</event>
<event>
 4    1  0.5143956E-004  0.6500000E+04  0.7818608E-02  0.7223770E-01
         52   -1    0    0    0    0  0.00000000000E+00  0.00000000000E+00  0.64930732323E+04  0.65000000000E+04  0.30000000000E+03 0.  1.
        -52   -1    0    0    0    0 -0.00000000000E+00 -0.00000000000E+00 -0.64930732323E+04  0.65000000000E+04  0.30000000000E+03 0. -1.
     100001    1    1    2    0    0 -0.30257204517E+04  0.23922807685E+04  0.52296613870E+04  0.65000000000E+04  0.15050000000E+03 0.  1.
     100001    1    1    2    0    0  0.30257204517E+04 -0.23922807685E+04 -0.52296613870E+04  0.65000000000E+04  0.15050000000E+03 0. -1.
</event>
<event>
 4    1  0.5143956E-004  0.6500000E+04  0.7818608E-02  0.7223770E-01
         52   -1    0    0    0    0  0.00000000000E+00  0.00000000000E+00  0.64930732323E+04  0.65000000000E+04  0.30000000000E+03 0. -1.
        -52   -1    0    0    0    0 -0.00000000000E+00 -0.00000000000E+00 -0.64930732323E+04  0.65000000000E+04  0.30000000000E+03 0.  1.
     100001    1    1    2    0    0  0.54748069085E+04 -0.87917203202E+03 -0.33883470310E+04  0.65000000000E+04  0.15050000000E+03 0.  1.
     100001    1    1    2    0    0 -0.54748069085E+04  0.87917203202E+03  0.33883470310E+04  0.65000000000E+04  0.15050000000E+03 0. -1.
</event>
<event>
 4    1  0.5143956E-004  0.6500000E+04  0.7818608E-02  0.7223770E-01
         52   -1    0    0    0    0  0.00000000000E+00  0.00000000000E+00  0.64930732323E+04  0.65000000000E+04  0.30000000000E+03 0.  1.
        -52   -1    0    0    0    0 -0.00000000000E+00 -0.00000000000E+00 -0.64930732323E+04  0.65000000000E+04  0.30000000000E+03 0. -1.
     100001    1    1    2    0    0  0.18095198312E+04 -0.35485376940E+04  0.51342835883E+04  0.65000000000E+04  0.15050000000E+03 0.  1.
     100001    1    1    2    0    0 -0.18095198312E+04  0.35485376940E+04 -0.51342835883E+04  0.65000000000E+04  0.15050000000E+03 0. -1.
</event>
<event>
 4    1  0.5143956E-004  0.6500000E+04  0.7818608E-02  0.7223770E-01
         52   -1    0    0    0    0  0.00000000000E+00  0.00000000000E+00  0.64930732323E+04  0.65000000000E+04  0.30000000000E+03 0. -1.
        -52   -1    0    0    0    0 -0.00000000000E+00 -0.00000000000E+00 -0.64930732323E+04  0.65000000000E+04  0.30000000000E+03 0. -1.
     100001    1    1    2    0    0  0.24306872053E+02  0.41185531183E+03 -0.64851471940E+04  0.65000000000E+04  0.15050000000E+03 0. -1.
     100001    1    1    2    0    0 -0.24306872053E+02 -0.41185531183E+03  0.64851471940E+04  0.65000000000E+04  0.15050000000E+03 0. -1.
</event>
<event>
 4    1  0.5143956E-004  0.6500000E+04  0.7818608E-02  0.7223770E-01
         52   -1    0    0    0    0  0.00000000000E+00  0.00000000000E+00  0.64930732323E+04  0.65000000000E+04  0.30000000000E+03 0. -1.
        -52   -1    0    0    0    0 -0.00000000000E+00 -0.00000000000E+00 -0.64930732323E+04  0.65000000000E+04  0.30000000000E+03 0.  1.
     100001    1    1    2    0    0  0.69724717910E+03  0.26373339566E+04  0.58979374126E+04  0.65000000000E+04  0.15050000000E+03 0. -1.
     100001    1    1    2    0    0 -0.69724717910E+03 -0.26373339566E+04 -0.58979374126E+04  0.65000000000E+04  0.15050000000E+03 0.  1.
</event>
<event>
 4    1  0.5143956E-004  0.6500000E+04  0.7818608E-02  0.7223770E-01
         52   -1    0    0    0    0  0.00000000000E+00  0.00000000000E+00  0.64930732323E+04  0.65000000000E+04  0.30000000000E+03 0. -1.
        -52   -1    0    0    0    0 -0.00000000000E+00 -0.00000000000E+00 -0.64930732323E+04  0.65000000000E+04  0.30000000000E+03 0.  1.
     100001    1    1    2    0    0 -0.12659316123E+04  0.83690679991E+03  0.63185721418E+04  0.65000000000E+04  0.15050000000E+03 0. -1.
     100001    1    1    2    0    0  0.12659316123E+04 -0.83690679991E+03 -0.63185721418E+04  0.65000000000E+04  0.15050000000E+03 0.  1.
</event>
<event>
 4    1  0.5143956E-004  0.6500000E+04  0.7818608E-02  0.7223770E-01
         52   -1    0    0    0    0  0.00000000000E+00  0.00000000000E+00  0.64930732323E+04  0.65000000000E+04  0.30000000000E+03 0. -1.
        -52   -1    0    0    0    0 -0.00000000000E+00 -0.00000000000E+00 -0.64930732323E+04  0.65000000000E+04  0.30000000000E+03 0.  1.
     100001    1    1    2    0    0  0.24048405772E+04  0.82263846837E+03 -0.59805817024E+04  0.65000000000E+04  0.15050000000E+03 0.  1.
     100001    1    1    2    0    0 -0.24048405772E+04 -0.82263846837E+03  0.59805817024E+04  0.65000000000E+04  0.15050000000E+03 0. -1.
</event>
<event>
 4    1  0.5143956E-004  0.6500000E+04  0.7818608E-02  0.7223770E-01
         52   -1    0    0    0    0  0.00000000000E+00  0.00000000000E+00  0.64930732323E+04  0.65000000000E+04  0.30000000000E+03 0.  1.
        -52   -1    0    0    0    0 -0.00000000000E+00 -0.00000000000E+00 -0.64930732323E+04  0.65000000000E+04  0.30000000000E+03 0. -1.
     100001    1    1    2    0    0  0.24215105715E+04 -0.20233011312E+03  0.60268315745E+04  0.65000000000E+04  0.15050000000E+03 0.  1.
     100001    1    1    2    0    0 -0.24215105715E+04  0.20233011312E+03 -0.60268315745E+04  0.65000000000E+04  0.15050000000E+03 0. -1.
</event>
<event>
 4    1  0.5143956E-004  0.6500000E+04  0.7818608E-02  0.7223770E-01
         52   -1    0    0    0    0  0.00000000000E+00  0.00000000000E+00  0.64930732323E+04  0.65000000000E+04  0.30000000000E+03 0.  1.
        -52   -1    0    0    0    0 -0.00000000000E+00 -0.00000000000E+00 -0.64930732323E+04  0.65000000000E+04  0.30000000000E+03 0. -1.
     100001    1    1    2    0    0  0.65351843220E+03  0.24604052461E+03  0.64606290304E+04  0.65000000000E+04  0.15050000000E+03 0.  1.
     100001    1    1    2    0    0 -0.65351843220E+03 -0.24604052461E+03 -0.64606290304E+04  0.65000000000E+04  0.15050000000E+03 0. -1.
</event>
<event>
 4    1  0.5143956E-004  0.6500000E+04  0.7818608E-02  0.7223770E-01
         52   -1    0    0    0    0  0.00000000000E+00  0.00000000000E+00  0.64930732323E+04  0.65000000000E+04  0.30000000000E+03 0. -1.
        -52   -1    0    0    0    0 -0.00000000000E+00 -0.00000000000E+00 -0.64930732323E+04  0.65000000000E+04  0.30000000000E+03 0.  1.
     100001    1    1    2    0    0  0.13302223824E+04 -0.35865341919E+02  0.63605480771E+04  0.65000000000E+04  0.15050000000E+03 0. -1.
     100001    1    1    2    0    0 -0.13302223824E+04  0.35865341919E+02 -0.63605480771E+04  0.65000000000E+04  0.15050000000E+03 0.  1.
</event>
<event>
 4    1  0.5143956E-004  0.6500000E+04  0.7818608E-02  0.7223770E-01
         52   -1    0    0    0    0  0.00000000000E+00  0.00000000000E+00  0.64930732323E+04  0.65000000000E+04  0.30000000000E+03 0.  1.
        -52   -1    0    0    0    0 -0.00000000000E+00 -0.00000000000E+00 -0.64930732323E+04  0.65000000000E+04  0.30000000000E+03 0. -1.
     100001    1    1    2    0    0  0.14813407214E+04  0.22425235290E+04 -0.59164235514E+04  0.65000000000E+04  0.15050000000E+03 0. -1.
     100001    1    1    2    0    0 -0.14813407214E+04 -0.22425235290E+04  0.59164235514E+04  0.65000000000E+04  0.15050000000E+03 0.  1.
</event>
<event>
 4    1  0.5143956E-004  0.6500000E+04  0.7818608E-02  0.7223770E-01
         52   -1    0    0    0    0  0.00000000000E+00  0.00000000000E+00  0.64930732323E+04  0.65000000000E+04  0.30000000000E+03 0. -1.
        -52   -1    0    0    0    0 -0.00000000000E+00 -0.00000000000E+00 -0.64930732323E+04  0.65000000000E+04  0.30000000000E+03 0.  1.
     100001    1    1    2    0    0  0.56234270197E+03  0.46825520305E+03 -0.64569232224E+04  0.65000000000E+04  0.15050000000E+03 0.  1.
     100001    1    1    2    0    0 -0.56234270197E+03 -0.46825520305E+03  0.64569232224E+04  0.65000000000E+04  0.15050000000E+03 0. -1.
</event>
<event>
 4    1  0.5143956E-004  0.6500000E+04  0.7818608E-02  0.7223770E-01
         52   -1    0    0    0    0  0.00000000000E+00  0.00000000000E+00  0.64930732323E+04  0.65000000000E+04  0.30000000000E+03 0. -1.
        -52   -1    0    0    0    0 -0.00000000000E+00 -0.00000000000E+00 -0.64930732323E+04  0.65000000000E+04  0.30000000000E+03 0.  1.
     100001    1    1    2    0    0  0.21593063948E+04  0.35818864613E+03 -0.61185330380E+04  0.65000000000E+04  0.15050000000E+03 0.  1.
     100001    1    1    2    0    0 -0.21593063948E+04 -0.35818864613E+03  0.61185330380E+04  0.65000000000E+04  0.15050000000E+03 0. -1.
</event>
<event>
 4    1  0.5143956E-004  0.6500000E+04  0.7818608E-02  0.7223770E-01
         52   -1    0    0    0    0  0.00000000000E+00  0.00000000000E+00  0.64930732323E+04  0.65000000000E+04  0.30000000000E+03 0. -1.
        -52   -1    0    0    0    0 -0.00000000000E+00 -0.00000000000E+00 -0.64930732323E+04  0.65000000000E+04  0.30000000000E+03 0.  1.
     100001    1    1    2    0    0 -0.32536294972E+04 -0.12868398635E+04 -0.54758823956E+04  0.65000000000E+04  0.15050000000E+03 0.  1.
     100001    1    1    2    0    0  0.32536294972E+04  0.12868398635E+04  0.54758823956E+04  0.65000000000E+04  0.15050000000E+03 0. -1.
</event>
<event>
 4    1  0.5143956E-004  0.6500000E+04  0.7818608E-02  0.7223770E-01
         52   -1    0    0    0    0  0.00000000000E+00  0.00000000000E+00  0.64930732323E+04  0.65000000000E+04  0.30000000000E+03 0. -1.
        -52   -1    0    0    0    0 -0.00000000000E+00 -0.00000000000E+00 -0.64930732323E+04  0.65000000000E+04  0.30000000000E+03 0.  1.
     100001    1    1    2    0    0 -0.57290185503E+04 -0.66452513670E+03  0.29940111127E+04  0.65000000000E+04  0.15050000000E+03 0. -1.
     100001    1    1    2    0    0  0.57290185503E+04  0.66452513670E+03 -0.29940111127E+04  0.65000000000E+04  0.15050000000E+03 0.  1.
</event>
<event>
 4    1  0.5143956E-004  0.6500000E+04  0.7818608E-02  0.7223770E-01
         52   -1    0    0    0    0  0.00000000000E+00  0.00000000000E+00  0.64930732323E+04  0.65000000000E+04  0.30000000000E+03 0. -1.
        -52   -1    0    0    0    0 -0.00000000000E+00 -0.00000000000E+00 -0.64930732323E+04  0.65000000000E+04  0.30000000000E+03 0.  1.
     100001    1    1    2    0    0  0.86313863076E+03 -0.52512048708E+04 -0.37292343530E+04  0.65000000000E+04  0.15050000000E+03 0.  1.
     100001    1    1    2    0    0 -0.86313863076E+03  0.52512048708E+04  0.37292343530E+04  0.65000000000E+04  0.15050000000E+03 0. -1.
</event>
<event>
 4    1  0.5143956E-004  0.6500000E+04  0.7818608E-02  0.7223770E-01
         52   -1    0    0    0    0  0.00000000000E+00  0.00000000000E+00  0.64930732323E+04  0.65000000000E+04  0.30000000000E+03 0. -1.
        -52   -1    0    0    0    0 -0.00000000000E+00 -0.00000000000E+00 -0.64930732323E+04  0.65000000000E+04  0.30000000000E+03 0. -1.
     100001    1    1    2    0    0  0.13684487746E+03 -0.55040247510E+03  0.64734596890E+04  0.65000000000E+04  0.15050000000E+03 0. -1.
     100001    1    1    2    0    0 -0.13684487746E+03  0.55040247510E+03 -0.64734596890E+04  0.65000000000E+04  0.15050000000E+03 0. -1.
</event>
<event>
 4    1  0.5143956E-004  0.6500000E+04  0.7818608E-02  0.7223770E-01
         52   -1    0    0    0    0  0.00000000000E+00  0.00000000000E+00  0.64930732323E+04  0.65000000000E+04  0.30000000000E+03 0.  1.
        -52   -1    0    0    0    0 -0.00000000000E+00 -0.00000000000E+00 -0.64930732323E+04  0.65000000000E+04  0.30000000000E+03 0. -1.
     100001    1    1    2    0    0  0.47061807685E+04  0.22702445822E+04  0.38633148799E+04  0.65000000000E+04  0.15050000000E+03 0.  1.
     100001    1    1    2    0    0 -0.47061807685E+04 -0.22702445822E+04 -0.38633148799E+04  0.65000000000E+04  0.15050000000E+03 0. -1.
</event>
<event>
 4    1  0.5143956E-004  0.6500000E+04  0.7818608E-02  0.7223770E-01
         52   -1    0    0    0    0  0.00000000000E+00  0.00000000000E+00  0.64930732323E+04  0.65000000000E+04  0.30000000000E+03 0. -1.
        -52   -1    0    0    0    0 -0.00000000000E+00 -0.00000000000E+00 -0.64930732323E+04  0.65000000000E+04  0.30000000000E+03 0.  1.
     100001    1    1    2    0    0  0.37142771231E+04 -0.52944167614E+04 -0.63296631790E+03  0.65000000000E+04  0.15050000000E+03 0. -1.
     100001    1    1    2    0    0 -0.37142771231E+04  0.52944167614E+04  0.63296631790E+03  0.65000000000E+04  0.15050000000E+03 0.  1.
</event>
<event>
 4    1  0.5143956E-004  0.6500000E+04  0.7818608E-02  0.7223770E-01
         52   -1    0    0    0    0  0.00000000000E+00  0.00000000000E+00  0.64930732323E+04  0.65000000000E+04  0.30000000000E+03 0. -1.
        -52   -1    0    0    0    0 -0.00000000000E+00 -0.00000000000E+00 -0.64930732323E+04  0.65000000000E+04  0.30000000000E+03 0.  1.
     100001    1    1    2    0    0 -0.28152728846E+04 -0.50582115666E+04  0.29523014891E+04  0.65000000000E+04  0.15050000000E+03 0. -1.
     100001    1    1    2    0    0  0.28152728846E+04  0.50582115666E+04 -0.29523014891E+04  0.65000000000E+04  0.15050000000E+03 0.  1.
</event>
<event>
 4    1  0.5143956E-004  0.6500000E+04  0.7818608E-02  0.7223770E-01
         52   -1    0    0    0    0  0.00000000000E+00  0.00000000000E+00  0.64930732323E+04  0.65000000000E+04  0.30000000000E+03 0.  1.
        -52   -1    0    0    0    0 -0.00000000000E+00 -0.00000000000E+00 -0.64930732323E+04  0.65000000000E+04  0.30000000000E+03 0. -1.
     100001    1    1    2    0    0  0.15433534133E+03 -0.52158106080E+03 -0.64754523818E+04  0.65000000000E+04  0.15050000000E+03 0. -1.
     100001    1    1    2    0    0 -0.15433534133E+03  0.52158106080E+03  0.64754523818E+04  0.65000000000E+04  0.15050000000E+03 0.  1.
</event>
<event>
 4    1  0.5143956E-004  0.6500000E+04  0.7818608E-02  0.7223770E-01
         52   -1    0    0    0    0  0.00000000000E+00  0.00000000000E+00  0.64930732323E+04  0.65000000000E+04  0.30000000000E+03 0. -1.
        -52   -1    0    0    0    0 -0.00000000000E+00 -0.00000000000E+00 -0.64930732323E+04  0.65000000000E+04  0.30000000000E+03 0.  1.
     100001    1    1    2    0    0  0.45955171642E+03 -0.19664195629E+04  0.61765164998E+04  0.65000000000E+04  0.15050000000E+03 0. -1.
     100001    1    1    2    0    0 -0.45955171642E+03  0.19664195629E+04 -0.61765164998E+04  0.65000000000E+04  0.15050000000E+03 0.  1.
</event>
<event>
 4    1  0.5143956E-004  0.6500000E+04  0.7818608E-02  0.7223770E-01
         52   -1    0    0    0    0  0.00000000000E+00  0.00000000000E+00  0.64930732323E+04  0.65000000000E+04  0.30000000000E+03 0.  1.
        -52   -1    0    0    0    0 -0.00000000000E+00 -0.00000000000E+00 -0.64930732323E+04  0.65000000000E+04  0.30000000000E+03 0. -1.
     100001    1    1    2    0    0 -0.55161838443E+03 -0.46739842865E+03  0.64579103135E+04  0.65000000000E+04  0.15050000000E+03 0.  1.
     100001    1    1    2    0    0  0.55161838443E+03  0.46739842865E+03 -0.64579103135E+04  0.65000000000E+04  0.15050000000E+03 0. -1.
</event>
<event>
 4    1  0.7030940E-004  0.6500000E+04  0.7818608E-02  0.7223770E-01
         52   -1    0    0    0    0  0.00000000000E+00  0.00000000000E+00  0.64930732323E+04  0.65000000000E+04  0.30000000000E+03 0. -1.
        -52   -1    0    0    0    0 -0.00000000000E+00 -0.00000000000E+00 -0.64930732323E+04  0.65000000000E+04  0.30000000000E+03 0.  1.
     100001    1    1    2    0    0 -0.48311450656E+02  0.16116559544E+03 -0.64960789254E+04  0.65000000000E+04  0.15050000000E+03 0.  1.
     100001    1    1    2    0    0  0.48311450656E+02 -0.16116559544E+03  0.64960789254E+04  0.65000000000E+04  0.15050000000E+03 0. -1.
</event>
<event>
 4    1  0.5143956E-004  0.6500000E+04  0.7818608E-02  0.7223770E-01
         52   -1    0    0    0    0  0.00000000000E+00  0.00000000000E+00  0.64930732323E+04  0.65000000000E+04  0.30000000000E+03 0. -1.
        -52   -1    0    0    0    0 -0.00000000000E+00 -0.00000000000E+00 -0.64930732323E+04  0.65000000000E+04  0.30000000000E+03 0.  1.
     100001    1    1    2    0    0  0.75294805922E+03 -0.83528816534E+03 -0.64002119223E+04  0.65000000000E+04  0.15050000000E+03 0.  1.
     100001    1    1    2    0    0 -0.75294805922E+03  0.83528816534E+03  0.64002119223E+04  0.65000000000E+04  0.15050000000E+03 0. -1.
</event>
<event>
 4    1  0.5143956E-004  0.6500000E+04  0.7818608E-02  0.7223770E-01
         52   -1    0    0    0    0  0.00000000000E+00  0.00000000000E+00  0.64930732323E+04  0.65000000000E+04  0.30000000000E+03 0. -1.
        -52   -1    0    0    0    0 -0.00000000000E+00 -0.00000000000E+00 -0.64930732323E+04  0.65000000000E+04  0.30000000000E+03 0.  1.
     100001    1    1    2    0    0 -0.42609707822E+03 -0.15682363978E+03  0.64823759052E+04  0.65000000000E+04  0.15050000000E+03 0. -1.
     100001    1    1    2    0    0  0.42609707822E+03  0.15682363978E+03 -0.64823759052E+04  0.65000000000E+04  0.15050000000E+03 0.  1.
</event>
<event>
 4    1  0.5143956E-004  0.6500000E+04  0.7818608E-02  0.7223770E-01
         52   -1    0    0    0    0  0.00000000000E+00  0.00000000000E+00  0.64930732323E+04  0.65000000000E+04  0.30000000000E+03 0.  1.
        -52   -1    0    0    0    0 -0.00000000000E+00 -0.00000000000E+00 -0.64930732323E+04  0.65000000000E+04  0.30000000000E+03 0.  1.
     100001    1    1    2    0    0  0.16238547777E+03  0.28639795469E+03 -0.64899119345E+04  0.65000000000E+04  0.15050000000E+03 0.  1.
     100001    1    1    2    0    0 -0.16238547777E+03 -0.28639795469E+03  0.64899119345E+04  0.65000000000E+04  0.15050000000E+03 0.  1.
</event>
<event>
 4    1  0.5143956E-004  0.6500000E+04  0.7818608E-02  0.7223770E-01
         52   -1    0    0    0    0  0.00000000000E+00  0.00000000000E+00  0.64930732323E+04  0.65000000000E+04  0.30000000000E+03 0.  1.
        -52   -1    0    0    0    0 -0.00000000000E+00 -0.00000000000E+00 -0.64930732323E+04  0.65000000000E+04  0.30000000000E+03 0. -1.
     100001    1    1    2    0    0 -0.32651948728E+03 -0.27144011857E+03  0.64843700570E+04  0.65000000000E+04  0.15050000000E+03 0.  1.
     100001    1    1    2    0    0  0.32651948728E+03  0.27144011857E+03 -0.64843700570E+04  0.65000000000E+04  0.15050000000E+03 0. -1.
</event>
<event>
 4    1  0.5143956E-004  0.6500000E+04  0.7818608E-02  0.7223770E-01
         52   -1    0    0    0    0  0.00000000000E+00  0.00000000000E+00  0.64930732323E+04  0.65000000000E+04  0.30000000000E+03 0.  1.
        -52   -1    0    0    0    0 -0.00000000000E+00 -0.00000000000E+00 -0.64930732323E+04  0.65000000000E+04  0.30000000000E+03 0. -1.
     100001    1    1    2    0    0 -0.17158527435E+04  0.10112726090E+04 -0.61855094231E+04  0.65000000000E+04  0.15050000000E+03 0. -1.
     100001    1    1    2    0    0  0.17158527435E+04 -0.10112726090E+04  0.61855094231E+04  0.65000000000E+04  0.15050000000E+03 0.  1.
</event>
<event>
 4    1  0.5143956E-004  0.6500000E+04  0.7818608E-02  0.7223770E-01
         52   -1    0    0    0    0  0.00000000000E+00  0.00000000000E+00  0.64930732323E+04  0.65000000000E+04  0.30000000000E+03 0. -1.
        -52   -1    0    0    0    0 -0.00000000000E+00 -0.00000000000E+00 -0.64930732323E+04  0.65000000000E+04  0.30000000000E+03 0. -1.
     100001    1    1    2    0    0  0.69058147290E+03 -0.17726185528E+04 -0.62135553788E+04  0.65000000000E+04  0.15050000000E+03 0. -1.
     100001    1    1    2    0    0 -0.69058147290E+03  0.17726185528E+04  0.62135553788E+04  0.65000000000E+04  0.15050000000E+03 0. -1.
</event>
<event>
 4    1  0.5143956E-004  0.6500000E+04  0.7818608E-02  0.7223770E-01
         52   -1    0    0    0    0  0.00000000000E+00  0.00000000000E+00  0.64930732323E+04  0.65000000000E+04  0.30000000000E+03 0. -1.
        -52   -1    0    0    0    0 -0.00000000000E+00 -0.00000000000E+00 -0.64930732323E+04  0.65000000000E+04  0.30000000000E+03 0.  1.
     100001    1    1    2    0    0  0.14095943417E+04  0.14835090627E+04 -0.61676246970E+04  0.65000000000E+04  0.15050000000E+03 0.  1.
     100001    1    1    2    0    0 -0.14095943417E+04 -0.14835090627E+04  0.61676246970E+04  0.65000000000E+04  0.15050000000E+03 0. -1.
</event>
<event>
 4    1  0.5143956E-004  0.6500000E+04  0.7818608E-02  0.7223770E-01
         52   -1    0    0    0    0  0.00000000000E+00  0.00000000000E+00  0.64930732323E+04  0.65000000000E+04  0.30000000000E+03 0.  1.
        -52   -1    0    0    0    0 -0.00000000000E+00 -0.00000000000E+00 -0.64930732323E+04  0.65000000000E+04  0.30000000000E+03 0. -1.
     100001    1    1    2    0    0  0.97780210538E+03 -0.66607254405E+03 -0.63896478900E+04  0.65000000000E+04  0.15050000000E+03 0. -1.
     100001    1    1    2    0    0 -0.97780210538E+03  0.66607254405E+03  0.63896478900E+04  0.65000000000E+04  0.15050000000E+03 0.  1.
</event>
<event>
 4    1  0.5143956E-004  0.6500000E+04  0.7818608E-02  0.7223770E-01
         52   -1    0    0    0    0  0.00000000000E+00  0.00000000000E+00  0.64930732323E+04  0.65000000000E+04  0.30000000000E+03 0.  1.
        -52   -1    0    0    0    0 -0.00000000000E+00 -0.00000000000E+00 -0.64930732323E+04  0.65000000000E+04  0.30000000000E+03 0. -1.
     100001    1    1    2    0    0  0.20602290167E+04 -0.26090428555E+04 -0.55835205316E+04  0.65000000000E+04  0.15050000000E+03 0. -1.
     100001    1    1    2    0    0 -0.20602290167E+04  0.26090428555E+04  0.55835205316E+04  0.65000000000E+04  0.15050000000E+03 0.  1.
</event>
<event>
 4    1  0.5143956E-004  0.6500000E+04  0.7818608E-02  0.7223770E-01
         52   -1    0    0    0    0  0.00000000000E+00  0.00000000000E+00  0.64930732323E+04  0.65000000000E+04  0.30000000000E+03 0.  1.
        -52   -1    0    0    0    0 -0.00000000000E+00 -0.00000000000E+00 -0.64930732323E+04  0.65000000000E+04  0.30000000000E+03 0. -1.
     100001    1    1    2    0    0 -0.10527641690E+04  0.16687242226E+04 -0.61914777576E+04  0.65000000000E+04  0.15050000000E+03 0. -1.
     100001    1    1    2    0    0  0.10527641690E+04 -0.16687242226E+04  0.61914777576E+04  0.65000000000E+04  0.15050000000E+03 0.  1.
</event>
<event>
 4    1  0.5751429E-004  0.6500000E+04  0.7818608E-02  0.7223770E-01
         52   -1    0    0    0    0  0.00000000000E+00  0.00000000000E+00  0.64930732323E+04  0.65000000000E+04  0.30000000000E+03 0.  1.
        -52   -1    0    0    0    0 -0.00000000000E+00 -0.00000000000E+00 -0.64930732323E+04  0.65000000000E+04  0.30000000000E+03 0. -1.
     100001    1    1    2    0    0 -0.15557777374E+03 -0.19773811968E+03 -0.64933847062E+04  0.65000000000E+04  0.15050000000E+03 0. -1.
     100001    1    1    2    0    0  0.15557777374E+03  0.19773811968E+03  0.64933847062E+04  0.65000000000E+04  0.15050000000E+03 0.  1.
</event>
<event>
 4    1  0.5143956E-004  0.6500000E+04  0.7818608E-02  0.7223770E-01
         52   -1    0    0    0    0  0.00000000000E+00  0.00000000000E+00  0.64930732323E+04  0.65000000000E+04  0.30000000000E+03 0. -1.
        -52   -1    0    0    0    0 -0.00000000000E+00 -0.00000000000E+00 -0.64930732323E+04  0.65000000000E+04  0.30000000000E+03 0.  1.
     100001    1    1    2    0    0  0.25419444188E+04  0.64632291820E+03 -0.59454297580E+04  0.65000000000E+04  0.15050000000E+03 0.  1.
     100001    1    1    2    0    0 -0.25419444188E+04 -0.64632291820E+03  0.59454297580E+04  0.65000000000E+04  0.15050000000E+03 0. -1.
</event>
<event>
 4    1  0.5143956E-004  0.6500000E+04  0.7818608E-02  0.7223770E-01
         52   -1    0    0    0    0  0.00000000000E+00  0.00000000000E+00  0.64930732323E+04  0.65000000000E+04  0.30000000000E+03 0.  1.
        -52   -1    0    0    0    0 -0.00000000000E+00 -0.00000000000E+00 -0.64930732323E+04  0.65000000000E+04  0.30000000000E+03 0. -1.
     100001    1    1    2    0    0  0.12056405457E+04  0.13646875428E+03  0.63839765745E+04  0.65000000000E+04  0.15050000000E+03 0.  1.
     100001    1    1    2    0    0 -0.12056405457E+04 -0.13646875428E+03 -0.63839765745E+04  0.65000000000E+04  0.15050000000E+03 0. -1.
</event>
<event>
 4    1  0.5143956E-004  0.6500000E+04  0.7818608E-02  0.7223770E-01
         52   -1    0    0    0    0  0.00000000000E+00  0.00000000000E+00  0.64930732323E+04  0.65000000000E+04  0.30000000000E+03 0.  1.
        -52   -1    0    0    0    0 -0.00000000000E+00 -0.00000000000E+00 -0.64930732323E+04  0.65000000000E+04  0.30000000000E+03 0. -1.
     100001    1    1    2    0    0 -0.27304670277E+04  0.58460351947E+04 -0.77186272286E+03  0.65000000000E+04  0.15050000000E+03 0.  1.
     100001    1    1    2    0    0  0.27304670277E+04 -0.58460351947E+04  0.77186272286E+03  0.65000000000E+04  0.15050000000E+03 0. -1.
</event>
<event>
 4    1  0.5143956E-004  0.6500000E+04  0.7818608E-02  0.7223770E-01
         52   -1    0    0    0    0  0.00000000000E+00  0.00000000000E+00  0.64930732323E+04  0.65000000000E+04  0.30000000000E+03 0.  1.
        -52   -1    0    0    0    0 -0.00000000000E+00 -0.00000000000E+00 -0.64930732323E+04  0.65000000000E+04  0.30000000000E+03 0. -1.
     100001    1    1    2    0    0  0.56907680993E+04 -0.22698561772E+03  0.31290550842E+04  0.65000000000E+04  0.15050000000E+03 0.  1.
     100001    1    1    2    0    0 -0.56907680993E+04  0.22698561772E+03 -0.31290550842E+04  0.65000000000E+04  0.15050000000E+03 0. -1.
</event>
<event>
 4    1  0.5143956E-004  0.6500000E+04  0.7818608E-02  0.7223770E-01
         52   -1    0    0    0    0  0.00000000000E+00  0.00000000000E+00  0.64930732323E+04  0.65000000000E+04  0.30000000000E+03 0.  1.
        -52   -1    0    0    0    0 -0.00000000000E+00 -0.00000000000E+00 -0.64930732323E+04  0.65000000000E+04  0.30000000000E+03 0. -1.
     100001    1    1    2    0    0  0.16825349176E+04  0.15648887327E+04 -0.60784495766E+04  0.65000000000E+04  0.15050000000E+03 0. -1.
     100001    1    1    2    0    0 -0.16825349176E+04 -0.15648887327E+04  0.60784495766E+04  0.65000000000E+04  0.15050000000E+03 0.  1.
</event>
<event>
 4    1  0.5143956E-004  0.6500000E+04  0.7818608E-02  0.7223770E-01
         52   -1    0    0    0    0  0.00000000000E+00  0.00000000000E+00  0.64930732323E+04  0.65000000000E+04  0.30000000000E+03 0.  1.
        -52   -1    0    0    0    0 -0.00000000000E+00 -0.00000000000E+00 -0.64930732323E+04  0.65000000000E+04  0.30000000000E+03 0. -1.
     100001    1    1    2    0    0 -0.12758515783E+04  0.63540768305E+04  0.47461577343E+03  0.65000000000E+04  0.15050000000E+03 0.  1.
     100001    1    1    2    0    0  0.12758515783E+04 -0.63540768305E+04 -0.47461577343E+03  0.65000000000E+04  0.15050000000E+03 0. -1.
</event>
<event>
 4    1  0.5143956E-004  0.6500000E+04  0.7818608E-02  0.7223770E-01
         52   -1    0    0    0    0  0.00000000000E+00  0.00000000000E+00  0.64930732323E+04  0.65000000000E+04  0.30000000000E+03 0.  1.
        -52   -1    0    0    0    0 -0.00000000000E+00 -0.00000000000E+00 -0.64930732323E+04  0.65000000000E+04  0.30000000000E+03 0. -1.
     100001    1    1    2    0    0  0.11600411942E+03 -0.41006130175E+03 -0.64842688503E+04  0.65000000000E+04  0.15050000000E+03 0. -1.
     100001    1    1    2    0    0 -0.11600411942E+03  0.41006130175E+03  0.64842688503E+04  0.65000000000E+04  0.15050000000E+03 0.  1.
</event>
<event>
 4    1  0.5143956E-004  0.6500000E+04  0.7818608E-02  0.7223770E-01
         52   -1    0    0    0    0  0.00000000000E+00  0.00000000000E+00  0.64930732323E+04  0.65000000000E+04  0.30000000000E+03 0.  1.
        -52   -1    0    0    0    0 -0.00000000000E+00 -0.00000000000E+00 -0.64930732323E+04  0.65000000000E+04  0.30000000000E+03 0. -1.
     100001    1    1    2    0    0  0.27882770773E+04 -0.17803458311E+04  0.55931412830E+04  0.65000000000E+04  0.15050000000E+03 0.  1.
     100001    1    1    2    0    0 -0.27882770773E+04  0.17803458311E+04 -0.55931412830E+04  0.65000000000E+04  0.15050000000E+03 0. -1.
</event>
<event>
 4    1  0.5143956E-004  0.6500000E+04  0.7818608E-02  0.7223770E-01
         52   -1    0    0    0    0  0.00000000000E+00  0.00000000000E+00  0.64930732323E+04  0.65000000000E+04  0.30000000000E+03 0. -1.
        -52   -1    0    0    0    0 -0.00000000000E+00 -0.00000000000E+00 -0.64930732323E+04  0.65000000000E+04  0.30000000000E+03 0. -1.
     100001    1    1    2    0    0 -0.49049275677E+02  0.10561827595E+04 -0.64116629588E+04  0.65000000000E+04  0.15050000000E+03 0. -1.
     100001    1    1    2    0    0  0.49049275677E+02 -0.10561827595E+04  0.64116629588E+04  0.65000000000E+04  0.15050000000E+03 0. -1.
</event>
<event>
 4    1  0.5143956E-004  0.6500000E+04  0.7818608E-02  0.7223770E-01
         52   -1    0    0    0    0  0.00000000000E+00  0.00000000000E+00  0.64930732323E+04  0.65000000000E+04  0.30000000000E+03 0.  1.
        -52   -1    0    0    0    0 -0.00000000000E+00 -0.00000000000E+00 -0.64930732323E+04  0.65000000000E+04  0.30000000000E+03 0. -1.
     100001    1    1    2    0    0 -0.94912093229E+03 -0.15543016559E+04  0.62378414190E+04  0.65000000000E+04  0.15050000000E+03 0.  1.
     100001    1    1    2    0    0  0.94912093229E+03  0.15543016559E+04 -0.62378414190E+04  0.65000000000E+04  0.15050000000E+03 0. -1.
</event>
<event>
 4    1  0.5143956E-004  0.6500000E+04  0.7818608E-02  0.7223770E-01
         52   -1    0    0    0    0  0.00000000000E+00  0.00000000000E+00  0.64930732323E+04  0.65000000000E+04  0.30000000000E+03 0.  1.
        -52   -1    0    0    0    0 -0.00000000000E+00 -0.00000000000E+00 -0.64930732323E+04  0.65000000000E+04  0.30000000000E+03 0. -1.
     100001    1    1    2    0    0 -0.19479883440E+04  0.43551106292E+04  0.44119953048E+04  0.65000000000E+04  0.15050000000E+03 0.  1.
     100001    1    1    2    0    0  0.19479883440E+04 -0.43551106292E+04 -0.44119953048E+04  0.65000000000E+04  0.15050000000E+03 0. -1.
</event>
<event>
 4    1  0.5143956E-004  0.6500000E+04  0.7818608E-02  0.7223770E-01
         52   -1    0    0    0    0  0.00000000000E+00  0.00000000000E+00  0.64930732323E+04  0.65000000000E+04  0.30000000000E+03 0. -1.
        -52   -1    0    0    0    0 -0.00000000000E+00 -0.00000000000E+00 -0.64930732323E+04  0.65000000000E+04  0.30000000000E+03 0.  1.
     100001    1    1    2    0    0  0.73425780382E+03  0.70399776630E+03 -0.64181463346E+04  0.65000000000E+04  0.15050000000E+03 0.  1.
     100001    1    1    2    0    0 -0.73425780382E+03 -0.70399776630E+03  0.64181463346E+04  0.65000000000E+04  0.15050000000E+03 0. -1.
</event>
<event>
 4    1  0.5143956E-004  0.6500000E+04  0.7818608E-02  0.7223770E-01
         52   -1    0    0    0    0  0.00000000000E+00  0.00000000000E+00  0.64930732323E+04  0.65000000000E+04  0.30000000000E+03 0. -1.
        -52   -1    0    0    0    0 -0.00000000000E+00 -0.00000000000E+00 -0.64930732323E+04  0.65000000000E+04  0.30000000000E+03 0. -1.
     100001    1    1    2    0    0  0.37118965794E+03 -0.19480210994E+00 -0.64876473355E+04  0.65000000000E+04  0.15050000000E+03 0. -1.
     100001    1    1    2    0    0 -0.37118965794E+03  0.19480210994E+00  0.64876473355E+04  0.65000000000E+04  0.15050000000E+03 0. -1.
</event>
<event>
 4    1  0.5143956E-004  0.6500000E+04  0.7818608E-02  0.7223770E-01
         52   -1    0    0    0    0  0.00000000000E+00  0.00000000000E+00  0.64930732323E+04  0.65000000000E+04  0.30000000000E+03 0.  1.
        -52   -1    0    0    0    0 -0.00000000000E+00 -0.00000000000E+00 -0.64930732323E+04  0.65000000000E+04  0.30000000000E+03 0. -1.
     100001    1    1    2    0    0  0.12876896645E+04  0.16537828402E+04 -0.61509517471E+04  0.65000000000E+04  0.15050000000E+03 0. -1.
     100001    1    1    2    0    0 -0.12876896645E+04 -0.16537828402E+04  0.61509517471E+04  0.65000000000E+04  0.15050000000E+03 0.  1.
</event>
<event>
 4    1  0.5143956E-004  0.6500000E+04  0.7818608E-02  0.7223770E-01
         52   -1    0    0    0    0  0.00000000000E+00  0.00000000000E+00  0.64930732323E+04  0.65000000000E+04  0.30000000000E+03 0.  1.
        -52   -1    0    0    0    0 -0.00000000000E+00 -0.00000000000E+00 -0.64930732323E+04  0.65000000000E+04  0.30000000000E+03 0. -1.
     100001    1    1    2    0    0 -0.29575170214E+03 -0.57228579412E+03 -0.64662484990E+04  0.65000000000E+04  0.15050000000E+03 0. -1.
     100001    1    1    2    0    0  0.29575170214E+03  0.57228579412E+03  0.64662484990E+04  0.65000000000E+04  0.15050000000E+03 0.  1.
</event>
<event>
 4    1  0.5143956E-004  0.6500000E+04  0.7818608E-02  0.7223770E-01
         52   -1    0    0    0    0  0.00000000000E+00  0.00000000000E+00  0.64930732323E+04  0.65000000000E+04  0.30000000000E+03 0. -1.
        -52   -1    0    0    0    0 -0.00000000000E+00 -0.00000000000E+00 -0.64930732323E+04  0.65000000000E+04  0.30000000000E+03 0. -1.
     100001    1    1    2    0    0  0.19655816566E+03 -0.69511605192E+02  0.64949120682E+04  0.65000000000E+04  0.15050000000E+03 0. -1.
     100001    1    1    2    0    0 -0.19655816566E+03  0.69511605192E+02 -0.64949120682E+04  0.65000000000E+04  0.15050000000E+03 0. -1.
</event>
<event>
 4    1  0.5143956E-004  0.6500000E+04  0.7818608E-02  0.7223770E-01
         52   -1    0    0    0    0  0.00000000000E+00  0.00000000000E+00  0.64930732323E+04  0.65000000000E+04  0.30000000000E+03 0. -1.
        -52   -1    0    0    0    0 -0.00000000000E+00 -0.00000000000E+00 -0.64930732323E+04  0.65000000000E+04  0.30000000000E+03 0. -1.
     100001    1    1    2    0    0 -0.14105701054E+03  0.16283444478E+03  0.64946853360E+04  0.65000000000E+04  0.15050000000E+03 0. -1.
     100001    1    1    2    0    0  0.14105701054E+03 -0.16283444478E+03 -0.64946853360E+04  0.65000000000E+04  0.15050000000E+03 0. -1.
</event>
<event>
 4    1  0.5143956E-004  0.6500000E+04  0.7818608E-02  0.7223770E-01
         52   -1    0    0    0    0  0.00000000000E+00  0.00000000000E+00  0.64930732323E+04  0.65000000000E+04  0.30000000000E+03 0.  1.
        -52   -1    0    0    0    0 -0.00000000000E+00 -0.00000000000E+00 -0.64930732323E+04  0.65000000000E+04  0.30000000000E+03 0. -1.
     100001    1    1    2    0    0  0.44161065772E+04  0.16584917047E+04  0.44693128907E+04  0.65000000000E+04  0.15050000000E+03 0.  1.
     100001    1    1    2    0    0 -0.44161065772E+04 -0.16584917047E+04 -0.44693128907E+04  0.65000000000E+04  0.15050000000E+03 0. -1.
</event>
<event>
 4    1  0.7335567E-004  0.6500000E+04  0.7818608E-02  0.7223770E-01
         52   -1    0    0    0    0  0.00000000000E+00  0.00000000000E+00  0.64930732323E+04  0.65000000000E+04  0.30000000000E+03 0. -1.
        -52   -1    0    0    0    0 -0.00000000000E+00 -0.00000000000E+00 -0.64930732323E+04  0.65000000000E+04  0.30000000000E+03 0.  1.
     100001    1    1    2    0    0 -0.21297216974E+03 -0.12453854748E+02  0.64947546148E+04  0.65000000000E+04  0.15050000000E+03 0. -1.
     100001    1    1    2    0    0  0.21297216974E+03  0.12453854748E+02 -0.64947546148E+04  0.65000000000E+04  0.15050000000E+03 0.  1.
</event>
<event>
 4    1  0.5143956E-004  0.6500000E+04  0.7818608E-02  0.7223770E-01
         52   -1    0    0    0    0  0.00000000000E+00  0.00000000000E+00  0.64930732323E+04  0.65000000000E+04  0.30000000000E+03 0. -1.
        -52   -1    0    0    0    0 -0.00000000000E+00 -0.00000000000E+00 -0.64930732323E+04  0.65000000000E+04  0.30000000000E+03 0.  1.
     100001    1    1    2    0    0  0.11841031636E+04 -0.20527294759E+04 -0.60507479824E+04  0.65000000000E+04  0.15050000000E+03 0.  1.
     100001    1    1    2    0    0 -0.11841031636E+04  0.20527294759E+04  0.60507479824E+04  0.65000000000E+04  0.15050000000E+03 0. -1.
</event>
<event>
 4    1  0.5143956E-004  0.6500000E+04  0.7818608E-02  0.7223770E-01
         52   -1    0    0    0    0  0.00000000000E+00  0.00000000000E+00  0.64930732323E+04  0.65000000000E+04  0.30000000000E+03 0. -1.
        -52   -1    0    0    0    0 -0.00000000000E+00 -0.00000000000E+00 -0.64930732323E+04  0.65000000000E+04  0.30000000000E+03 0.  1.
     100001    1    1    2    0    0  0.19270974065E+04  0.22104768823E+04 -0.57989169065E+04  0.65000000000E+04  0.15050000000E+03 0.  1.
     100001    1    1    2    0    0 -0.19270974065E+04 -0.22104768823E+04  0.57989169065E+04  0.65000000000E+04  0.15050000000E+03 0. -1.
</event>
<event>
 4    1  0.7123979E-004  0.6500000E+04  0.7818608E-02  0.7223770E-01
         52   -1    0    0    0    0  0.00000000000E+00  0.00000000000E+00  0.64930732323E+04  0.65000000000E+04  0.30000000000E+03 0.  1.
        -52   -1    0    0    0    0 -0.00000000000E+00 -0.00000000000E+00 -0.64930732323E+04  0.65000000000E+04  0.30000000000E+03 0. -1.
     100001    1    1    2    0    0  0.67737785109E+02  0.15095803315E+03 -0.64961506305E+04  0.65000000000E+04  0.15050000000E+03 0. -1.
     100001    1    1    2    0    0 -0.67737785109E+02 -0.15095803315E+03  0.64961506305E+04  0.65000000000E+04  0.15050000000E+03 0.  1.
</event>
<event>
 4    1  0.5143956E-004  0.6500000E+04  0.7818608E-02  0.7223770E-01
         52   -1    0    0    0    0  0.00000000000E+00  0.00000000000E+00  0.64930732323E+04  0.65000000000E+04  0.30000000000E+03 0. -1.
        -52   -1    0    0    0    0 -0.00000000000E+00 -0.00000000000E+00 -0.64930732323E+04  0.65000000000E+04  0.30000000000E+03 0.  1.
     100001    1    1    2    0    0  0.30698381569E+03 -0.60323384524E+03 -0.64629110790E+04  0.65000000000E+04  0.15050000000E+03 0.  1.
     100001    1    1    2    0    0 -0.30698381569E+03  0.60323384524E+03  0.64629110790E+04  0.65000000000E+04  0.15050000000E+03 0. -1.
</event>
<event>
 4    1  0.5143956E-004  0.6500000E+04  0.7818608E-02  0.7223770E-01
         52   -1    0    0    0    0  0.00000000000E+00  0.00000000000E+00  0.64930732323E+04  0.65000000000E+04  0.30000000000E+03 0.  1.
        -52   -1    0    0    0    0 -0.00000000000E+00 -0.00000000000E+00 -0.64930732323E+04  0.65000000000E+04  0.30000000000E+03 0. -1.
     100001    1    1    2    0    0 -0.78282283837E+03  0.15577870921E+04  0.62600189720E+04  0.65000000000E+04  0.15050000000E+03 0.  1.
     100001    1    1    2    0    0  0.78282283837E+03 -0.15577870921E+04 -0.62600189720E+04  0.65000000000E+04  0.15050000000E+03 0. -1.
</event>
<event>
 4    1  0.5143956E-004  0.6500000E+04  0.7818608E-02  0.7223770E-01
         52   -1    0    0    0    0  0.00000000000E+00  0.00000000000E+00  0.64930732323E+04  0.65000000000E+04  0.30000000000E+03 0. -1.
        -52   -1    0    0    0    0 -0.00000000000E+00 -0.00000000000E+00 -0.64930732323E+04  0.65000000000E+04  0.30000000000E+03 0.  1.
     100001    1    1    2    0    0 -0.29711099167E+03  0.16349992952E+04  0.62821852976E+04  0.65000000000E+04  0.15050000000E+03 0. -1.
     100001    1    1    2    0    0  0.29711099167E+03 -0.16349992952E+04 -0.62821852976E+04  0.65000000000E+04  0.15050000000E+03 0.  1.
</event>
<event>
 4    1  0.5143956E-004  0.6500000E+04  0.7818608E-02  0.7223770E-01
         52   -1    0    0    0    0  0.00000000000E+00  0.00000000000E+00  0.64930732323E+04  0.65000000000E+04  0.30000000000E+03 0. -1.
        -52   -1    0    0    0    0 -0.00000000000E+00 -0.00000000000E+00 -0.64930732323E+04  0.65000000000E+04  0.30000000000E+03 0.  1.
     100001    1    1    2    0    0  0.49612099792E+03 -0.87851851253E+03 -0.64194562798E+04  0.65000000000E+04  0.15050000000E+03 0.  1.
     100001    1    1    2    0    0 -0.49612099792E+03  0.87851851253E+03  0.64194562798E+04  0.65000000000E+04  0.15050000000E+03 0. -1.
</event>
<event>
 4    1  0.5143956E-004  0.6500000E+04  0.7818608E-02  0.7223770E-01
         52   -1    0    0    0    0  0.00000000000E+00  0.00000000000E+00  0.64930732323E+04  0.65000000000E+04  0.30000000000E+03 0. -1.
        -52   -1    0    0    0    0 -0.00000000000E+00 -0.00000000000E+00 -0.64930732323E+04  0.65000000000E+04  0.30000000000E+03 0.  1.
     100001    1    1    2    0    0  0.19308495363E+04 -0.11170783821E+04  0.61033847746E+04  0.65000000000E+04  0.15050000000E+03 0. -1.
     100001    1    1    2    0    0 -0.19308495363E+04  0.11170783821E+04 -0.61033847746E+04  0.65000000000E+04  0.15050000000E+03 0.  1.
</event>
<event>
 4    1  0.5143956E-004  0.6500000E+04  0.7818608E-02  0.7223770E-01
         52   -1    0    0    0    0  0.00000000000E+00  0.00000000000E+00  0.64930732323E+04  0.65000000000E+04  0.30000000000E+03 0.  1.
        -52   -1    0    0    0    0 -0.00000000000E+00 -0.00000000000E+00 -0.64930732323E+04  0.65000000000E+04  0.30000000000E+03 0. -1.
     100001    1    1    2    0    0 -0.12566986620E+04 -0.15501641850E+04 -0.61842581788E+04  0.65000000000E+04  0.15050000000E+03 0. -1.
     100001    1    1    2    0    0  0.12566986620E+04  0.15501641850E+04  0.61842581788E+04  0.65000000000E+04  0.15050000000E+03 0.  1.
</event>
<event>
 4    1  0.5143956E-004  0.6500000E+04  0.7818608E-02  0.7223770E-01
         52   -1    0    0    0    0  0.00000000000E+00  0.00000000000E+00  0.64930732323E+04  0.65000000000E+04  0.30000000000E+03 0.  1.
        -52   -1    0    0    0    0 -0.00000000000E+00 -0.00000000000E+00 -0.64930732323E+04  0.65000000000E+04  0.30000000000E+03 0. -1.
     100001    1    1    2    0    0 -0.96518784052E+03  0.35487947975E+04 -0.53574077377E+04  0.65000000000E+04  0.15050000000E+03 0. -1.
     100001    1    1    2    0    0  0.96518784052E+03 -0.35487947975E+04  0.53574077377E+04  0.65000000000E+04  0.15050000000E+03 0.  1.
</event>
<event>
 4    1  0.5143956E-004  0.6500000E+04  0.7818608E-02  0.7223770E-01
         52   -1    0    0    0    0  0.00000000000E+00  0.00000000000E+00  0.64930732323E+04  0.65000000000E+04  0.30000000000E+03 0.  1.
        -52   -1    0    0    0    0 -0.00000000000E+00 -0.00000000000E+00 -0.64930732323E+04  0.65000000000E+04  0.30000000000E+03 0. -1.
     100001    1    1    2    0    0  0.95853450513E+03  0.10556493456E+03 -0.64263066685E+04  0.65000000000E+04  0.15050000000E+03 0. -1.
     100001    1    1    2    0    0 -0.95853450513E+03 -0.10556493456E+03  0.64263066685E+04  0.65000000000E+04  0.15050000000E+03 0.  1.
</event>
<event>
 4    1  0.5143956E-004  0.6500000E+04  0.7818608E-02  0.7223770E-01
         52   -1    0    0    0    0  0.00000000000E+00  0.00000000000E+00  0.64930732323E+04  0.65000000000E+04  0.30000000000E+03 0. -1.
        -52   -1    0    0    0    0 -0.00000000000E+00 -0.00000000000E+00 -0.64930732323E+04  0.65000000000E+04  0.30000000000E+03 0.  1.
     100001    1    1    2    0    0  0.29712896964E+04  0.38512769245E+03 -0.57663215268E+04  0.65000000000E+04  0.15050000000E+03 0.  1.
     100001    1    1    2    0    0 -0.29712896964E+04 -0.38512769245E+03  0.57663215268E+04  0.65000000000E+04  0.15050000000E+03 0. -1.
</event>
<event>
 4    1  0.5143956E-004  0.6500000E+04  0.7818608E-02  0.7223770E-01
         52   -1    0    0    0    0  0.00000000000E+00  0.00000000000E+00  0.64930732323E+04  0.65000000000E+04  0.30000000000E+03 0.  1.
        -52   -1    0    0    0    0 -0.00000000000E+00 -0.00000000000E+00 -0.64930732323E+04  0.65000000000E+04  0.30000000000E+03 0. -1.
     100001    1    1    2    0    0  0.24488255854E+03  0.12824566576E+04  0.63657432562E+04  0.65000000000E+04  0.15050000000E+03 0.  1.
     100001    1    1    2    0    0 -0.24488255854E+03 -0.12824566576E+04 -0.63657432562E+04  0.65000000000E+04  0.15050000000E+03 0. -1.
</event>
<event>
 4    1  0.5143956E-004  0.6500000E+04  0.7818608E-02  0.7223770E-01
         52   -1    0    0    0    0  0.00000000000E+00  0.00000000000E+00  0.64930732323E+04  0.65000000000E+04  0.30000000000E+03 0.  1.
        -52   -1    0    0    0    0 -0.00000000000E+00 -0.00000000000E+00 -0.64930732323E+04  0.65000000000E+04  0.30000000000E+03 0. -1.
     100001    1    1    2    0    0 -0.44704447588E+03 -0.11182096113E+04 -0.63856955965E+04  0.65000000000E+04  0.15050000000E+03 0. -1.
     100001    1    1    2    0    0  0.44704447588E+03  0.11182096113E+04  0.63856955965E+04  0.65000000000E+04  0.15050000000E+03 0.  1.
</event>
<event>
 4    1  0.5143956E-004  0.6500000E+04  0.7818608E-02  0.7223770E-01
         52   -1    0    0    0    0  0.00000000000E+00  0.00000000000E+00  0.64930732323E+04  0.65000000000E+04  0.30000000000E+03 0.  1.
        -52   -1    0    0    0    0 -0.00000000000E+00 -0.00000000000E+00 -0.64930732323E+04  0.65000000000E+04  0.30000000000E+03 0. -1.
     100001    1    1    2    0    0  0.14068851842E+04  0.42968957632E+04  0.46674094130E+04  0.65000000000E+04  0.15050000000E+03 0. -1.
     100001    1    1    2    0    0 -0.14068851842E+04 -0.42968957632E+04 -0.46674094130E+04  0.65000000000E+04  0.15050000000E+03 0.  1.
</event>
<event>
 4    1  0.5143956E-004  0.6500000E+04  0.7818608E-02  0.7223770E-01
         52   -1    0    0    0    0  0.00000000000E+00  0.00000000000E+00  0.64930732323E+04  0.65000000000E+04  0.30000000000E+03 0.  1.
        -52   -1    0    0    0    0 -0.00000000000E+00 -0.00000000000E+00 -0.64930732323E+04  0.65000000000E+04  0.30000000000E+03 0. -1.
     100001    1    1    2    0    0  0.10024608328E+04 -0.25267229102E+04  0.59023803134E+04  0.65000000000E+04  0.15050000000E+03 0.  1.
     100001    1    1    2    0    0 -0.10024608328E+04  0.25267229102E+04 -0.59023803134E+04  0.65000000000E+04  0.15050000000E+03 0. -1.
</event>
<event>
 4    1  0.5143956E-004  0.6500000E+04  0.7818608E-02  0.7223770E-01
         52   -1    0    0    0    0  0.00000000000E+00  0.00000000000E+00  0.64930732323E+04  0.65000000000E+04  0.30000000000E+03 0. -1.
        -52   -1    0    0    0    0 -0.00000000000E+00 -0.00000000000E+00 -0.64930732323E+04  0.65000000000E+04  0.30000000000E+03 0.  1.
     100001    1    1    2    0    0 -0.12789576925E+03  0.48645610264E+03  0.64787616782E+04  0.65000000000E+04  0.15050000000E+03 0. -1.
     100001    1    1    2    0    0  0.12789576925E+03 -0.48645610264E+03 -0.64787616782E+04  0.65000000000E+04  0.15050000000E+03 0.  1.
</event>
<event>
 4    1  0.5143956E-004  0.6500000E+04  0.7818608E-02  0.7223770E-01
         52   -1    0    0    0    0  0.00000000000E+00  0.00000000000E+00  0.64930732323E+04  0.65000000000E+04  0.30000000000E+03 0.  1.
        -52   -1    0    0    0    0 -0.00000000000E+00 -0.00000000000E+00 -0.64930732323E+04  0.65000000000E+04  0.30000000000E+03 0. -1.
     100001    1    1    2    0    0 -0.41881113483E+03 -0.46006057970E+03  0.64684071645E+04  0.65000000000E+04  0.15050000000E+03 0.  1.
     100001    1    1    2    0    0  0.41881113483E+03  0.46006057970E+03 -0.64684071645E+04  0.65000000000E+04  0.15050000000E+03 0. -1.
</event>
<event>
 4    1  0.7243667E-004  0.6500000E+04  0.7818608E-02  0.7223770E-01
         52   -1    0    0    0    0  0.00000000000E+00  0.00000000000E+00  0.64930732323E+04  0.65000000000E+04  0.30000000000E+03 0. -1.
        -52   -1    0    0    0    0 -0.00000000000E+00 -0.00000000000E+00 -0.64930732323E+04  0.65000000000E+04  0.30000000000E+03 0. -1.
     100001    1    1    2    0    0 -0.97456130379E+02 -0.45628046512E+02 -0.64973663999E+04  0.65000000000E+04  0.15050000000E+03 0. -1.
     100001    1    1    2    0    0  0.97456130379E+02  0.45628046512E+02  0.64973663999E+04  0.65000000000E+04  0.15050000000E+03 0. -1.
</event>
<event>
 4    1  0.5143956E-004  0.6500000E+04  0.7818608E-02  0.7223770E-01
         52   -1    0    0    0    0  0.00000000000E+00  0.00000000000E+00  0.64930732323E+04  0.65000000000E+04  0.30000000000E+03 0.  1.
        -52   -1    0    0    0    0 -0.00000000000E+00 -0.00000000000E+00 -0.64930732323E+04  0.65000000000E+04  0.30000000000E+03 0. -1.
     100001    1    1    2    0    0 -0.11677796538E+04 -0.27600667907E+04  0.57659059775E+04  0.65000000000E+04  0.15050000000E+03 0.  1.
     100001    1    1    2    0    0  0.11677796538E+04  0.27600667907E+04 -0.57659059775E+04  0.65000000000E+04  0.15050000000E+03 0. -1.
</event>
<event>
 4    1  0.5143956E-004  0.6500000E+04  0.7818608E-02  0.7223770E-01
         52   -1    0    0    0    0  0.00000000000E+00  0.00000000000E+00  0.64930732323E+04  0.65000000000E+04  0.30000000000E+03 0. -1.
        -52   -1    0    0    0    0 -0.00000000000E+00 -0.00000000000E+00 -0.64930732323E+04  0.65000000000E+04  0.30000000000E+03 0.  1.
     100001    1    1    2    0    0 -0.34379847163E+03  0.15583379740E+03 -0.64872851169E+04  0.65000000000E+04  0.15050000000E+03 0.  1.
     100001    1    1    2    0    0  0.34379847163E+03 -0.15583379740E+03  0.64872851169E+04  0.65000000000E+04  0.15050000000E+03 0. -1.
</event>
<event>
 4    1  0.5143956E-004  0.6500000E+04  0.7818608E-02  0.7223770E-01
         52   -1    0    0    0    0  0.00000000000E+00  0.00000000000E+00  0.64930732323E+04  0.65000000000E+04  0.30000000000E+03 0. -1.
        -52   -1    0    0    0    0 -0.00000000000E+00 -0.00000000000E+00 -0.64930732323E+04  0.65000000000E+04  0.30000000000E+03 0.  1.
     100001    1    1    2    0    0  0.38744340261E+04 -0.68877002853E+03  0.51712383986E+04  0.65000000000E+04  0.15050000000E+03 0. -1.
     100001    1    1    2    0    0 -0.38744340261E+04  0.68877002853E+03 -0.51712383986E+04  0.65000000000E+04  0.15050000000E+03 0.  1.
</event>
<event>
 4    1  0.5143956E-004  0.6500000E+04  0.7818608E-02  0.7223770E-01
         52   -1    0    0    0    0  0.00000000000E+00  0.00000000000E+00  0.64930732323E+04  0.65000000000E+04  0.30000000000E+03 0.  1.
        -52   -1    0    0    0    0 -0.00000000000E+00 -0.00000000000E+00 -0.64930732323E+04  0.65000000000E+04  0.30000000000E+03 0. -1.
     100001    1    1    2    0    0  0.70994291574E+03  0.19496397991E+04 -0.61581032356E+04  0.65000000000E+04  0.15050000000E+03 0. -1.
     100001    1    1    2    0    0 -0.70994291574E+03 -0.19496397991E+04  0.61581032356E+04  0.65000000000E+04  0.15050000000E+03 0.  1.
</event>
<event>
 4    1  0.5143956E-004  0.6500000E+04  0.7818608E-02  0.7223770E-01
         52   -1    0    0    0    0  0.00000000000E+00  0.00000000000E+00  0.64930732323E+04  0.65000000000E+04  0.30000000000E+03 0. -1.
        -52   -1    0    0    0    0 -0.00000000000E+00 -0.00000000000E+00 -0.64930732323E+04  0.65000000000E+04  0.30000000000E+03 0.  1.
     100001    1    1    2    0    0 -0.11808411869E+04  0.10263994898E+04  0.63070966323E+04  0.65000000000E+04  0.15050000000E+03 0. -1.
     100001    1    1    2    0    0  0.11808411869E+04 -0.10263994898E+04 -0.63070966323E+04  0.65000000000E+04  0.15050000000E+03 0.  1.
</event>
<event>
 4    1  0.5143956E-004  0.6500000E+04  0.7818608E-02  0.7223770E-01
         52   -1    0    0    0    0  0.00000000000E+00  0.00000000000E+00  0.64930732323E+04  0.65000000000E+04  0.30000000000E+03 0.  1.
        -52   -1    0    0    0    0 -0.00000000000E+00 -0.00000000000E+00 -0.64930732323E+04  0.65000000000E+04  0.30000000000E+03 0. -1.
     100001    1    1    2    0    0 -0.22533016680E+04 -0.60547231174E+04 -0.70022090392E+03  0.65000000000E+04  0.15050000000E+03 0. -1.
     100001    1    1    2    0    0  0.22533016680E+04  0.60547231174E+04  0.70022090392E+03  0.65000000000E+04  0.15050000000E+03 0.  1.
</event>
<event>
 4    1  0.5143956E-004  0.6500000E+04  0.7818608E-02  0.7223770E-01
         52   -1    0    0    0    0  0.00000000000E+00  0.00000000000E+00  0.64930732323E+04  0.65000000000E+04  0.30000000000E+03 0. -1.
        -52   -1    0    0    0    0 -0.00000000000E+00 -0.00000000000E+00 -0.64930732323E+04  0.65000000000E+04  0.30000000000E+03 0.  1.
     100001    1    1    2    0    0 -0.59485491724E+04  0.60843692632E+03  0.25439962658E+04  0.65000000000E+04  0.15050000000E+03 0. -1.
     100001    1    1    2    0    0  0.59485491724E+04 -0.60843692632E+03 -0.25439962658E+04  0.65000000000E+04  0.15050000000E+03 0.  1.
</event>
<event>
 4    1  0.5143956E-004  0.6500000E+04  0.7818608E-02  0.7223770E-01
         52   -1    0    0    0    0  0.00000000000E+00  0.00000000000E+00  0.64930732323E+04  0.65000000000E+04  0.30000000000E+03 0. -1.
        -52   -1    0    0    0    0 -0.00000000000E+00 -0.00000000000E+00 -0.64930732323E+04  0.65000000000E+04  0.30000000000E+03 0. -1.
     100001    1    1    2    0    0  0.86871760118E+03 -0.52330772516E+03 -0.64186313576E+04  0.65000000000E+04  0.15050000000E+03 0. -1.
     100001    1    1    2    0    0 -0.86871760118E+03  0.52330772516E+03  0.64186313576E+04  0.65000000000E+04  0.15050000000E+03 0. -1.
</event>
<event>
 4    1  0.5143956E-004  0.6500000E+04  0.7818608E-02  0.7223770E-01
         52   -1    0    0    0    0  0.00000000000E+00  0.00000000000E+00  0.64930732323E+04  0.65000000000E+04  0.30000000000E+03 0.  1.
        -52   -1    0    0    0    0 -0.00000000000E+00 -0.00000000000E+00 -0.64930732323E+04  0.65000000000E+04  0.30000000000E+03 0. -1.
     100001    1    1    2    0    0  0.30613036533E+04 -0.81734992954E+03 -0.56734212593E+04  0.65000000000E+04  0.15050000000E+03 0. -1.
     100001    1    1    2    0    0 -0.30613036533E+04  0.81734992954E+03  0.56734212593E+04  0.65000000000E+04  0.15050000000E+03 0.  1.
</event>
<event>
 4    1  0.5143956E-004  0.6500000E+04  0.7818608E-02  0.7223770E-01
         52   -1    0    0    0    0  0.00000000000E+00  0.00000000000E+00  0.64930732323E+04  0.65000000000E+04  0.30000000000E+03 0.  1.
        -52   -1    0    0    0    0 -0.00000000000E+00 -0.00000000000E+00 -0.64930732323E+04  0.65000000000E+04  0.30000000000E+03 0. -1.
     100001    1    1    2    0    0  0.11354219339E+03  0.89029434036E+03 -0.64359796386E+04  0.65000000000E+04  0.15050000000E+03 0. -1.
     100001    1    1    2    0    0 -0.11354219339E+03 -0.89029434036E+03  0.64359796386E+04  0.65000000000E+04  0.15050000000E+03 0.  1.
</event>
<event>
 4    1  0.5143956E-004  0.6500000E+04  0.7818608E-02  0.7223770E-01
         52   -1    0    0    0    0  0.00000000000E+00  0.00000000000E+00  0.64930732323E+04  0.65000000000E+04  0.30000000000E+03 0.  1.
        -52   -1    0    0    0    0 -0.00000000000E+00 -0.00000000000E+00 -0.64930732323E+04  0.65000000000E+04  0.30000000000E+03 0. -1.
     100001    1    1    2    0    0 -0.58438323708E+02  0.65699673827E+03  0.64646956617E+04  0.65000000000E+04  0.15050000000E+03 0.  1.
     100001    1    1    2    0    0  0.58438323708E+02 -0.65699673827E+03 -0.64646956617E+04  0.65000000000E+04  0.15050000000E+03 0. -1.
</event>
<event>
 4    1  0.5143956E-004  0.6500000E+04  0.7818608E-02  0.7223770E-01
         52   -1    0    0    0    0  0.00000000000E+00  0.00000000000E+00  0.64930732323E+04  0.65000000000E+04  0.30000000000E+03 0. -1.
        -52   -1    0    0    0    0 -0.00000000000E+00 -0.00000000000E+00 -0.64930732323E+04  0.65000000000E+04  0.30000000000E+03 0.  1.
     100001    1    1    2    0    0  0.19535089673E+03 -0.13242582443E+04 -0.63588936050E+04  0.65000000000E+04  0.15050000000E+03 0.  1.
     100001    1    1    2    0    0 -0.19535089673E+03  0.13242582443E+04  0.63588936050E+04  0.65000000000E+04  0.15050000000E+03 0. -1.
</event>
<event>
 4    1  0.8068255E-004  0.6500000E+04  0.7818608E-02  0.7223770E-01
         52   -1    0    0    0    0  0.00000000000E+00  0.00000000000E+00  0.64930732323E+04  0.65000000000E+04  0.30000000000E+03 0. -1.
        -52   -1    0    0    0    0 -0.00000000000E+00 -0.00000000000E+00 -0.64930732323E+04  0.65000000000E+04  0.30000000000E+03 0. -1.
     100001    1    1    2    0    0  0.80029180502E+02  0.66025267421E+02 -0.64974291642E+04  0.65000000000E+04  0.15050000000E+03 0. -1.
     100001    1    1    2    0    0 -0.80029180502E+02 -0.66025267421E+02  0.64974291642E+04  0.65000000000E+04  0.15050000000E+03 0. -1.
</event>
<event>
 4    1  0.5143956E-004  0.6500000E+04  0.7818608E-02  0.7223770E-01
         52   -1    0    0    0    0  0.00000000000E+00  0.00000000000E+00  0.64930732323E+04  0.65000000000E+04  0.30000000000E+03 0.  1.
        -52   -1    0    0    0    0 -0.00000000000E+00 -0.00000000000E+00 -0.64930732323E+04  0.65000000000E+04  0.30000000000E+03 0. -1.
     100001    1    1    2    0    0  0.36707856248E+02 -0.12689451890E+03  0.64969146573E+04  0.65000000000E+04  0.15050000000E+03 0.  1.
     100001    1    1    2    0    0 -0.36707856248E+02  0.12689451890E+03 -0.64969146573E+04  0.65000000000E+04  0.15050000000E+03 0. -1.
</event>
<event>
 4    1  0.5143956E-004  0.6500000E+04  0.7818608E-02  0.7223770E-01
         52   -1    0    0    0    0  0.00000000000E+00  0.00000000000E+00  0.64930732323E+04  0.65000000000E+04  0.30000000000E+03 0.  1.
        -52   -1    0    0    0    0 -0.00000000000E+00 -0.00000000000E+00 -0.64930732323E+04  0.65000000000E+04  0.30000000000E+03 0. -1.
     100001    1    1    2    0    0 -0.11582807185E+04  0.23476719705E+04 -0.59476190065E+04  0.65000000000E+04  0.15050000000E+03 0. -1.
     100001    1    1    2    0    0  0.11582807185E+04 -0.23476719705E+04  0.59476190065E+04  0.65000000000E+04  0.15050000000E+03 0.  1.
</event>
<event>
 4    1  0.5143956E-004  0.6500000E+04  0.7818608E-02  0.7223770E-01
         52   -1    0    0    0    0  0.00000000000E+00  0.00000000000E+00  0.64930732323E+04  0.65000000000E+04  0.30000000000E+03 0. -1.
        -52   -1    0    0    0    0 -0.00000000000E+00 -0.00000000000E+00 -0.64930732323E+04  0.65000000000E+04  0.30000000000E+03 0.  1.
     100001    1    1    2    0    0 -0.43975678430E+03 -0.21378798468E+03 -0.64798347524E+04  0.65000000000E+04  0.15050000000E+03 0.  1.
     100001    1    1    2    0    0  0.43975678430E+03  0.21378798468E+03  0.64798347524E+04  0.65000000000E+04  0.15050000000E+03 0. -1.
</event>
<event>
 4    1  0.5143956E-004  0.6500000E+04  0.7818608E-02  0.7223770E-01
         52   -1    0    0    0    0  0.00000000000E+00  0.00000000000E+00  0.64930732323E+04  0.65000000000E+04  0.30000000000E+03 0. -1.
        -52   -1    0    0    0    0 -0.00000000000E+00 -0.00000000000E+00 -0.64930732323E+04  0.65000000000E+04  0.30000000000E+03 0.  1.
     100001    1    1    2    0    0 -0.11029721614E+04 -0.45601309786E+03  0.63877111876E+04  0.65000000000E+04  0.15050000000E+03 0. -1.
     100001    1    1    2    0    0  0.11029721614E+04  0.45601309786E+03 -0.63877111876E+04  0.65000000000E+04  0.15050000000E+03 0.  1.
</event>
<event>
 4    1  0.5143956E-004  0.6500000E+04  0.7818608E-02  0.7223770E-01
         52   -1    0    0    0    0  0.00000000000E+00  0.00000000000E+00  0.64930732323E+04  0.65000000000E+04  0.30000000000E+03 0. -1.
        -52   -1    0    0    0    0 -0.00000000000E+00 -0.00000000000E+00 -0.64930732323E+04  0.65000000000E+04  0.30000000000E+03 0.  1.
     100001    1    1    2    0    0  0.28168014303E+04 -0.11230446011E+04  0.57473254889E+04  0.65000000000E+04  0.15050000000E+03 0. -1.
     100001    1    1    2    0    0 -0.28168014303E+04  0.11230446011E+04 -0.57473254889E+04  0.65000000000E+04  0.15050000000E+03 0.  1.
</event>
<event>
 4    1  0.5143956E-004  0.6500000E+04  0.7818608E-02  0.7223770E-01
         52   -1    0    0    0    0  0.00000000000E+00  0.00000000000E+00  0.64930732323E+04  0.65000000000E+04  0.30000000000E+03 0.  1.
        -52   -1    0    0    0    0 -0.00000000000E+00 -0.00000000000E+00 -0.64930732323E+04  0.65000000000E+04  0.30000000000E+03 0. -1.
     100001    1    1    2    0    0  0.10449883085E+04 -0.46769379683E+03  0.63966093907E+04  0.65000000000E+04  0.15050000000E+03 0.  1.
     100001    1    1    2    0    0 -0.10449883085E+04  0.46769379683E+03 -0.63966093907E+04  0.65000000000E+04  0.15050000000E+03 0. -1.
</event>
<event>
 4    1  0.5143956E-004  0.6500000E+04  0.7818608E-02  0.7223770E-01
         52   -1    0    0    0    0  0.00000000000E+00  0.00000000000E+00  0.64930732323E+04  0.65000000000E+04  0.30000000000E+03 0. -1.
        -52   -1    0    0    0    0 -0.00000000000E+00 -0.00000000000E+00 -0.64930732323E+04  0.65000000000E+04  0.30000000000E+03 0.  1.
     100001    1    1    2    0    0  0.22657995385E+03  0.50037739769E+03 -0.64750006745E+04  0.65000000000E+04  0.15050000000E+03 0.  1.
     100001    1    1    2    0    0 -0.22657995385E+03 -0.50037739769E+03  0.64750006745E+04  0.65000000000E+04  0.15050000000E+03 0. -1.
</event>
<event>
 4    1  0.5143956E-004  0.6500000E+04  0.7818608E-02  0.7223770E-01
         52   -1    0    0    0    0  0.00000000000E+00  0.00000000000E+00  0.64930732323E+04  0.65000000000E+04  0.30000000000E+03 0. -1.
        -52   -1    0    0    0    0 -0.00000000000E+00 -0.00000000000E+00 -0.64930732323E+04  0.65000000000E+04  0.30000000000E+03 0.  1.
     100001    1    1    2    0    0 -0.72835235969E+02 -0.15103720300E+04  0.63198750865E+04  0.65000000000E+04  0.15050000000E+03 0. -1.
     100001    1    1    2    0    0  0.72835235969E+02  0.15103720300E+04 -0.63198750865E+04  0.65000000000E+04  0.15050000000E+03 0.  1.
</event>
<event>
 4    1  0.5143956E-004  0.6500000E+04  0.7818608E-02  0.7223770E-01
         52   -1    0    0    0    0  0.00000000000E+00  0.00000000000E+00  0.64930732323E+04  0.65000000000E+04  0.30000000000E+03 0.  1.
        -52   -1    0    0    0    0 -0.00000000000E+00 -0.00000000000E+00 -0.64930732323E+04  0.65000000000E+04  0.30000000000E+03 0. -1.
     100001    1    1    2    0    0 -0.82948937701E+03 -0.97960524673E+03 -0.63702174754E+04  0.65000000000E+04  0.15050000000E+03 0. -1.
     100001    1    1    2    0    0  0.82948937701E+03  0.97960524673E+03  0.63702174754E+04  0.65000000000E+04  0.15050000000E+03 0.  1.
</event>
<event>
 4    1  0.5143956E-004  0.6500000E+04  0.7818608E-02  0.7223770E-01
         52   -1    0    0    0    0  0.00000000000E+00  0.00000000000E+00  0.64930732323E+04  0.65000000000E+04  0.30000000000E+03 0.  1.
        -52   -1    0    0    0    0 -0.00000000000E+00 -0.00000000000E+00 -0.64930732323E+04  0.65000000000E+04  0.30000000000E+03 0. -1.
     100001    1    1    2    0    0  0.18510922059E+04  0.61316458500E+04 -0.10971447332E+04  0.65000000000E+04  0.15050000000E+03 0. -1.
     100001    1    1    2    0    0 -0.18510922059E+04 -0.61316458500E+04  0.10971447332E+04  0.65000000000E+04  0.15050000000E+03 0.  1.
</event>
<event>
 4    1  0.5143956E-004  0.6500000E+04  0.7818608E-02  0.7223770E-01
         52   -1    0    0    0    0  0.00000000000E+00  0.00000000000E+00  0.64930732323E+04  0.65000000000E+04  0.30000000000E+03 0.  1.
        -52   -1    0    0    0    0 -0.00000000000E+00 -0.00000000000E+00 -0.64930732323E+04  0.65000000000E+04  0.30000000000E+03 0. -1.
     100001    1    1    2    0    0 -0.21566313071E+04  0.30989175184E+04 -0.52889508761E+04  0.65000000000E+04  0.15050000000E+03 0. -1.
     100001    1    1    2    0    0  0.21566313071E+04 -0.30989175184E+04  0.52889508761E+04  0.65000000000E+04  0.15050000000E+03 0.  1.
</event>
<event>
 4    1  0.5143956E-004  0.6500000E+04  0.7818608E-02  0.7223770E-01
         52   -1    0    0    0    0  0.00000000000E+00  0.00000000000E+00  0.64930732323E+04  0.65000000000E+04  0.30000000000E+03 0. -1.
        -52   -1    0    0    0    0 -0.00000000000E+00 -0.00000000000E+00 -0.64930732323E+04  0.65000000000E+04  0.30000000000E+03 0.  1.
     100001    1    1    2    0    0 -0.82433850598E+03  0.21349651693E+04  0.60819190642E+04  0.65000000000E+04  0.15050000000E+03 0. -1.
     100001    1    1    2    0    0  0.82433850598E+03 -0.21349651693E+04 -0.60819190642E+04  0.65000000000E+04  0.15050000000E+03 0.  1.
</event>
<event>
 4    1  0.5143956E-004  0.6500000E+04  0.7818608E-02  0.7223770E-01
         52   -1    0    0    0    0  0.00000000000E+00  0.00000000000E+00  0.64930732323E+04  0.65000000000E+04  0.30000000000E+03 0. -1.
        -52   -1    0    0    0    0 -0.00000000000E+00 -0.00000000000E+00 -0.64930732323E+04  0.65000000000E+04  0.30000000000E+03 0.  1.
     100001    1    1    2    0    0  0.37793101611E+04  0.24610842417E+04  0.46783788658E+04  0.65000000000E+04  0.15050000000E+03 0. -1.
     100001    1    1    2    0    0 -0.37793101611E+04 -0.24610842417E+04 -0.46783788658E+04  0.65000000000E+04  0.15050000000E+03 0.  1.
</event>
<event>
 4    1  0.5143956E-004  0.6500000E+04  0.7818608E-02  0.7223770E-01
         52   -1    0    0    0    0  0.00000000000E+00  0.00000000000E+00  0.64930732323E+04  0.65000000000E+04  0.30000000000E+03 0.  1.
        -52   -1    0    0    0    0 -0.00000000000E+00 -0.00000000000E+00 -0.64930732323E+04  0.65000000000E+04  0.30000000000E+03 0. -1.
     100001    1    1    2    0    0 -0.57745146666E+04  0.22862788100E+04 -0.19118732483E+04  0.65000000000E+04  0.15050000000E+03 0. -1.
     100001    1    1    2    0    0  0.57745146666E+04 -0.22862788100E+04  0.19118732483E+04  0.65000000000E+04  0.15050000000E+03 0.  1.
</event>
<event>
 4    1  0.5143956E-004  0.6500000E+04  0.7818608E-02  0.7223770E-01
         52   -1    0    0    0    0  0.00000000000E+00  0.00000000000E+00  0.64930732323E+04  0.65000000000E+04  0.30000000000E+03 0.  1.
        -52   -1    0    0    0    0 -0.00000000000E+00 -0.00000000000E+00 -0.64930732323E+04  0.65000000000E+04  0.30000000000E+03 0.  1.
     100001    1    1    2    0    0 -0.24679293766E+03 -0.23080172119E+03  0.64894663541E+04  0.65000000000E+04  0.15050000000E+03 0.  1.
     100001    1    1    2    0    0  0.24679293766E+03  0.23080172119E+03 -0.64894663541E+04  0.65000000000E+04  0.15050000000E+03 0.  1.
</event>
<event>
 4    1  0.5143956E-004  0.6500000E+04  0.7818608E-02  0.7223770E-01
         52   -1    0    0    0    0  0.00000000000E+00  0.00000000000E+00  0.64930732323E+04  0.65000000000E+04  0.30000000000E+03 0. -1.
        -52   -1    0    0    0    0 -0.00000000000E+00 -0.00000000000E+00 -0.64930732323E+04  0.65000000000E+04  0.30000000000E+03 0.  1.
     100001    1    1    2    0    0 -0.43217767629E+04 -0.47591340293E+04  0.94880907056E+03  0.65000000000E+04  0.15050000000E+03 0. -1.
     100001    1    1    2    0    0  0.43217767629E+04  0.47591340293E+04 -0.94880907056E+03  0.65000000000E+04  0.15050000000E+03 0.  1.
</event>
<event>
 4    1  0.5143956E-004  0.6500000E+04  0.7818608E-02  0.7223770E-01
         52   -1    0    0    0    0  0.00000000000E+00  0.00000000000E+00  0.64930732323E+04  0.65000000000E+04  0.30000000000E+03 0.  1.
        -52   -1    0    0    0    0 -0.00000000000E+00 -0.00000000000E+00 -0.64930732323E+04  0.65000000000E+04  0.30000000000E+03 0. -1.
     100001    1    1    2    0    0 -0.16714526866E+04  0.11915252111E+04 -0.61655383656E+04  0.65000000000E+04  0.15050000000E+03 0. -1.
     100001    1    1    2    0    0  0.16714526866E+04 -0.11915252111E+04  0.61655383656E+04  0.65000000000E+04  0.15050000000E+03 0.  1.
</event>
<event>
 4    1  0.5143956E-004  0.6500000E+04  0.7818608E-02  0.7223770E-01
         52   -1    0    0    0    0  0.00000000000E+00  0.00000000000E+00  0.64930732323E+04  0.65000000000E+04  0.30000000000E+03 0. -1.
        -52   -1    0    0    0    0 -0.00000000000E+00 -0.00000000000E+00 -0.64930732323E+04  0.65000000000E+04  0.30000000000E+03 0.  1.
     100001    1    1    2    0    0  0.87652954470E+03  0.73300544342E+03  0.63970109213E+04  0.65000000000E+04  0.15050000000E+03 0. -1.
     100001    1    1    2    0    0 -0.87652954470E+03 -0.73300544342E+03 -0.63970109213E+04  0.65000000000E+04  0.15050000000E+03 0.  1.
</event>
<event>
 4    1  0.5143956E-004  0.6500000E+04  0.7818608E-02  0.7223770E-01
         52   -1    0    0    0    0  0.00000000000E+00  0.00000000000E+00  0.64930732323E+04  0.65000000000E+04  0.30000000000E+03 0. -1.
        -52   -1    0    0    0    0 -0.00000000000E+00 -0.00000000000E+00 -0.64930732323E+04  0.65000000000E+04  0.30000000000E+03 0. -1.
     100001    1    1    2    0    0  0.39506753204E+02  0.35814274030E+03  0.64882603789E+04  0.65000000000E+04  0.15050000000E+03 0. -1.
     100001    1    1    2    0    0 -0.39506753204E+02 -0.35814274030E+03 -0.64882603789E+04  0.65000000000E+04  0.15050000000E+03 0. -1.
</event>
<event>
 4    1  0.5143956E-004  0.6500000E+04  0.7818608E-02  0.7223770E-01
         52   -1    0    0    0    0  0.00000000000E+00  0.00000000000E+00  0.64930732323E+04  0.65000000000E+04  0.30000000000E+03 0. -1.
        -52   -1    0    0    0    0 -0.00000000000E+00 -0.00000000000E+00 -0.64930732323E+04  0.65000000000E+04  0.30000000000E+03 0.  1.
     100001    1    1    2    0    0  0.25017603527E+04 -0.13041459493E+04 -0.58538660927E+04  0.65000000000E+04  0.15050000000E+03 0.  1.
     100001    1    1    2    0    0 -0.25017603527E+04  0.13041459493E+04  0.58538660927E+04  0.65000000000E+04  0.15050000000E+03 0. -1.
</event>
<event>
 4    1  0.5143956E-004  0.6500000E+04  0.7818608E-02  0.7223770E-01
         52   -1    0    0    0    0  0.00000000000E+00  0.00000000000E+00  0.64930732323E+04  0.65000000000E+04  0.30000000000E+03 0. -1.
        -52   -1    0    0    0    0 -0.00000000000E+00 -0.00000000000E+00 -0.64930732323E+04  0.65000000000E+04  0.30000000000E+03 0.  1.
     100001    1    1    2    0    0 -0.79330309180E+03 -0.25394099507E+03  0.64446515752E+04  0.65000000000E+04  0.15050000000E+03 0. -1.
     100001    1    1    2    0    0  0.79330309180E+03  0.25394099507E+03 -0.64446515752E+04  0.65000000000E+04  0.15050000000E+03 0.  1.
</event>
<event>
 4    1  0.5143956E-004  0.6500000E+04  0.7818608E-02  0.7223770E-01
         52   -1    0    0    0    0  0.00000000000E+00  0.00000000000E+00  0.64930732323E+04  0.65000000000E+04  0.30000000000E+03 0.  1.
        -52   -1    0    0    0    0 -0.00000000000E+00 -0.00000000000E+00 -0.64930732323E+04  0.65000000000E+04  0.30000000000E+03 0. -1.
     100001    1    1    2    0    0  0.10129695979E+04 -0.31739684334E+03  0.64109672895E+04  0.65000000000E+04  0.15050000000E+03 0.  1.
     100001    1    1    2    0    0 -0.10129695979E+04  0.31739684334E+03 -0.64109672895E+04  0.65000000000E+04  0.15050000000E+03 0. -1.
</event>
<event>
 4    1  0.5143956E-004  0.6500000E+04  0.7818608E-02  0.7223770E-01
         52   -1    0    0    0    0  0.00000000000E+00  0.00000000000E+00  0.64930732323E+04  0.65000000000E+04  0.30000000000E+03 0. -1.
        -52   -1    0    0    0    0 -0.00000000000E+00 -0.00000000000E+00 -0.64930732323E+04  0.65000000000E+04  0.30000000000E+03 0.  1.
     100001    1    1    2    0    0 -0.24505575082E+04  0.12282659886E+04 -0.58918146874E+04  0.65000000000E+04  0.15050000000E+03 0.  1.
     100001    1    1    2    0    0  0.24505575082E+04 -0.12282659886E+04  0.58918146874E+04  0.65000000000E+04  0.15050000000E+03 0. -1.
</event>
<event>
 4    1  0.5143956E-004  0.6500000E+04  0.7818608E-02  0.7223770E-01
         52   -1    0    0    0    0  0.00000000000E+00  0.00000000000E+00  0.64930732323E+04  0.65000000000E+04  0.30000000000E+03 0.  1.
        -52   -1    0    0    0    0 -0.00000000000E+00 -0.00000000000E+00 -0.64930732323E+04  0.65000000000E+04  0.30000000000E+03 0. -1.
     100001    1    1    2    0    0  0.24093860463E+04  0.16532990119E+04 -0.58042063202E+04  0.65000000000E+04  0.15050000000E+03 0. -1.
     100001    1    1    2    0    0 -0.24093860463E+04 -0.16532990119E+04  0.58042063202E+04  0.65000000000E+04  0.15050000000E+03 0.  1.
</event>
<event>
 4    1  0.5143956E-004  0.6500000E+04  0.7818608E-02  0.7223770E-01
         52   -1    0    0    0    0  0.00000000000E+00  0.00000000000E+00  0.64930732323E+04  0.65000000000E+04  0.30000000000E+03 0. -1.
        -52   -1    0    0    0    0 -0.00000000000E+00 -0.00000000000E+00 -0.64930732323E+04  0.65000000000E+04  0.30000000000E+03 0. -1.
     100001    1    1    2    0    0 -0.27080770885E+03  0.40342136962E+03  0.64800666766E+04  0.65000000000E+04  0.15050000000E+03 0. -1.
     100001    1    1    2    0    0  0.27080770885E+03 -0.40342136962E+03 -0.64800666766E+04  0.65000000000E+04  0.15050000000E+03 0. -1.
</event>
<event>
 4    1  0.5143956E-004  0.6500000E+04  0.7818608E-02  0.7223770E-01
         52   -1    0    0    0    0  0.00000000000E+00  0.00000000000E+00  0.64930732323E+04  0.65000000000E+04  0.30000000000E+03 0. -1.
        -52   -1    0    0    0    0 -0.00000000000E+00 -0.00000000000E+00 -0.64930732323E+04  0.65000000000E+04  0.30000000000E+03 0.  1.
     100001    1    1    2    0    0  0.15389427793E+04  0.24320398339E+04 -0.58261640140E+04  0.65000000000E+04  0.15050000000E+03 0.  1.
     100001    1    1    2    0    0 -0.15389427793E+04 -0.24320398339E+04  0.58261640140E+04  0.65000000000E+04  0.15050000000E+03 0. -1.
</event>
<event>
 4    1  0.5143956E-004  0.6500000E+04  0.7818608E-02  0.7223770E-01
         52   -1    0    0    0    0  0.00000000000E+00  0.00000000000E+00  0.64930732323E+04  0.65000000000E+04  0.30000000000E+03 0.  1.
        -52   -1    0    0    0    0 -0.00000000000E+00 -0.00000000000E+00 -0.64930732323E+04  0.65000000000E+04  0.30000000000E+03 0. -1.
     100001    1    1    2    0    0  0.23186868124E+04  0.24654713245E+04  0.55472959506E+04  0.65000000000E+04  0.15050000000E+03 0.  1.
     100001    1    1    2    0    0 -0.23186868124E+04 -0.24654713245E+04 -0.55472959506E+04  0.65000000000E+04  0.15050000000E+03 0. -1.
</event>
<event>
 4    1  0.5143956E-004  0.6500000E+04  0.7818608E-02  0.7223770E-01
         52   -1    0    0    0    0  0.00000000000E+00  0.00000000000E+00  0.64930732323E+04  0.65000000000E+04  0.30000000000E+03 0. -1.
        -52   -1    0    0    0    0 -0.00000000000E+00 -0.00000000000E+00 -0.64930732323E+04  0.65000000000E+04  0.30000000000E+03 0.  1.
     100001    1    1    2    0    0 -0.30763058833E+04  0.55115867082E+04 -0.15447018549E+04  0.65000000000E+04  0.15050000000E+03 0. -1.
     100001    1    1    2    0    0  0.30763058833E+04 -0.55115867082E+04  0.15447018549E+04  0.65000000000E+04  0.15050000000E+03 0.  1.
</event>
<event>
 4    1  0.5143956E-004  0.6500000E+04  0.7818608E-02  0.7223770E-01
         52   -1    0    0    0    0  0.00000000000E+00  0.00000000000E+00  0.64930732323E+04  0.65000000000E+04  0.30000000000E+03 0.  1.
        -52   -1    0    0    0    0 -0.00000000000E+00 -0.00000000000E+00 -0.64930732323E+04  0.65000000000E+04  0.30000000000E+03 0.  1.
     100001    1    1    2    0    0 -0.30347923492E+03 -0.86527518825E+02 -0.64905903501E+04  0.65000000000E+04  0.15050000000E+03 0.  1.
     100001    1    1    2    0    0  0.30347923492E+03  0.86527518825E+02  0.64905903501E+04  0.65000000000E+04  0.15050000000E+03 0.  1.
</event>
<event>
 4    1  0.5143956E-004  0.6500000E+04  0.7818608E-02  0.7223770E-01
         52   -1    0    0    0    0  0.00000000000E+00  0.00000000000E+00  0.64930732323E+04  0.65000000000E+04  0.30000000000E+03 0. -1.
        -52   -1    0    0    0    0 -0.00000000000E+00 -0.00000000000E+00 -0.64930732323E+04  0.65000000000E+04  0.30000000000E+03 0.  1.
     100001    1    1    2    0    0 -0.17068861369E+04  0.11229093822E+04 -0.61687084536E+04  0.65000000000E+04  0.15050000000E+03 0.  1.
     100001    1    1    2    0    0  0.17068861369E+04 -0.11229093822E+04  0.61687084536E+04  0.65000000000E+04  0.15050000000E+03 0. -1.
</event>
<event>
 4    1  0.5143956E-004  0.6500000E+04  0.7818608E-02  0.7223770E-01
         52   -1    0    0    0    0  0.00000000000E+00  0.00000000000E+00  0.64930732323E+04  0.65000000000E+04  0.30000000000E+03 0.  1.
        -52   -1    0    0    0    0 -0.00000000000E+00 -0.00000000000E+00 -0.64930732323E+04  0.65000000000E+04  0.30000000000E+03 0. -1.
     100001    1    1    2    0    0  0.14221129373E+03 -0.42598219665E+03  0.64827204834E+04  0.65000000000E+04  0.15050000000E+03 0.  1.
     100001    1    1    2    0    0 -0.14221129373E+03  0.42598219665E+03 -0.64827204834E+04  0.65000000000E+04  0.15050000000E+03 0. -1.
</event>
<event>
 4    1  0.5143956E-004  0.6500000E+04  0.7818608E-02  0.7223770E-01
         52   -1    0    0    0    0  0.00000000000E+00  0.00000000000E+00  0.64930732323E+04  0.65000000000E+04  0.30000000000E+03 0.  1.
        -52   -1    0    0    0    0 -0.00000000000E+00 -0.00000000000E+00 -0.64930732323E+04  0.65000000000E+04  0.30000000000E+03 0. -1.
     100001    1    1    2    0    0 -0.36262367183E+04  0.25375960020E+03  0.53864053949E+04  0.65000000000E+04  0.15050000000E+03 0.  1.
     100001    1    1    2    0    0  0.36262367183E+04 -0.25375960020E+03 -0.53864053949E+04  0.65000000000E+04  0.15050000000E+03 0. -1.
</event>
<event>
 4    1  0.5143956E-004  0.6500000E+04  0.7818608E-02  0.7223770E-01
         52   -1    0    0    0    0  0.00000000000E+00  0.00000000000E+00  0.64930732323E+04  0.65000000000E+04  0.30000000000E+03 0. -1.
        -52   -1    0    0    0    0 -0.00000000000E+00 -0.00000000000E+00 -0.64930732323E+04  0.65000000000E+04  0.30000000000E+03 0.  1.
     100001    1    1    2    0    0 -0.10815612405E+04  0.25987987610E+03 -0.64023462483E+04  0.65000000000E+04  0.15050000000E+03 0.  1.
     100001    1    1    2    0    0  0.10815612405E+04 -0.25987987610E+03  0.64023462483E+04  0.65000000000E+04  0.15050000000E+03 0. -1.
</event>
<event>
 4    1  0.5143956E-004  0.6500000E+04  0.7818608E-02  0.7223770E-01
         52   -1    0    0    0    0  0.00000000000E+00  0.00000000000E+00  0.64930732323E+04  0.65000000000E+04  0.30000000000E+03 0.  1.
        -52   -1    0    0    0    0 -0.00000000000E+00 -0.00000000000E+00 -0.64930732323E+04  0.65000000000E+04  0.30000000000E+03 0. -1.
     100001    1    1    2    0    0 -0.80390174141E+03  0.18689471437E+04 -0.61715580135E+04  0.65000000000E+04  0.15050000000E+03 0. -1.
     100001    1    1    2    0    0  0.80390174141E+03 -0.18689471437E+04  0.61715580135E+04  0.65000000000E+04  0.15050000000E+03 0.  1.
</event>
<event>
 4    1  0.5143956E-004  0.6500000E+04  0.7818608E-02  0.7223770E-01
         52   -1    0    0    0    0  0.00000000000E+00  0.00000000000E+00  0.64930732323E+04  0.65000000000E+04  0.30000000000E+03 0.  1.
        -52   -1    0    0    0    0 -0.00000000000E+00 -0.00000000000E+00 -0.64930732323E+04  0.65000000000E+04  0.30000000000E+03 0.  1.
     100001    1    1    2    0    0  0.23289629525E+03 -0.39443524981E+03 -0.64820930184E+04  0.65000000000E+04  0.15050000000E+03 0.  1.
     100001    1    1    2    0    0 -0.23289629525E+03  0.39443524981E+03  0.64820930184E+04  0.65000000000E+04  0.15050000000E+03 0.  1.
</event>
<event>
 4    1  0.5143956E-004  0.6500000E+04  0.7818608E-02  0.7223770E-01
         52   -1    0    0    0    0  0.00000000000E+00  0.00000000000E+00  0.64930732323E+04  0.65000000000E+04  0.30000000000E+03 0. -1.
        -52   -1    0    0    0    0 -0.00000000000E+00 -0.00000000000E+00 -0.64930732323E+04  0.65000000000E+04  0.30000000000E+03 0.  1.
     100001    1    1    2    0    0 -0.17923520861E+04 -0.20559623993E+04  0.58981219352E+04  0.65000000000E+04  0.15050000000E+03 0. -1.
     100001    1    1    2    0    0  0.17923520861E+04  0.20559623993E+04 -0.58981219352E+04  0.65000000000E+04  0.15050000000E+03 0.  1.
</event>
<event>
 4    1  0.5143956E-004  0.6500000E+04  0.7818608E-02  0.7223770E-01
         52   -1    0    0    0    0  0.00000000000E+00  0.00000000000E+00  0.64930732323E+04  0.65000000000E+04  0.30000000000E+03 0. -1.
        -52   -1    0    0    0    0 -0.00000000000E+00 -0.00000000000E+00 -0.64930732323E+04  0.65000000000E+04  0.30000000000E+03 0.  1.
     100001    1    1    2    0    0 -0.62394746242E+03 -0.78812706100E+03 -0.64200385552E+04  0.65000000000E+04  0.15050000000E+03 0.  1.
     100001    1    1    2    0    0  0.62394746242E+03  0.78812706100E+03  0.64200385552E+04  0.65000000000E+04  0.15050000000E+03 0. -1.
</event>
<event>
 4    1  0.5143956E-004  0.6500000E+04  0.7818608E-02  0.7223770E-01
         52   -1    0    0    0    0  0.00000000000E+00  0.00000000000E+00  0.64930732323E+04  0.65000000000E+04  0.30000000000E+03 0.  1.
        -52   -1    0    0    0    0 -0.00000000000E+00 -0.00000000000E+00 -0.64930732323E+04  0.65000000000E+04  0.30000000000E+03 0. -1.
     100001    1    1    2    0    0 -0.32626422260E+04 -0.31616206541E+04  0.46461457462E+04  0.65000000000E+04  0.15050000000E+03 0.  1.
     100001    1    1    2    0    0  0.32626422260E+04  0.31616206541E+04 -0.46461457462E+04  0.65000000000E+04  0.15050000000E+03 0. -1.
</event>
<event>
 4    1  0.5143956E-004  0.6500000E+04  0.7818608E-02  0.7223770E-01
         52   -1    0    0    0    0  0.00000000000E+00  0.00000000000E+00  0.64930732323E+04  0.65000000000E+04  0.30000000000E+03 0. -1.
        -52   -1    0    0    0    0 -0.00000000000E+00 -0.00000000000E+00 -0.64930732323E+04  0.65000000000E+04  0.30000000000E+03 0.  1.
     100001    1    1    2    0    0  0.61333912508E+03 -0.27631024488E+04 -0.58494811501E+04  0.65000000000E+04  0.15050000000E+03 0.  1.
     100001    1    1    2    0    0 -0.61333912508E+03  0.27631024488E+04  0.58494811501E+04  0.65000000000E+04  0.15050000000E+03 0. -1.
</event>
<event>
 4    1  0.5143956E-004  0.6500000E+04  0.7818608E-02  0.7223770E-01
         52   -1    0    0    0    0  0.00000000000E+00  0.00000000000E+00  0.64930732323E+04  0.65000000000E+04  0.30000000000E+03 0. -1.
        -52   -1    0    0    0    0 -0.00000000000E+00 -0.00000000000E+00 -0.64930732323E+04  0.65000000000E+04  0.30000000000E+03 0.  1.
     100001    1    1    2    0    0  0.16634620095E+04 -0.42344734652E+03  0.62674505373E+04  0.65000000000E+04  0.15050000000E+03 0. -1.
     100001    1    1    2    0    0 -0.16634620095E+04  0.42344734652E+03 -0.62674505373E+04  0.65000000000E+04  0.15050000000E+03 0.  1.
</event>
<event>
 4    1  0.5143956E-004  0.6500000E+04  0.7818608E-02  0.7223770E-01
         52   -1    0    0    0    0  0.00000000000E+00  0.00000000000E+00  0.64930732323E+04  0.65000000000E+04  0.30000000000E+03 0.  1.
        -52   -1    0    0    0    0 -0.00000000000E+00 -0.00000000000E+00 -0.64930732323E+04  0.65000000000E+04  0.30000000000E+03 0. -1.
     100001    1    1    2    0    0  0.23497313891E+03  0.38954695824E+03  0.64823136719E+04  0.65000000000E+04  0.15050000000E+03 0.  1.
     100001    1    1    2    0    0 -0.23497313891E+03 -0.38954695824E+03 -0.64823136719E+04  0.65000000000E+04  0.15050000000E+03 0. -1.
</event>
<event>
 4    1  0.5143956E-004  0.6500000E+04  0.7818608E-02  0.7223770E-01
         52   -1    0    0    0    0  0.00000000000E+00  0.00000000000E+00  0.64930732323E+04  0.65000000000E+04  0.30000000000E+03 0.  1.
        -52   -1    0    0    0    0 -0.00000000000E+00 -0.00000000000E+00 -0.64930732323E+04  0.65000000000E+04  0.30000000000E+03 0. -1.
     100001    1    1    2    0    0  0.26063326312E+04  0.46561866663E+04  0.37086797778E+04  0.65000000000E+04  0.15050000000E+03 0.  1.
     100001    1    1    2    0    0 -0.26063326312E+04 -0.46561866663E+04 -0.37086797778E+04  0.65000000000E+04  0.15050000000E+03 0. -1.
</event>
<event>
 4    1  0.5143956E-004  0.6500000E+04  0.7818608E-02  0.7223770E-01
         52   -1    0    0    0    0  0.00000000000E+00  0.00000000000E+00  0.64930732323E+04  0.65000000000E+04  0.30000000000E+03 0. -1.
        -52   -1    0    0    0    0 -0.00000000000E+00 -0.00000000000E+00 -0.64930732323E+04  0.65000000000E+04  0.30000000000E+03 0.  1.
     100001    1    1    2    0    0  0.52475918083E+03  0.61776728768E+03 -0.64475065824E+04  0.65000000000E+04  0.15050000000E+03 0.  1.
     100001    1    1    2    0    0 -0.52475918083E+03 -0.61776728768E+03  0.64475065824E+04  0.65000000000E+04  0.15050000000E+03 0. -1.
</event>
<event>
 4    1  0.5143956E-004  0.6500000E+04  0.7818608E-02  0.7223770E-01
         52   -1    0    0    0    0  0.00000000000E+00  0.00000000000E+00  0.64930732323E+04  0.65000000000E+04  0.30000000000E+03 0.  1.
        -52   -1    0    0    0    0 -0.00000000000E+00 -0.00000000000E+00 -0.64930732323E+04  0.65000000000E+04  0.30000000000E+03 0. -1.
     100001    1    1    2    0    0  0.11841577401E+03  0.73087755470E+03 -0.64559387741E+04  0.65000000000E+04  0.15050000000E+03 0. -1.
     100001    1    1    2    0    0 -0.11841577401E+03 -0.73087755470E+03  0.64559387741E+04  0.65000000000E+04  0.15050000000E+03 0.  1.
</event>
<event>
 4    1  0.5143956E-004  0.6500000E+04  0.7818608E-02  0.7223770E-01
         52   -1    0    0    0    0  0.00000000000E+00  0.00000000000E+00  0.64930732323E+04  0.65000000000E+04  0.30000000000E+03 0.  1.
        -52   -1    0    0    0    0 -0.00000000000E+00 -0.00000000000E+00 -0.64930732323E+04  0.65000000000E+04  0.30000000000E+03 0.  1.
     100001    1    1    2    0    0 -0.10178274616E+03 -0.52069746727E+02 -0.64972516316E+04  0.65000000000E+04  0.15050000000E+03 0.  1.
     100001    1    1    2    0    0  0.10178274616E+03  0.52069746727E+02  0.64972516316E+04  0.65000000000E+04  0.15050000000E+03 0.  1.
</event>
<event>
 4    1  0.5143956E-004  0.6500000E+04  0.7818608E-02  0.7223770E-01
         52   -1    0    0    0    0  0.00000000000E+00  0.00000000000E+00  0.64930732323E+04  0.65000000000E+04  0.30000000000E+03 0.  1.
        -52   -1    0    0    0    0 -0.00000000000E+00 -0.00000000000E+00 -0.64930732323E+04  0.65000000000E+04  0.30000000000E+03 0. -1.
     100001    1    1    2    0    0  0.17483108217E+03 -0.64224171547E+03  0.64640783892E+04  0.65000000000E+04  0.15050000000E+03 0.  1.
     100001    1    1    2    0    0 -0.17483108217E+03  0.64224171547E+03 -0.64640783892E+04  0.65000000000E+04  0.15050000000E+03 0. -1.
</event>
<event>
 4    1  0.5143956E-004  0.6500000E+04  0.7818608E-02  0.7223770E-01
         52   -1    0    0    0    0  0.00000000000E+00  0.00000000000E+00  0.64930732323E+04  0.65000000000E+04  0.30000000000E+03 0. -1.
        -52   -1    0    0    0    0 -0.00000000000E+00 -0.00000000000E+00 -0.64930732323E+04  0.65000000000E+04  0.30000000000E+03 0. -1.
     100001    1    1    2    0    0  0.55386502893E+03 -0.27124596498E+03  0.64689264106E+04  0.65000000000E+04  0.15050000000E+03 0. -1.
     100001    1    1    2    0    0 -0.55386502893E+03  0.27124596498E+03 -0.64689264106E+04  0.65000000000E+04  0.15050000000E+03 0. -1.
</event>
<event>
 4    1  0.5143956E-004  0.6500000E+04  0.7818608E-02  0.7223770E-01
         52   -1    0    0    0    0  0.00000000000E+00  0.00000000000E+00  0.64930732323E+04  0.65000000000E+04  0.30000000000E+03 0.  1.
        -52   -1    0    0    0    0 -0.00000000000E+00 -0.00000000000E+00 -0.64930732323E+04  0.65000000000E+04  0.30000000000E+03 0. -1.
     100001    1    1    2    0    0  0.73389510714E+03 -0.30315124147E+04 -0.57007613703E+04  0.65000000000E+04  0.15050000000E+03 0. -1.
     100001    1    1    2    0    0 -0.73389510714E+03  0.30315124147E+04  0.57007613703E+04  0.65000000000E+04  0.15050000000E+03 0.  1.
</event>
<event>
 4    1  0.5143956E-004  0.6500000E+04  0.7818608E-02  0.7223770E-01
         52   -1    0    0    0    0  0.00000000000E+00  0.00000000000E+00  0.64930732323E+04  0.65000000000E+04  0.30000000000E+03 0.  1.
        -52   -1    0    0    0    0 -0.00000000000E+00 -0.00000000000E+00 -0.64930732323E+04  0.65000000000E+04  0.30000000000E+03 0. -1.
     100001    1    1    2    0    0 -0.24423786979E+04 -0.69670947686E+03 -0.59813653918E+04  0.65000000000E+04  0.15050000000E+03 0. -1.
     100001    1    1    2    0    0  0.24423786979E+04  0.69670947686E+03  0.59813653918E+04  0.65000000000E+04  0.15050000000E+03 0.  1.
</event>
<event>
 4    1  0.5143956E-004  0.6500000E+04  0.7818608E-02  0.7223770E-01
         52   -1    0    0    0    0  0.00000000000E+00  0.00000000000E+00  0.64930732323E+04  0.65000000000E+04  0.30000000000E+03 0. -1.
        -52   -1    0    0    0    0 -0.00000000000E+00 -0.00000000000E+00 -0.64930732323E+04  0.65000000000E+04  0.30000000000E+03 0.  1.
     100001    1    1    2    0    0 -0.64278945257E+02  0.25273365603E+03 -0.64930226910E+04  0.65000000000E+04  0.15050000000E+03 0.  1.
     100001    1    1    2    0    0  0.64278945257E+02 -0.25273365603E+03  0.64930226910E+04  0.65000000000E+04  0.15050000000E+03 0. -1.
</event>
<event>
 4    1  0.5143956E-004  0.6500000E+04  0.7818608E-02  0.7223770E-01
         52   -1    0    0    0    0  0.00000000000E+00  0.00000000000E+00  0.64930732323E+04  0.65000000000E+04  0.30000000000E+03 0.  1.
        -52   -1    0    0    0    0 -0.00000000000E+00 -0.00000000000E+00 -0.64930732323E+04  0.65000000000E+04  0.30000000000E+03 0. -1.
     100001    1    1    2    0    0 -0.40674316022E+04 -0.94198149886E+03  0.49795602986E+04  0.65000000000E+04  0.15050000000E+03 0.  1.
     100001    1    1    2    0    0  0.40674316022E+04  0.94198149886E+03 -0.49795602986E+04  0.65000000000E+04  0.15050000000E+03 0. -1.
</event>
<event>
 4    1  0.5143956E-004  0.6500000E+04  0.7818608E-02  0.7223770E-01
         52   -1    0    0    0    0  0.00000000000E+00  0.00000000000E+00  0.64930732323E+04  0.65000000000E+04  0.30000000000E+03 0.  1.
        -52   -1    0    0    0    0 -0.00000000000E+00 -0.00000000000E+00 -0.64930732323E+04  0.65000000000E+04  0.30000000000E+03 0. -1.
     100001    1    1    2    0    0  0.43769159886E+04 -0.11653452705E+04 -0.46596058394E+04  0.65000000000E+04  0.15050000000E+03 0. -1.
     100001    1    1    2    0    0 -0.43769159886E+04  0.11653452705E+04  0.46596058394E+04  0.65000000000E+04  0.15050000000E+03 0.  1.
</event>
<event>
 4    1  0.5143956E-004  0.6500000E+04  0.7818608E-02  0.7223770E-01
         52   -1    0    0    0    0  0.00000000000E+00  0.00000000000E+00  0.64930732323E+04  0.65000000000E+04  0.30000000000E+03 0.  1.
        -52   -1    0    0    0    0 -0.00000000000E+00 -0.00000000000E+00 -0.64930732323E+04  0.65000000000E+04  0.30000000000E+03 0. -1.
     100001    1    1    2    0    0 -0.24936621093E+04 -0.32574900220E+04 -0.50396188141E+04  0.65000000000E+04  0.15050000000E+03 0.  1.
     100001    1    1    2    0    0  0.24936621093E+04  0.32574900220E+04  0.50396188141E+04  0.65000000000E+04  0.15050000000E+03 0. -1.
</event>
<event>
 4    1  0.5143956E-004  0.6500000E+04  0.7818608E-02  0.7223770E-01
         52   -1    0    0    0    0  0.00000000000E+00  0.00000000000E+00  0.64930732323E+04  0.65000000000E+04  0.30000000000E+03 0.  1.
        -52   -1    0    0    0    0 -0.00000000000E+00 -0.00000000000E+00 -0.64930732323E+04  0.65000000000E+04  0.30000000000E+03 0. -1.
     100001    1    1    2    0    0  0.38913546920E+04 -0.23327651706E+03  0.51990663083E+04  0.65000000000E+04  0.15050000000E+03 0.  1.
     100001    1    1    2    0    0 -0.38913546920E+04  0.23327651706E+03 -0.51990663083E+04  0.65000000000E+04  0.15050000000E+03 0. -1.
</event>
<event>
 4    1  0.5143956E-004  0.6500000E+04  0.7818608E-02  0.7223770E-01
         52   -1    0    0    0    0  0.00000000000E+00  0.00000000000E+00  0.64930732323E+04  0.65000000000E+04  0.30000000000E+03 0. -1.
        -52   -1    0    0    0    0 -0.00000000000E+00 -0.00000000000E+00 -0.64930732323E+04  0.65000000000E+04  0.30000000000E+03 0.  1.
     100001    1    1    2    0    0  0.18467692160E+04  0.16040531794E+04 -0.60202829344E+04  0.65000000000E+04  0.15050000000E+03 0.  1.
     100001    1    1    2    0    0 -0.18467692160E+04 -0.16040531794E+04  0.60202829344E+04  0.65000000000E+04  0.15050000000E+03 0. -1.
</event>
<event>
 4    1  0.5143956E-004  0.6500000E+04  0.7818608E-02  0.7223770E-01
         52   -1    0    0    0    0  0.00000000000E+00  0.00000000000E+00  0.64930732323E+04  0.65000000000E+04  0.30000000000E+03 0. -1.
        -52   -1    0    0    0    0 -0.00000000000E+00 -0.00000000000E+00 -0.64930732323E+04  0.65000000000E+04  0.30000000000E+03 0.  1.
     100001    1    1    2    0    0  0.71135338038E+03 -0.30809323244E+04  0.56770751387E+04  0.65000000000E+04  0.15050000000E+03 0. -1.
     100001    1    1    2    0    0 -0.71135338038E+03  0.30809323244E+04 -0.56770751387E+04  0.65000000000E+04  0.15050000000E+03 0.  1.
</event>
<event>
 4    1  0.5143956E-004  0.6500000E+04  0.7818608E-02  0.7223770E-01
         52   -1    0    0    0    0  0.00000000000E+00  0.00000000000E+00  0.64930732323E+04  0.65000000000E+04  0.30000000000E+03 0.  1.
        -52   -1    0    0    0    0 -0.00000000000E+00 -0.00000000000E+00 -0.64930732323E+04  0.65000000000E+04  0.30000000000E+03 0.  1.
     100001    1    1    2    0    0  0.80816718899E+03  0.10767477893E+04 -0.63572659015E+04  0.65000000000E+04  0.15050000000E+03 0.  1.
     100001    1    1    2    0    0 -0.80816718899E+03 -0.10767477893E+04  0.63572659015E+04  0.65000000000E+04  0.15050000000E+03 0.  1.
</event>
<event>
 4    1  0.5143956E-004  0.6500000E+04  0.7818608E-02  0.7223770E-01
         52   -1    0    0    0    0  0.00000000000E+00  0.00000000000E+00  0.64930732323E+04  0.65000000000E+04  0.30000000000E+03 0.  1.
        -52   -1    0    0    0    0 -0.00000000000E+00 -0.00000000000E+00 -0.64930732323E+04  0.65000000000E+04  0.30000000000E+03 0. -1.
     100001    1    1    2    0    0 -0.39076352776E+03 -0.23180189199E+03 -0.64823546261E+04  0.65000000000E+04  0.15050000000E+03 0. -1.
     100001    1    1    2    0    0  0.39076352776E+03  0.23180189199E+03  0.64823546261E+04  0.65000000000E+04  0.15050000000E+03 0.  1.
</event>
<event>
 4    1  0.5143956E-004  0.6500000E+04  0.7818608E-02  0.7223770E-01
         52   -1    0    0    0    0  0.00000000000E+00  0.00000000000E+00  0.64930732323E+04  0.65000000000E+04  0.30000000000E+03 0.  1.
        -52   -1    0    0    0    0 -0.00000000000E+00 -0.00000000000E+00 -0.64930732323E+04  0.65000000000E+04  0.30000000000E+03 0. -1.
     100001    1    1    2    0    0  0.55425120254E+04  0.21933184105E+04  0.25879073686E+04  0.65000000000E+04  0.15050000000E+03 0.  1.
     100001    1    1    2    0    0 -0.55425120254E+04 -0.21933184105E+04 -0.25879073686E+04  0.65000000000E+04  0.15050000000E+03 0. -1.
</event>
<event>
 4    1  0.7117161E-004  0.6500000E+04  0.7818608E-02  0.7223770E-01
         52   -1    0    0    0    0  0.00000000000E+00  0.00000000000E+00  0.64930732323E+04  0.65000000000E+04  0.30000000000E+03 0.  1.
        -52   -1    0    0    0    0 -0.00000000000E+00 -0.00000000000E+00 -0.64930732323E+04  0.65000000000E+04  0.30000000000E+03 0.  1.
     100001    1    1    2    0    0  0.14717065051E+03  0.84039719313E+02 -0.64960470961E+04  0.65000000000E+04  0.15050000000E+03 0.  1.
     100001    1    1    2    0    0 -0.14717065051E+03 -0.84039719313E+02  0.64960470961E+04  0.65000000000E+04  0.15050000000E+03 0.  1.
</event>
<event>
 4    1  0.5143956E-004  0.6500000E+04  0.7818608E-02  0.7223770E-01
         52   -1    0    0    0    0  0.00000000000E+00  0.00000000000E+00  0.64930732323E+04  0.65000000000E+04  0.30000000000E+03 0.  1.
        -52   -1    0    0    0    0 -0.00000000000E+00 -0.00000000000E+00 -0.64930732323E+04  0.65000000000E+04  0.30000000000E+03 0. -1.
     100001    1    1    2    0    0 -0.60647560773E+04 -0.22446033625E+04 -0.63862290713E+03  0.65000000000E+04  0.15050000000E+03 0. -1.
     100001    1    1    2    0    0  0.60647560773E+04  0.22446033625E+04  0.63862290713E+03  0.65000000000E+04  0.15050000000E+03 0.  1.
</event>
<event>
 4    1  0.5143956E-004  0.6500000E+04  0.7818608E-02  0.7223770E-01
         52   -1    0    0    0    0  0.00000000000E+00  0.00000000000E+00  0.64930732323E+04  0.65000000000E+04  0.30000000000E+03 0. -1.
        -52   -1    0    0    0    0 -0.00000000000E+00 -0.00000000000E+00 -0.64930732323E+04  0.65000000000E+04  0.30000000000E+03 0.  1.
     100001    1    1    2    0    0 -0.43456887352E+04  0.90446882671E+03 -0.47459746426E+04  0.65000000000E+04  0.15050000000E+03 0.  1.
     100001    1    1    2    0    0  0.43456887352E+04 -0.90446882671E+03  0.47459746426E+04  0.65000000000E+04  0.15050000000E+03 0. -1.
</event>
<event>
 4    1  0.5143956E-004  0.6500000E+04  0.7818608E-02  0.7223770E-01
         52   -1    0    0    0    0  0.00000000000E+00  0.00000000000E+00  0.64930732323E+04  0.65000000000E+04  0.30000000000E+03 0. -1.
        -52   -1    0    0    0    0 -0.00000000000E+00 -0.00000000000E+00 -0.64930732323E+04  0.65000000000E+04  0.30000000000E+03 0.  1.
     100001    1    1    2    0    0 -0.36745548461E+04  0.11414769663E+03  0.53583548535E+04  0.65000000000E+04  0.15050000000E+03 0. -1.
     100001    1    1    2    0    0  0.36745548461E+04 -0.11414769663E+03 -0.53583548535E+04  0.65000000000E+04  0.15050000000E+03 0.  1.
</event>
<event>
 4    1  0.5143956E-004  0.6500000E+04  0.7818608E-02  0.7223770E-01
         52   -1    0    0    0    0  0.00000000000E+00  0.00000000000E+00  0.64930732323E+04  0.65000000000E+04  0.30000000000E+03 0. -1.
        -52   -1    0    0    0    0 -0.00000000000E+00 -0.00000000000E+00 -0.64930732323E+04  0.65000000000E+04  0.30000000000E+03 0.  1.
     100001    1    1    2    0    0  0.29761890818E+04 -0.56058262716E+04 -0.13944031384E+04  0.65000000000E+04  0.15050000000E+03 0.  1.
     100001    1    1    2    0    0 -0.29761890818E+04  0.56058262716E+04  0.13944031384E+04  0.65000000000E+04  0.15050000000E+03 0. -1.
</event>
<event>
 4    1  0.5143956E-004  0.6500000E+04  0.7818608E-02  0.7223770E-01
         52   -1    0    0    0    0  0.00000000000E+00  0.00000000000E+00  0.64930732323E+04  0.65000000000E+04  0.30000000000E+03 0.  1.
        -52   -1    0    0    0    0 -0.00000000000E+00 -0.00000000000E+00 -0.64930732323E+04  0.65000000000E+04  0.30000000000E+03 0. -1.
     100001    1    1    2    0    0 -0.47142031597E+04 -0.13681620342E+04 -0.42581417270E+04  0.65000000000E+04  0.15050000000E+03 0. -1.
     100001    1    1    2    0    0  0.47142031597E+04  0.13681620342E+04  0.42581417270E+04  0.65000000000E+04  0.15050000000E+03 0.  1.
</event>
<event>
 4    1  0.5143956E-004  0.6500000E+04  0.7818608E-02  0.7223770E-01
         52   -1    0    0    0    0  0.00000000000E+00  0.00000000000E+00  0.64930732323E+04  0.65000000000E+04  0.30000000000E+03 0.  1.
        -52   -1    0    0    0    0 -0.00000000000E+00 -0.00000000000E+00 -0.64930732323E+04  0.65000000000E+04  0.30000000000E+03 0. -1.
     100001    1    1    2    0    0 -0.14298062720E+04  0.39977221962E+04  0.49194736524E+04  0.65000000000E+04  0.15050000000E+03 0.  1.
     100001    1    1    2    0    0  0.14298062720E+04 -0.39977221962E+04 -0.49194736524E+04  0.65000000000E+04  0.15050000000E+03 0. -1.
</event>
<event>
 4    1  0.5143956E-004  0.6500000E+04  0.7818608E-02  0.7223770E-01
         52   -1    0    0    0    0  0.00000000000E+00  0.00000000000E+00  0.64930732323E+04  0.65000000000E+04  0.30000000000E+03 0.  1.
        -52   -1    0    0    0    0 -0.00000000000E+00 -0.00000000000E+00 -0.64930732323E+04  0.65000000000E+04  0.30000000000E+03 0. -1.
     100001    1    1    2    0    0 -0.11964568165E+04  0.75283031326E+03  0.63426404088E+04  0.65000000000E+04  0.15050000000E+03 0.  1.
     100001    1    1    2    0    0  0.11964568165E+04 -0.75283031326E+03 -0.63426404088E+04  0.65000000000E+04  0.15050000000E+03 0. -1.
</event>
<event>
 4    1  0.5143956E-004  0.6500000E+04  0.7818608E-02  0.7223770E-01
         52   -1    0    0    0    0  0.00000000000E+00  0.00000000000E+00  0.64930732323E+04  0.65000000000E+04  0.30000000000E+03 0. -1.
        -52   -1    0    0    0    0 -0.00000000000E+00 -0.00000000000E+00 -0.64930732323E+04  0.65000000000E+04  0.30000000000E+03 0. -1.
     100001    1    1    2    0    0 -0.18269136225E+03 -0.14844538005E+03  0.64939924226E+04  0.65000000000E+04  0.15050000000E+03 0. -1.
     100001    1    1    2    0    0  0.18269136225E+03  0.14844538005E+03 -0.64939924226E+04  0.65000000000E+04  0.15050000000E+03 0. -1.
</event>
<event>
 4    1  0.5143956E-004  0.6500000E+04  0.7818608E-02  0.7223770E-01
         52   -1    0    0    0    0  0.00000000000E+00  0.00000000000E+00  0.64930732323E+04  0.65000000000E+04  0.30000000000E+03 0. -1.
        -52   -1    0    0    0    0 -0.00000000000E+00 -0.00000000000E+00 -0.64930732323E+04  0.65000000000E+04  0.30000000000E+03 0. -1.
     100001    1    1    2    0    0  0.43422434373E+03 -0.13196139798E+03  0.64823903893E+04  0.65000000000E+04  0.15050000000E+03 0. -1.
     100001    1    1    2    0    0 -0.43422434373E+03  0.13196139798E+03 -0.64823903893E+04  0.65000000000E+04  0.15050000000E+03 0. -1.
</event>
<event>
 4    1  0.6633177E-004  0.6500000E+04  0.7818608E-02  0.7223770E-01
         52   -1    0    0    0    0  0.00000000000E+00  0.00000000000E+00  0.64930732323E+04  0.65000000000E+04  0.30000000000E+03 0. -1.
        -52   -1    0    0    0    0 -0.00000000000E+00 -0.00000000000E+00 -0.64930732323E+04  0.65000000000E+04  0.30000000000E+03 0. -1.
     100001    1    1    2    0    0  0.75971141862E+02 -0.17536677293E+03 -0.64954464535E+04  0.65000000000E+04  0.15050000000E+03 0. -1.
     100001    1    1    2    0    0 -0.75971141862E+02  0.17536677293E+03  0.64954464535E+04  0.65000000000E+04  0.15050000000E+03 0. -1.
</event>
<event>
 4    1  0.5143956E-004  0.6500000E+04  0.7818608E-02  0.7223770E-01
         52   -1    0    0    0    0  0.00000000000E+00  0.00000000000E+00  0.64930732323E+04  0.65000000000E+04  0.30000000000E+03 0.  1.
        -52   -1    0    0    0    0 -0.00000000000E+00 -0.00000000000E+00 -0.64930732323E+04  0.65000000000E+04  0.30000000000E+03 0. -1.
     100001    1    1    2    0    0  0.14615500805E+04  0.14476547180E+04  0.61640503672E+04  0.65000000000E+04  0.15050000000E+03 0.  1.
     100001    1    1    2    0    0 -0.14615500805E+04 -0.14476547180E+04 -0.61640503672E+04  0.65000000000E+04  0.15050000000E+03 0. -1.
</event>
<event>
 4    1  0.5143956E-004  0.6500000E+04  0.7818608E-02  0.7223770E-01
         52   -1    0    0    0    0  0.00000000000E+00  0.00000000000E+00  0.64930732323E+04  0.65000000000E+04  0.30000000000E+03 0.  1.
        -52   -1    0    0    0    0 -0.00000000000E+00 -0.00000000000E+00 -0.64930732323E+04  0.65000000000E+04  0.30000000000E+03 0. -1.
     100001    1    1    2    0    0  0.21797490044E+03  0.27524238726E+02 -0.64945422555E+04  0.65000000000E+04  0.15050000000E+03 0. -1.
     100001    1    1    2    0    0 -0.21797490044E+03 -0.27524238726E+02  0.64945422555E+04  0.65000000000E+04  0.15050000000E+03 0.  1.
</event>
<event>
 4    1  0.5143956E-004  0.6500000E+04  0.7818608E-02  0.7223770E-01
         52   -1    0    0    0    0  0.00000000000E+00  0.00000000000E+00  0.64930732323E+04  0.65000000000E+04  0.30000000000E+03 0.  1.
        -52   -1    0    0    0    0 -0.00000000000E+00 -0.00000000000E+00 -0.64930732323E+04  0.65000000000E+04  0.30000000000E+03 0. -1.
     100001    1    1    2    0    0  0.25232981418E+04 -0.57410207775E+03 -0.59607653067E+04  0.65000000000E+04  0.15050000000E+03 0. -1.
     100001    1    1    2    0    0 -0.25232981418E+04  0.57410207775E+03  0.59607653067E+04  0.65000000000E+04  0.15050000000E+03 0.  1.
</event>
<event>
 4    1  0.6261823E-004  0.6500000E+04  0.7818608E-02  0.7223770E-01
         52   -1    0    0    0    0  0.00000000000E+00  0.00000000000E+00  0.64930732323E+04  0.65000000000E+04  0.30000000000E+03 0.  1.
        -52   -1    0    0    0    0 -0.00000000000E+00 -0.00000000000E+00 -0.64930732323E+04  0.65000000000E+04  0.30000000000E+03 0.  1.
     100001    1    1    2    0    0 -0.14896615357E+03  0.12926041502E+03  0.64952637037E+04  0.65000000000E+04  0.15050000000E+03 0.  1.
     100001    1    1    2    0    0  0.14896615357E+03 -0.12926041502E+03 -0.64952637037E+04  0.65000000000E+04  0.15050000000E+03 0.  1.
</event>
<event>
 4    1  0.5143956E-004  0.6500000E+04  0.7818608E-02  0.7223770E-01
         52   -1    0    0    0    0  0.00000000000E+00  0.00000000000E+00  0.64930732323E+04  0.65000000000E+04  0.30000000000E+03 0.  1.
        -52   -1    0    0    0    0 -0.00000000000E+00 -0.00000000000E+00 -0.64930732323E+04  0.65000000000E+04  0.30000000000E+03 0. -1.
     100001    1    1    2    0    0  0.86288301499E+03 -0.20774098569E+03 -0.64373617527E+04  0.65000000000E+04  0.15050000000E+03 0. -1.
     100001    1    1    2    0    0 -0.86288301499E+03  0.20774098569E+03  0.64373617527E+04  0.65000000000E+04  0.15050000000E+03 0.  1.
</event>
<event>
 4    1  0.5143956E-004  0.6500000E+04  0.7818608E-02  0.7223770E-01
         52   -1    0    0    0    0  0.00000000000E+00  0.00000000000E+00  0.64930732323E+04  0.65000000000E+04  0.30000000000E+03 0.  1.
        -52   -1    0    0    0    0 -0.00000000000E+00 -0.00000000000E+00 -0.64930732323E+04  0.65000000000E+04  0.30000000000E+03 0. -1.
     100001    1    1    2    0    0 -0.37557507934E+04  0.51659652109E+04 -0.11977016186E+04  0.65000000000E+04  0.15050000000E+03 0. -1.
     100001    1    1    2    0    0  0.37557507934E+04 -0.51659652109E+04  0.11977016186E+04  0.65000000000E+04  0.15050000000E+03 0.  1.
</event>
<event>
 4    1  0.5143956E-004  0.6500000E+04  0.7818608E-02  0.7223770E-01
         52   -1    0    0    0    0  0.00000000000E+00  0.00000000000E+00  0.64930732323E+04  0.65000000000E+04  0.30000000000E+03 0.  1.
        -52   -1    0    0    0    0 -0.00000000000E+00 -0.00000000000E+00 -0.64930732323E+04  0.65000000000E+04  0.30000000000E+03 0. -1.
     100001    1    1    2    0    0 -0.57382135455E+03 -0.79610883633E+03 -0.64237286309E+04  0.65000000000E+04  0.15050000000E+03 0. -1.
     100001    1    1    2    0    0  0.57382135455E+03  0.79610883633E+03  0.64237286309E+04  0.65000000000E+04  0.15050000000E+03 0.  1.
</event>
<event>
 4    1  0.5143956E-004  0.6500000E+04  0.7818608E-02  0.7223770E-01
         52   -1    0    0    0    0  0.00000000000E+00  0.00000000000E+00  0.64930732323E+04  0.65000000000E+04  0.30000000000E+03 0. -1.
        -52   -1    0    0    0    0 -0.00000000000E+00 -0.00000000000E+00 -0.64930732323E+04  0.65000000000E+04  0.30000000000E+03 0.  1.
     100001    1    1    2    0    0 -0.21677137496E+04 -0.12402868803E+04  0.59991712181E+04  0.65000000000E+04  0.15050000000E+03 0. -1.
     100001    1    1    2    0    0  0.21677137496E+04  0.12402868803E+04 -0.59991712181E+04  0.65000000000E+04  0.15050000000E+03 0.  1.
</event>
<event>
 4    1  0.5143956E-004  0.6500000E+04  0.7818608E-02  0.7223770E-01
         52   -1    0    0    0    0  0.00000000000E+00  0.00000000000E+00  0.64930732323E+04  0.65000000000E+04  0.30000000000E+03 0. -1.
        -52   -1    0    0    0    0 -0.00000000000E+00 -0.00000000000E+00 -0.64930732323E+04  0.65000000000E+04  0.30000000000E+03 0.  1.
     100001    1    1    2    0    0 -0.17215470405E+04  0.45539754766E+04  0.43040600479E+04  0.65000000000E+04  0.15050000000E+03 0. -1.
     100001    1    1    2    0    0  0.17215470405E+04 -0.45539754766E+04 -0.43040600479E+04  0.65000000000E+04  0.15050000000E+03 0.  1.
</event>
<event>
 4    1  0.5143956E-004  0.6500000E+04  0.7818608E-02  0.7223770E-01
         52   -1    0    0    0    0  0.00000000000E+00  0.00000000000E+00  0.64930732323E+04  0.65000000000E+04  0.30000000000E+03 0. -1.
        -52   -1    0    0    0    0 -0.00000000000E+00 -0.00000000000E+00 -0.64930732323E+04  0.65000000000E+04  0.30000000000E+03 0.  1.
     100001    1    1    2    0    0 -0.18331599616E+04  0.14278915141E+04  0.60686077587E+04  0.65000000000E+04  0.15050000000E+03 0. -1.
     100001    1    1    2    0    0  0.18331599616E+04 -0.14278915141E+04 -0.60686077587E+04  0.65000000000E+04  0.15050000000E+03 0.  1.
</event>
<event>
 4    1  0.5143956E-004  0.6500000E+04  0.7818608E-02  0.7223770E-01
         52   -1    0    0    0    0  0.00000000000E+00  0.00000000000E+00  0.64930732323E+04  0.65000000000E+04  0.30000000000E+03 0. -1.
        -52   -1    0    0    0    0 -0.00000000000E+00 -0.00000000000E+00 -0.64930732323E+04  0.65000000000E+04  0.30000000000E+03 0.  1.
     100001    1    1    2    0    0 -0.22035822379E+02  0.10553620229E+04 -0.64119478455E+04  0.65000000000E+04  0.15050000000E+03 0.  1.
     100001    1    1    2    0    0  0.22035822379E+02 -0.10553620229E+04  0.64119478455E+04  0.65000000000E+04  0.15050000000E+03 0. -1.
</event>
<event>
 4    1  0.5143956E-004  0.6500000E+04  0.7818608E-02  0.7223770E-01
         52   -1    0    0    0    0  0.00000000000E+00  0.00000000000E+00  0.64930732323E+04  0.65000000000E+04  0.30000000000E+03 0. -1.
        -52   -1    0    0    0    0 -0.00000000000E+00 -0.00000000000E+00 -0.64930732323E+04  0.65000000000E+04  0.30000000000E+03 0.  1.
     100001    1    1    2    0    0 -0.36891555573E+04  0.76652011164E+03 -0.52943297916E+04  0.65000000000E+04  0.15050000000E+03 0.  1.
     100001    1    1    2    0    0  0.36891555573E+04 -0.76652011164E+03  0.52943297916E+04  0.65000000000E+04  0.15050000000E+03 0. -1.
</event>
<event>
 4    1  0.5143956E-004  0.6500000E+04  0.7818608E-02  0.7223770E-01
         52   -1    0    0    0    0  0.00000000000E+00  0.00000000000E+00  0.64930732323E+04  0.65000000000E+04  0.30000000000E+03 0.  1.
        -52   -1    0    0    0    0 -0.00000000000E+00 -0.00000000000E+00 -0.64930732323E+04  0.65000000000E+04  0.30000000000E+03 0. -1.
     100001    1    1    2    0    0  0.17472523166E+04 -0.22806183784E+04  0.58286566981E+04  0.65000000000E+04  0.15050000000E+03 0.  1.
     100001    1    1    2    0    0 -0.17472523166E+04  0.22806183784E+04 -0.58286566981E+04  0.65000000000E+04  0.15050000000E+03 0. -1.
</event>
<event>
 4    1  0.5143956E-004  0.6500000E+04  0.7818608E-02  0.7223770E-01
         52   -1    0    0    0    0  0.00000000000E+00  0.00000000000E+00  0.64930732323E+04  0.65000000000E+04  0.30000000000E+03 0. -1.
        -52   -1    0    0    0    0 -0.00000000000E+00 -0.00000000000E+00 -0.64930732323E+04  0.65000000000E+04  0.30000000000E+03 0.  1.
     100001    1    1    2    0    0 -0.20259280323E+03 -0.31567033290E+03  0.64874230745E+04  0.65000000000E+04  0.15050000000E+03 0. -1.
     100001    1    1    2    0    0  0.20259280323E+03  0.31567033290E+03 -0.64874230745E+04  0.65000000000E+04  0.15050000000E+03 0.  1.
</event>
<event>
 4    1  0.5143956E-004  0.6500000E+04  0.7818608E-02  0.7223770E-01
         52   -1    0    0    0    0  0.00000000000E+00  0.00000000000E+00  0.64930732323E+04  0.65000000000E+04  0.30000000000E+03 0. -1.
        -52   -1    0    0    0    0 -0.00000000000E+00 -0.00000000000E+00 -0.64930732323E+04  0.65000000000E+04  0.30000000000E+03 0.  1.
     100001    1    1    2    0    0  0.10800008319E+04 -0.10886627844E+04 -0.63147257498E+04  0.65000000000E+04  0.15050000000E+03 0.  1.
     100001    1    1    2    0    0 -0.10800008319E+04  0.10886627844E+04  0.63147257498E+04  0.65000000000E+04  0.15050000000E+03 0. -1.
</event>
<event>
 4    1  0.5143956E-004  0.6500000E+04  0.7818608E-02  0.7223770E-01
         52   -1    0    0    0    0  0.00000000000E+00  0.00000000000E+00  0.64930732323E+04  0.65000000000E+04  0.30000000000E+03 0.  1.
        -52   -1    0    0    0    0 -0.00000000000E+00 -0.00000000000E+00 -0.64930732323E+04  0.65000000000E+04  0.30000000000E+03 0. -1.
     100001    1    1    2    0    0  0.19352297016E+03 -0.67965498014E+03 -0.64597188575E+04  0.65000000000E+04  0.15050000000E+03 0. -1.
     100001    1    1    2    0    0 -0.19352297016E+03  0.67965498014E+03  0.64597188575E+04  0.65000000000E+04  0.15050000000E+03 0.  1.
</event>
<event>
 4    1  0.5143956E-004  0.6500000E+04  0.7818608E-02  0.7223770E-01
         52   -1    0    0    0    0  0.00000000000E+00  0.00000000000E+00  0.64930732323E+04  0.65000000000E+04  0.30000000000E+03 0.  1.
        -52   -1    0    0    0    0 -0.00000000000E+00 -0.00000000000E+00 -0.64930732323E+04  0.65000000000E+04  0.30000000000E+03 0. -1.
     100001    1    1    2    0    0  0.58080208541E+04  0.23495294759E+04 -0.17245158016E+04  0.65000000000E+04  0.15050000000E+03 0. -1.
     100001    1    1    2    0    0 -0.58080208541E+04 -0.23495294759E+04  0.17245158016E+04  0.65000000000E+04  0.15050000000E+03 0.  1.
</event>
<event>
 4    1  0.5143956E-004  0.6500000E+04  0.7818608E-02  0.7223770E-01
         52   -1    0    0    0    0  0.00000000000E+00  0.00000000000E+00  0.64930732323E+04  0.65000000000E+04  0.30000000000E+03 0.  1.
        -52   -1    0    0    0    0 -0.00000000000E+00 -0.00000000000E+00 -0.64930732323E+04  0.65000000000E+04  0.30000000000E+03 0. -1.
     100001    1    1    2    0    0  0.43392385001E+04 -0.34044962038E+04  0.34362428011E+04  0.65000000000E+04  0.15050000000E+03 0.  1.
     100001    1    1    2    0    0 -0.43392385001E+04  0.34044962038E+04 -0.34362428011E+04  0.65000000000E+04  0.15050000000E+03 0. -1.
</event>
<event>
 4    1  0.5143956E-004  0.6500000E+04  0.7818608E-02  0.7223770E-01
         52   -1    0    0    0    0  0.00000000000E+00  0.00000000000E+00  0.64930732323E+04  0.65000000000E+04  0.30000000000E+03 0.  1.
        -52   -1    0    0    0    0 -0.00000000000E+00 -0.00000000000E+00 -0.64930732323E+04  0.65000000000E+04  0.30000000000E+03 0. -1.
     100001    1    1    2    0    0  0.30627834488E+04 -0.22874357841E+04 -0.52549352831E+04  0.65000000000E+04  0.15050000000E+03 0. -1.
     100001    1    1    2    0    0 -0.30627834488E+04  0.22874357841E+04  0.52549352831E+04  0.65000000000E+04  0.15050000000E+03 0.  1.
</event>
<event>
 4    1  0.5143956E-004  0.6500000E+04  0.7818608E-02  0.7223770E-01
         52   -1    0    0    0    0  0.00000000000E+00  0.00000000000E+00  0.64930732323E+04  0.65000000000E+04  0.30000000000E+03 0. -1.
        -52   -1    0    0    0    0 -0.00000000000E+00 -0.00000000000E+00 -0.64930732323E+04  0.65000000000E+04  0.30000000000E+03 0.  1.
     100001    1    1    2    0    0 -0.16608981055E+04 -0.62326728076E+04  0.78902275420E+03  0.65000000000E+04  0.15050000000E+03 0.  1.
     100001    1    1    2    0    0  0.16608981055E+04  0.62326728076E+04 -0.78902275420E+03  0.65000000000E+04  0.15050000000E+03 0. -1.
</event>
<event>
 4    1  0.5143956E-004  0.6500000E+04  0.7818608E-02  0.7223770E-01
         52   -1    0    0    0    0  0.00000000000E+00  0.00000000000E+00  0.64930732323E+04  0.65000000000E+04  0.30000000000E+03 0. -1.
        -52   -1    0    0    0    0 -0.00000000000E+00 -0.00000000000E+00 -0.64930732323E+04  0.65000000000E+04  0.30000000000E+03 0.  1.
     100001    1    1    2    0    0 -0.52222500277E+04 -0.37153665161E+04 -0.10730824988E+04  0.65000000000E+04  0.15050000000E+03 0.  1.
     100001    1    1    2    0    0  0.52222500277E+04  0.37153665161E+04  0.10730824988E+04  0.65000000000E+04  0.15050000000E+03 0. -1.
</event>
<event>
 4    1  0.5143956E-004  0.6500000E+04  0.7818608E-02  0.7223770E-01
         52   -1    0    0    0    0  0.00000000000E+00  0.00000000000E+00  0.64930732323E+04  0.65000000000E+04  0.30000000000E+03 0.  1.
        -52   -1    0    0    0    0 -0.00000000000E+00 -0.00000000000E+00 -0.64930732323E+04  0.65000000000E+04  0.30000000000E+03 0. -1.
     100001    1    1    2    0    0 -0.81656174429E+02  0.23286559228E+03  0.64935703303E+04  0.65000000000E+04  0.15050000000E+03 0.  1.
     100001    1    1    2    0    0  0.81656174429E+02 -0.23286559228E+03 -0.64935703303E+04  0.65000000000E+04  0.15050000000E+03 0. -1.
</event>
<event>
 4    1  0.5143956E-004  0.6500000E+04  0.7818608E-02  0.7223770E-01
         52   -1    0    0    0    0  0.00000000000E+00  0.00000000000E+00  0.64930732323E+04  0.65000000000E+04  0.30000000000E+03 0.  1.
        -52   -1    0    0    0    0 -0.00000000000E+00 -0.00000000000E+00 -0.64930732323E+04  0.65000000000E+04  0.30000000000E+03 0. -1.
     100001    1    1    2    0    0 -0.13648803859E+04 -0.25546421892E+04 -0.58170658039E+04  0.65000000000E+04  0.15050000000E+03 0. -1.
     100001    1    1    2    0    0  0.13648803859E+04  0.25546421892E+04  0.58170658039E+04  0.65000000000E+04  0.15050000000E+03 0.  1.
</event>
<event>
 4    1  0.5143956E-004  0.6500000E+04  0.7818608E-02  0.7223770E-01
         52   -1    0    0    0    0  0.00000000000E+00  0.00000000000E+00  0.64930732323E+04  0.65000000000E+04  0.30000000000E+03 0.  1.
        -52   -1    0    0    0    0 -0.00000000000E+00 -0.00000000000E+00 -0.64930732323E+04  0.65000000000E+04  0.30000000000E+03 0. -1.
     100001    1    1    2    0    0  0.20079984236E+03  0.57898757939E+03  0.64692969136E+04  0.65000000000E+04  0.15050000000E+03 0.  1.
     100001    1    1    2    0    0 -0.20079984236E+03 -0.57898757939E+03 -0.64692969136E+04  0.65000000000E+04  0.15050000000E+03 0. -1.
</event>
<event>
 4    1  0.5143956E-004  0.6500000E+04  0.7818608E-02  0.7223770E-01
         52   -1    0    0    0    0  0.00000000000E+00  0.00000000000E+00  0.64930732323E+04  0.65000000000E+04  0.30000000000E+03 0. -1.
        -52   -1    0    0    0    0 -0.00000000000E+00 -0.00000000000E+00 -0.64930732323E+04  0.65000000000E+04  0.30000000000E+03 0.  1.
     100001    1    1    2    0    0  0.20967633817E+03  0.19946650408E+04  0.61809948195E+04  0.65000000000E+04  0.15050000000E+03 0. -1.
     100001    1    1    2    0    0 -0.20967633817E+03 -0.19946650408E+04 -0.61809948195E+04  0.65000000000E+04  0.15050000000E+03 0.  1.
</event>
<event>
 4    1  0.5143956E-004  0.6500000E+04  0.7818608E-02  0.7223770E-01
         52   -1    0    0    0    0  0.00000000000E+00  0.00000000000E+00  0.64930732323E+04  0.65000000000E+04  0.30000000000E+03 0. -1.
        -52   -1    0    0    0    0 -0.00000000000E+00 -0.00000000000E+00 -0.64930732323E+04  0.65000000000E+04  0.30000000000E+03 0.  1.
     100001    1    1    2    0    0  0.38609705007E+03  0.99474058144E+03 -0.64100522614E+04  0.65000000000E+04  0.15050000000E+03 0.  1.
     100001    1    1    2    0    0 -0.38609705007E+03 -0.99474058144E+03  0.64100522614E+04  0.65000000000E+04  0.15050000000E+03 0. -1.
</event>
<event>
 4    1  0.5143956E-004  0.6500000E+04  0.7818608E-02  0.7223770E-01
         52   -1    0    0    0    0  0.00000000000E+00  0.00000000000E+00  0.64930732323E+04  0.65000000000E+04  0.30000000000E+03 0.  1.
        -52   -1    0    0    0    0 -0.00000000000E+00 -0.00000000000E+00 -0.64930732323E+04  0.65000000000E+04  0.30000000000E+03 0. -1.
     100001    1    1    2    0    0 -0.16263617692E+04 -0.27969632727E+04  0.56355384478E+04  0.65000000000E+04  0.15050000000E+03 0.  1.
     100001    1    1    2    0    0  0.16263617692E+04  0.27969632727E+04 -0.56355384478E+04  0.65000000000E+04  0.15050000000E+03 0. -1.
</event>
<event>
 4    1  0.5143956E-004  0.6500000E+04  0.7818608E-02  0.7223770E-01
         52   -1    0    0    0    0  0.00000000000E+00  0.00000000000E+00  0.64930732323E+04  0.65000000000E+04  0.30000000000E+03 0. -1.
        -52   -1    0    0    0    0 -0.00000000000E+00 -0.00000000000E+00 -0.64930732323E+04  0.65000000000E+04  0.30000000000E+03 0.  1.
     100001    1    1    2    0    0  0.17349780441E+03 -0.54201941823E+03 -0.64732884388E+04  0.65000000000E+04  0.15050000000E+03 0.  1.
     100001    1    1    2    0    0 -0.17349780441E+03  0.54201941823E+03  0.64732884388E+04  0.65000000000E+04  0.15050000000E+03 0. -1.
</event>
<event>
 4    1  0.5143956E-004  0.6500000E+04  0.7818608E-02  0.7223770E-01
         52   -1    0    0    0    0  0.00000000000E+00  0.00000000000E+00  0.64930732323E+04  0.65000000000E+04  0.30000000000E+03 0. -1.
        -52   -1    0    0    0    0 -0.00000000000E+00 -0.00000000000E+00 -0.64930732323E+04  0.65000000000E+04  0.30000000000E+03 0. -1.
     100001    1    1    2    0    0  0.13965136479E+02 -0.27879861629E+03 -0.64922589333E+04  0.65000000000E+04  0.15050000000E+03 0. -1.
     100001    1    1    2    0    0 -0.13965136479E+02  0.27879861629E+03  0.64922589333E+04  0.65000000000E+04  0.15050000000E+03 0. -1.
</event>
<event>
 4    1  0.5143956E-004  0.6500000E+04  0.7818608E-02  0.7223770E-01
         52   -1    0    0    0    0  0.00000000000E+00  0.00000000000E+00  0.64930732323E+04  0.65000000000E+04  0.30000000000E+03 0. -1.
        -52   -1    0    0    0    0 -0.00000000000E+00 -0.00000000000E+00 -0.64930732323E+04  0.65000000000E+04  0.30000000000E+03 0.  1.
     100001    1    1    2    0    0 -0.19768925638E+04 -0.42514951562E+04  0.44993371154E+04  0.65000000000E+04  0.15050000000E+03 0. -1.
     100001    1    1    2    0    0  0.19768925638E+04  0.42514951562E+04 -0.44993371154E+04  0.65000000000E+04  0.15050000000E+03 0.  1.
</event>
<event>
 4    1  0.5143956E-004  0.6500000E+04  0.7818608E-02  0.7223770E-01
         52   -1    0    0    0    0  0.00000000000E+00  0.00000000000E+00  0.64930732323E+04  0.65000000000E+04  0.30000000000E+03 0.  1.
        -52   -1    0    0    0    0 -0.00000000000E+00 -0.00000000000E+00 -0.64930732323E+04  0.65000000000E+04  0.30000000000E+03 0. -1.
     100001    1    1    2    0    0  0.18037113307E+03  0.41056616300E+03 -0.64827657238E+04  0.65000000000E+04  0.15050000000E+03 0. -1.
     100001    1    1    2    0    0 -0.18037113307E+03 -0.41056616300E+03  0.64827657238E+04  0.65000000000E+04  0.15050000000E+03 0.  1.
</event>
<event>
 4    1  0.5143956E-004  0.6500000E+04  0.7818608E-02  0.7223770E-01
         52   -1    0    0    0    0  0.00000000000E+00  0.00000000000E+00  0.64930732323E+04  0.65000000000E+04  0.30000000000E+03 0.  1.
        -52   -1    0    0    0    0 -0.00000000000E+00 -0.00000000000E+00 -0.64930732323E+04  0.65000000000E+04  0.30000000000E+03 0. -1.
     100001    1    1    2    0    0  0.42778769213E+03 -0.23642340943E+04  0.60377764606E+04  0.65000000000E+04  0.15050000000E+03 0.  1.
     100001    1    1    2    0    0 -0.42778769213E+03  0.23642340943E+04 -0.60377764606E+04  0.65000000000E+04  0.15050000000E+03 0. -1.
</event>
<event>
 4    1  0.5143956E-004  0.6500000E+04  0.7818608E-02  0.7223770E-01
         52   -1    0    0    0    0  0.00000000000E+00  0.00000000000E+00  0.64930732323E+04  0.65000000000E+04  0.30000000000E+03 0.  1.
        -52   -1    0    0    0    0 -0.00000000000E+00 -0.00000000000E+00 -0.64930732323E+04  0.65000000000E+04  0.30000000000E+03 0. -1.
     100001    1    1    2    0    0  0.41742807454E+03  0.72769538425E+03  0.64438779458E+04  0.65000000000E+04  0.15050000000E+03 0.  1.
     100001    1    1    2    0    0 -0.41742807454E+03 -0.72769538425E+03 -0.64438779458E+04  0.65000000000E+04  0.15050000000E+03 0. -1.
</event>
<event>
 4    1  0.6291546E-004  0.6500000E+04  0.7818608E-02  0.7223770E-01
         52   -1    0    0    0    0  0.00000000000E+00  0.00000000000E+00  0.64930732323E+04  0.65000000000E+04  0.30000000000E+03 0. -1.
        -52   -1    0    0    0    0 -0.00000000000E+00 -0.00000000000E+00 -0.64930732323E+04  0.65000000000E+04  0.30000000000E+03 0. -1.
     100001    1    1    2    0    0 -0.17709490945E+03  0.83486025033E+00 -0.64958437825E+04  0.65000000000E+04  0.15050000000E+03 0. -1.
     100001    1    1    2    0    0  0.17709490945E+03 -0.83486025033E+00  0.64958437825E+04  0.65000000000E+04  0.15050000000E+03 0. -1.
</event>
<event>
 4    1  0.5143956E-004  0.6500000E+04  0.7818608E-02  0.7223770E-01
         52   -1    0    0    0    0  0.00000000000E+00  0.00000000000E+00  0.64930732323E+04  0.65000000000E+04  0.30000000000E+03 0. -1.
        -52   -1    0    0    0    0 -0.00000000000E+00 -0.00000000000E+00 -0.64930732323E+04  0.65000000000E+04  0.30000000000E+03 0.  1.
     100001    1    1    2    0    0  0.49358314159E+03  0.58946650080E+03  0.64526161111E+04  0.65000000000E+04  0.15050000000E+03 0. -1.
     100001    1    1    2    0    0 -0.49358314159E+03 -0.58946650080E+03 -0.64526161111E+04  0.65000000000E+04  0.15050000000E+03 0.  1.
</event>
<event>
 4    1  0.5143956E-004  0.6500000E+04  0.7818608E-02  0.7223770E-01
         52   -1    0    0    0    0  0.00000000000E+00  0.00000000000E+00  0.64930732323E+04  0.65000000000E+04  0.30000000000E+03 0.  1.
        -52   -1    0    0    0    0 -0.00000000000E+00 -0.00000000000E+00 -0.64930732323E+04  0.65000000000E+04  0.30000000000E+03 0. -1.
     100001    1    1    2    0    0 -0.28163986742E+04  0.51863588997E+04  0.27197296964E+04  0.65000000000E+04  0.15050000000E+03 0.  1.
     100001    1    1    2    0    0  0.28163986742E+04 -0.51863588997E+04 -0.27197296964E+04  0.65000000000E+04  0.15050000000E+03 0. -1.
</event>
<event>
 4    1  0.5143956E-004  0.6500000E+04  0.7818608E-02  0.7223770E-01
         52   -1    0    0    0    0  0.00000000000E+00  0.00000000000E+00  0.64930732323E+04  0.65000000000E+04  0.30000000000E+03 0. -1.
        -52   -1    0    0    0    0 -0.00000000000E+00 -0.00000000000E+00 -0.64930732323E+04  0.65000000000E+04  0.30000000000E+03 0.  1.
     100001    1    1    2    0    0  0.45060257009E+03  0.75986286786E+01 -0.64826113052E+04  0.65000000000E+04  0.15050000000E+03 0.  1.
     100001    1    1    2    0    0 -0.45060257009E+03 -0.75986286786E+01  0.64826113052E+04  0.65000000000E+04  0.15050000000E+03 0. -1.
</event>
<event>
 4    1  0.5143956E-004  0.6500000E+04  0.7818608E-02  0.7223770E-01
         52   -1    0    0    0    0  0.00000000000E+00  0.00000000000E+00  0.64930732323E+04  0.65000000000E+04  0.30000000000E+03 0. -1.
        -52   -1    0    0    0    0 -0.00000000000E+00 -0.00000000000E+00 -0.64930732323E+04  0.65000000000E+04  0.30000000000E+03 0. -1.
     100001    1    1    2    0    0  0.39764969763E+03 -0.62940495791E+02  0.64857738908E+04  0.65000000000E+04  0.15050000000E+03 0. -1.
     100001    1    1    2    0    0 -0.39764969763E+03  0.62940495791E+02 -0.64857738908E+04  0.65000000000E+04  0.15050000000E+03 0. -1.
</event>
<event>
 4    1  0.5143956E-004  0.6500000E+04  0.7818608E-02  0.7223770E-01
         52   -1    0    0    0    0  0.00000000000E+00  0.00000000000E+00  0.64930732323E+04  0.65000000000E+04  0.30000000000E+03 0. -1.
        -52   -1    0    0    0    0 -0.00000000000E+00 -0.00000000000E+00 -0.64930732323E+04  0.65000000000E+04  0.30000000000E+03 0.  1.
     100001    1    1    2    0    0 -0.14775243487E+04  0.19588401542E+04 -0.60172432890E+04  0.65000000000E+04  0.15050000000E+03 0.  1.
     100001    1    1    2    0    0  0.14775243487E+04 -0.19588401542E+04  0.60172432890E+04  0.65000000000E+04  0.15050000000E+03 0. -1.
</event>
<event>
 4    1  0.5143956E-004  0.6500000E+04  0.7818608E-02  0.7223770E-01
         52   -1    0    0    0    0  0.00000000000E+00  0.00000000000E+00  0.64930732323E+04  0.65000000000E+04  0.30000000000E+03 0.  1.
        -52   -1    0    0    0    0 -0.00000000000E+00 -0.00000000000E+00 -0.64930732323E+04  0.65000000000E+04  0.30000000000E+03 0. -1.
     100001    1    1    2    0    0  0.47287021500E+03  0.27069982408E+03  0.64753737433E+04  0.65000000000E+04  0.15050000000E+03 0.  1.
     100001    1    1    2    0    0 -0.47287021500E+03 -0.27069982408E+03 -0.64753737433E+04  0.65000000000E+04  0.15050000000E+03 0. -1.
</event>
<event>
 4    1  0.5143956E-004  0.6500000E+04  0.7818608E-02  0.7223770E-01
         52   -1    0    0    0    0  0.00000000000E+00  0.00000000000E+00  0.64930732323E+04  0.65000000000E+04  0.30000000000E+03 0.  1.
        -52   -1    0    0    0    0 -0.00000000000E+00 -0.00000000000E+00 -0.64930732323E+04  0.65000000000E+04  0.30000000000E+03 0. -1.
     100001    1    1    2    0    0  0.24927588760E+03  0.10935375055E+04  0.64007333178E+04  0.65000000000E+04  0.15050000000E+03 0.  1.
     100001    1    1    2    0    0 -0.24927588760E+03 -0.10935375055E+04 -0.64007333178E+04  0.65000000000E+04  0.15050000000E+03 0. -1.
</event>
<event>
 4    1  0.5143956E-004  0.6500000E+04  0.7818608E-02  0.7223770E-01
         52   -1    0    0    0    0  0.00000000000E+00  0.00000000000E+00  0.64930732323E+04  0.65000000000E+04  0.30000000000E+03 0. -1.
        -52   -1    0    0    0    0 -0.00000000000E+00 -0.00000000000E+00 -0.64930732323E+04  0.65000000000E+04  0.30000000000E+03 0.  1.
     100001    1    1    2    0    0 -0.44405254859E+03 -0.51535504979E+03 -0.64625518378E+04  0.65000000000E+04  0.15050000000E+03 0.  1.
     100001    1    1    2    0    0  0.44405254859E+03  0.51535504979E+03  0.64625518378E+04  0.65000000000E+04  0.15050000000E+03 0. -1.
</event>
<event>
 4    1  0.5143956E-004  0.6500000E+04  0.7818608E-02  0.7223770E-01
         52   -1    0    0    0    0  0.00000000000E+00  0.00000000000E+00  0.64930732323E+04  0.65000000000E+04  0.30000000000E+03 0. -1.
        -52   -1    0    0    0    0 -0.00000000000E+00 -0.00000000000E+00 -0.64930732323E+04  0.65000000000E+04  0.30000000000E+03 0.  1.
     100001    1    1    2    0    0 -0.13849562186E+04 -0.33380912689E+03  0.63401748785E+04  0.65000000000E+04  0.15050000000E+03 0. -1.
     100001    1    1    2    0    0  0.13849562186E+04  0.33380912689E+03 -0.63401748785E+04  0.65000000000E+04  0.15050000000E+03 0.  1.
</event>
<event>
 4    1  0.5143956E-004  0.6500000E+04  0.7818608E-02  0.7223770E-01
         52   -1    0    0    0    0  0.00000000000E+00  0.00000000000E+00  0.64930732323E+04  0.65000000000E+04  0.30000000000E+03 0.  1.
        -52   -1    0    0    0    0 -0.00000000000E+00 -0.00000000000E+00 -0.64930732323E+04  0.65000000000E+04  0.30000000000E+03 0. -1.
     100001    1    1    2    0    0 -0.91304473077E+03 -0.16643959640E+04  0.62147795733E+04  0.65000000000E+04  0.15050000000E+03 0.  1.
     100001    1    1    2    0    0  0.91304473077E+03  0.16643959640E+04 -0.62147795733E+04  0.65000000000E+04  0.15050000000E+03 0. -1.
</event>
<event>
 4    1  0.5143956E-004  0.6500000E+04  0.7818608E-02  0.7223770E-01
         52   -1    0    0    0    0  0.00000000000E+00  0.00000000000E+00  0.64930732323E+04  0.65000000000E+04  0.30000000000E+03 0. -1.
        -52   -1    0    0    0    0 -0.00000000000E+00 -0.00000000000E+00 -0.64930732323E+04  0.65000000000E+04  0.30000000000E+03 0.  1.
     100001    1    1    2    0    0 -0.74439228725E+03 -0.11569495587E+03 -0.64544437832E+04  0.65000000000E+04  0.15050000000E+03 0.  1.
     100001    1    1    2    0    0  0.74439228725E+03  0.11569495587E+03  0.64544437832E+04  0.65000000000E+04  0.15050000000E+03 0. -1.
</event>
<event>
 4    1  0.5143956E-004  0.6500000E+04  0.7818608E-02  0.7223770E-01
         52   -1    0    0    0    0  0.00000000000E+00  0.00000000000E+00  0.64930732323E+04  0.65000000000E+04  0.30000000000E+03 0.  1.
        -52   -1    0    0    0    0 -0.00000000000E+00 -0.00000000000E+00 -0.64930732323E+04  0.65000000000E+04  0.30000000000E+03 0. -1.
     100001    1    1    2    0    0  0.62794622415E+03 -0.59337378409E+03 -0.64405699159E+04  0.65000000000E+04  0.15050000000E+03 0. -1.
     100001    1    1    2    0    0 -0.62794622415E+03  0.59337378409E+03  0.64405699159E+04  0.65000000000E+04  0.15050000000E+03 0.  1.
</event>
<event>
 4    1  0.5143956E-004  0.6500000E+04  0.7818608E-02  0.7223770E-01
         52   -1    0    0    0    0  0.00000000000E+00  0.00000000000E+00  0.64930732323E+04  0.65000000000E+04  0.30000000000E+03 0. -1.
        -52   -1    0    0    0    0 -0.00000000000E+00 -0.00000000000E+00 -0.64930732323E+04  0.65000000000E+04  0.30000000000E+03 0.  1.
     100001    1    1    2    0    0 -0.12143691281E+04 -0.13875821780E+04  0.62311534301E+04  0.65000000000E+04  0.15050000000E+03 0. -1.
     100001    1    1    2    0    0  0.12143691281E+04  0.13875821780E+04 -0.62311534301E+04  0.65000000000E+04  0.15050000000E+03 0.  1.
</event>
<event>
 4    1  0.5143956E-004  0.6500000E+04  0.7818608E-02  0.7223770E-01
         52   -1    0    0    0    0  0.00000000000E+00  0.00000000000E+00  0.64930732323E+04  0.65000000000E+04  0.30000000000E+03 0.  1.
        -52   -1    0    0    0    0 -0.00000000000E+00 -0.00000000000E+00 -0.64930732323E+04  0.65000000000E+04  0.30000000000E+03 0. -1.
     100001    1    1    2    0    0  0.31401421224E+04 -0.21697825039E+04 -0.52591730421E+04  0.65000000000E+04  0.15050000000E+03 0. -1.
     100001    1    1    2    0    0 -0.31401421224E+04  0.21697825039E+04  0.52591730421E+04  0.65000000000E+04  0.15050000000E+03 0.  1.
</event>
<event>
 4    1  0.5604409E-004  0.6500000E+04  0.7818608E-02  0.7223770E-01
         52   -1    0    0    0    0  0.00000000000E+00  0.00000000000E+00  0.64930732323E+04  0.65000000000E+04  0.30000000000E+03 0. -1.
        -52   -1    0    0    0    0 -0.00000000000E+00 -0.00000000000E+00 -0.64930732323E+04  0.65000000000E+04  0.30000000000E+03 0.  1.
     100001    1    1    2    0    0 -0.26415755191E+03  0.46342583126E+02  0.64927207627E+04  0.65000000000E+04  0.15050000000E+03 0. -1.
     100001    1    1    2    0    0  0.26415755191E+03 -0.46342583126E+02 -0.64927207627E+04  0.65000000000E+04  0.15050000000E+03 0.  1.
</event>
<event>
 4    1  0.5143956E-004  0.6500000E+04  0.7818608E-02  0.7223770E-01
         52   -1    0    0    0    0  0.00000000000E+00  0.00000000000E+00  0.64930732323E+04  0.65000000000E+04  0.30000000000E+03 0. -1.
        -52   -1    0    0    0    0 -0.00000000000E+00 -0.00000000000E+00 -0.64930732323E+04  0.65000000000E+04  0.30000000000E+03 0.  1.
     100001    1    1    2    0    0  0.23747311503E+03 -0.41000152846E+04 -0.50359538258E+04  0.65000000000E+04  0.15050000000E+03 0.  1.
     100001    1    1    2    0    0 -0.23747311503E+03  0.41000152846E+04  0.50359538258E+04  0.65000000000E+04  0.15050000000E+03 0. -1.
</event>
<event>
 4    1  0.5143956E-004  0.6500000E+04  0.7818608E-02  0.7223770E-01
         52   -1    0    0    0    0  0.00000000000E+00  0.00000000000E+00  0.64930732323E+04  0.65000000000E+04  0.30000000000E+03 0. -1.
        -52   -1    0    0    0    0 -0.00000000000E+00 -0.00000000000E+00 -0.64930732323E+04  0.65000000000E+04  0.30000000000E+03 0.  1.
     100001    1    1    2    0    0 -0.21883600417E+04  0.48458002397E+02  0.61185032402E+04  0.65000000000E+04  0.15050000000E+03 0. -1.
     100001    1    1    2    0    0  0.21883600417E+04 -0.48458002397E+02 -0.61185032402E+04  0.65000000000E+04  0.15050000000E+03 0.  1.
</event>
<event>
 4    1  0.5143956E-004  0.6500000E+04  0.7818608E-02  0.7223770E-01
         52   -1    0    0    0    0  0.00000000000E+00  0.00000000000E+00  0.64930732323E+04  0.65000000000E+04  0.30000000000E+03 0. -1.
        -52   -1    0    0    0    0 -0.00000000000E+00 -0.00000000000E+00 -0.64930732323E+04  0.65000000000E+04  0.30000000000E+03 0.  1.
     100001    1    1    2    0    0  0.23730085361E+04  0.30186678656E+04 -0.52425017458E+04  0.65000000000E+04  0.15050000000E+03 0.  1.
     100001    1    1    2    0    0 -0.23730085361E+04 -0.30186678656E+04  0.52425017458E+04  0.65000000000E+04  0.15050000000E+03 0. -1.
</event>
<event>
 4    1  0.5143956E-004  0.6500000E+04  0.7818608E-02  0.7223770E-01
         52   -1    0    0    0    0  0.00000000000E+00  0.00000000000E+00  0.64930732323E+04  0.65000000000E+04  0.30000000000E+03 0.  1.
        -52   -1    0    0    0    0 -0.00000000000E+00 -0.00000000000E+00 -0.64930732323E+04  0.65000000000E+04  0.30000000000E+03 0. -1.
     100001    1    1    2    0    0 -0.20035688650E+04 -0.10369742590E+04 -0.60940746582E+04  0.65000000000E+04  0.15050000000E+03 0. -1.
     100001    1    1    2    0    0  0.20035688650E+04  0.10369742590E+04  0.60940746582E+04  0.65000000000E+04  0.15050000000E+03 0.  1.
</event>
<event>
 4    1  0.5143956E-004  0.6500000E+04  0.7818608E-02  0.7223770E-01
         52   -1    0    0    0    0  0.00000000000E+00  0.00000000000E+00  0.64930732323E+04  0.65000000000E+04  0.30000000000E+03 0. -1.
        -52   -1    0    0    0    0 -0.00000000000E+00 -0.00000000000E+00 -0.64930732323E+04  0.65000000000E+04  0.30000000000E+03 0. -1.
     100001    1    1    2    0    0 -0.40222005162E+01  0.46760712354E+03 -0.64814101205E+04  0.65000000000E+04  0.15050000000E+03 0. -1.
     100001    1    1    2    0    0  0.40222005162E+01 -0.46760712354E+03  0.64814101205E+04  0.65000000000E+04  0.15050000000E+03 0. -1.
</event>
<event>
 4    1  0.5143956E-004  0.6500000E+04  0.7818608E-02  0.7223770E-01
         52   -1    0    0    0    0  0.00000000000E+00  0.00000000000E+00  0.64930732323E+04  0.65000000000E+04  0.30000000000E+03 0. -1.
        -52   -1    0    0    0    0 -0.00000000000E+00 -0.00000000000E+00 -0.64930732323E+04  0.65000000000E+04  0.30000000000E+03 0.  1.
     100001    1    1    2    0    0 -0.35152882544E+02 -0.11157390031E+03  0.64972044211E+04  0.65000000000E+04  0.15050000000E+03 0. -1.
     100001    1    1    2    0    0  0.35152882544E+02  0.11157390031E+03 -0.64972044211E+04  0.65000000000E+04  0.15050000000E+03 0.  1.
</event>
<event>
 4    1  0.5143956E-004  0.6500000E+04  0.7818608E-02  0.7223770E-01
         52   -1    0    0    0    0  0.00000000000E+00  0.00000000000E+00  0.64930732323E+04  0.65000000000E+04  0.30000000000E+03 0. -1.
        -52   -1    0    0    0    0 -0.00000000000E+00 -0.00000000000E+00 -0.64930732323E+04  0.65000000000E+04  0.30000000000E+03 0.  1.
     100001    1    1    2    0    0  0.46777829814E+04  0.25583381411E+04 -0.37149161611E+04  0.65000000000E+04  0.15050000000E+03 0.  1.
     100001    1    1    2    0    0 -0.46777829814E+04 -0.25583381411E+04  0.37149161611E+04  0.65000000000E+04  0.15050000000E+03 0. -1.
</event>
<event>
 4    1  0.5143956E-004  0.6500000E+04  0.7818608E-02  0.7223770E-01
         52   -1    0    0    0    0  0.00000000000E+00  0.00000000000E+00  0.64930732323E+04  0.65000000000E+04  0.30000000000E+03 0.  1.
        -52   -1    0    0    0    0 -0.00000000000E+00 -0.00000000000E+00 -0.64930732323E+04  0.65000000000E+04  0.30000000000E+03 0.  1.
     100001    1    1    2    0    0 -0.16293572703E+03 -0.47469754872E+02  0.64960409729E+04  0.65000000000E+04  0.15050000000E+03 0.  1.
     100001    1    1    2    0    0  0.16293572703E+03  0.47469754872E+02 -0.64960409729E+04  0.65000000000E+04  0.15050000000E+03 0.  1.
</event>
<event>
 4    1  0.5143956E-004  0.6500000E+04  0.7818608E-02  0.7223770E-01
         52   -1    0    0    0    0  0.00000000000E+00  0.00000000000E+00  0.64930732323E+04  0.65000000000E+04  0.30000000000E+03 0.  1.
        -52   -1    0    0    0    0 -0.00000000000E+00 -0.00000000000E+00 -0.64930732323E+04  0.65000000000E+04  0.30000000000E+03 0. -1.
     100001    1    1    2    0    0  0.21419632083E+04  0.56390562558E+04 -0.24166894521E+04  0.65000000000E+04  0.15050000000E+03 0. -1.
     100001    1    1    2    0    0 -0.21419632083E+04 -0.56390562558E+04  0.24166894521E+04  0.65000000000E+04  0.15050000000E+03 0.  1.
</event>
<event>
 4    1  0.6757705E-004  0.6500000E+04  0.7818608E-02  0.7223770E-01
         52   -1    0    0    0    0  0.00000000000E+00  0.00000000000E+00  0.64930732323E+04  0.65000000000E+04  0.30000000000E+03 0. -1.
        -52   -1    0    0    0    0 -0.00000000000E+00 -0.00000000000E+00 -0.64930732323E+04  0.65000000000E+04  0.30000000000E+03 0.  1.
     100001    1    1    2    0    0  0.13767315064E+03  0.10786938825E+03 -0.64959033282E+04  0.65000000000E+04  0.15050000000E+03 0.  1.
     100001    1    1    2    0    0 -0.13767315064E+03 -0.10786938825E+03  0.64959033282E+04  0.65000000000E+04  0.15050000000E+03 0. -1.
</event>
<event>
 4    1  0.5143956E-004  0.6500000E+04  0.7818608E-02  0.7223770E-01
         52   -1    0    0    0    0  0.00000000000E+00  0.00000000000E+00  0.64930732323E+04  0.65000000000E+04  0.30000000000E+03 0. -1.
        -52   -1    0    0    0    0 -0.00000000000E+00 -0.00000000000E+00 -0.64930732323E+04  0.65000000000E+04  0.30000000000E+03 0.  1.
     100001    1    1    2    0    0  0.31557807233E+03 -0.24332578674E+03 -0.64860275047E+04  0.65000000000E+04  0.15050000000E+03 0.  1.
     100001    1    1    2    0    0 -0.31557807233E+03  0.24332578674E+03  0.64860275047E+04  0.65000000000E+04  0.15050000000E+03 0. -1.
</event>
<event>
 4    1  0.5143956E-004  0.6500000E+04  0.7818608E-02  0.7223770E-01
         52   -1    0    0    0    0  0.00000000000E+00  0.00000000000E+00  0.64930732323E+04  0.65000000000E+04  0.30000000000E+03 0.  1.
        -52   -1    0    0    0    0 -0.00000000000E+00 -0.00000000000E+00 -0.64930732323E+04  0.65000000000E+04  0.30000000000E+03 0. -1.
     100001    1    1    2    0    0 -0.18375311499E+04  0.17312913424E+04  0.59877758234E+04  0.65000000000E+04  0.15050000000E+03 0.  1.
     100001    1    1    2    0    0  0.18375311499E+04 -0.17312913424E+04 -0.59877758234E+04  0.65000000000E+04  0.15050000000E+03 0. -1.
</event>
<event>
 4    1  0.5143956E-004  0.6500000E+04  0.7818608E-02  0.7223770E-01
         52   -1    0    0    0    0  0.00000000000E+00  0.00000000000E+00  0.64930732323E+04  0.65000000000E+04  0.30000000000E+03 0. -1.
        -52   -1    0    0    0    0 -0.00000000000E+00 -0.00000000000E+00 -0.64930732323E+04  0.65000000000E+04  0.30000000000E+03 0.  1.
     100001    1    1    2    0    0  0.30632214018E+03  0.69612130727E+03 -0.64535983468E+04  0.65000000000E+04  0.15050000000E+03 0.  1.
     100001    1    1    2    0    0 -0.30632214018E+03 -0.69612130727E+03  0.64535983468E+04  0.65000000000E+04  0.15050000000E+03 0. -1.
</event>
<event>
 4    1  0.6140167E-004  0.6500000E+04  0.7818608E-02  0.7223770E-01
         52   -1    0    0    0    0  0.00000000000E+00  0.00000000000E+00  0.64930732323E+04  0.65000000000E+04  0.30000000000E+03 0.  1.
        -52   -1    0    0    0    0 -0.00000000000E+00 -0.00000000000E+00 -0.64930732323E+04  0.65000000000E+04  0.30000000000E+03 0.  1.
     100001    1    1    2    0    0 -0.17273899316E+03 -0.67893973175E+02 -0.64956063149E+04  0.65000000000E+04  0.15050000000E+03 0.  1.
     100001    1    1    2    0    0  0.17273899316E+03  0.67893973175E+02  0.64956063149E+04  0.65000000000E+04  0.15050000000E+03 0.  1.
</event>
<event>
 4    1  0.5143956E-004  0.6500000E+04  0.7818608E-02  0.7223770E-01
         52   -1    0    0    0    0  0.00000000000E+00  0.00000000000E+00  0.64930732323E+04  0.65000000000E+04  0.30000000000E+03 0.  1.
        -52   -1    0    0    0    0 -0.00000000000E+00 -0.00000000000E+00 -0.64930732323E+04  0.65000000000E+04  0.30000000000E+03 0. -1.
     100001    1    1    2    0    0  0.25225768263E+04  0.20561421883E+04  0.56246097826E+04  0.65000000000E+04  0.15050000000E+03 0.  1.
     100001    1    1    2    0    0 -0.25225768263E+04 -0.20561421883E+04 -0.56246097826E+04  0.65000000000E+04  0.15050000000E+03 0. -1.
</event>
<event>
 4    1  0.5143956E-004  0.6500000E+04  0.7818608E-02  0.7223770E-01
         52   -1    0    0    0    0  0.00000000000E+00  0.00000000000E+00  0.64930732323E+04  0.65000000000E+04  0.30000000000E+03 0. -1.
        -52   -1    0    0    0    0 -0.00000000000E+00 -0.00000000000E+00 -0.64930732323E+04  0.65000000000E+04  0.30000000000E+03 0.  1.
     100001    1    1    2    0    0  0.16122377915E+03 -0.40716364743E+03 -0.64834847426E+04  0.65000000000E+04  0.15050000000E+03 0.  1.
     100001    1    1    2    0    0 -0.16122377915E+03  0.40716364743E+03  0.64834847426E+04  0.65000000000E+04  0.15050000000E+03 0. -1.
</event>
<event>
 4    1  0.5143956E-004  0.6500000E+04  0.7818608E-02  0.7223770E-01
         52   -1    0    0    0    0  0.00000000000E+00  0.00000000000E+00  0.64930732323E+04  0.65000000000E+04  0.30000000000E+03 0.  1.
        -52   -1    0    0    0    0 -0.00000000000E+00 -0.00000000000E+00 -0.64930732323E+04  0.65000000000E+04  0.30000000000E+03 0. -1.
     100001    1    1    2    0    0 -0.10123743629E+03  0.13477342635E+04  0.63561555272E+04  0.65000000000E+04  0.15050000000E+03 0.  1.
     100001    1    1    2    0    0  0.10123743629E+03 -0.13477342635E+04 -0.63561555272E+04  0.65000000000E+04  0.15050000000E+03 0. -1.
</event>
<event>
 4    1  0.5143956E-004  0.6500000E+04  0.7818608E-02  0.7223770E-01
         52   -1    0    0    0    0  0.00000000000E+00  0.00000000000E+00  0.64930732323E+04  0.65000000000E+04  0.30000000000E+03 0. -1.
        -52   -1    0    0    0    0 -0.00000000000E+00 -0.00000000000E+00 -0.64930732323E+04  0.65000000000E+04  0.30000000000E+03 0. -1.
     100001    1    1    2    0    0  0.24207414471E+03  0.88003833133E+02  0.64931506362E+04  0.65000000000E+04  0.15050000000E+03 0. -1.
     100001    1    1    2    0    0 -0.24207414471E+03 -0.88003833133E+02 -0.64931506362E+04  0.65000000000E+04  0.15050000000E+03 0. -1.
</event>
<event>
 4    1  0.5143956E-004  0.6500000E+04  0.7818608E-02  0.7223770E-01
         52   -1    0    0    0    0  0.00000000000E+00  0.00000000000E+00  0.64930732323E+04  0.65000000000E+04  0.30000000000E+03 0.  1.
        -52   -1    0    0    0    0 -0.00000000000E+00 -0.00000000000E+00 -0.64930732323E+04  0.65000000000E+04  0.30000000000E+03 0. -1.
     100001    1    1    2    0    0 -0.47807129761E+03 -0.50074254404E+04 -0.41139382644E+04  0.65000000000E+04  0.15050000000E+03 0. -1.
     100001    1    1    2    0    0  0.47807129761E+03  0.50074254404E+04  0.41139382644E+04  0.65000000000E+04  0.15050000000E+03 0.  1.
</event>
<event>
 4    1  0.5143956E-004  0.6500000E+04  0.7818608E-02  0.7223770E-01
         52   -1    0    0    0    0  0.00000000000E+00  0.00000000000E+00  0.64930732323E+04  0.65000000000E+04  0.30000000000E+03 0. -1.
        -52   -1    0    0    0    0 -0.00000000000E+00 -0.00000000000E+00 -0.64930732323E+04  0.65000000000E+04  0.30000000000E+03 0.  1.
     100001    1    1    2    0    0 -0.62981554020E+03 -0.57381483914E+02 -0.64674097984E+04  0.65000000000E+04  0.15050000000E+03 0.  1.
     100001    1    1    2    0    0  0.62981554020E+03  0.57381483914E+02  0.64674097984E+04  0.65000000000E+04  0.15050000000E+03 0. -1.
</event>
<event>
 4    1  0.5143956E-004  0.6500000E+04  0.7818608E-02  0.7223770E-01
         52   -1    0    0    0    0  0.00000000000E+00  0.00000000000E+00  0.64930732323E+04  0.65000000000E+04  0.30000000000E+03 0.  1.
        -52   -1    0    0    0    0 -0.00000000000E+00 -0.00000000000E+00 -0.64930732323E+04  0.65000000000E+04  0.30000000000E+03 0.  1.
     100001    1    1    2    0    0 -0.49207284915E+03 -0.14820890311E+03  0.64779046135E+04  0.65000000000E+04  0.15050000000E+03 0.  1.
     100001    1    1    2    0    0  0.49207284915E+03  0.14820890311E+03 -0.64779046135E+04  0.65000000000E+04  0.15050000000E+03 0.  1.
</event>
<event>
 4    1  0.5143956E-004  0.6500000E+04  0.7818608E-02  0.7223770E-01
         52   -1    0    0    0    0  0.00000000000E+00  0.00000000000E+00  0.64930732323E+04  0.65000000000E+04  0.30000000000E+03 0. -1.
        -52   -1    0    0    0    0 -0.00000000000E+00 -0.00000000000E+00 -0.64930732323E+04  0.65000000000E+04  0.30000000000E+03 0. -1.
     100001    1    1    2    0    0  0.13060904152E+04 -0.60288412734E+03 -0.63370346619E+04  0.65000000000E+04  0.15050000000E+03 0. -1.
     100001    1    1    2    0    0 -0.13060904152E+04  0.60288412734E+03  0.63370346619E+04  0.65000000000E+04  0.15050000000E+03 0. -1.
</event>
<event>
 4    1  0.5143956E-004  0.6500000E+04  0.7818608E-02  0.7223770E-01
         52   -1    0    0    0    0  0.00000000000E+00  0.00000000000E+00  0.64930732323E+04  0.65000000000E+04  0.30000000000E+03 0.  1.
        -52   -1    0    0    0    0 -0.00000000000E+00 -0.00000000000E+00 -0.64930732323E+04  0.65000000000E+04  0.30000000000E+03 0.  1.
     100001    1    1    2    0    0 -0.28660161360E+03 -0.49718925539E+03  0.64728673793E+04  0.65000000000E+04  0.15050000000E+03 0.  1.
     100001    1    1    2    0    0  0.28660161360E+03  0.49718925539E+03 -0.64728673793E+04  0.65000000000E+04  0.15050000000E+03 0.  1.
</event>
<event>
 4    1  0.5143956E-004  0.6500000E+04  0.7818608E-02  0.7223770E-01
         52   -1    0    0    0    0  0.00000000000E+00  0.00000000000E+00  0.64930732323E+04  0.65000000000E+04  0.30000000000E+03 0. -1.
        -52   -1    0    0    0    0 -0.00000000000E+00 -0.00000000000E+00 -0.64930732323E+04  0.65000000000E+04  0.30000000000E+03 0.  1.
     100001    1    1    2    0    0 -0.13674196203E+04 -0.14150513643E+04  0.61931529101E+04  0.65000000000E+04  0.15050000000E+03 0. -1.
     100001    1    1    2    0    0  0.13674196203E+04  0.14150513643E+04 -0.61931529101E+04  0.65000000000E+04  0.15050000000E+03 0.  1.
</event>
<event>
 4    1  0.5143956E-004  0.6500000E+04  0.7818608E-02  0.7223770E-01
         52   -1    0    0    0    0  0.00000000000E+00  0.00000000000E+00  0.64930732323E+04  0.65000000000E+04  0.30000000000E+03 0.  1.
        -52   -1    0    0    0    0 -0.00000000000E+00 -0.00000000000E+00 -0.64930732323E+04  0.65000000000E+04  0.30000000000E+03 0. -1.
     100001    1    1    2    0    0  0.10147170028E+04 -0.11800398819E+04  0.63091366312E+04  0.65000000000E+04  0.15050000000E+03 0.  1.
     100001    1    1    2    0    0 -0.10147170028E+04  0.11800398819E+04 -0.63091366312E+04  0.65000000000E+04  0.15050000000E+03 0. -1.
</event>
<event>
 4    1  0.5143956E-004  0.6500000E+04  0.7818608E-02  0.7223770E-01
         52   -1    0    0    0    0  0.00000000000E+00  0.00000000000E+00  0.64930732323E+04  0.65000000000E+04  0.30000000000E+03 0. -1.
        -52   -1    0    0    0    0 -0.00000000000E+00 -0.00000000000E+00 -0.64930732323E+04  0.65000000000E+04  0.30000000000E+03 0.  1.
     100001    1    1    2    0    0 -0.35718044675E+03 -0.21645411687E+04  0.61167420583E+04  0.65000000000E+04  0.15050000000E+03 0. -1.
     100001    1    1    2    0    0  0.35718044675E+03  0.21645411687E+04 -0.61167420583E+04  0.65000000000E+04  0.15050000000E+03 0.  1.
</event>
<event>
 4    1  0.5143956E-004  0.6500000E+04  0.7818608E-02  0.7223770E-01
         52   -1    0    0    0    0  0.00000000000E+00  0.00000000000E+00  0.64930732323E+04  0.65000000000E+04  0.30000000000E+03 0. -1.
        -52   -1    0    0    0    0 -0.00000000000E+00 -0.00000000000E+00 -0.64930732323E+04  0.65000000000E+04  0.30000000000E+03 0.  1.
     100001    1    1    2    0    0 -0.20043615657E+04  0.22877338169E+03 -0.61771795509E+04  0.65000000000E+04  0.15050000000E+03 0.  1.
     100001    1    1    2    0    0  0.20043615657E+04 -0.22877338169E+03  0.61771795509E+04  0.65000000000E+04  0.15050000000E+03 0. -1.
</event>
<event>
 4    1  0.5143956E-004  0.6500000E+04  0.7818608E-02  0.7223770E-01
         52   -1    0    0    0    0  0.00000000000E+00  0.00000000000E+00  0.64930732323E+04  0.65000000000E+04  0.30000000000E+03 0.  1.
        -52   -1    0    0    0    0 -0.00000000000E+00 -0.00000000000E+00 -0.64930732323E+04  0.65000000000E+04  0.30000000000E+03 0. -1.
     100001    1    1    2    0    0  0.11172018426E+04 -0.14845669993E+04 -0.62269792530E+04  0.65000000000E+04  0.15050000000E+03 0. -1.
     100001    1    1    2    0    0 -0.11172018426E+04  0.14845669993E+04  0.62269792530E+04  0.65000000000E+04  0.15050000000E+03 0.  1.
</event>
<event>
 4    1  0.5143956E-004  0.6500000E+04  0.7818608E-02  0.7223770E-01
         52   -1    0    0    0    0  0.00000000000E+00  0.00000000000E+00  0.64930732323E+04  0.65000000000E+04  0.30000000000E+03 0. -1.
        -52   -1    0    0    0    0 -0.00000000000E+00 -0.00000000000E+00 -0.64930732323E+04  0.65000000000E+04  0.30000000000E+03 0.  1.
     100001    1    1    2    0    0  0.60286712593E+03 -0.19603213413E+04  0.61661204349E+04  0.65000000000E+04  0.15050000000E+03 0. -1.
     100001    1    1    2    0    0 -0.60286712593E+03  0.19603213413E+04 -0.61661204349E+04  0.65000000000E+04  0.15050000000E+03 0.  1.
</event>
<event>
 4    1  0.5143956E-004  0.6500000E+04  0.7818608E-02  0.7223770E-01
         52   -1    0    0    0    0  0.00000000000E+00  0.00000000000E+00  0.64930732323E+04  0.65000000000E+04  0.30000000000E+03 0. -1.
        -52   -1    0    0    0    0 -0.00000000000E+00 -0.00000000000E+00 -0.64930732323E+04  0.65000000000E+04  0.30000000000E+03 0.  1.
     100001    1    1    2    0    0 -0.38956425873E+02 -0.38104857685E+04  0.52636518079E+04  0.65000000000E+04  0.15050000000E+03 0. -1.
     100001    1    1    2    0    0  0.38956425873E+02  0.38104857685E+04 -0.52636518079E+04  0.65000000000E+04  0.15050000000E+03 0.  1.
</event>
<event>
 4    1  0.5143956E-004  0.6500000E+04  0.7818608E-02  0.7223770E-01
         52   -1    0    0    0    0  0.00000000000E+00  0.00000000000E+00  0.64930732323E+04  0.65000000000E+04  0.30000000000E+03 0. -1.
        -52   -1    0    0    0    0 -0.00000000000E+00 -0.00000000000E+00 -0.64930732323E+04  0.65000000000E+04  0.30000000000E+03 0.  1.
     100001    1    1    2    0    0  0.77219215725E+02  0.49233654717E+03  0.64791196676E+04  0.65000000000E+04  0.15050000000E+03 0. -1.
     100001    1    1    2    0    0 -0.77219215725E+02 -0.49233654717E+03 -0.64791196676E+04  0.65000000000E+04  0.15050000000E+03 0.  1.
</event>
<event>
 4    1  0.5143956E-004  0.6500000E+04  0.7818608E-02  0.7223770E-01
         52   -1    0    0    0    0  0.00000000000E+00  0.00000000000E+00  0.64930732323E+04  0.65000000000E+04  0.30000000000E+03 0. -1.
        -52   -1    0    0    0    0 -0.00000000000E+00 -0.00000000000E+00 -0.64930732323E+04  0.65000000000E+04  0.30000000000E+03 0.  1.
     100001    1    1    2    0    0  0.26070532125E+04  0.14972512383E+04 -0.57609775235E+04  0.65000000000E+04  0.15050000000E+03 0.  1.
     100001    1    1    2    0    0 -0.26070532125E+04 -0.14972512383E+04  0.57609775235E+04  0.65000000000E+04  0.15050000000E+03 0. -1.
</event>
<event>
 4    1  0.5143956E-004  0.6500000E+04  0.7818608E-02  0.7223770E-01
         52   -1    0    0    0    0  0.00000000000E+00  0.00000000000E+00  0.64930732323E+04  0.65000000000E+04  0.30000000000E+03 0.  1.
        -52   -1    0    0    0    0 -0.00000000000E+00 -0.00000000000E+00 -0.64930732323E+04  0.65000000000E+04  0.30000000000E+03 0.  1.
     100001    1    1    2    0    0 -0.37827760785E+03 -0.20603011823E+03  0.64839654064E+04  0.65000000000E+04  0.15050000000E+03 0.  1.
     100001    1    1    2    0    0  0.37827760785E+03  0.20603011823E+03 -0.64839654064E+04  0.65000000000E+04  0.15050000000E+03 0.  1.
</event>
<event>
 4    1  0.5143956E-004  0.6500000E+04  0.7818608E-02  0.7223770E-01
         52   -1    0    0    0    0  0.00000000000E+00  0.00000000000E+00  0.64930732323E+04  0.65000000000E+04  0.30000000000E+03 0. -1.
        -52   -1    0    0    0    0 -0.00000000000E+00 -0.00000000000E+00 -0.64930732323E+04  0.65000000000E+04  0.30000000000E+03 0.  1.
     100001    1    1    2    0    0  0.17300584027E+04 -0.23084692697E+04 -0.58228186735E+04  0.65000000000E+04  0.15050000000E+03 0.  1.
     100001    1    1    2    0    0 -0.17300584027E+04  0.23084692697E+04  0.58228186735E+04  0.65000000000E+04  0.15050000000E+03 0. -1.
</event>
<event>
 4    1  0.5143956E-004  0.6500000E+04  0.7818608E-02  0.7223770E-01
         52   -1    0    0    0    0  0.00000000000E+00  0.00000000000E+00  0.64930732323E+04  0.65000000000E+04  0.30000000000E+03 0. -1.
        -52   -1    0    0    0    0 -0.00000000000E+00 -0.00000000000E+00 -0.64930732323E+04  0.65000000000E+04  0.30000000000E+03 0. -1.
     100001    1    1    2    0    0 -0.11408996458E+03  0.26203551552E+02  0.64972029831E+04  0.65000000000E+04  0.15050000000E+03 0. -1.
     100001    1    1    2    0    0  0.11408996458E+03 -0.26203551552E+02 -0.64972029831E+04  0.65000000000E+04  0.15050000000E+03 0. -1.
</event>
<event>
 4    1  0.5143956E-004  0.6500000E+04  0.7818608E-02  0.7223770E-01
         52   -1    0    0    0    0  0.00000000000E+00  0.00000000000E+00  0.64930732323E+04  0.65000000000E+04  0.30000000000E+03 0. -1.
        -52   -1    0    0    0    0 -0.00000000000E+00 -0.00000000000E+00 -0.64930732323E+04  0.65000000000E+04  0.30000000000E+03 0.  1.
     100001    1    1    2    0    0 -0.96783714397E+03  0.50359809322E+03  0.64060151399E+04  0.65000000000E+04  0.15050000000E+03 0. -1.
     100001    1    1    2    0    0  0.96783714397E+03 -0.50359809322E+03 -0.64060151399E+04  0.65000000000E+04  0.15050000000E+03 0.  1.
</event>
<event>
 4    1  0.5143956E-004  0.6500000E+04  0.7818608E-02  0.7223770E-01
         52   -1    0    0    0    0  0.00000000000E+00  0.00000000000E+00  0.64930732323E+04  0.65000000000E+04  0.30000000000E+03 0. -1.
        -52   -1    0    0    0    0 -0.00000000000E+00 -0.00000000000E+00 -0.64930732323E+04  0.65000000000E+04  0.30000000000E+03 0.  1.
     100001    1    1    2    0    0  0.21690463926E+04  0.21900782789E+04  0.57206769380E+04  0.65000000000E+04  0.15050000000E+03 0. -1.
     100001    1    1    2    0    0 -0.21690463926E+04 -0.21900782789E+04 -0.57206769380E+04  0.65000000000E+04  0.15050000000E+03 0.  1.
</event>
<event>
 4    1  0.5143956E-004  0.6500000E+04  0.7818608E-02  0.7223770E-01
         52   -1    0    0    0    0  0.00000000000E+00  0.00000000000E+00  0.64930732323E+04  0.65000000000E+04  0.30000000000E+03 0.  1.
        -52   -1    0    0    0    0 -0.00000000000E+00 -0.00000000000E+00 -0.64930732323E+04  0.65000000000E+04  0.30000000000E+03 0. -1.
     100001    1    1    2    0    0 -0.32403312034E+03  0.58334765626E+03 -0.64639042226E+04  0.65000000000E+04  0.15050000000E+03 0. -1.
     100001    1    1    2    0    0  0.32403312034E+03 -0.58334765626E+03  0.64639042226E+04  0.65000000000E+04  0.15050000000E+03 0.  1.
</event>
<event>
 4    1  0.5143956E-004  0.6500000E+04  0.7818608E-02  0.7223770E-01
         52   -1    0    0    0    0  0.00000000000E+00  0.00000000000E+00  0.64930732323E+04  0.65000000000E+04  0.30000000000E+03 0. -1.
        -52   -1    0    0    0    0 -0.00000000000E+00 -0.00000000000E+00 -0.64930732323E+04  0.65000000000E+04  0.30000000000E+03 0.  1.
     100001    1    1    2    0    0  0.15068898427E+04  0.19015327164E+04  0.60283336073E+04  0.65000000000E+04  0.15050000000E+03 0. -1.
     100001    1    1    2    0    0 -0.15068898427E+04 -0.19015327164E+04 -0.60283336073E+04  0.65000000000E+04  0.15050000000E+03 0.  1.
</event>
<event>
 4    1  0.5143956E-004  0.6500000E+04  0.7818608E-02  0.7223770E-01
         52   -1    0    0    0    0  0.00000000000E+00  0.00000000000E+00  0.64930732323E+04  0.65000000000E+04  0.30000000000E+03 0. -1.
        -52   -1    0    0    0    0 -0.00000000000E+00 -0.00000000000E+00 -0.64930732323E+04  0.65000000000E+04  0.30000000000E+03 0.  1.
     100001    1    1    2    0    0  0.61201975380E+04  0.18035073276E+04  0.12320280700E+04  0.65000000000E+04  0.15050000000E+03 0. -1.
     100001    1    1    2    0    0 -0.61201975380E+04 -0.18035073276E+04 -0.12320280700E+04  0.65000000000E+04  0.15050000000E+03 0.  1.
</event>
<event>
 4    1  0.5143956E-004  0.6500000E+04  0.7818608E-02  0.7223770E-01
         52   -1    0    0    0    0  0.00000000000E+00  0.00000000000E+00  0.64930732323E+04  0.65000000000E+04  0.30000000000E+03 0.  1.
        -52   -1    0    0    0    0 -0.00000000000E+00 -0.00000000000E+00 -0.64930732323E+04  0.65000000000E+04  0.30000000000E+03 0.  1.
     100001    1    1    2    0    0 -0.17180464598E+03  0.53872584747E+03 -0.64736085281E+04  0.65000000000E+04  0.15050000000E+03 0.  1.
     100001    1    1    2    0    0  0.17180464598E+03 -0.53872584747E+03  0.64736085281E+04  0.65000000000E+04  0.15050000000E+03 0.  1.
</event>
<event>
 4    1  0.5530847E-004  0.6500000E+04  0.7818608E-02  0.7223770E-01
         52   -1    0    0    0    0  0.00000000000E+00  0.00000000000E+00  0.64930732323E+04  0.65000000000E+04  0.30000000000E+03 0. -1.
        -52   -1    0    0    0    0 -0.00000000000E+00 -0.00000000000E+00 -0.64930732323E+04  0.65000000000E+04  0.30000000000E+03 0.  1.
     100001    1    1    2    0    0 -0.22108432804E+03 -0.12677009927E+03  0.64932581045E+04  0.65000000000E+04  0.15050000000E+03 0. -1.
     100001    1    1    2    0    0  0.22108432804E+03  0.12677009927E+03 -0.64932581045E+04  0.65000000000E+04  0.15050000000E+03 0.  1.
</event>
<event>
 4    1  0.5143956E-004  0.6500000E+04  0.7818608E-02  0.7223770E-01
         52   -1    0    0    0    0  0.00000000000E+00  0.00000000000E+00  0.64930732323E+04  0.65000000000E+04  0.30000000000E+03 0.  1.
        -52   -1    0    0    0    0 -0.00000000000E+00 -0.00000000000E+00 -0.64930732323E+04  0.65000000000E+04  0.30000000000E+03 0. -1.
     100001    1    1    2    0    0  0.96292699409E+03 -0.64858131417E+01 -0.64265137741E+04  0.65000000000E+04  0.15050000000E+03 0. -1.
     100001    1    1    2    0    0 -0.96292699409E+03  0.64858131417E+01  0.64265137741E+04  0.65000000000E+04  0.15050000000E+03 0.  1.
</event>
<event>
 4    1  0.5143956E-004  0.6500000E+04  0.7818608E-02  0.7223770E-01
         52   -1    0    0    0    0  0.00000000000E+00  0.00000000000E+00  0.64930732323E+04  0.65000000000E+04  0.30000000000E+03 0. -1.
        -52   -1    0    0    0    0 -0.00000000000E+00 -0.00000000000E+00 -0.64930732323E+04  0.65000000000E+04  0.30000000000E+03 0.  1.
     100001    1    1    2    0    0 -0.42659679824E+04  0.13242087784E+04  0.47196756281E+04  0.65000000000E+04  0.15050000000E+03 0. -1.
     100001    1    1    2    0    0  0.42659679824E+04 -0.13242087784E+04 -0.47196756281E+04  0.65000000000E+04  0.15050000000E+03 0.  1.
</event>
<event>
 4    1  0.5143956E-004  0.6500000E+04  0.7818608E-02  0.7223770E-01
         52   -1    0    0    0    0  0.00000000000E+00  0.00000000000E+00  0.64930732323E+04  0.65000000000E+04  0.30000000000E+03 0.  1.
        -52   -1    0    0    0    0 -0.00000000000E+00 -0.00000000000E+00 -0.64930732323E+04  0.65000000000E+04  0.30000000000E+03 0. -1.
     100001    1    1    2    0    0  0.29143973092E+03  0.17510906509E+04  0.62510874386E+04  0.65000000000E+04  0.15050000000E+03 0.  1.
     100001    1    1    2    0    0 -0.29143973092E+03 -0.17510906509E+04 -0.62510874386E+04  0.65000000000E+04  0.15050000000E+03 0. -1.
</event>
<event>
 4    1  0.5143956E-004  0.6500000E+04  0.7818608E-02  0.7223770E-01
         52   -1    0    0    0    0  0.00000000000E+00  0.00000000000E+00  0.64930732323E+04  0.65000000000E+04  0.30000000000E+03 0. -1.
        -52   -1    0    0    0    0 -0.00000000000E+00 -0.00000000000E+00 -0.64930732323E+04  0.65000000000E+04  0.30000000000E+03 0. -1.
     100001    1    1    2    0    0  0.24111058162E+03 -0.16437746343E+03  0.64917020485E+04  0.65000000000E+04  0.15050000000E+03 0. -1.
     100001    1    1    2    0    0 -0.24111058162E+03  0.16437746343E+03 -0.64917020485E+04  0.65000000000E+04  0.15050000000E+03 0. -1.
</event>
<event>
 4    1  0.5143956E-004  0.6500000E+04  0.7818608E-02  0.7223770E-01
         52   -1    0    0    0    0  0.00000000000E+00  0.00000000000E+00  0.64930732323E+04  0.65000000000E+04  0.30000000000E+03 0. -1.
        -52   -1    0    0    0    0 -0.00000000000E+00 -0.00000000000E+00 -0.64930732323E+04  0.65000000000E+04  0.30000000000E+03 0.  1.
     100001    1    1    2    0    0  0.12674665649E+04 -0.10669665565E+03  0.63725578915E+04  0.65000000000E+04  0.15050000000E+03 0. -1.
     100001    1    1    2    0    0 -0.12674665649E+04  0.10669665565E+03 -0.63725578915E+04  0.65000000000E+04  0.15050000000E+03 0.  1.
</event>
<event>
 4    1  0.5143956E-004  0.6500000E+04  0.7818608E-02  0.7223770E-01
         52   -1    0    0    0    0  0.00000000000E+00  0.00000000000E+00  0.64930732323E+04  0.65000000000E+04  0.30000000000E+03 0.  1.
        -52   -1    0    0    0    0 -0.00000000000E+00 -0.00000000000E+00 -0.64930732323E+04  0.65000000000E+04  0.30000000000E+03 0. -1.
     100001    1    1    2    0    0 -0.72145446519E+03  0.22764331218E+02  0.64580442078E+04  0.65000000000E+04  0.15050000000E+03 0.  1.
     100001    1    1    2    0    0  0.72145446519E+03 -0.22764331218E+02 -0.64580442078E+04  0.65000000000E+04  0.15050000000E+03 0. -1.
</event>
<event>
 4    1  0.5143956E-004  0.6500000E+04  0.7818608E-02  0.7223770E-01
         52   -1    0    0    0    0  0.00000000000E+00  0.00000000000E+00  0.64930732323E+04  0.65000000000E+04  0.30000000000E+03 0.  1.
        -52   -1    0    0    0    0 -0.00000000000E+00 -0.00000000000E+00 -0.64930732323E+04  0.65000000000E+04  0.30000000000E+03 0. -1.
     100001    1    1    2    0    0  0.95305254369E+03  0.43038474088E+03 -0.64135644983E+04  0.65000000000E+04  0.15050000000E+03 0. -1.
     100001    1    1    2    0    0 -0.95305254369E+03 -0.43038474088E+03  0.64135644983E+04  0.65000000000E+04  0.15050000000E+03 0.  1.
</event>
<event>
 4    1  0.5143956E-004  0.6500000E+04  0.7818608E-02  0.7223770E-01
         52   -1    0    0    0    0  0.00000000000E+00  0.00000000000E+00  0.64930732323E+04  0.65000000000E+04  0.30000000000E+03 0.  1.
        -52   -1    0    0    0    0 -0.00000000000E+00 -0.00000000000E+00 -0.64930732323E+04  0.65000000000E+04  0.30000000000E+03 0. -1.
     100001    1    1    2    0    0  0.29432770482E+04 -0.17858374557E+04 -0.55113750144E+04  0.65000000000E+04  0.15050000000E+03 0. -1.
     100001    1    1    2    0    0 -0.29432770482E+04  0.17858374557E+04  0.55113750144E+04  0.65000000000E+04  0.15050000000E+03 0.  1.
</event>
<event>
 4    1  0.5143956E-004  0.6500000E+04  0.7818608E-02  0.7223770E-01
         52   -1    0    0    0    0  0.00000000000E+00  0.00000000000E+00  0.64930732323E+04  0.65000000000E+04  0.30000000000E+03 0. -1.
        -52   -1    0    0    0    0 -0.00000000000E+00 -0.00000000000E+00 -0.64930732323E+04  0.65000000000E+04  0.30000000000E+03 0.  1.
     100001    1    1    2    0    0 -0.72588369183E+03 -0.93668210066E+03 -0.63892933301E+04  0.65000000000E+04  0.15050000000E+03 0.  1.
     100001    1    1    2    0    0  0.72588369183E+03  0.93668210066E+03  0.63892933301E+04  0.65000000000E+04  0.15050000000E+03 0. -1.
</event>
<event>
 4    1  0.5143956E-004  0.6500000E+04  0.7818608E-02  0.7223770E-01
         52   -1    0    0    0    0  0.00000000000E+00  0.00000000000E+00  0.64930732323E+04  0.65000000000E+04  0.30000000000E+03 0. -1.
        -52   -1    0    0    0    0 -0.00000000000E+00 -0.00000000000E+00 -0.64930732323E+04  0.65000000000E+04  0.30000000000E+03 0.  1.
     100001    1    1    2    0    0 -0.35793905667E+03  0.95232600916E+02 -0.64876929747E+04  0.65000000000E+04  0.15050000000E+03 0.  1.
     100001    1    1    2    0    0  0.35793905667E+03 -0.95232600916E+02  0.64876929747E+04  0.65000000000E+04  0.15050000000E+03 0. -1.
</event>
<event>
 4    1  0.5143956E-004  0.6500000E+04  0.7818608E-02  0.7223770E-01
         52   -1    0    0    0    0  0.00000000000E+00  0.00000000000E+00  0.64930732323E+04  0.65000000000E+04  0.30000000000E+03 0.  1.
        -52   -1    0    0    0    0 -0.00000000000E+00 -0.00000000000E+00 -0.64930732323E+04  0.65000000000E+04  0.30000000000E+03 0. -1.
     100001    1    1    2    0    0 -0.73194214976E+03 -0.16929018736E+03 -0.64546844440E+04  0.65000000000E+04  0.15050000000E+03 0. -1.
     100001    1    1    2    0    0  0.73194214976E+03  0.16929018736E+03  0.64546844440E+04  0.65000000000E+04  0.15050000000E+03 0.  1.
</event>
<event>
 4    1  0.5143956E-004  0.6500000E+04  0.7818608E-02  0.7223770E-01
         52   -1    0    0    0    0  0.00000000000E+00  0.00000000000E+00  0.64930732323E+04  0.65000000000E+04  0.30000000000E+03 0.  1.
        -52   -1    0    0    0    0 -0.00000000000E+00 -0.00000000000E+00 -0.64930732323E+04  0.65000000000E+04  0.30000000000E+03 0. -1.
     100001    1    1    2    0    0 -0.10865164328E+04 -0.39357994762E+04  0.50553253381E+04  0.65000000000E+04  0.15050000000E+03 0.  1.
     100001    1    1    2    0    0  0.10865164328E+04  0.39357994762E+04 -0.50553253381E+04  0.65000000000E+04  0.15050000000E+03 0. -1.
</event>
<event>
 4    1  0.5143956E-004  0.6500000E+04  0.7818608E-02  0.7223770E-01
         52   -1    0    0    0    0  0.00000000000E+00  0.00000000000E+00  0.64930732323E+04  0.65000000000E+04  0.30000000000E+03 0. -1.
        -52   -1    0    0    0    0 -0.00000000000E+00 -0.00000000000E+00 -0.64930732323E+04  0.65000000000E+04  0.30000000000E+03 0.  1.
     100001    1    1    2    0    0  0.24502991993E+04  0.59057039294E+04 -0.11601916575E+04  0.65000000000E+04  0.15050000000E+03 0.  1.
     100001    1    1    2    0    0 -0.24502991993E+04 -0.59057039294E+04  0.11601916575E+04  0.65000000000E+04  0.15050000000E+03 0. -1.
</event>
<event>
 4    1  0.5143956E-004  0.6500000E+04  0.7818608E-02  0.7223770E-01
         52   -1    0    0    0    0  0.00000000000E+00  0.00000000000E+00  0.64930732323E+04  0.65000000000E+04  0.30000000000E+03 0.  1.
        -52   -1    0    0    0    0 -0.00000000000E+00 -0.00000000000E+00 -0.64930732323E+04  0.65000000000E+04  0.30000000000E+03 0. -1.
     100001    1    1    2    0    0  0.41808426504E+03 -0.14361786386E+04 -0.63237604489E+04  0.65000000000E+04  0.15050000000E+03 0. -1.
     100001    1    1    2    0    0 -0.41808426504E+03  0.14361786386E+04  0.63237604489E+04  0.65000000000E+04  0.15050000000E+03 0.  1.
</event>
<event>
 4    1  0.5143956E-004  0.6500000E+04  0.7818608E-02  0.7223770E-01
         52   -1    0    0    0    0  0.00000000000E+00  0.00000000000E+00  0.64930732323E+04  0.65000000000E+04  0.30000000000E+03 0.  1.
        -52   -1    0    0    0    0 -0.00000000000E+00 -0.00000000000E+00 -0.64930732323E+04  0.65000000000E+04  0.30000000000E+03 0. -1.
     100001    1    1    2    0    0  0.12946031919E+04  0.92320687292E+03 -0.63007175302E+04  0.65000000000E+04  0.15050000000E+03 0. -1.
     100001    1    1    2    0    0 -0.12946031919E+04 -0.92320687292E+03  0.63007175302E+04  0.65000000000E+04  0.15050000000E+03 0.  1.
</event>
<event>
 4    1  0.5143956E-004  0.6500000E+04  0.7818608E-02  0.7223770E-01
         52   -1    0    0    0    0  0.00000000000E+00  0.00000000000E+00  0.64930732323E+04  0.65000000000E+04  0.30000000000E+03 0.  1.
        -52   -1    0    0    0    0 -0.00000000000E+00 -0.00000000000E+00 -0.64930732323E+04  0.65000000000E+04  0.30000000000E+03 0. -1.
     100001    1    1    2    0    0  0.38328467058E+03 -0.83984348079E+03 -0.64323483689E+04  0.65000000000E+04  0.15050000000E+03 0. -1.
     100001    1    1    2    0    0 -0.38328467058E+03  0.83984348079E+03  0.64323483689E+04  0.65000000000E+04  0.15050000000E+03 0.  1.
</event>
<event>
 4    1  0.5143956E-004  0.6500000E+04  0.7818608E-02  0.7223770E-01
         52   -1    0    0    0    0  0.00000000000E+00  0.00000000000E+00  0.64930732323E+04  0.65000000000E+04  0.30000000000E+03 0. -1.
        -52   -1    0    0    0    0 -0.00000000000E+00 -0.00000000000E+00 -0.64930732323E+04  0.65000000000E+04  0.30000000000E+03 0.  1.
     100001    1    1    2    0    0 -0.42113932058E+03 -0.54330612123E+03  0.64617961807E+04  0.65000000000E+04  0.15050000000E+03 0. -1.
     100001    1    1    2    0    0  0.42113932058E+03  0.54330612123E+03 -0.64617961807E+04  0.65000000000E+04  0.15050000000E+03 0.  1.
</event>
<event>
 4    1  0.5143956E-004  0.6500000E+04  0.7818608E-02  0.7223770E-01
         52   -1    0    0    0    0  0.00000000000E+00  0.00000000000E+00  0.64930732323E+04  0.65000000000E+04  0.30000000000E+03 0.  1.
        -52   -1    0    0    0    0 -0.00000000000E+00 -0.00000000000E+00 -0.64930732323E+04  0.65000000000E+04  0.30000000000E+03 0. -1.
     100001    1    1    2    0    0  0.98386421673E+03  0.37230950020E+04 -0.52343026813E+04  0.65000000000E+04  0.15050000000E+03 0. -1.
     100001    1    1    2    0    0 -0.98386421673E+03 -0.37230950020E+04  0.52343026813E+04  0.65000000000E+04  0.15050000000E+03 0.  1.
</event>
<event>
 4    1  0.5143956E-004  0.6500000E+04  0.7818608E-02  0.7223770E-01
         52   -1    0    0    0    0  0.00000000000E+00  0.00000000000E+00  0.64930732323E+04  0.65000000000E+04  0.30000000000E+03 0.  1.
        -52   -1    0    0    0    0 -0.00000000000E+00 -0.00000000000E+00 -0.64930732323E+04  0.65000000000E+04  0.30000000000E+03 0. -1.
     100001    1    1    2    0    0 -0.78035394019E+03  0.84092625088E+02 -0.64506841427E+04  0.65000000000E+04  0.15050000000E+03 0. -1.
     100001    1    1    2    0    0  0.78035394019E+03 -0.84092625088E+02  0.64506841427E+04  0.65000000000E+04  0.15050000000E+03 0.  1.
</event>
<event>
 4    1  0.5143956E-004  0.6500000E+04  0.7818608E-02  0.7223770E-01
         52   -1    0    0    0    0  0.00000000000E+00  0.00000000000E+00  0.64930732323E+04  0.65000000000E+04  0.30000000000E+03 0. -1.
        -52   -1    0    0    0    0 -0.00000000000E+00 -0.00000000000E+00 -0.64930732323E+04  0.65000000000E+04  0.30000000000E+03 0.  1.
     100001    1    1    2    0    0 -0.25237130822E+04 -0.19621347624E+04  0.56575833359E+04  0.65000000000E+04  0.15050000000E+03 0. -1.
     100001    1    1    2    0    0  0.25237130822E+04  0.19621347624E+04 -0.56575833359E+04  0.65000000000E+04  0.15050000000E+03 0.  1.
</event>
<event>
 4    1  0.5143956E-004  0.6500000E+04  0.7818608E-02  0.7223770E-01
         52   -1    0    0    0    0  0.00000000000E+00  0.00000000000E+00  0.64930732323E+04  0.65000000000E+04  0.30000000000E+03 0. -1.
        -52   -1    0    0    0    0 -0.00000000000E+00 -0.00000000000E+00 -0.64930732323E+04  0.65000000000E+04  0.30000000000E+03 0.  1.
     100001    1    1    2    0    0  0.96945309151E+03  0.16206555161E+04  0.62177959239E+04  0.65000000000E+04  0.15050000000E+03 0. -1.
     100001    1    1    2    0    0 -0.96945309151E+03 -0.16206555161E+04 -0.62177959239E+04  0.65000000000E+04  0.15050000000E+03 0.  1.
</event>
<event>
 4    1  0.5143956E-004  0.6500000E+04  0.7818608E-02  0.7223770E-01
         52   -1    0    0    0    0  0.00000000000E+00  0.00000000000E+00  0.64930732323E+04  0.65000000000E+04  0.30000000000E+03 0. -1.
        -52   -1    0    0    0    0 -0.00000000000E+00 -0.00000000000E+00 -0.64930732323E+04  0.65000000000E+04  0.30000000000E+03 0.  1.
     100001    1    1    2    0    0  0.13277817015E+04 -0.12291944295E+04  0.62412680248E+04  0.65000000000E+04  0.15050000000E+03 0. -1.
     100001    1    1    2    0    0 -0.13277817015E+04  0.12291944295E+04 -0.62412680248E+04  0.65000000000E+04  0.15050000000E+03 0.  1.
</event>
<event>
 4    1  0.8905771E-004  0.6500000E+04  0.7818608E-02  0.7223770E-01
         52   -1    0    0    0    0  0.00000000000E+00  0.00000000000E+00  0.64930732323E+04  0.65000000000E+04  0.30000000000E+03 0.  1.
        -52   -1    0    0    0    0 -0.00000000000E+00 -0.00000000000E+00 -0.64930732323E+04  0.65000000000E+04  0.30000000000E+03 0.  1.
     100001    1    1    2    0    0 -0.13379837691E+02 -0.32588004394E+02 -0.64981619518E+04  0.65000000000E+04  0.15050000000E+03 0.  1.
     100001    1    1    2    0    0  0.13379837691E+02  0.32588004394E+02  0.64981619518E+04  0.65000000000E+04  0.15050000000E+03 0.  1.
</event>
<event>
 4    1  0.5143956E-004  0.6500000E+04  0.7818608E-02  0.7223770E-01
         52   -1    0    0    0    0  0.00000000000E+00  0.00000000000E+00  0.64930732323E+04  0.65000000000E+04  0.30000000000E+03 0.  1.
        -52   -1    0    0    0    0 -0.00000000000E+00 -0.00000000000E+00 -0.64930732323E+04  0.65000000000E+04  0.30000000000E+03 0. -1.
     100001    1    1    2    0    0  0.59510119329E+04  0.25949449230E+04  0.28118956353E+03  0.65000000000E+04  0.15050000000E+03 0.  1.
     100001    1    1    2    0    0 -0.59510119329E+04 -0.25949449230E+04 -0.28118956353E+03  0.65000000000E+04  0.15050000000E+03 0. -1.
</event>
<event>
 4    1  0.7107786E-004  0.6500000E+04  0.7818608E-02  0.7223770E-01
         52   -1    0    0    0    0  0.00000000000E+00  0.00000000000E+00  0.64930732323E+04  0.65000000000E+04  0.30000000000E+03 0. -1.
        -52   -1    0    0    0    0 -0.00000000000E+00 -0.00000000000E+00 -0.64930732323E+04  0.65000000000E+04  0.30000000000E+03 0. -1.
     100001    1    1    2    0    0  0.14667775399E+03  0.85876545169E+02 -0.64960342214E+04  0.65000000000E+04  0.15050000000E+03 0. -1.
     100001    1    1    2    0    0 -0.14667775399E+03 -0.85876545169E+02  0.64960342214E+04  0.65000000000E+04  0.15050000000E+03 0. -1.
</event>
<event>
 4    1  0.5143956E-004  0.6500000E+04  0.7818608E-02  0.7223770E-01
         52   -1    0    0    0    0  0.00000000000E+00  0.00000000000E+00  0.64930732323E+04  0.65000000000E+04  0.30000000000E+03 0. -1.
        -52   -1    0    0    0    0 -0.00000000000E+00 -0.00000000000E+00 -0.64930732323E+04  0.65000000000E+04  0.30000000000E+03 0.  1.
     100001    1    1    2    0    0 -0.37460773254E+03 -0.15723892395E+03 -0.64855450594E+04  0.65000000000E+04  0.15050000000E+03 0.  1.
     100001    1    1    2    0    0  0.37460773254E+03  0.15723892395E+03  0.64855450594E+04  0.65000000000E+04  0.15050000000E+03 0. -1.
</event>
<event>
 4    1  0.5143956E-004  0.6500000E+04  0.7818608E-02  0.7223770E-01
         52   -1    0    0    0    0  0.00000000000E+00  0.00000000000E+00  0.64930732323E+04  0.65000000000E+04  0.30000000000E+03 0. -1.
        -52   -1    0    0    0    0 -0.00000000000E+00 -0.00000000000E+00 -0.64930732323E+04  0.65000000000E+04  0.30000000000E+03 0.  1.
     100001    1    1    2    0    0 -0.83837091885E+03  0.11501987070E+04  0.63404674029E+04  0.65000000000E+04  0.15050000000E+03 0. -1.
     100001    1    1    2    0    0  0.83837091885E+03 -0.11501987070E+04 -0.63404674029E+04  0.65000000000E+04  0.15050000000E+03 0.  1.
</event>
<event>
 4    1  0.5143956E-004  0.6500000E+04  0.7818608E-02  0.7223770E-01
         52   -1    0    0    0    0  0.00000000000E+00  0.00000000000E+00  0.64930732323E+04  0.65000000000E+04  0.30000000000E+03 0. -1.
        -52   -1    0    0    0    0 -0.00000000000E+00 -0.00000000000E+00 -0.64930732323E+04  0.65000000000E+04  0.30000000000E+03 0.  1.
     100001    1    1    2    0    0  0.45624627684E+03 -0.79584608989E+03  0.64331810239E+04  0.65000000000E+04  0.15050000000E+03 0. -1.
     100001    1    1    2    0    0 -0.45624627684E+03  0.79584608989E+03 -0.64331810239E+04  0.65000000000E+04  0.15050000000E+03 0.  1.
</event>
<event>
 4    1  0.5143956E-004  0.6500000E+04  0.7818608E-02  0.7223770E-01
         52   -1    0    0    0    0  0.00000000000E+00  0.00000000000E+00  0.64930732323E+04  0.65000000000E+04  0.30000000000E+03 0. -1.
        -52   -1    0    0    0    0 -0.00000000000E+00 -0.00000000000E+00 -0.64930732323E+04  0.65000000000E+04  0.30000000000E+03 0.  1.
     100001    1    1    2    0    0 -0.22358029030E+04  0.93704081877E+03 -0.60291367237E+04  0.65000000000E+04  0.15050000000E+03 0.  1.
     100001    1    1    2    0    0  0.22358029030E+04 -0.93704081877E+03  0.60291367237E+04  0.65000000000E+04  0.15050000000E+03 0. -1.
</event>
<event>
 4    1  0.5143956E-004  0.6500000E+04  0.7818608E-02  0.7223770E-01
         52   -1    0    0    0    0  0.00000000000E+00  0.00000000000E+00  0.64930732323E+04  0.65000000000E+04  0.30000000000E+03 0. -1.
        -52   -1    0    0    0    0 -0.00000000000E+00 -0.00000000000E+00 -0.64930732323E+04  0.65000000000E+04  0.30000000000E+03 0.  1.
     100001    1    1    2    0    0  0.12047808669E+04 -0.22054476627E+03 -0.63817875880E+04  0.65000000000E+04  0.15050000000E+03 0.  1.
     100001    1    1    2    0    0 -0.12047808669E+04  0.22054476627E+03  0.63817875880E+04  0.65000000000E+04  0.15050000000E+03 0. -1.
</event>
<event>
 4    1  0.5143956E-004  0.6500000E+04  0.7818608E-02  0.7223770E-01
         52   -1    0    0    0    0  0.00000000000E+00  0.00000000000E+00  0.64930732323E+04  0.65000000000E+04  0.30000000000E+03 0. -1.
        -52   -1    0    0    0    0 -0.00000000000E+00 -0.00000000000E+00 -0.64930732323E+04  0.65000000000E+04  0.30000000000E+03 0.  1.
     100001    1    1    2    0    0  0.29074706055E+02 -0.12302676070E+04  0.63806697162E+04  0.65000000000E+04  0.15050000000E+03 0. -1.
     100001    1    1    2    0    0 -0.29074706055E+02  0.12302676070E+04 -0.63806697162E+04  0.65000000000E+04  0.15050000000E+03 0.  1.
</event>
<event>
 4    1  0.5143956E-004  0.6500000E+04  0.7818608E-02  0.7223770E-01
         52   -1    0    0    0    0  0.00000000000E+00  0.00000000000E+00  0.64930732323E+04  0.65000000000E+04  0.30000000000E+03 0.  1.
        -52   -1    0    0    0    0 -0.00000000000E+00 -0.00000000000E+00 -0.64930732323E+04  0.65000000000E+04  0.30000000000E+03 0. -1.
     100001    1    1    2    0    0 -0.30899462040E+04  0.56854678657E+03  0.56882630704E+04  0.65000000000E+04  0.15050000000E+03 0.  1.
     100001    1    1    2    0    0  0.30899462040E+04 -0.56854678657E+03 -0.56882630704E+04  0.65000000000E+04  0.15050000000E+03 0. -1.
</event>
<event>
 4    1  0.5143956E-004  0.6500000E+04  0.7818608E-02  0.7223770E-01
         52   -1    0    0    0    0  0.00000000000E+00  0.00000000000E+00  0.64930732323E+04  0.65000000000E+04  0.30000000000E+03 0.  1.
        -52   -1    0    0    0    0 -0.00000000000E+00 -0.00000000000E+00 -0.64930732323E+04  0.65000000000E+04  0.30000000000E+03 0. -1.
     100001    1    1    2    0    0 -0.30655031569E+03 -0.13064501854E+04 -0.63581887804E+04  0.65000000000E+04  0.15050000000E+03 0. -1.
     100001    1    1    2    0    0  0.30655031569E+03  0.13064501854E+04  0.63581887804E+04  0.65000000000E+04  0.15050000000E+03 0.  1.
</event>
<event>
 4    1  0.5143956E-004  0.6500000E+04  0.7818608E-02  0.7223770E-01
         52   -1    0    0    0    0  0.00000000000E+00  0.00000000000E+00  0.64930732323E+04  0.65000000000E+04  0.30000000000E+03 0. -1.
        -52   -1    0    0    0    0 -0.00000000000E+00 -0.00000000000E+00 -0.64930732323E+04  0.65000000000E+04  0.30000000000E+03 0.  1.
     100001    1    1    2    0    0 -0.96557246989E+03 -0.10405695460E+04 -0.63413117393E+04  0.65000000000E+04  0.15050000000E+03 0.  1.
     100001    1    1    2    0    0  0.96557246989E+03  0.10405695460E+04  0.63413117393E+04  0.65000000000E+04  0.15050000000E+03 0. -1.
</event>
<event>
 4    1  0.5143956E-004  0.6500000E+04  0.7818608E-02  0.7223770E-01
         52   -1    0    0    0    0  0.00000000000E+00  0.00000000000E+00  0.64930732323E+04  0.65000000000E+04  0.30000000000E+03 0. -1.
        -52   -1    0    0    0    0 -0.00000000000E+00 -0.00000000000E+00 -0.64930732323E+04  0.65000000000E+04  0.30000000000E+03 0.  1.
     100001    1    1    2    0    0 -0.42782668984E+03  0.33072382200E+04  0.55773191974E+04  0.65000000000E+04  0.15050000000E+03 0. -1.
     100001    1    1    2    0    0  0.42782668984E+03 -0.33072382200E+04 -0.55773191974E+04  0.65000000000E+04  0.15050000000E+03 0.  1.
</event>
<event>
 4    1  0.5143956E-004  0.6500000E+04  0.7818608E-02  0.7223770E-01
         52   -1    0    0    0    0  0.00000000000E+00  0.00000000000E+00  0.64930732323E+04  0.65000000000E+04  0.30000000000E+03 0. -1.
        -52   -1    0    0    0    0 -0.00000000000E+00 -0.00000000000E+00 -0.64930732323E+04  0.65000000000E+04  0.30000000000E+03 0.  1.
     100001    1    1    2    0    0 -0.69437828999E+03 -0.59373208275E+03 -0.64337136052E+04  0.65000000000E+04  0.15050000000E+03 0.  1.
     100001    1    1    2    0    0  0.69437828999E+03  0.59373208275E+03  0.64337136052E+04  0.65000000000E+04  0.15050000000E+03 0. -1.
</event>
<event>
 4    1  0.5143956E-004  0.6500000E+04  0.7818608E-02  0.7223770E-01
         52   -1    0    0    0    0  0.00000000000E+00  0.00000000000E+00  0.64930732323E+04  0.65000000000E+04  0.30000000000E+03 0.  1.
        -52   -1    0    0    0    0 -0.00000000000E+00 -0.00000000000E+00 -0.64930732323E+04  0.65000000000E+04  0.30000000000E+03 0. -1.
     100001    1    1    2    0    0  0.16855581035E+04 -0.17957453867E+04  0.60134467767E+04  0.65000000000E+04  0.15050000000E+03 0.  1.
     100001    1    1    2    0    0 -0.16855581035E+04  0.17957453867E+04 -0.60134467767E+04  0.65000000000E+04  0.15050000000E+03 0. -1.
</event>
<event>
 4    1  0.5143956E-004  0.6500000E+04  0.7818608E-02  0.7223770E-01
         52   -1    0    0    0    0  0.00000000000E+00  0.00000000000E+00  0.64930732323E+04  0.65000000000E+04  0.30000000000E+03 0. -1.
        -52   -1    0    0    0    0 -0.00000000000E+00 -0.00000000000E+00 -0.64930732323E+04  0.65000000000E+04  0.30000000000E+03 0.  1.
     100001    1    1    2    0    0 -0.30320461055E+03 -0.85021067277E+03 -0.64352590100E+04  0.65000000000E+04  0.15050000000E+03 0.  1.
     100001    1    1    2    0    0  0.30320461055E+03  0.85021067277E+03  0.64352590100E+04  0.65000000000E+04  0.15050000000E+03 0. -1.
</event>
<event>
 4    1  0.5143956E-004  0.6500000E+04  0.7818608E-02  0.7223770E-01
         52   -1    0    0    0    0  0.00000000000E+00  0.00000000000E+00  0.64930732323E+04  0.65000000000E+04  0.30000000000E+03 0.  1.
        -52   -1    0    0    0    0 -0.00000000000E+00 -0.00000000000E+00 -0.64930732323E+04  0.65000000000E+04  0.30000000000E+03 0. -1.
     100001    1    1    2    0    0  0.16962942780E+02  0.44648622208E+03  0.64828783779E+04  0.65000000000E+04  0.15050000000E+03 0.  1.
     100001    1    1    2    0    0 -0.16962942780E+02 -0.44648622208E+03 -0.64828783779E+04  0.65000000000E+04  0.15050000000E+03 0. -1.
</event>
<event>
 4    1  0.5143956E-004  0.6500000E+04  0.7818608E-02  0.7223770E-01
         52   -1    0    0    0    0  0.00000000000E+00  0.00000000000E+00  0.64930732323E+04  0.65000000000E+04  0.30000000000E+03 0.  1.
        -52   -1    0    0    0    0 -0.00000000000E+00 -0.00000000000E+00 -0.64930732323E+04  0.65000000000E+04  0.30000000000E+03 0.  1.
     100001    1    1    2    0    0 -0.40504025471E+03 -0.24762056177E+03 -0.64808931637E+04  0.65000000000E+04  0.15050000000E+03 0.  1.
     100001    1    1    2    0    0  0.40504025471E+03  0.24762056177E+03  0.64808931637E+04  0.65000000000E+04  0.15050000000E+03 0.  1.
</event>
<event>
 4    1  0.5143956E-004  0.6500000E+04  0.7818608E-02  0.7223770E-01
         52   -1    0    0    0    0  0.00000000000E+00  0.00000000000E+00  0.64930732323E+04  0.65000000000E+04  0.30000000000E+03 0. -1.
        -52   -1    0    0    0    0 -0.00000000000E+00 -0.00000000000E+00 -0.64930732323E+04  0.65000000000E+04  0.30000000000E+03 0.  1.
     100001    1    1    2    0    0 -0.22673353229E+04  0.29881875002E+04 -0.53063429730E+04  0.65000000000E+04  0.15050000000E+03 0.  1.
     100001    1    1    2    0    0  0.22673353229E+04 -0.29881875002E+04  0.53063429730E+04  0.65000000000E+04  0.15050000000E+03 0. -1.
</event>
<event>
 4    1  0.5143956E-004  0.6500000E+04  0.7818608E-02  0.7223770E-01
         52   -1    0    0    0    0  0.00000000000E+00  0.00000000000E+00  0.64930732323E+04  0.65000000000E+04  0.30000000000E+03 0.  1.
        -52   -1    0    0    0    0 -0.00000000000E+00 -0.00000000000E+00 -0.64930732323E+04  0.65000000000E+04  0.30000000000E+03 0. -1.
     100001    1    1    2    0    0 -0.39608592972E+03  0.13163837053E+04 -0.63511888357E+04  0.65000000000E+04  0.15050000000E+03 0. -1.
     100001    1    1    2    0    0  0.39608592972E+03 -0.13163837053E+04  0.63511888357E+04  0.65000000000E+04  0.15050000000E+03 0.  1.
</event>
<event>
 4    1  0.5143956E-004  0.6500000E+04  0.7818608E-02  0.7223770E-01
         52   -1    0    0    0    0  0.00000000000E+00  0.00000000000E+00  0.64930732323E+04  0.65000000000E+04  0.30000000000E+03 0. -1.
        -52   -1    0    0    0    0 -0.00000000000E+00 -0.00000000000E+00 -0.64930732323E+04  0.65000000000E+04  0.30000000000E+03 0.  1.
     100001    1    1    2    0    0 -0.47166525120E+04  0.11888083460E+04  0.43089759280E+04  0.65000000000E+04  0.15050000000E+03 0. -1.
     100001    1    1    2    0    0  0.47166525120E+04 -0.11888083460E+04 -0.43089759280E+04  0.65000000000E+04  0.15050000000E+03 0.  1.
</event>
<event>
 4    1  0.5143956E-004  0.6500000E+04  0.7818608E-02  0.7223770E-01
         52   -1    0    0    0    0  0.00000000000E+00  0.00000000000E+00  0.64930732323E+04  0.65000000000E+04  0.30000000000E+03 0. -1.
        -52   -1    0    0    0    0 -0.00000000000E+00 -0.00000000000E+00 -0.64930732323E+04  0.65000000000E+04  0.30000000000E+03 0.  1.
     100001    1    1    2    0    0 -0.35106208405E+02  0.17025937816E+03  0.64959317306E+04  0.65000000000E+04  0.15050000000E+03 0. -1.
     100001    1    1    2    0    0  0.35106208405E+02 -0.17025937816E+03 -0.64959317306E+04  0.65000000000E+04  0.15050000000E+03 0.  1.
</event>
<event>
 4    1  0.5143956E-004  0.6500000E+04  0.7818608E-02  0.7223770E-01
         52   -1    0    0    0    0  0.00000000000E+00  0.00000000000E+00  0.64930732323E+04  0.65000000000E+04  0.30000000000E+03 0. -1.
        -52   -1    0    0    0    0 -0.00000000000E+00 -0.00000000000E+00 -0.64930732323E+04  0.65000000000E+04  0.30000000000E+03 0.  1.
     100001    1    1    2    0    0 -0.11514486108E+04  0.78106384477E+03 -0.63475550503E+04  0.65000000000E+04  0.15050000000E+03 0.  1.
     100001    1    1    2    0    0  0.11514486108E+04 -0.78106384477E+03  0.63475550503E+04  0.65000000000E+04  0.15050000000E+03 0. -1.
</event>
<event>
 4    1  0.5143956E-004  0.6500000E+04  0.7818608E-02  0.7223770E-01
         52   -1    0    0    0    0  0.00000000000E+00  0.00000000000E+00  0.64930732323E+04  0.65000000000E+04  0.30000000000E+03 0. -1.
        -52   -1    0    0    0    0 -0.00000000000E+00 -0.00000000000E+00 -0.64930732323E+04  0.65000000000E+04  0.30000000000E+03 0.  1.
     100001    1    1    2    0    0  0.42261382462E+04  0.13057960788E+04  0.47604623593E+04  0.65000000000E+04  0.15050000000E+03 0. -1.
     100001    1    1    2    0    0 -0.42261382462E+04 -0.13057960788E+04 -0.47604623593E+04  0.65000000000E+04  0.15050000000E+03 0.  1.
</event>
<event>
 4    1  0.5143956E-004  0.6500000E+04  0.7818608E-02  0.7223770E-01
         52   -1    0    0    0    0  0.00000000000E+00  0.00000000000E+00  0.64930732323E+04  0.65000000000E+04  0.30000000000E+03 0.  1.
        -52   -1    0    0    0    0 -0.00000000000E+00 -0.00000000000E+00 -0.64930732323E+04  0.65000000000E+04  0.30000000000E+03 0. -1.
     100001    1    1    2    0    0 -0.40975832640E+03 -0.34865243368E+03  0.64759469844E+04  0.65000000000E+04  0.15050000000E+03 0.  1.
     100001    1    1    2    0    0  0.40975832640E+03  0.34865243368E+03 -0.64759469844E+04  0.65000000000E+04  0.15050000000E+03 0. -1.
</event>
<event>
 4    1  0.5143956E-004  0.6500000E+04  0.7818608E-02  0.7223770E-01
         52   -1    0    0    0    0  0.00000000000E+00  0.00000000000E+00  0.64930732323E+04  0.65000000000E+04  0.30000000000E+03 0. -1.
        -52   -1    0    0    0    0 -0.00000000000E+00 -0.00000000000E+00 -0.64930732323E+04  0.65000000000E+04  0.30000000000E+03 0.  1.
     100001    1    1    2    0    0 -0.85250298088E+03 -0.86954541553E+03 -0.63831402294E+04  0.65000000000E+04  0.15050000000E+03 0.  1.
     100001    1    1    2    0    0  0.85250298088E+03  0.86954541553E+03  0.63831402294E+04  0.65000000000E+04  0.15050000000E+03 0. -1.
</event>
<event>
 4    1  0.5143956E-004  0.6500000E+04  0.7818608E-02  0.7223770E-01
         52   -1    0    0    0    0  0.00000000000E+00  0.00000000000E+00  0.64930732323E+04  0.65000000000E+04  0.30000000000E+03 0. -1.
        -52   -1    0    0    0    0 -0.00000000000E+00 -0.00000000000E+00 -0.64930732323E+04  0.65000000000E+04  0.30000000000E+03 0.  1.
     100001    1    1    2    0    0  0.16450177427E+03  0.30523121729E+03  0.64890001403E+04  0.65000000000E+04  0.15050000000E+03 0. -1.
     100001    1    1    2    0    0 -0.16450177427E+03 -0.30523121729E+03 -0.64890001403E+04  0.65000000000E+04  0.15050000000E+03 0.  1.
</event>
<event>
 4    1  0.5143956E-004  0.6500000E+04  0.7818608E-02  0.7223770E-01
         52   -1    0    0    0    0  0.00000000000E+00  0.00000000000E+00  0.64930732323E+04  0.65000000000E+04  0.30000000000E+03 0.  1.
        -52   -1    0    0    0    0 -0.00000000000E+00 -0.00000000000E+00 -0.64930732323E+04  0.65000000000E+04  0.30000000000E+03 0.  1.
     100001    1    1    2    0    0 -0.11056338554E+03 -0.47336287148E+02  0.64971443545E+04  0.65000000000E+04  0.15050000000E+03 0.  1.
     100001    1    1    2    0    0  0.11056338554E+03  0.47336287148E+02 -0.64971443545E+04  0.65000000000E+04  0.15050000000E+03 0.  1.
</event>
<event>
 4    1  0.5143956E-004  0.6500000E+04  0.7818608E-02  0.7223770E-01
         52   -1    0    0    0    0  0.00000000000E+00  0.00000000000E+00  0.64930732323E+04  0.65000000000E+04  0.30000000000E+03 0. -1.
        -52   -1    0    0    0    0 -0.00000000000E+00 -0.00000000000E+00 -0.64930732323E+04  0.65000000000E+04  0.30000000000E+03 0.  1.
     100001    1    1    2    0    0  0.11336571776E+04  0.40600881392E+03  0.63857128026E+04  0.65000000000E+04  0.15050000000E+03 0. -1.
     100001    1    1    2    0    0 -0.11336571776E+04 -0.40600881392E+03 -0.63857128026E+04  0.65000000000E+04  0.15050000000E+03 0.  1.
</event>
<event>
 4    1  0.5143956E-004  0.6500000E+04  0.7818608E-02  0.7223770E-01
         52   -1    0    0    0    0  0.00000000000E+00  0.00000000000E+00  0.64930732323E+04  0.65000000000E+04  0.30000000000E+03 0.  1.
        -52   -1    0    0    0    0 -0.00000000000E+00 -0.00000000000E+00 -0.64930732323E+04  0.65000000000E+04  0.30000000000E+03 0. -1.
     100001    1    1    2    0    0  0.30525532734E+03  0.40117412486E+03 -0.64786748843E+04  0.65000000000E+04  0.15050000000E+03 0. -1.
     100001    1    1    2    0    0 -0.30525532734E+03 -0.40117412486E+03  0.64786748843E+04  0.65000000000E+04  0.15050000000E+03 0.  1.
</event>
<event>
 4    1  0.5143956E-004  0.6500000E+04  0.7818608E-02  0.7223770E-01
         52   -1    0    0    0    0  0.00000000000E+00  0.00000000000E+00  0.64930732323E+04  0.65000000000E+04  0.30000000000E+03 0.  1.
        -52   -1    0    0    0    0 -0.00000000000E+00 -0.00000000000E+00 -0.64930732323E+04  0.65000000000E+04  0.30000000000E+03 0. -1.
     100001    1    1    2    0    0  0.60943575116E+02 -0.10631219474E+04  0.64104139769E+04  0.65000000000E+04  0.15050000000E+03 0.  1.
     100001    1    1    2    0    0 -0.60943575116E+02  0.10631219474E+04 -0.64104139769E+04  0.65000000000E+04  0.15050000000E+03 0. -1.
</event>
<event>
 4    1  0.5143956E-004  0.6500000E+04  0.7818608E-02  0.7223770E-01
         52   -1    0    0    0    0  0.00000000000E+00  0.00000000000E+00  0.64930732323E+04  0.65000000000E+04  0.30000000000E+03 0. -1.
        -52   -1    0    0    0    0 -0.00000000000E+00 -0.00000000000E+00 -0.64930732323E+04  0.65000000000E+04  0.30000000000E+03 0.  1.
     100001    1    1    2    0    0  0.13602187417E+04 -0.48504063989E+02  0.63541169395E+04  0.65000000000E+04  0.15050000000E+03 0. -1.
     100001    1    1    2    0    0 -0.13602187417E+04  0.48504063989E+02 -0.63541169395E+04  0.65000000000E+04  0.15050000000E+03 0.  1.
</event>
<event>
 4    1  0.5143956E-004  0.6500000E+04  0.7818608E-02  0.7223770E-01
         52   -1    0    0    0    0  0.00000000000E+00  0.00000000000E+00  0.64930732323E+04  0.65000000000E+04  0.30000000000E+03 0. -1.
        -52   -1    0    0    0    0 -0.00000000000E+00 -0.00000000000E+00 -0.64930732323E+04  0.65000000000E+04  0.30000000000E+03 0.  1.
     100001    1    1    2    0    0  0.57894771260E+04 -0.10421698035E+04  0.27610118541E+04  0.65000000000E+04  0.15050000000E+03 0. -1.
     100001    1    1    2    0    0 -0.57894771260E+04  0.10421698035E+04 -0.27610118541E+04  0.65000000000E+04  0.15050000000E+03 0.  1.
</event>
<event>
 4    1  0.5143956E-004  0.6500000E+04  0.7818608E-02  0.7223770E-01
         52   -1    0    0    0    0  0.00000000000E+00  0.00000000000E+00  0.64930732323E+04  0.65000000000E+04  0.30000000000E+03 0.  1.
        -52   -1    0    0    0    0 -0.00000000000E+00 -0.00000000000E+00 -0.64930732323E+04  0.65000000000E+04  0.30000000000E+03 0. -1.
     100001    1    1    2    0    0  0.62572872701E+04 -0.17411403323E+04 -0.20527082674E+03  0.65000000000E+04  0.15050000000E+03 0.  1.
     100001    1    1    2    0    0 -0.62572872701E+04  0.17411403323E+04  0.20527082674E+03  0.65000000000E+04  0.15050000000E+03 0. -1.
</event>
<event>
 4    1  0.5143956E-004  0.6500000E+04  0.7818608E-02  0.7223770E-01
         52   -1    0    0    0    0  0.00000000000E+00  0.00000000000E+00  0.64930732323E+04  0.65000000000E+04  0.30000000000E+03 0.  1.
        -52   -1    0    0    0    0 -0.00000000000E+00 -0.00000000000E+00 -0.64930732323E+04  0.65000000000E+04  0.30000000000E+03 0. -1.
     100001    1    1    2    0    0  0.13804031378E+04  0.23152480821E+04 -0.59128219359E+04  0.65000000000E+04  0.15050000000E+03 0. -1.
     100001    1    1    2    0    0 -0.13804031378E+04 -0.23152480821E+04  0.59128219359E+04  0.65000000000E+04  0.15050000000E+03 0.  1.
</event>
<event>
 4    1  0.5143956E-004  0.6500000E+04  0.7818608E-02  0.7223770E-01
         52   -1    0    0    0    0  0.00000000000E+00  0.00000000000E+00  0.64930732323E+04  0.65000000000E+04  0.30000000000E+03 0. -1.
        -52   -1    0    0    0    0 -0.00000000000E+00 -0.00000000000E+00 -0.64930732323E+04  0.65000000000E+04  0.30000000000E+03 0.  1.
     100001    1    1    2    0    0  0.16065724468E+04  0.21102685865E+04  0.59323723093E+04  0.65000000000E+04  0.15050000000E+03 0. -1.
     100001    1    1    2    0    0 -0.16065724468E+04 -0.21102685865E+04 -0.59323723093E+04  0.65000000000E+04  0.15050000000E+03 0.  1.
</event>
<event>
 4    1  0.5143956E-004  0.6500000E+04  0.7818608E-02  0.7223770E-01
         52   -1    0    0    0    0  0.00000000000E+00  0.00000000000E+00  0.64930732323E+04  0.65000000000E+04  0.30000000000E+03 0.  1.
        -52   -1    0    0    0    0 -0.00000000000E+00 -0.00000000000E+00 -0.64930732323E+04  0.65000000000E+04  0.30000000000E+03 0. -1.
     100001    1    1    2    0    0  0.58015394382E+03 -0.54242946963E+04  0.35309769468E+04  0.65000000000E+04  0.15050000000E+03 0.  1.
     100001    1    1    2    0    0 -0.58015394382E+03  0.54242946963E+04 -0.35309769468E+04  0.65000000000E+04  0.15050000000E+03 0. -1.
</event>
<event>
 4    1  0.5143956E-004  0.6500000E+04  0.7818608E-02  0.7223770E-01
         52   -1    0    0    0    0  0.00000000000E+00  0.00000000000E+00  0.64930732323E+04  0.65000000000E+04  0.30000000000E+03 0.  1.
        -52   -1    0    0    0    0 -0.00000000000E+00 -0.00000000000E+00 -0.64930732323E+04  0.65000000000E+04  0.30000000000E+03 0. -1.
     100001    1    1    2    0    0 -0.13110420335E+04 -0.25811010953E+03  0.63593944450E+04  0.65000000000E+04  0.15050000000E+03 0.  1.
     100001    1    1    2    0    0  0.13110420335E+04  0.25811010953E+03 -0.63593944450E+04  0.65000000000E+04  0.15050000000E+03 0. -1.
</event>
<event>
 4    1  0.5143956E-004  0.6500000E+04  0.7818608E-02  0.7223770E-01
         52   -1    0    0    0    0  0.00000000000E+00  0.00000000000E+00  0.64930732323E+04  0.65000000000E+04  0.30000000000E+03 0.  1.
        -52   -1    0    0    0    0 -0.00000000000E+00 -0.00000000000E+00 -0.64930732323E+04  0.65000000000E+04  0.30000000000E+03 0. -1.
     100001    1    1    2    0    0 -0.82100593352E+02 -0.96606473531E+03 -0.64255216263E+04  0.65000000000E+04  0.15050000000E+03 0. -1.
     100001    1    1    2    0    0  0.82100593352E+02  0.96606473531E+03  0.64255216263E+04  0.65000000000E+04  0.15050000000E+03 0.  1.
</event>
<event>
 4    1  0.5143956E-004  0.6500000E+04  0.7818608E-02  0.7223770E-01
         52   -1    0    0    0    0  0.00000000000E+00  0.00000000000E+00  0.64930732323E+04  0.65000000000E+04  0.30000000000E+03 0.  1.
        -52   -1    0    0    0    0 -0.00000000000E+00 -0.00000000000E+00 -0.64930732323E+04  0.65000000000E+04  0.30000000000E+03 0. -1.
     100001    1    1    2    0    0 -0.10320637338E+04  0.63898226028E+04  0.57650785269E+03  0.65000000000E+04  0.15050000000E+03 0. -1.
     100001    1    1    2    0    0  0.10320637338E+04 -0.63898226028E+04 -0.57650785269E+03  0.65000000000E+04  0.15050000000E+03 0.  1.
</event>
<event>
 4    1  0.5143956E-004  0.6500000E+04  0.7818608E-02  0.7223770E-01
         52   -1    0    0    0    0  0.00000000000E+00  0.00000000000E+00  0.64930732323E+04  0.65000000000E+04  0.30000000000E+03 0.  1.
        -52   -1    0    0    0    0 -0.00000000000E+00 -0.00000000000E+00 -0.64930732323E+04  0.65000000000E+04  0.30000000000E+03 0. -1.
     100001    1    1    2    0    0 -0.14412324365E+02 -0.48077978491E+03 -0.64804315314E+04  0.65000000000E+04  0.15050000000E+03 0. -1.
     100001    1    1    2    0    0  0.14412324365E+02  0.48077978491E+03  0.64804315314E+04  0.65000000000E+04  0.15050000000E+03 0.  1.
</event>
<event>
 4    1  0.5143956E-004  0.6500000E+04  0.7818608E-02  0.7223770E-01
         52   -1    0    0    0    0  0.00000000000E+00  0.00000000000E+00  0.64930732323E+04  0.65000000000E+04  0.30000000000E+03 0. -1.
        -52   -1    0    0    0    0 -0.00000000000E+00 -0.00000000000E+00 -0.64930732323E+04  0.65000000000E+04  0.30000000000E+03 0.  1.
     100001    1    1    2    0    0 -0.45923210853E+04 -0.38277720321E+04 -0.25467819046E+04  0.65000000000E+04  0.15050000000E+03 0.  1.
     100001    1    1    2    0    0  0.45923210853E+04  0.38277720321E+04  0.25467819046E+04  0.65000000000E+04  0.15050000000E+03 0. -1.
</event>
<event>
 4    1  0.5143956E-004  0.6500000E+04  0.7818608E-02  0.7223770E-01
         52   -1    0    0    0    0  0.00000000000E+00  0.00000000000E+00  0.64930732323E+04  0.65000000000E+04  0.30000000000E+03 0. -1.
        -52   -1    0    0    0    0 -0.00000000000E+00 -0.00000000000E+00 -0.64930732323E+04  0.65000000000E+04  0.30000000000E+03 0. -1.
     100001    1    1    2    0    0  0.34434342831E+03  0.16733693647E+03 -0.64869696857E+04  0.65000000000E+04  0.15050000000E+03 0. -1.
     100001    1    1    2    0    0 -0.34434342831E+03 -0.16733693647E+03  0.64869696857E+04  0.65000000000E+04  0.15050000000E+03 0. -1.
</event>
<event>
 4    1  0.5143956E-004  0.6500000E+04  0.7818608E-02  0.7223770E-01
         52   -1    0    0    0    0  0.00000000000E+00  0.00000000000E+00  0.64930732323E+04  0.65000000000E+04  0.30000000000E+03 0. -1.
        -52   -1    0    0    0    0 -0.00000000000E+00 -0.00000000000E+00 -0.64930732323E+04  0.65000000000E+04  0.30000000000E+03 0.  1.
     100001    1    1    2    0    0  0.53170145609E+03 -0.27364625400E+03  0.64706847427E+04  0.65000000000E+04  0.15050000000E+03 0. -1.
     100001    1    1    2    0    0 -0.53170145609E+03  0.27364625400E+03 -0.64706847427E+04  0.65000000000E+04  0.15050000000E+03 0.  1.
</event>
<event>
 4    1  0.5143956E-004  0.6500000E+04  0.7818608E-02  0.7223770E-01
         52   -1    0    0    0    0  0.00000000000E+00  0.00000000000E+00  0.64930732323E+04  0.65000000000E+04  0.30000000000E+03 0. -1.
        -52   -1    0    0    0    0 -0.00000000000E+00 -0.00000000000E+00 -0.64930732323E+04  0.65000000000E+04  0.30000000000E+03 0. -1.
     100001    1    1    2    0    0  0.10364860081E+04  0.85041561063E+02 -0.64145003264E+04  0.65000000000E+04  0.15050000000E+03 0. -1.
     100001    1    1    2    0    0 -0.10364860081E+04 -0.85041561063E+02  0.64145003264E+04  0.65000000000E+04  0.15050000000E+03 0. -1.
</event>
<event>
 4    1  0.5143956E-004  0.6500000E+04  0.7818608E-02  0.7223770E-01
         52   -1    0    0    0    0  0.00000000000E+00  0.00000000000E+00  0.64930732323E+04  0.65000000000E+04  0.30000000000E+03 0. -1.
        -52   -1    0    0    0    0 -0.00000000000E+00 -0.00000000000E+00 -0.64930732323E+04  0.65000000000E+04  0.30000000000E+03 0. -1.
     100001    1    1    2    0    0 -0.13270467629E+02  0.23557033417E+02 -0.64982011904E+04  0.65000000000E+04  0.15050000000E+03 0. -1.
     100001    1    1    2    0    0  0.13270467629E+02 -0.23557033417E+02  0.64982011904E+04  0.65000000000E+04  0.15050000000E+03 0. -1.
</event>
<event>
 4    1  0.5143956E-004  0.6500000E+04  0.7818608E-02  0.7223770E-01
         52   -1    0    0    0    0  0.00000000000E+00  0.00000000000E+00  0.64930732323E+04  0.65000000000E+04  0.30000000000E+03 0. -1.
        -52   -1    0    0    0    0 -0.00000000000E+00 -0.00000000000E+00 -0.64930732323E+04  0.65000000000E+04  0.30000000000E+03 0.  1.
     100001    1    1    2    0    0  0.26499870386E+04  0.19299442369E+03  0.59302336883E+04  0.65000000000E+04  0.15050000000E+03 0. -1.
     100001    1    1    2    0    0 -0.26499870386E+04 -0.19299442369E+03 -0.59302336883E+04  0.65000000000E+04  0.15050000000E+03 0.  1.
</event>
<event>
 4    1  0.5143956E-004  0.6500000E+04  0.7818608E-02  0.7223770E-01
         52   -1    0    0    0    0  0.00000000000E+00  0.00000000000E+00  0.64930732323E+04  0.65000000000E+04  0.30000000000E+03 0. -1.
        -52   -1    0    0    0    0 -0.00000000000E+00 -0.00000000000E+00 -0.64930732323E+04  0.65000000000E+04  0.30000000000E+03 0.  1.
     100001    1    1    2    0    0  0.58948679483E+03 -0.53571977978E+04  0.36304664746E+04  0.65000000000E+04  0.15050000000E+03 0. -1.
     100001    1    1    2    0    0 -0.58948679483E+03  0.53571977978E+04 -0.36304664746E+04  0.65000000000E+04  0.15050000000E+03 0.  1.
</event>
<event>
 4    1  0.5143956E-004  0.6500000E+04  0.7818608E-02  0.7223770E-01
         52   -1    0    0    0    0  0.00000000000E+00  0.00000000000E+00  0.64930732323E+04  0.65000000000E+04  0.30000000000E+03 0.  1.
        -52   -1    0    0    0    0 -0.00000000000E+00 -0.00000000000E+00 -0.64930732323E+04  0.65000000000E+04  0.30000000000E+03 0. -1.
     100001    1    1    2    0    0 -0.53295686932E+03 -0.81500882885E+03  0.64248787797E+04  0.65000000000E+04  0.15050000000E+03 0.  1.
     100001    1    1    2    0    0  0.53295686932E+03  0.81500882885E+03 -0.64248787797E+04  0.65000000000E+04  0.15050000000E+03 0. -1.
</event>
<event>
 4    1  0.5143956E-004  0.6500000E+04  0.7818608E-02  0.7223770E-01
         52   -1    0    0    0    0  0.00000000000E+00  0.00000000000E+00  0.64930732323E+04  0.65000000000E+04  0.30000000000E+03 0.  1.
        -52   -1    0    0    0    0 -0.00000000000E+00 -0.00000000000E+00 -0.64930732323E+04  0.65000000000E+04  0.30000000000E+03 0. -1.
     100001    1    1    2    0    0  0.19892988979E+03 -0.54641087273E+03 -0.64721875596E+04  0.65000000000E+04  0.15050000000E+03 0. -1.
     100001    1    1    2    0    0 -0.19892988979E+03  0.54641087273E+03  0.64721875596E+04  0.65000000000E+04  0.15050000000E+03 0.  1.
</event>
<event>
 4    1  0.5143956E-004  0.6500000E+04  0.7818608E-02  0.7223770E-01
         52   -1    0    0    0    0  0.00000000000E+00  0.00000000000E+00  0.64930732323E+04  0.65000000000E+04  0.30000000000E+03 0.  1.
        -52   -1    0    0    0    0 -0.00000000000E+00 -0.00000000000E+00 -0.64930732323E+04  0.65000000000E+04  0.30000000000E+03 0. -1.
     100001    1    1    2    0    0  0.10432015583E+04  0.49890138526E+03 -0.63945428036E+04  0.65000000000E+04  0.15050000000E+03 0. -1.
     100001    1    1    2    0    0 -0.10432015583E+04 -0.49890138526E+03  0.63945428036E+04  0.65000000000E+04  0.15050000000E+03 0.  1.
</event>
<event>
 4    1  0.5143956E-004  0.6500000E+04  0.7818608E-02  0.7223770E-01
         52   -1    0    0    0    0  0.00000000000E+00  0.00000000000E+00  0.64930732323E+04  0.65000000000E+04  0.30000000000E+03 0.  1.
        -52   -1    0    0    0    0 -0.00000000000E+00 -0.00000000000E+00 -0.64930732323E+04  0.65000000000E+04  0.30000000000E+03 0. -1.
     100001    1    1    2    0    0  0.66128652890E+02 -0.10596004838E+04  0.64109456062E+04  0.65000000000E+04  0.15050000000E+03 0.  1.
     100001    1    1    2    0    0 -0.66128652890E+02  0.10596004838E+04 -0.64109456062E+04  0.65000000000E+04  0.15050000000E+03 0. -1.
</event>
<event>
 4    1  0.5143956E-004  0.6500000E+04  0.7818608E-02  0.7223770E-01
         52   -1    0    0    0    0  0.00000000000E+00  0.00000000000E+00  0.64930732323E+04  0.65000000000E+04  0.30000000000E+03 0.  1.
        -52   -1    0    0    0    0 -0.00000000000E+00 -0.00000000000E+00 -0.64930732323E+04  0.65000000000E+04  0.30000000000E+03 0. -1.
     100001    1    1    2    0    0 -0.19561003716E+04  0.49594830626E+03 -0.61769779313E+04  0.65000000000E+04  0.15050000000E+03 0. -1.
     100001    1    1    2    0    0  0.19561003716E+04 -0.49594830626E+03  0.61769779313E+04  0.65000000000E+04  0.15050000000E+03 0.  1.
</event>
<event>
 4    1  0.5143956E-004  0.6500000E+04  0.7818608E-02  0.7223770E-01
         52   -1    0    0    0    0  0.00000000000E+00  0.00000000000E+00  0.64930732323E+04  0.65000000000E+04  0.30000000000E+03 0.  1.
        -52   -1    0    0    0    0 -0.00000000000E+00 -0.00000000000E+00 -0.64930732323E+04  0.65000000000E+04  0.30000000000E+03 0. -1.
     100001    1    1    2    0    0  0.27279333728E+04 -0.20869919143E+04 -0.55163569512E+04  0.65000000000E+04  0.15050000000E+03 0. -1.
     100001    1    1    2    0    0 -0.27279333728E+04  0.20869919143E+04  0.55163569512E+04  0.65000000000E+04  0.15050000000E+03 0.  1.
</event>
<event>
 4    1  0.5143956E-004  0.6500000E+04  0.7818608E-02  0.7223770E-01
         52   -1    0    0    0    0  0.00000000000E+00  0.00000000000E+00  0.64930732323E+04  0.65000000000E+04  0.30000000000E+03 0. -1.
        -52   -1    0    0    0    0 -0.00000000000E+00 -0.00000000000E+00 -0.64930732323E+04  0.65000000000E+04  0.30000000000E+03 0.  1.
     100001    1    1    2    0    0 -0.16065590569E+04 -0.18653406843E+04  0.60138857553E+04  0.65000000000E+04  0.15050000000E+03 0. -1.
     100001    1    1    2    0    0  0.16065590569E+04  0.18653406843E+04 -0.60138857553E+04  0.65000000000E+04  0.15050000000E+03 0.  1.
</event>
<event>
 4    1  0.5143956E-004  0.6500000E+04  0.7818608E-02  0.7223770E-01
         52   -1    0    0    0    0  0.00000000000E+00  0.00000000000E+00  0.64930732323E+04  0.65000000000E+04  0.30000000000E+03 0. -1.
        -52   -1    0    0    0    0 -0.00000000000E+00 -0.00000000000E+00 -0.64930732323E+04  0.65000000000E+04  0.30000000000E+03 0.  1.
     100001    1    1    2    0    0 -0.61552356845E+03  0.58598316885E+04  0.27405935615E+04  0.65000000000E+04  0.15050000000E+03 0. -1.
     100001    1    1    2    0    0  0.61552356845E+03 -0.58598316885E+04 -0.27405935615E+04  0.65000000000E+04  0.15050000000E+03 0.  1.
</event>
<event>
 4    1  0.5143956E-004  0.6500000E+04  0.7818608E-02  0.7223770E-01
         52   -1    0    0    0    0  0.00000000000E+00  0.00000000000E+00  0.64930732323E+04  0.65000000000E+04  0.30000000000E+03 0. -1.
        -52   -1    0    0    0    0 -0.00000000000E+00 -0.00000000000E+00 -0.64930732323E+04  0.65000000000E+04  0.30000000000E+03 0.  1.
     100001    1    1    2    0    0  0.56050547946E+04  0.32773026637E+04  0.26457087869E+03  0.65000000000E+04  0.15050000000E+03 0. -1.
     100001    1    1    2    0    0 -0.56050547946E+04 -0.32773026637E+04 -0.26457087869E+03  0.65000000000E+04  0.15050000000E+03 0.  1.
</event>
<event>
 4    1  0.5143956E-004  0.6500000E+04  0.7818608E-02  0.7223770E-01
         52   -1    0    0    0    0  0.00000000000E+00  0.00000000000E+00  0.64930732323E+04  0.65000000000E+04  0.30000000000E+03 0. -1.
        -52   -1    0    0    0    0 -0.00000000000E+00 -0.00000000000E+00 -0.64930732323E+04  0.65000000000E+04  0.30000000000E+03 0. -1.
     100001    1    1    2    0    0 -0.13909771070E+04  0.41102560499E+03 -0.63343184629E+04  0.65000000000E+04  0.15050000000E+03 0. -1.
     100001    1    1    2    0    0  0.13909771070E+04 -0.41102560499E+03  0.63343184629E+04  0.65000000000E+04  0.15050000000E+03 0. -1.
</event>
<event>
 4    1  0.5143956E-004  0.6500000E+04  0.7818608E-02  0.7223770E-01
         52   -1    0    0    0    0  0.00000000000E+00  0.00000000000E+00  0.64930732323E+04  0.65000000000E+04  0.30000000000E+03 0. -1.
        -52   -1    0    0    0    0 -0.00000000000E+00 -0.00000000000E+00 -0.64930732323E+04  0.65000000000E+04  0.30000000000E+03 0.  1.
     100001    1    1    2    0    0  0.91655628936E+03 -0.49284947144E+04 -0.41348777695E+04  0.65000000000E+04  0.15050000000E+03 0.  1.
     100001    1    1    2    0    0 -0.91655628936E+03  0.49284947144E+04  0.41348777695E+04  0.65000000000E+04  0.15050000000E+03 0. -1.
</event>
<event>
 4    1  0.5143956E-004  0.6500000E+04  0.7818608E-02  0.7223770E-01
         52   -1    0    0    0    0  0.00000000000E+00  0.00000000000E+00  0.64930732323E+04  0.65000000000E+04  0.30000000000E+03 0. -1.
        -52   -1    0    0    0    0 -0.00000000000E+00 -0.00000000000E+00 -0.64930732323E+04  0.65000000000E+04  0.30000000000E+03 0.  1.
     100001    1    1    2    0    0 -0.20449434431E+04 -0.59203702147E+04 -0.17305411249E+04  0.65000000000E+04  0.15050000000E+03 0.  1.
     100001    1    1    2    0    0  0.20449434431E+04  0.59203702147E+04  0.17305411249E+04  0.65000000000E+04  0.15050000000E+03 0. -1.
</event>
<event>
 4    1  0.7327677E-004  0.6500000E+04  0.7818608E-02  0.7223770E-01
         52   -1    0    0    0    0  0.00000000000E+00  0.00000000000E+00  0.64930732323E+04  0.65000000000E+04  0.30000000000E+03 0. -1.
        -52   -1    0    0    0    0 -0.00000000000E+00 -0.00000000000E+00 -0.64930732323E+04  0.65000000000E+04  0.30000000000E+03 0. -1.
     100001    1    1    2    0    0 -0.82871570119E+02 -0.14864652498E+03  0.64960284993E+04  0.65000000000E+04  0.15050000000E+03 0. -1.
     100001    1    1    2    0    0  0.82871570119E+02  0.14864652498E+03 -0.64960284993E+04  0.65000000000E+04  0.15050000000E+03 0. -1.
</event>
<event>
 4    1  0.5143956E-004  0.6500000E+04  0.7818608E-02  0.7223770E-01
         52   -1    0    0    0    0  0.00000000000E+00  0.00000000000E+00  0.64930732323E+04  0.65000000000E+04  0.30000000000E+03 0. -1.
        -52   -1    0    0    0    0 -0.00000000000E+00 -0.00000000000E+00 -0.64930732323E+04  0.65000000000E+04  0.30000000000E+03 0. -1.
     100001    1    1    2    0    0  0.38090041646E+03 -0.26379268636E+03 -0.64817187567E+04  0.65000000000E+04  0.15050000000E+03 0. -1.
     100001    1    1    2    0    0 -0.38090041646E+03  0.26379268636E+03  0.64817187567E+04  0.65000000000E+04  0.15050000000E+03 0. -1.
</event>
<event>
 4    1  0.5143956E-004  0.6500000E+04  0.7818608E-02  0.7223770E-01
         52   -1    0    0    0    0  0.00000000000E+00  0.00000000000E+00  0.64930732323E+04  0.65000000000E+04  0.30000000000E+03 0.  1.
        -52   -1    0    0    0    0 -0.00000000000E+00 -0.00000000000E+00 -0.64930732323E+04  0.65000000000E+04  0.30000000000E+03 0. -1.
     100001    1    1    2    0    0  0.60466002102E+03 -0.27543388132E+03 -0.64641992687E+04  0.65000000000E+04  0.15050000000E+03 0. -1.
     100001    1    1    2    0    0 -0.60466002102E+03  0.27543388132E+03  0.64641992687E+04  0.65000000000E+04  0.15050000000E+03 0.  1.
</event>
<event>
 4    1  0.5143956E-004  0.6500000E+04  0.7818608E-02  0.7223770E-01
         52   -1    0    0    0    0  0.00000000000E+00  0.00000000000E+00  0.64930732323E+04  0.65000000000E+04  0.30000000000E+03 0.  1.
        -52   -1    0    0    0    0 -0.00000000000E+00 -0.00000000000E+00 -0.64930732323E+04  0.65000000000E+04  0.30000000000E+03 0. -1.
     100001    1    1    2    0    0  0.21083696910E+04 -0.46833691594E+04  0.39809773062E+04  0.65000000000E+04  0.15050000000E+03 0.  1.
     100001    1    1    2    0    0 -0.21083696910E+04  0.46833691594E+04 -0.39809773062E+04  0.65000000000E+04  0.15050000000E+03 0. -1.
</event>
<event>
 4    1  0.5143956E-004  0.6500000E+04  0.7818608E-02  0.7223770E-01
         52   -1    0    0    0    0  0.00000000000E+00  0.00000000000E+00  0.64930732323E+04  0.65000000000E+04  0.30000000000E+03 0. -1.
        -52   -1    0    0    0    0 -0.00000000000E+00 -0.00000000000E+00 -0.64930732323E+04  0.65000000000E+04  0.30000000000E+03 0. -1.
     100001    1    1    2    0    0 -0.68042654612E+03  0.35029935824E+03  0.64530349313E+04  0.65000000000E+04  0.15050000000E+03 0. -1.
     100001    1    1    2    0    0  0.68042654612E+03 -0.35029935824E+03 -0.64530349313E+04  0.65000000000E+04  0.15050000000E+03 0. -1.
</event>
<event>
 4    1  0.5143956E-004  0.6500000E+04  0.7818608E-02  0.7223770E-01
         52   -1    0    0    0    0  0.00000000000E+00  0.00000000000E+00  0.64930732323E+04  0.65000000000E+04  0.30000000000E+03 0. -1.
        -52   -1    0    0    0    0 -0.00000000000E+00 -0.00000000000E+00 -0.64930732323E+04  0.65000000000E+04  0.30000000000E+03 0.  1.
     100001    1    1    2    0    0 -0.12530199247E+04  0.12258426057E+03  0.63751285412E+04  0.65000000000E+04  0.15050000000E+03 0. -1.
     100001    1    1    2    0    0  0.12530199247E+04 -0.12258426057E+03 -0.63751285412E+04  0.65000000000E+04  0.15050000000E+03 0.  1.
</event>
<event>
 4    1  0.5348210E-004  0.6500000E+04  0.7818608E-02  0.7223770E-01
         52   -1    0    0    0    0  0.00000000000E+00  0.00000000000E+00  0.64930732323E+04  0.65000000000E+04  0.30000000000E+03 0. -1.
        -52   -1    0    0    0    0 -0.00000000000E+00 -0.00000000000E+00 -0.64930732323E+04  0.65000000000E+04  0.30000000000E+03 0. -1.
     100001    1    1    2    0    0 -0.86336372668E+02  0.21447451409E+03  0.64941432432E+04  0.65000000000E+04  0.15050000000E+03 0. -1.
     100001    1    1    2    0    0  0.86336372668E+02 -0.21447451409E+03 -0.64941432432E+04  0.65000000000E+04  0.15050000000E+03 0. -1.
</event>
<event>
 4    1  0.5143956E-004  0.6500000E+04  0.7818608E-02  0.7223770E-01
         52   -1    0    0    0    0  0.00000000000E+00  0.00000000000E+00  0.64930732323E+04  0.65000000000E+04  0.30000000000E+03 0. -1.
        -52   -1    0    0    0    0 -0.00000000000E+00 -0.00000000000E+00 -0.64930732323E+04  0.65000000000E+04  0.30000000000E+03 0.  1.
     100001    1    1    2    0    0  0.41473677405E+01 -0.12513856503E+04  0.63766265771E+04  0.65000000000E+04  0.15050000000E+03 0. -1.
     100001    1    1    2    0    0 -0.41473677405E+01  0.12513856503E+04 -0.63766265771E+04  0.65000000000E+04  0.15050000000E+03 0.  1.
</event>
<event>
 4    1  0.5143956E-004  0.6500000E+04  0.7818608E-02  0.7223770E-01
         52   -1    0    0    0    0  0.00000000000E+00  0.00000000000E+00  0.64930732323E+04  0.65000000000E+04  0.30000000000E+03 0.  1.
        -52   -1    0    0    0    0 -0.00000000000E+00 -0.00000000000E+00 -0.64930732323E+04  0.65000000000E+04  0.30000000000E+03 0. -1.
     100001    1    1    2    0    0  0.26423146252E+04  0.18832932629E+03 -0.59338061340E+04  0.65000000000E+04  0.15050000000E+03 0. -1.
     100001    1    1    2    0    0 -0.26423146252E+04 -0.18832932629E+03  0.59338061340E+04  0.65000000000E+04  0.15050000000E+03 0.  1.
</event>
<event>
 4    1  0.5143956E-004  0.6500000E+04  0.7818608E-02  0.7223770E-01
         52   -1    0    0    0    0  0.00000000000E+00  0.00000000000E+00  0.64930732323E+04  0.65000000000E+04  0.30000000000E+03 0.  1.
        -52   -1    0    0    0    0 -0.00000000000E+00 -0.00000000000E+00 -0.64930732323E+04  0.65000000000E+04  0.30000000000E+03 0. -1.
     100001    1    1    2    0    0  0.50416761398E+03 -0.39520387280E+04 -0.51336687329E+04  0.65000000000E+04  0.15050000000E+03 0. -1.
     100001    1    1    2    0    0 -0.50416761398E+03  0.39520387280E+04  0.51336687329E+04  0.65000000000E+04  0.15050000000E+03 0.  1.
</event>
<event>
 4    1  0.5143956E-004  0.6500000E+04  0.7818608E-02  0.7223770E-01
         52   -1    0    0    0    0  0.00000000000E+00  0.00000000000E+00  0.64930732323E+04  0.65000000000E+04  0.30000000000E+03 0.  1.
        -52   -1    0    0    0    0 -0.00000000000E+00 -0.00000000000E+00 -0.64930732323E+04  0.65000000000E+04  0.30000000000E+03 0. -1.
     100001    1    1    2    0    0 -0.70456404198E+03  0.55762102990E+03  0.64358370122E+04  0.65000000000E+04  0.15050000000E+03 0.  1.
     100001    1    1    2    0    0  0.70456404198E+03 -0.55762102990E+03 -0.64358370122E+04  0.65000000000E+04  0.15050000000E+03 0. -1.
</event>
<event>
 4    1  0.5143956E-004  0.6500000E+04  0.7818608E-02  0.7223770E-01
         52   -1    0    0    0    0  0.00000000000E+00  0.00000000000E+00  0.64930732323E+04  0.65000000000E+04  0.30000000000E+03 0. -1.
        -52   -1    0    0    0    0 -0.00000000000E+00 -0.00000000000E+00 -0.64930732323E+04  0.65000000000E+04  0.30000000000E+03 0.  1.
     100001    1    1    2    0    0 -0.83532592393E+03  0.17791080063E+04  0.61938965969E+04  0.65000000000E+04  0.15050000000E+03 0. -1.
     100001    1    1    2    0    0  0.83532592393E+03 -0.17791080063E+04 -0.61938965969E+04  0.65000000000E+04  0.15050000000E+03 0.  1.
</event>
<event>
 4    1  0.5143956E-004  0.6500000E+04  0.7818608E-02  0.7223770E-01
         52   -1    0    0    0    0  0.00000000000E+00  0.00000000000E+00  0.64930732323E+04  0.65000000000E+04  0.30000000000E+03 0.  1.
        -52   -1    0    0    0    0 -0.00000000000E+00 -0.00000000000E+00 -0.64930732323E+04  0.65000000000E+04  0.30000000000E+03 0. -1.
     100001    1    1    2    0    0  0.97388407710E+03 -0.26810526105E+04 -0.58387375737E+04  0.65000000000E+04  0.15050000000E+03 0. -1.
     100001    1    1    2    0    0 -0.97388407710E+03  0.26810526105E+04  0.58387375737E+04  0.65000000000E+04  0.15050000000E+03 0.  1.
</event>
<event>
 4    1  0.5143956E-004  0.6500000E+04  0.7818608E-02  0.7223770E-01
         52   -1    0    0    0    0  0.00000000000E+00  0.00000000000E+00  0.64930732323E+04  0.65000000000E+04  0.30000000000E+03 0. -1.
        -52   -1    0    0    0    0 -0.00000000000E+00 -0.00000000000E+00 -0.64930732323E+04  0.65000000000E+04  0.30000000000E+03 0.  1.
     100001    1    1    2    0    0  0.24357552735E+03  0.41936735731E+03  0.64801351631E+04  0.65000000000E+04  0.15050000000E+03 0. -1.
     100001    1    1    2    0    0 -0.24357552735E+03 -0.41936735731E+03 -0.64801351631E+04  0.65000000000E+04  0.15050000000E+03 0.  1.
</event>
<event>
 4    1  0.5143956E-004  0.6500000E+04  0.7818608E-02  0.7223770E-01
         52   -1    0    0    0    0  0.00000000000E+00  0.00000000000E+00  0.64930732323E+04  0.65000000000E+04  0.30000000000E+03 0.  1.
        -52   -1    0    0    0    0 -0.00000000000E+00 -0.00000000000E+00 -0.64930732323E+04  0.65000000000E+04  0.30000000000E+03 0. -1.
     100001    1    1    2    0    0 -0.95931688534E+03  0.45647971671E+04 -0.45243438957E+04  0.65000000000E+04  0.15050000000E+03 0. -1.
     100001    1    1    2    0    0  0.95931688534E+03 -0.45647971671E+04  0.45243438957E+04  0.65000000000E+04  0.15050000000E+03 0.  1.
</event>
<event>
 4    1  0.5143956E-004  0.6500000E+04  0.7818608E-02  0.7223770E-01
         52   -1    0    0    0    0  0.00000000000E+00  0.00000000000E+00  0.64930732323E+04  0.65000000000E+04  0.30000000000E+03 0.  1.
        -52   -1    0    0    0    0 -0.00000000000E+00 -0.00000000000E+00 -0.64930732323E+04  0.65000000000E+04  0.30000000000E+03 0. -1.
     100001    1    1    2    0    0  0.28117844758E+02 -0.68125659141E+03 -0.64623872209E+04  0.65000000000E+04  0.15050000000E+03 0. -1.
     100001    1    1    2    0    0 -0.28117844758E+02  0.68125659141E+03  0.64623872209E+04  0.65000000000E+04  0.15050000000E+03 0.  1.
</event>
<event>
 4    1  0.5143956E-004  0.6500000E+04  0.7818608E-02  0.7223770E-01
         52   -1    0    0    0    0  0.00000000000E+00  0.00000000000E+00  0.64930732323E+04  0.65000000000E+04  0.30000000000E+03 0. -1.
        -52   -1    0    0    0    0 -0.00000000000E+00 -0.00000000000E+00 -0.64930732323E+04  0.65000000000E+04  0.30000000000E+03 0.  1.
     100001    1    1    2    0    0 -0.26561396030E+04  0.55372123693E+04  0.21240412747E+04  0.65000000000E+04  0.15050000000E+03 0. -1.
     100001    1    1    2    0    0  0.26561396030E+04 -0.55372123693E+04 -0.21240412747E+04  0.65000000000E+04  0.15050000000E+03 0.  1.
</event>
<event>
 4    1  0.5143956E-004  0.6500000E+04  0.7818608E-02  0.7223770E-01
         52   -1    0    0    0    0  0.00000000000E+00  0.00000000000E+00  0.64930732323E+04  0.65000000000E+04  0.30000000000E+03 0. -1.
        -52   -1    0    0    0    0 -0.00000000000E+00 -0.00000000000E+00 -0.64930732323E+04  0.65000000000E+04  0.30000000000E+03 0.  1.
     100001    1    1    2    0    0  0.56698281909E+03  0.19710914672E+04  0.61660910357E+04  0.65000000000E+04  0.15050000000E+03 0. -1.
     100001    1    1    2    0    0 -0.56698281909E+03 -0.19710914672E+04 -0.61660910357E+04  0.65000000000E+04  0.15050000000E+03 0.  1.
</event>
<event>
 4    1  0.5143956E-004  0.6500000E+04  0.7818608E-02  0.7223770E-01
         52   -1    0    0    0    0  0.00000000000E+00  0.00000000000E+00  0.64930732323E+04  0.65000000000E+04  0.30000000000E+03 0. -1.
        -52   -1    0    0    0    0 -0.00000000000E+00 -0.00000000000E+00 -0.64930732323E+04  0.65000000000E+04  0.30000000000E+03 0.  1.
     100001    1    1    2    0    0 -0.42601807920E+03  0.20173718380E+04 -0.61624726542E+04  0.65000000000E+04  0.15050000000E+03 0.  1.
     100001    1    1    2    0    0  0.42601807920E+03 -0.20173718380E+04  0.61624726542E+04  0.65000000000E+04  0.15050000000E+03 0. -1.
</event>
<event>
 4    1  0.5143956E-004  0.6500000E+04  0.7818608E-02  0.7223770E-01
         52   -1    0    0    0    0  0.00000000000E+00  0.00000000000E+00  0.64930732323E+04  0.65000000000E+04  0.30000000000E+03 0. -1.
        -52   -1    0    0    0    0 -0.00000000000E+00 -0.00000000000E+00 -0.64930732323E+04  0.65000000000E+04  0.30000000000E+03 0.  1.
     100001    1    1    2    0    0 -0.98925673607E+03  0.60697499062E+04  0.20992515180E+04  0.65000000000E+04  0.15050000000E+03 0. -1.
     100001    1    1    2    0    0  0.98925673607E+03 -0.60697499062E+04 -0.20992515180E+04  0.65000000000E+04  0.15050000000E+03 0.  1.
</event>
<event>
 4    1  0.5143956E-004  0.6500000E+04  0.7818608E-02  0.7223770E-01
         52   -1    0    0    0    0  0.00000000000E+00  0.00000000000E+00  0.64930732323E+04  0.65000000000E+04  0.30000000000E+03 0.  1.
        -52   -1    0    0    0    0 -0.00000000000E+00 -0.00000000000E+00 -0.64930732323E+04  0.65000000000E+04  0.30000000000E+03 0.  1.
     100001    1    1    2    0    0 -0.12682799677E+02  0.23793116151E+03  0.64938877153E+04  0.65000000000E+04  0.15050000000E+03 0.  1.
     100001    1    1    2    0    0  0.12682799677E+02 -0.23793116151E+03 -0.64938877153E+04  0.65000000000E+04  0.15050000000E+03 0.  1.
</event>
<event>
 4    1  0.5143956E-004  0.6500000E+04  0.7818608E-02  0.7223770E-01
         52   -1    0    0    0    0  0.00000000000E+00  0.00000000000E+00  0.64930732323E+04  0.65000000000E+04  0.30000000000E+03 0. -1.
        -52   -1    0    0    0    0 -0.00000000000E+00 -0.00000000000E+00 -0.64930732323E+04  0.65000000000E+04  0.30000000000E+03 0.  1.
     100001    1    1    2    0    0 -0.94290989609E+03  0.88148301729E+03  0.63687721240E+04  0.65000000000E+04  0.15050000000E+03 0. -1.
     100001    1    1    2    0    0  0.94290989609E+03 -0.88148301729E+03 -0.63687721240E+04  0.65000000000E+04  0.15050000000E+03 0.  1.
</event>
<event>
 4    1  0.5143956E-004  0.6500000E+04  0.7818608E-02  0.7223770E-01
         52   -1    0    0    0    0  0.00000000000E+00  0.00000000000E+00  0.64930732323E+04  0.65000000000E+04  0.30000000000E+03 0. -1.
        -52   -1    0    0    0    0 -0.00000000000E+00 -0.00000000000E+00 -0.64930732323E+04  0.65000000000E+04  0.30000000000E+03 0.  1.
     100001    1    1    2    0    0  0.28992432178E+04 -0.58612157982E+03 -0.57860349124E+04  0.65000000000E+04  0.15050000000E+03 0.  1.
     100001    1    1    2    0    0 -0.28992432178E+04  0.58612157982E+03  0.57860349124E+04  0.65000000000E+04  0.15050000000E+03 0. -1.
</event>
<event>
 4    1  0.5143956E-004  0.6500000E+04  0.7818608E-02  0.7223770E-01
         52   -1    0    0    0    0  0.00000000000E+00  0.00000000000E+00  0.64930732323E+04  0.65000000000E+04  0.30000000000E+03 0. -1.
        -52   -1    0    0    0    0 -0.00000000000E+00 -0.00000000000E+00 -0.64930732323E+04  0.65000000000E+04  0.30000000000E+03 0.  1.
     100001    1    1    2    0    0 -0.24952066768E+03 -0.21760810554E+04 -0.61179866318E+04  0.65000000000E+04  0.15050000000E+03 0.  1.
     100001    1    1    2    0    0  0.24952066768E+03  0.21760810554E+04  0.61179866318E+04  0.65000000000E+04  0.15050000000E+03 0. -1.
</event>
<event>
 4    1  0.5143956E-004  0.6500000E+04  0.7818608E-02  0.7223770E-01
         52   -1    0    0    0    0  0.00000000000E+00  0.00000000000E+00  0.64930732323E+04  0.65000000000E+04  0.30000000000E+03 0.  1.
        -52   -1    0    0    0    0 -0.00000000000E+00 -0.00000000000E+00 -0.64930732323E+04  0.65000000000E+04  0.30000000000E+03 0. -1.
     100001    1    1    2    0    0 -0.79045598754E+03 -0.16039913340E+04 -0.62473787209E+04  0.65000000000E+04  0.15050000000E+03 0. -1.
     100001    1    1    2    0    0  0.79045598754E+03  0.16039913340E+04  0.62473787209E+04  0.65000000000E+04  0.15050000000E+03 0.  1.
</event>
<event>
 4    1  0.5143956E-004  0.6500000E+04  0.7818608E-02  0.7223770E-01
         52   -1    0    0    0    0  0.00000000000E+00  0.00000000000E+00  0.64930732323E+04  0.65000000000E+04  0.30000000000E+03 0.  1.
        -52   -1    0    0    0    0 -0.00000000000E+00 -0.00000000000E+00 -0.64930732323E+04  0.65000000000E+04  0.30000000000E+03 0. -1.
     100001    1    1    2    0    0 -0.49773288684E+03 -0.15070702576E+04 -0.63014562572E+04  0.65000000000E+04  0.15050000000E+03 0. -1.
     100001    1    1    2    0    0  0.49773288684E+03  0.15070702576E+04  0.63014562572E+04  0.65000000000E+04  0.15050000000E+03 0.  1.
</event>
<event>
 4    1  0.5143956E-004  0.6500000E+04  0.7818608E-02  0.7223770E-01
         52   -1    0    0    0    0  0.00000000000E+00  0.00000000000E+00  0.64930732323E+04  0.65000000000E+04  0.30000000000E+03 0. -1.
        -52   -1    0    0    0    0 -0.00000000000E+00 -0.00000000000E+00 -0.64930732323E+04  0.65000000000E+04  0.30000000000E+03 0.  1.
     100001    1    1    2    0    0 -0.91063459940E+03 -0.66393887680E+02 -0.64337925229E+04  0.65000000000E+04  0.15050000000E+03 0.  1.
     100001    1    1    2    0    0  0.91063459940E+03  0.66393887680E+02  0.64337925229E+04  0.65000000000E+04  0.15050000000E+03 0. -1.
</event>
<event>
 4    1  0.5143956E-004  0.6500000E+04  0.7818608E-02  0.7223770E-01
         52   -1    0    0    0    0  0.00000000000E+00  0.00000000000E+00  0.64930732323E+04  0.65000000000E+04  0.30000000000E+03 0. -1.
        -52   -1    0    0    0    0 -0.00000000000E+00 -0.00000000000E+00 -0.64930732323E+04  0.65000000000E+04  0.30000000000E+03 0.  1.
     100001    1    1    2    0    0  0.62838307829E+03  0.12831530974E+04 -0.63392430609E+04  0.65000000000E+04  0.15050000000E+03 0.  1.
     100001    1    1    2    0    0 -0.62838307829E+03 -0.12831530974E+04  0.63392430609E+04  0.65000000000E+04  0.15050000000E+03 0. -1.
</event>
<event>
 4    1  0.5143956E-004  0.6500000E+04  0.7818608E-02  0.7223770E-01
         52   -1    0    0    0    0  0.00000000000E+00  0.00000000000E+00  0.64930732323E+04  0.65000000000E+04  0.30000000000E+03 0. -1.
        -52   -1    0    0    0    0 -0.00000000000E+00 -0.00000000000E+00 -0.64930732323E+04  0.65000000000E+04  0.30000000000E+03 0.  1.
     100001    1    1    2    0    0 -0.14371981242E+04  0.18755038988E+03  0.63345588760E+04  0.65000000000E+04  0.15050000000E+03 0. -1.
     100001    1    1    2    0    0  0.14371981242E+04 -0.18755038988E+03 -0.63345588760E+04  0.65000000000E+04  0.15050000000E+03 0.  1.
</event>
<event>
 4    1  0.5143956E-004  0.6500000E+04  0.7818608E-02  0.7223770E-01
         52   -1    0    0    0    0  0.00000000000E+00  0.00000000000E+00  0.64930732323E+04  0.65000000000E+04  0.30000000000E+03 0.  1.
        -52   -1    0    0    0    0 -0.00000000000E+00 -0.00000000000E+00 -0.64930732323E+04  0.65000000000E+04  0.30000000000E+03 0. -1.
     100001    1    1    2    0    0 -0.40118797996E+03 -0.86766469044E+03 -0.64275622082E+04  0.65000000000E+04  0.15050000000E+03 0. -1.
     100001    1    1    2    0    0  0.40118797996E+03  0.86766469044E+03  0.64275622082E+04  0.65000000000E+04  0.15050000000E+03 0.  1.
</event>
<event>
 4    1  0.5143956E-004  0.6500000E+04  0.7818608E-02  0.7223770E-01
         52   -1    0    0    0    0  0.00000000000E+00  0.00000000000E+00  0.64930732323E+04  0.65000000000E+04  0.30000000000E+03 0. -1.
        -52   -1    0    0    0    0 -0.00000000000E+00 -0.00000000000E+00 -0.64930732323E+04  0.65000000000E+04  0.30000000000E+03 0.  1.
     100001    1    1    2    0    0  0.27064200092E+03 -0.13759361591E+04 -0.63451479371E+04  0.65000000000E+04  0.15050000000E+03 0.  1.
     100001    1    1    2    0    0 -0.27064200092E+03  0.13759361591E+04  0.63451479371E+04  0.65000000000E+04  0.15050000000E+03 0. -1.
</event>
<event>
 4    1  0.5143956E-004  0.6500000E+04  0.7818608E-02  0.7223770E-01
         52   -1    0    0    0    0  0.00000000000E+00  0.00000000000E+00  0.64930732323E+04  0.65000000000E+04  0.30000000000E+03 0.  1.
        -52   -1    0    0    0    0 -0.00000000000E+00 -0.00000000000E+00 -0.64930732323E+04  0.65000000000E+04  0.30000000000E+03 0. -1.
     100001    1    1    2    0    0 -0.10232104696E+04  0.30788078326E+03 -0.64098049509E+04  0.65000000000E+04  0.15050000000E+03 0. -1.
     100001    1    1    2    0    0  0.10232104696E+04 -0.30788078326E+03  0.64098049509E+04  0.65000000000E+04  0.15050000000E+03 0.  1.
</event>
<event>
 4    1  0.5143956E-004  0.6500000E+04  0.7818608E-02  0.7223770E-01
         52   -1    0    0    0    0  0.00000000000E+00  0.00000000000E+00  0.64930732323E+04  0.65000000000E+04  0.30000000000E+03 0. -1.
        -52   -1    0    0    0    0 -0.00000000000E+00 -0.00000000000E+00 -0.64930732323E+04  0.65000000000E+04  0.30000000000E+03 0.  1.
     100001    1    1    2    0    0 -0.21614000428E+03 -0.90121689664E+03  0.64318303269E+04  0.65000000000E+04  0.15050000000E+03 0. -1.
     100001    1    1    2    0    0  0.21614000428E+03  0.90121689664E+03 -0.64318303269E+04  0.65000000000E+04  0.15050000000E+03 0.  1.
</event>
<event>
 4    1  0.5143956E-004  0.6500000E+04  0.7818608E-02  0.7223770E-01
         52   -1    0    0    0    0  0.00000000000E+00  0.00000000000E+00  0.64930732323E+04  0.65000000000E+04  0.30000000000E+03 0. -1.
        -52   -1    0    0    0    0 -0.00000000000E+00 -0.00000000000E+00 -0.64930732323E+04  0.65000000000E+04  0.30000000000E+03 0.  1.
     100001    1    1    2    0    0  0.11476691728E+02  0.33703749392E+03 -0.64895010412E+04  0.65000000000E+04  0.15050000000E+03 0.  1.
     100001    1    1    2    0    0 -0.11476691728E+02 -0.33703749392E+03  0.64895010412E+04  0.65000000000E+04  0.15050000000E+03 0. -1.
</event>
<event>
 4    1  0.5143956E-004  0.6500000E+04  0.7818608E-02  0.7223770E-01
         52   -1    0    0    0    0  0.00000000000E+00  0.00000000000E+00  0.64930732323E+04  0.65000000000E+04  0.30000000000E+03 0.  1.
        -52   -1    0    0    0    0 -0.00000000000E+00 -0.00000000000E+00 -0.64930732323E+04  0.65000000000E+04  0.30000000000E+03 0. -1.
     100001    1    1    2    0    0 -0.87608240653E+03  0.79686142740E+03 -0.63894319961E+04  0.65000000000E+04  0.15050000000E+03 0. -1.
     100001    1    1    2    0    0  0.87608240653E+03 -0.79686142740E+03  0.63894319961E+04  0.65000000000E+04  0.15050000000E+03 0.  1.
</event>
<event>
 4    1  0.5143956E-004  0.6500000E+04  0.7818608E-02  0.7223770E-01
         52   -1    0    0    0    0  0.00000000000E+00  0.00000000000E+00  0.64930732323E+04  0.65000000000E+04  0.30000000000E+03 0. -1.
        -52   -1    0    0    0    0 -0.00000000000E+00 -0.00000000000E+00 -0.64930732323E+04  0.65000000000E+04  0.30000000000E+03 0.  1.
     100001    1    1    2    0    0  0.32803507752E+04  0.80938904552E+03 -0.55508141668E+04  0.65000000000E+04  0.15050000000E+03 0.  1.
     100001    1    1    2    0    0 -0.32803507752E+04 -0.80938904552E+03  0.55508141668E+04  0.65000000000E+04  0.15050000000E+03 0. -1.
</event>
<event>
 4    1  0.5143956E-004  0.6500000E+04  0.7818608E-02  0.7223770E-01
         52   -1    0    0    0    0  0.00000000000E+00  0.00000000000E+00  0.64930732323E+04  0.65000000000E+04  0.30000000000E+03 0. -1.
        -52   -1    0    0    0    0 -0.00000000000E+00 -0.00000000000E+00 -0.64930732323E+04  0.65000000000E+04  0.30000000000E+03 0.  1.
     100001    1    1    2    0    0  0.44519542187E+04  0.17300041340E+04 -0.44061932642E+04  0.65000000000E+04  0.15050000000E+03 0.  1.
     100001    1    1    2    0    0 -0.44519542187E+04 -0.17300041340E+04  0.44061932642E+04  0.65000000000E+04  0.15050000000E+03 0. -1.
</event>
<event>
 4    1  0.5143956E-004  0.6500000E+04  0.7818608E-02  0.7223770E-01
         52   -1    0    0    0    0  0.00000000000E+00  0.00000000000E+00  0.64930732323E+04  0.65000000000E+04  0.30000000000E+03 0.  1.
        -52   -1    0    0    0    0 -0.00000000000E+00 -0.00000000000E+00 -0.64930732323E+04  0.65000000000E+04  0.30000000000E+03 0. -1.
     100001    1    1    2    0    0  0.26423655898E+04  0.10948888533E+04 -0.58349354957E+04  0.65000000000E+04  0.15050000000E+03 0. -1.
     100001    1    1    2    0    0 -0.26423655898E+04 -0.10948888533E+04  0.58349354957E+04  0.65000000000E+04  0.15050000000E+03 0.  1.
</event>
<event>
 4    1  0.5143956E-004  0.6500000E+04  0.7818608E-02  0.7223770E-01
         52   -1    0    0    0    0  0.00000000000E+00  0.00000000000E+00  0.64930732323E+04  0.65000000000E+04  0.30000000000E+03 0.  1.
        -52   -1    0    0    0    0 -0.00000000000E+00 -0.00000000000E+00 -0.64930732323E+04  0.65000000000E+04  0.30000000000E+03 0. -1.
     100001    1    1    2    0    0  0.96359136531E+03 -0.16486127405E+04 -0.62113539154E+04  0.65000000000E+04  0.15050000000E+03 0. -1.
     100001    1    1    2    0    0 -0.96359136531E+03  0.16486127405E+04  0.62113539154E+04  0.65000000000E+04  0.15050000000E+03 0.  1.
</event>
<event>
 4    1  0.5143956E-004  0.6500000E+04  0.7818608E-02  0.7223770E-01
         52   -1    0    0    0    0  0.00000000000E+00  0.00000000000E+00  0.64930732323E+04  0.65000000000E+04  0.30000000000E+03 0. -1.
        -52   -1    0    0    0    0 -0.00000000000E+00 -0.00000000000E+00 -0.64930732323E+04  0.65000000000E+04  0.30000000000E+03 0.  1.
     100001    1    1    2    0    0  0.68883708555E+03 -0.23907789851E+04  0.60030849623E+04  0.65000000000E+04  0.15050000000E+03 0. -1.
     100001    1    1    2    0    0 -0.68883708555E+03  0.23907789851E+04 -0.60030849623E+04  0.65000000000E+04  0.15050000000E+03 0.  1.
</event>
<event>
 4    1  0.5143956E-004  0.6500000E+04  0.7818608E-02  0.7223770E-01
         52   -1    0    0    0    0  0.00000000000E+00  0.00000000000E+00  0.64930732323E+04  0.65000000000E+04  0.30000000000E+03 0.  1.
        -52   -1    0    0    0    0 -0.00000000000E+00 -0.00000000000E+00 -0.64930732323E+04  0.65000000000E+04  0.30000000000E+03 0. -1.
     100001    1    1    2    0    0  0.84673814147E+03  0.26316394804E+02 -0.64428015426E+04  0.65000000000E+04  0.15050000000E+03 0. -1.
     100001    1    1    2    0    0 -0.84673814147E+03 -0.26316394804E+02  0.64428015426E+04  0.65000000000E+04  0.15050000000E+03 0.  1.
</event>
<event>
 4    1  0.5143956E-004  0.6500000E+04  0.7818608E-02  0.7223770E-01
         52   -1    0    0    0    0  0.00000000000E+00  0.00000000000E+00  0.64930732323E+04  0.65000000000E+04  0.30000000000E+03 0.  1.
        -52   -1    0    0    0    0 -0.00000000000E+00 -0.00000000000E+00 -0.64930732323E+04  0.65000000000E+04  0.30000000000E+03 0. -1.
     100001    1    1    2    0    0 -0.85323562892E+03  0.50646755898E+03 -0.64220580286E+04  0.65000000000E+04  0.15050000000E+03 0. -1.
     100001    1    1    2    0    0  0.85323562892E+03 -0.50646755898E+03  0.64220580286E+04  0.65000000000E+04  0.15050000000E+03 0.  1.
</event>
<event>
 4    1  0.5143956E-004  0.6500000E+04  0.7818608E-02  0.7223770E-01
         52   -1    0    0    0    0  0.00000000000E+00  0.00000000000E+00  0.64930732323E+04  0.65000000000E+04  0.30000000000E+03 0.  1.
        -52   -1    0    0    0    0 -0.00000000000E+00 -0.00000000000E+00 -0.64930732323E+04  0.65000000000E+04  0.30000000000E+03 0.  1.
     100001    1    1    2    0    0  0.13252224068E+03 -0.11076157930E+02  0.64968965610E+04  0.65000000000E+04  0.15050000000E+03 0.  1.
     100001    1    1    2    0    0 -0.13252224068E+03  0.11076157930E+02 -0.64968965610E+04  0.65000000000E+04  0.15050000000E+03 0.  1.
</event>
<event>
 4    1  0.5143956E-004  0.6500000E+04  0.7818608E-02  0.7223770E-01
         52   -1    0    0    0    0  0.00000000000E+00  0.00000000000E+00  0.64930732323E+04  0.65000000000E+04  0.30000000000E+03 0. -1.
        -52   -1    0    0    0    0 -0.00000000000E+00 -0.00000000000E+00 -0.64930732323E+04  0.65000000000E+04  0.30000000000E+03 0.  1.
     100001    1    1    2    0    0 -0.19041926534E+04  0.61260083282E+04 -0.10360608343E+04  0.65000000000E+04  0.15050000000E+03 0.  1.
     100001    1    1    2    0    0  0.19041926534E+04 -0.61260083282E+04  0.10360608343E+04  0.65000000000E+04  0.15050000000E+03 0. -1.
</event>
<event>
 4    1  0.5143956E-004  0.6500000E+04  0.7818608E-02  0.7223770E-01
         52   -1    0    0    0    0  0.00000000000E+00  0.00000000000E+00  0.64930732323E+04  0.65000000000E+04  0.30000000000E+03 0. -1.
        -52   -1    0    0    0    0 -0.00000000000E+00 -0.00000000000E+00 -0.64930732323E+04  0.65000000000E+04  0.30000000000E+03 0. -1.
     100001    1    1    2    0    0 -0.13856342776E+03 -0.43218053951E+02 -0.64966362163E+04  0.65000000000E+04  0.15050000000E+03 0. -1.
     100001    1    1    2    0    0  0.13856342776E+03  0.43218053951E+02  0.64966362163E+04  0.65000000000E+04  0.15050000000E+03 0. -1.
</event>
<event>
 4    1  0.5143956E-004  0.6500000E+04  0.7818608E-02  0.7223770E-01
         52   -1    0    0    0    0  0.00000000000E+00  0.00000000000E+00  0.64930732323E+04  0.65000000000E+04  0.30000000000E+03 0.  1.
        -52   -1    0    0    0    0 -0.00000000000E+00 -0.00000000000E+00 -0.64930732323E+04  0.65000000000E+04  0.30000000000E+03 0. -1.
     100001    1    1    2    0    0 -0.35458218379E+04 -0.81892258060E+03 -0.53836663206E+04  0.65000000000E+04  0.15050000000E+03 0. -1.
     100001    1    1    2    0    0  0.35458218379E+04  0.81892258060E+03  0.53836663206E+04  0.65000000000E+04  0.15050000000E+03 0.  1.
</event>
<event>
 4    1  0.5143956E-004  0.6500000E+04  0.7818608E-02  0.7223770E-01
         52   -1    0    0    0    0  0.00000000000E+00  0.00000000000E+00  0.64930732323E+04  0.65000000000E+04  0.30000000000E+03 0. -1.
        -52   -1    0    0    0    0 -0.00000000000E+00 -0.00000000000E+00 -0.64930732323E+04  0.65000000000E+04  0.30000000000E+03 0.  1.
     100001    1    1    2    0    0 -0.55132451473E+02  0.70541365545E+03 -0.64596208664E+04  0.65000000000E+04  0.15050000000E+03 0.  1.
     100001    1    1    2    0    0  0.55132451473E+02 -0.70541365545E+03  0.64596208664E+04  0.65000000000E+04  0.15050000000E+03 0. -1.
</event>
<event>
 4    1  0.5143956E-004  0.6500000E+04  0.7818608E-02  0.7223770E-01
         52   -1    0    0    0    0  0.00000000000E+00  0.00000000000E+00  0.64930732323E+04  0.65000000000E+04  0.30000000000E+03 0. -1.
        -52   -1    0    0    0    0 -0.00000000000E+00 -0.00000000000E+00 -0.64930732323E+04  0.65000000000E+04  0.30000000000E+03 0.  1.
     100001    1    1    2    0    0  0.22677935770E+03  0.14790092074E+04 -0.63236423553E+04  0.65000000000E+04  0.15050000000E+03 0.  1.
     100001    1    1    2    0    0 -0.22677935770E+03 -0.14790092074E+04  0.63236423553E+04  0.65000000000E+04  0.15050000000E+03 0. -1.
</event>
<event>
 4    1  0.5143956E-004  0.6500000E+04  0.7818608E-02  0.7223770E-01
         52   -1    0    0    0    0  0.00000000000E+00  0.00000000000E+00  0.64930732323E+04  0.65000000000E+04  0.30000000000E+03 0.  1.
        -52   -1    0    0    0    0 -0.00000000000E+00 -0.00000000000E+00 -0.64930732323E+04  0.65000000000E+04  0.30000000000E+03 0. -1.
     100001    1    1    2    0    0 -0.25571428065E+03  0.46258845386E+03 -0.64767253978E+04  0.65000000000E+04  0.15050000000E+03 0. -1.
     100001    1    1    2    0    0  0.25571428065E+03 -0.46258845386E+03  0.64767253978E+04  0.65000000000E+04  0.15050000000E+03 0.  1.
</event>
<event>
 4    1  0.5143956E-004  0.6500000E+04  0.7818608E-02  0.7223770E-01
         52   -1    0    0    0    0  0.00000000000E+00  0.00000000000E+00  0.64930732323E+04  0.65000000000E+04  0.30000000000E+03 0. -1.
        -52   -1    0    0    0    0 -0.00000000000E+00 -0.00000000000E+00 -0.64930732323E+04  0.65000000000E+04  0.30000000000E+03 0.  1.
     100001    1    1    2    0    0  0.73602425216E+03 -0.60833510294E+02  0.64561534472E+04  0.65000000000E+04  0.15050000000E+03 0. -1.
     100001    1    1    2    0    0 -0.73602425216E+03  0.60833510294E+02 -0.64561534472E+04  0.65000000000E+04  0.15050000000E+03 0.  1.
</event>
<event>
 4    1  0.5143956E-004  0.6500000E+04  0.7818608E-02  0.7223770E-01
         52   -1    0    0    0    0  0.00000000000E+00  0.00000000000E+00  0.64930732323E+04  0.65000000000E+04  0.30000000000E+03 0.  1.
        -52   -1    0    0    0    0 -0.00000000000E+00 -0.00000000000E+00 -0.64930732323E+04  0.65000000000E+04  0.30000000000E+03 0. -1.
     100001    1    1    2    0    0 -0.22914074599E+04 -0.51112958824E+03  0.60593356193E+04  0.65000000000E+04  0.15050000000E+03 0.  1.
     100001    1    1    2    0    0  0.22914074599E+04  0.51112958824E+03 -0.60593356193E+04  0.65000000000E+04  0.15050000000E+03 0. -1.
</event>
<event>
 4    1  0.5143956E-004  0.6500000E+04  0.7818608E-02  0.7223770E-01
         52   -1    0    0    0    0  0.00000000000E+00  0.00000000000E+00  0.64930732323E+04  0.65000000000E+04  0.30000000000E+03 0. -1.
        -52   -1    0    0    0    0 -0.00000000000E+00 -0.00000000000E+00 -0.64930732323E+04  0.65000000000E+04  0.30000000000E+03 0.  1.
     100001    1    1    2    0    0  0.67460350393E+03 -0.26652525261E+04  0.58880122991E+04  0.65000000000E+04  0.15050000000E+03 0. -1.
     100001    1    1    2    0    0 -0.67460350393E+03  0.26652525261E+04 -0.58880122991E+04  0.65000000000E+04  0.15050000000E+03 0.  1.
</event>
<event>
 4    1  0.5143956E-004  0.6500000E+04  0.7818608E-02  0.7223770E-01
         52   -1    0    0    0    0  0.00000000000E+00  0.00000000000E+00  0.64930732323E+04  0.65000000000E+04  0.30000000000E+03 0. -1.
        -52   -1    0    0    0    0 -0.00000000000E+00 -0.00000000000E+00 -0.64930732323E+04  0.65000000000E+04  0.30000000000E+03 0.  1.
     100001    1    1    2    0    0  0.20664133568E+03  0.13929226500E+04 -0.63438486425E+04  0.65000000000E+04  0.15050000000E+03 0.  1.
     100001    1    1    2    0    0 -0.20664133568E+03 -0.13929226500E+04  0.63438486425E+04  0.65000000000E+04  0.15050000000E+03 0. -1.
</event>
<event>
 4    1  0.5143956E-004  0.6500000E+04  0.7818608E-02  0.7223770E-01
         52   -1    0    0    0    0  0.00000000000E+00  0.00000000000E+00  0.64930732323E+04  0.65000000000E+04  0.30000000000E+03 0.  1.
        -52   -1    0    0    0    0 -0.00000000000E+00 -0.00000000000E+00 -0.64930732323E+04  0.65000000000E+04  0.30000000000E+03 0.  1.
     100001    1    1    2    0    0  0.45484005035E+03  0.35530701603E+03 -0.64725750056E+04  0.65000000000E+04  0.15050000000E+03 0.  1.
     100001    1    1    2    0    0 -0.45484005035E+03 -0.35530701603E+03  0.64725750056E+04  0.65000000000E+04  0.15050000000E+03 0.  1.
</event>
<event>
 4    1  0.5143956E-004  0.6500000E+04  0.7818608E-02  0.7223770E-01
         52   -1    0    0    0    0  0.00000000000E+00  0.00000000000E+00  0.64930732323E+04  0.65000000000E+04  0.30000000000E+03 0.  1.
        -52   -1    0    0    0    0 -0.00000000000E+00 -0.00000000000E+00 -0.64930732323E+04  0.65000000000E+04  0.30000000000E+03 0. -1.
     100001    1    1    2    0    0  0.34894006579E+04  0.15882537169E+04  0.52467973974E+04  0.65000000000E+04  0.15050000000E+03 0.  1.
     100001    1    1    2    0    0 -0.34894006579E+04 -0.15882537169E+04 -0.52467973974E+04  0.65000000000E+04  0.15050000000E+03 0. -1.
</event>
<event>
 4    1  0.5143956E-004  0.6500000E+04  0.7818608E-02  0.7223770E-01
         52   -1    0    0    0    0  0.00000000000E+00  0.00000000000E+00  0.64930732323E+04  0.65000000000E+04  0.30000000000E+03 0.  1.
        -52   -1    0    0    0    0 -0.00000000000E+00 -0.00000000000E+00 -0.64930732323E+04  0.65000000000E+04  0.30000000000E+03 0. -1.
     100001    1    1    2    0    0  0.35282805564E+03 -0.95744072661E+03 -0.64176451575E+04  0.65000000000E+04  0.15050000000E+03 0. -1.
     100001    1    1    2    0    0 -0.35282805564E+03  0.95744072661E+03  0.64176451575E+04  0.65000000000E+04  0.15050000000E+03 0.  1.
</event>
<event>
 4    1  0.5143956E-004  0.6500000E+04  0.7818608E-02  0.7223770E-01
         52   -1    0    0    0    0  0.00000000000E+00  0.00000000000E+00  0.64930732323E+04  0.65000000000E+04  0.30000000000E+03 0.  1.
        -52   -1    0    0    0    0 -0.00000000000E+00 -0.00000000000E+00 -0.64930732323E+04  0.65000000000E+04  0.30000000000E+03 0. -1.
     100001    1    1    2    0    0  0.19624426047E+04 -0.26045132103E+04 -0.56207365808E+04  0.65000000000E+04  0.15050000000E+03 0. -1.
     100001    1    1    2    0    0 -0.19624426047E+04  0.26045132103E+04  0.56207365808E+04  0.65000000000E+04  0.15050000000E+03 0.  1.
</event>
<event>
 4    1  0.5143956E-004  0.6500000E+04  0.7818608E-02  0.7223770E-01
         52   -1    0    0    0    0  0.00000000000E+00  0.00000000000E+00  0.64930732323E+04  0.65000000000E+04  0.30000000000E+03 0. -1.
        -52   -1    0    0    0    0 -0.00000000000E+00 -0.00000000000E+00 -0.64930732323E+04  0.65000000000E+04  0.30000000000E+03 0.  1.
     100001    1    1    2    0    0  0.55893678218E+04  0.16058183279E+04 -0.28995973169E+04  0.65000000000E+04  0.15050000000E+03 0.  1.
     100001    1    1    2    0    0 -0.55893678218E+04 -0.16058183279E+04  0.28995973169E+04  0.65000000000E+04  0.15050000000E+03 0. -1.
</event>
<event>
 4    1  0.5143956E-004  0.6500000E+04  0.7818608E-02  0.7223770E-01
         52   -1    0    0    0    0  0.00000000000E+00  0.00000000000E+00  0.64930732323E+04  0.65000000000E+04  0.30000000000E+03 0.  1.
        -52   -1    0    0    0    0 -0.00000000000E+00 -0.00000000000E+00 -0.64930732323E+04  0.65000000000E+04  0.30000000000E+03 0. -1.
     100001    1    1    2    0    0 -0.50843885288E+03 -0.11723067503E+03  0.64772754034E+04  0.65000000000E+04  0.15050000000E+03 0.  1.
     100001    1    1    2    0    0  0.50843885288E+03  0.11723067503E+03 -0.64772754034E+04  0.65000000000E+04  0.15050000000E+03 0. -1.
</event>
<event>
 4    1  0.5143956E-004  0.6500000E+04  0.7818608E-02  0.7223770E-01
         52   -1    0    0    0    0  0.00000000000E+00  0.00000000000E+00  0.64930732323E+04  0.65000000000E+04  0.30000000000E+03 0. -1.
        -52   -1    0    0    0    0 -0.00000000000E+00 -0.00000000000E+00 -0.64930732323E+04  0.65000000000E+04  0.30000000000E+03 0. -1.
     100001    1    1    2    0    0 -0.20672186038E+03 -0.66182428133E+02  0.64946312989E+04  0.65000000000E+04  0.15050000000E+03 0. -1.
     100001    1    1    2    0    0  0.20672186038E+03  0.66182428133E+02 -0.64946312989E+04  0.65000000000E+04  0.15050000000E+03 0. -1.
</event>
<event>
 4    1  0.5143956E-004  0.6500000E+04  0.7818608E-02  0.7223770E-01
         52   -1    0    0    0    0  0.00000000000E+00  0.00000000000E+00  0.64930732323E+04  0.65000000000E+04  0.30000000000E+03 0. -1.
        -52   -1    0    0    0    0 -0.00000000000E+00 -0.00000000000E+00 -0.64930732323E+04  0.65000000000E+04  0.30000000000E+03 0.  1.
     100001    1    1    2    0    0  0.36110564155E+04 -0.13331074545E+04 -0.52354986228E+04  0.65000000000E+04  0.15050000000E+03 0.  1.
     100001    1    1    2    0    0 -0.36110564155E+04  0.13331074545E+04  0.52354986228E+04  0.65000000000E+04  0.15050000000E+03 0. -1.
</event>
<event>
 4    1  0.5143956E-004  0.6500000E+04  0.7818608E-02  0.7223770E-01
         52   -1    0    0    0    0  0.00000000000E+00  0.00000000000E+00  0.64930732323E+04  0.65000000000E+04  0.30000000000E+03 0.  1.
        -52   -1    0    0    0    0 -0.00000000000E+00 -0.00000000000E+00 -0.64930732323E+04  0.65000000000E+04  0.30000000000E+03 0. -1.
     100001    1    1    2    0    0 -0.19040347041E+04  0.39687273383E+04  0.47802933916E+04  0.65000000000E+04  0.15050000000E+03 0.  1.
     100001    1    1    2    0    0  0.19040347041E+04 -0.39687273383E+04 -0.47802933916E+04  0.65000000000E+04  0.15050000000E+03 0. -1.
</event>
<event>
 4    1  0.5143956E-004  0.6500000E+04  0.7818608E-02  0.7223770E-01
         52   -1    0    0    0    0  0.00000000000E+00  0.00000000000E+00  0.64930732323E+04  0.65000000000E+04  0.30000000000E+03 0.  1.
        -52   -1    0    0    0    0 -0.00000000000E+00 -0.00000000000E+00 -0.64930732323E+04  0.65000000000E+04  0.30000000000E+03 0. -1.
     100001    1    1    2    0    0 -0.28563960611E+03 -0.11082089251E+04  0.63966892017E+04  0.65000000000E+04  0.15050000000E+03 0.  1.
     100001    1    1    2    0    0  0.28563960611E+03  0.11082089251E+04 -0.63966892017E+04  0.65000000000E+04  0.15050000000E+03 0. -1.
</event>
<event>
 4    1  0.5143956E-004  0.6500000E+04  0.7818608E-02  0.7223770E-01
         52   -1    0    0    0    0  0.00000000000E+00  0.00000000000E+00  0.64930732323E+04  0.65000000000E+04  0.30000000000E+03 0. -1.
        -52   -1    0    0    0    0 -0.00000000000E+00 -0.00000000000E+00 -0.64930732323E+04  0.65000000000E+04  0.30000000000E+03 0.  1.
     100001    1    1    2    0    0  0.57040539519E+01  0.74702866925E+03  0.64551735361E+04  0.65000000000E+04  0.15050000000E+03 0. -1.
     100001    1    1    2    0    0 -0.57040539519E+01 -0.74702866925E+03 -0.64551735361E+04  0.65000000000E+04  0.15050000000E+03 0.  1.
</event>
<event>
 4    1  0.5143956E-004  0.6500000E+04  0.7818608E-02  0.7223770E-01
         52   -1    0    0    0    0  0.00000000000E+00  0.00000000000E+00  0.64930732323E+04  0.65000000000E+04  0.30000000000E+03 0.  1.
        -52   -1    0    0    0    0 -0.00000000000E+00 -0.00000000000E+00 -0.64930732323E+04  0.65000000000E+04  0.30000000000E+03 0. -1.
     100001    1    1    2    0    0  0.46277714678E+03  0.30572726571E+03 -0.64745438373E+04  0.65000000000E+04  0.15050000000E+03 0. -1.
     100001    1    1    2    0    0 -0.46277714678E+03 -0.30572726571E+03  0.64745438373E+04  0.65000000000E+04  0.15050000000E+03 0.  1.
</event>
<event>
 4    1  0.5143956E-004  0.6500000E+04  0.7818608E-02  0.7223770E-01
         52   -1    0    0    0    0  0.00000000000E+00  0.00000000000E+00  0.64930732323E+04  0.65000000000E+04  0.30000000000E+03 0. -1.
        -52   -1    0    0    0    0 -0.00000000000E+00 -0.00000000000E+00 -0.64930732323E+04  0.65000000000E+04  0.30000000000E+03 0.  1.
     100001    1    1    2    0    0  0.19961254950E+04  0.74399190642E+03  0.61391618973E+04  0.65000000000E+04  0.15050000000E+03 0. -1.
     100001    1    1    2    0    0 -0.19961254950E+04 -0.74399190642E+03 -0.61391618973E+04  0.65000000000E+04  0.15050000000E+03 0.  1.
</event>
<event>
 4    1  0.5143956E-004  0.6500000E+04  0.7818608E-02  0.7223770E-01
         52   -1    0    0    0    0  0.00000000000E+00  0.00000000000E+00  0.64930732323E+04  0.65000000000E+04  0.30000000000E+03 0. -1.
        -52   -1    0    0    0    0 -0.00000000000E+00 -0.00000000000E+00 -0.64930732323E+04  0.65000000000E+04  0.30000000000E+03 0.  1.
     100001    1    1    2    0    0 -0.25329213139E+04 -0.13314916374E+04 -0.58342771092E+04  0.65000000000E+04  0.15050000000E+03 0.  1.
     100001    1    1    2    0    0  0.25329213139E+04  0.13314916374E+04  0.58342771092E+04  0.65000000000E+04  0.15050000000E+03 0. -1.
</event>
<event>
 4    1  0.6047335E-004  0.6500000E+04  0.7818608E-02  0.7223770E-01
         52   -1    0    0    0    0  0.00000000000E+00  0.00000000000E+00  0.64930732323E+04  0.65000000000E+04  0.30000000000E+03 0. -1.
        -52   -1    0    0    0    0 -0.00000000000E+00 -0.00000000000E+00 -0.64930732323E+04  0.65000000000E+04  0.30000000000E+03 0. -1.
     100001    1    1    2    0    0 -0.20699582077E+03  0.53109289070E+02 -0.64947426341E+04  0.65000000000E+04  0.15050000000E+03 0. -1.
     100001    1    1    2    0    0  0.20699582077E+03 -0.53109289070E+02  0.64947426341E+04  0.65000000000E+04  0.15050000000E+03 0. -1.
</event>
<event>
 4    1  0.5143956E-004  0.6500000E+04  0.7818608E-02  0.7223770E-01
         52   -1    0    0    0    0  0.00000000000E+00  0.00000000000E+00  0.64930732323E+04  0.65000000000E+04  0.30000000000E+03 0. -1.
        -52   -1    0    0    0    0 -0.00000000000E+00 -0.00000000000E+00 -0.64930732323E+04  0.65000000000E+04  0.30000000000E+03 0. -1.
     100001    1    1    2    0    0 -0.19305497183E+03  0.29041399704E+03 -0.64888935296E+04  0.65000000000E+04  0.15050000000E+03 0. -1.
     100001    1    1    2    0    0  0.19305497183E+03 -0.29041399704E+03  0.64888935296E+04  0.65000000000E+04  0.15050000000E+03 0. -1.
</event>
<event>
 4    1  0.5143956E-004  0.6500000E+04  0.7818608E-02  0.7223770E-01
         52   -1    0    0    0    0  0.00000000000E+00  0.00000000000E+00  0.64930732323E+04  0.65000000000E+04  0.30000000000E+03 0. -1.
        -52   -1    0    0    0    0 -0.00000000000E+00 -0.00000000000E+00 -0.64930732323E+04  0.65000000000E+04  0.30000000000E+03 0.  1.
     100001    1    1    2    0    0 -0.40873472471E+02 -0.30308361879E+03  0.64910568808E+04  0.65000000000E+04  0.15050000000E+03 0. -1.
     100001    1    1    2    0    0  0.40873472471E+02  0.30308361879E+03 -0.64910568808E+04  0.65000000000E+04  0.15050000000E+03 0.  1.
</event>
<event>
 4    1  0.5143956E-004  0.6500000E+04  0.7818608E-02  0.7223770E-01
         52   -1    0    0    0    0  0.00000000000E+00  0.00000000000E+00  0.64930732323E+04  0.65000000000E+04  0.30000000000E+03 0.  1.
        -52   -1    0    0    0    0 -0.00000000000E+00 -0.00000000000E+00 -0.64930732323E+04  0.65000000000E+04  0.30000000000E+03 0. -1.
     100001    1    1    2    0    0  0.21266826463E+03 -0.10472017043E+04 -0.64097964515E+04  0.65000000000E+04  0.15050000000E+03 0. -1.
     100001    1    1    2    0    0 -0.21266826463E+03  0.10472017043E+04  0.64097964515E+04  0.65000000000E+04  0.15050000000E+03 0.  1.
</event>
<event>
 4    1  0.5143956E-004  0.6500000E+04  0.7818608E-02  0.7223770E-01
         52   -1    0    0    0    0  0.00000000000E+00  0.00000000000E+00  0.64930732323E+04  0.65000000000E+04  0.30000000000E+03 0.  1.
        -52   -1    0    0    0    0 -0.00000000000E+00 -0.00000000000E+00 -0.64930732323E+04  0.65000000000E+04  0.30000000000E+03 0. -1.
     100001    1    1    2    0    0 -0.12166371227E+04 -0.10122005131E+04  0.63025862932E+04  0.65000000000E+04  0.15050000000E+03 0.  1.
     100001    1    1    2    0    0  0.12166371227E+04  0.10122005131E+04 -0.63025862932E+04  0.65000000000E+04  0.15050000000E+03 0. -1.
</event>
<event>
 4    1  0.5143956E-004  0.6500000E+04  0.7818608E-02  0.7223770E-01
         52   -1    0    0    0    0  0.00000000000E+00  0.00000000000E+00  0.64930732323E+04  0.65000000000E+04  0.30000000000E+03 0. -1.
        -52   -1    0    0    0    0 -0.00000000000E+00 -0.00000000000E+00 -0.64930732323E+04  0.65000000000E+04  0.30000000000E+03 0.  1.
     100001    1    1    2    0    0  0.33984557251E+03  0.67224143979E+03  0.64544516563E+04  0.65000000000E+04  0.15050000000E+03 0. -1.
     100001    1    1    2    0    0 -0.33984557251E+03 -0.67224143979E+03 -0.64544516563E+04  0.65000000000E+04  0.15050000000E+03 0.  1.
</event>
<event>
 4    1  0.5143956E-004  0.6500000E+04  0.7818608E-02  0.7223770E-01
         52   -1    0    0    0    0  0.00000000000E+00  0.00000000000E+00  0.64930732323E+04  0.65000000000E+04  0.30000000000E+03 0.  1.
        -52   -1    0    0    0    0 -0.00000000000E+00 -0.00000000000E+00 -0.64930732323E+04  0.65000000000E+04  0.30000000000E+03 0.  1.
     100001    1    1    2    0    0 -0.85776817650E+03  0.17570163790E+03 -0.64389993353E+04  0.65000000000E+04  0.15050000000E+03 0.  1.
     100001    1    1    2    0    0  0.85776817650E+03 -0.17570163790E+03  0.64389993353E+04  0.65000000000E+04  0.15050000000E+03 0.  1.
</event>
<event>
 4    1  0.5143956E-004  0.6500000E+04  0.7818608E-02  0.7223770E-01
         52   -1    0    0    0    0  0.00000000000E+00  0.00000000000E+00  0.64930732323E+04  0.65000000000E+04  0.30000000000E+03 0.  1.
        -52   -1    0    0    0    0 -0.00000000000E+00 -0.00000000000E+00 -0.64930732323E+04  0.65000000000E+04  0.30000000000E+03 0. -1.
     100001    1    1    2    0    0  0.99051590325E+03  0.42998923445E+03 -0.64079120822E+04  0.65000000000E+04  0.15050000000E+03 0. -1.
     100001    1    1    2    0    0 -0.99051590325E+03 -0.42998923445E+03  0.64079120822E+04  0.65000000000E+04  0.15050000000E+03 0.  1.
</event>
<event>
 4    1  0.5143956E-004  0.6500000E+04  0.7818608E-02  0.7223770E-01
         52   -1    0    0    0    0  0.00000000000E+00  0.00000000000E+00  0.64930732323E+04  0.65000000000E+04  0.30000000000E+03 0.  1.
        -52   -1    0    0    0    0 -0.00000000000E+00 -0.00000000000E+00 -0.64930732323E+04  0.65000000000E+04  0.30000000000E+03 0. -1.
     100001    1    1    2    0    0 -0.23571815688E+04 -0.47588855888E+04 -0.37448701919E+04  0.65000000000E+04  0.15050000000E+03 0. -1.
     100001    1    1    2    0    0  0.23571815688E+04  0.47588855888E+04  0.37448701919E+04  0.65000000000E+04  0.15050000000E+03 0.  1.
</event>
<event>
 4    1  0.7551310E-004  0.6500000E+04  0.7818608E-02  0.7223770E-01
         52   -1    0    0    0    0  0.00000000000E+00  0.00000000000E+00  0.64930732323E+04  0.65000000000E+04  0.30000000000E+03 0. -1.
        -52   -1    0    0    0    0 -0.00000000000E+00 -0.00000000000E+00 -0.64930732323E+04  0.65000000000E+04  0.30000000000E+03 0. -1.
     100001    1    1    2    0    0  0.62443188006E+02  0.41192416835E+02  0.64978268508E+04  0.65000000000E+04  0.15050000000E+03 0. -1.
     100001    1    1    2    0    0 -0.62443188006E+02 -0.41192416835E+02 -0.64978268508E+04  0.65000000000E+04  0.15050000000E+03 0. -1.
</event>
<event>
 4    1  0.5143956E-004  0.6500000E+04  0.7818608E-02  0.7223770E-01
         52   -1    0    0    0    0  0.00000000000E+00  0.00000000000E+00  0.64930732323E+04  0.65000000000E+04  0.30000000000E+03 0. -1.
        -52   -1    0    0    0    0 -0.00000000000E+00 -0.00000000000E+00 -0.64930732323E+04  0.65000000000E+04  0.30000000000E+03 0.  1.
     100001    1    1    2    0    0  0.11974056006E+03 -0.24876867550E+03  0.64923898600E+04  0.65000000000E+04  0.15050000000E+03 0. -1.
     100001    1    1    2    0    0 -0.11974056006E+03  0.24876867550E+03 -0.64923898600E+04  0.65000000000E+04  0.15050000000E+03 0.  1.
</event>
<event>
 4    1  0.5143956E-004  0.6500000E+04  0.7818608E-02  0.7223770E-01
         52   -1    0    0    0    0  0.00000000000E+00  0.00000000000E+00  0.64930732323E+04  0.65000000000E+04  0.30000000000E+03 0. -1.
        -52   -1    0    0    0    0 -0.00000000000E+00 -0.00000000000E+00 -0.64930732323E+04  0.65000000000E+04  0.30000000000E+03 0.  1.
     100001    1    1    2    0    0 -0.19942743005E+04 -0.24230031586E+04 -0.56902790316E+04  0.65000000000E+04  0.15050000000E+03 0.  1.
     100001    1    1    2    0    0  0.19942743005E+04  0.24230031586E+04  0.56902790316E+04  0.65000000000E+04  0.15050000000E+03 0. -1.
</event>
<event>
 4    1  0.5143956E-004  0.6500000E+04  0.7818608E-02  0.7223770E-01
         52   -1    0    0    0    0  0.00000000000E+00  0.00000000000E+00  0.64930732323E+04  0.65000000000E+04  0.30000000000E+03 0. -1.
        -52   -1    0    0    0    0 -0.00000000000E+00 -0.00000000000E+00 -0.64930732323E+04  0.65000000000E+04  0.30000000000E+03 0.  1.
     100001    1    1    2    0    0  0.37770338972E+03 -0.15655486407E+04 -0.62955339212E+04  0.65000000000E+04  0.15050000000E+03 0.  1.
     100001    1    1    2    0    0 -0.37770338972E+03  0.15655486407E+04  0.62955339212E+04  0.65000000000E+04  0.15050000000E+03 0. -1.
</event>
<event>
 4    1  0.5143956E-004  0.6500000E+04  0.7818608E-02  0.7223770E-01
         52   -1    0    0    0    0  0.00000000000E+00  0.00000000000E+00  0.64930732323E+04  0.65000000000E+04  0.30000000000E+03 0. -1.
        -52   -1    0    0    0    0 -0.00000000000E+00 -0.00000000000E+00 -0.64930732323E+04  0.65000000000E+04  0.30000000000E+03 0.  1.
     100001    1    1    2    0    0  0.13650149920E+04 -0.12086293060E+04  0.62372509187E+04  0.65000000000E+04  0.15050000000E+03 0. -1.
     100001    1    1    2    0    0 -0.13650149920E+04  0.12086293060E+04 -0.62372509187E+04  0.65000000000E+04  0.15050000000E+03 0.  1.
</event>
<event>
 4    1  0.5143956E-004  0.6500000E+04  0.7818608E-02  0.7223770E-01
         52   -1    0    0    0    0  0.00000000000E+00  0.00000000000E+00  0.64930732323E+04  0.65000000000E+04  0.30000000000E+03 0. -1.
        -52   -1    0    0    0    0 -0.00000000000E+00 -0.00000000000E+00 -0.64930732323E+04  0.65000000000E+04  0.30000000000E+03 0.  1.
     100001    1    1    2    0    0  0.11596630494E+04  0.21478856825E+04 -0.60223847815E+04  0.65000000000E+04  0.15050000000E+03 0.  1.
     100001    1    1    2    0    0 -0.11596630494E+04 -0.21478856825E+04  0.60223847815E+04  0.65000000000E+04  0.15050000000E+03 0. -1.
</event>
<event>
 4    1  0.5143956E-004  0.6500000E+04  0.7818608E-02  0.7223770E-01
         52   -1    0    0    0    0  0.00000000000E+00  0.00000000000E+00  0.64930732323E+04  0.65000000000E+04  0.30000000000E+03 0. -1.
        -52   -1    0    0    0    0 -0.00000000000E+00 -0.00000000000E+00 -0.64930732323E+04  0.65000000000E+04  0.30000000000E+03 0.  1.
     100001    1    1    2    0    0  0.28147984481E+03 -0.21526198528E+04  0.61248956412E+04  0.65000000000E+04  0.15050000000E+03 0. -1.
     100001    1    1    2    0    0 -0.28147984481E+03  0.21526198528E+04 -0.61248956412E+04  0.65000000000E+04  0.15050000000E+03 0.  1.
</event>
<event>
 4    1  0.5143956E-004  0.6500000E+04  0.7818608E-02  0.7223770E-01
         52   -1    0    0    0    0  0.00000000000E+00  0.00000000000E+00  0.64930732323E+04  0.65000000000E+04  0.30000000000E+03 0.  1.
        -52   -1    0    0    0    0 -0.00000000000E+00 -0.00000000000E+00 -0.64930732323E+04  0.65000000000E+04  0.30000000000E+03 0. -1.
     100001    1    1    2    0    0 -0.61961884518E+04  0.98657903342E+03  0.16915260063E+04  0.65000000000E+04  0.15050000000E+03 0. -1.
     100001    1    1    2    0    0  0.61961884518E+04 -0.98657903342E+03 -0.16915260063E+04  0.65000000000E+04  0.15050000000E+03 0.  1.
</event>
<event>
 4    1  0.5403120E-004  0.6500000E+04  0.7818608E-02  0.7223770E-01
         52   -1    0    0    0    0  0.00000000000E+00  0.00000000000E+00  0.64930732323E+04  0.65000000000E+04  0.30000000000E+03 0. -1.
        -52   -1    0    0    0    0 -0.00000000000E+00 -0.00000000000E+00 -0.64930732323E+04  0.65000000000E+04  0.30000000000E+03 0.  1.
     100001    1    1    2    0    0 -0.17444618971E+03 -0.16664698313E+03  0.64937775647E+04  0.65000000000E+04  0.15050000000E+03 0. -1.
     100001    1    1    2    0    0  0.17444618971E+03  0.16664698313E+03 -0.64937775647E+04  0.65000000000E+04  0.15050000000E+03 0.  1.
</event>
<event>
 4    1  0.5143956E-004  0.6500000E+04  0.7818608E-02  0.7223770E-01
         52   -1    0    0    0    0  0.00000000000E+00  0.00000000000E+00  0.64930732323E+04  0.65000000000E+04  0.30000000000E+03 0.  1.
        -52   -1    0    0    0    0 -0.00000000000E+00 -0.00000000000E+00 -0.64930732323E+04  0.65000000000E+04  0.30000000000E+03 0. -1.
     100001    1    1    2    0    0 -0.43102917416E+04 -0.17203715515E+04  0.45485224609E+04  0.65000000000E+04  0.15050000000E+03 0.  1.
     100001    1    1    2    0    0  0.43102917416E+04  0.17203715515E+04 -0.45485224609E+04  0.65000000000E+04  0.15050000000E+03 0. -1.
</event>
<event>
 4    1  0.5143956E-004  0.6500000E+04  0.7818608E-02  0.7223770E-01
         52   -1    0    0    0    0  0.00000000000E+00  0.00000000000E+00  0.64930732323E+04  0.65000000000E+04  0.30000000000E+03 0. -1.
        -52   -1    0    0    0    0 -0.00000000000E+00 -0.00000000000E+00 -0.64930732323E+04  0.65000000000E+04  0.30000000000E+03 0.  1.
     100001    1    1    2    0    0 -0.25533302789E+03 -0.26295918727E+04 -0.59369521960E+04  0.65000000000E+04  0.15050000000E+03 0.  1.
     100001    1    1    2    0    0  0.25533302789E+03  0.26295918727E+04  0.59369521960E+04  0.65000000000E+04  0.15050000000E+03 0. -1.
</event>
<event>
 4    1  0.5143956E-004  0.6500000E+04  0.7818608E-02  0.7223770E-01
         52   -1    0    0    0    0  0.00000000000E+00  0.00000000000E+00  0.64930732323E+04  0.65000000000E+04  0.30000000000E+03 0. -1.
        -52   -1    0    0    0    0 -0.00000000000E+00 -0.00000000000E+00 -0.64930732323E+04  0.65000000000E+04  0.30000000000E+03 0.  1.
     100001    1    1    2    0    0 -0.53034236945E+03  0.92001792295E+02 -0.64759263732E+04  0.65000000000E+04  0.15050000000E+03 0.  1.
     100001    1    1    2    0    0  0.53034236945E+03 -0.92001792295E+02  0.64759263732E+04  0.65000000000E+04  0.15050000000E+03 0. -1.
</event>
<event>
 4    1  0.5143956E-004  0.6500000E+04  0.7818608E-02  0.7223770E-01
         52   -1    0    0    0    0  0.00000000000E+00  0.00000000000E+00  0.64930732323E+04  0.65000000000E+04  0.30000000000E+03 0.  1.
        -52   -1    0    0    0    0 -0.00000000000E+00 -0.00000000000E+00 -0.64930732323E+04  0.65000000000E+04  0.30000000000E+03 0. -1.
     100001    1    1    2    0    0 -0.25737250984E+04  0.56607807821E+04  0.18864914006E+04  0.65000000000E+04  0.15050000000E+03 0.  1.
     100001    1    1    2    0    0  0.25737250984E+04 -0.56607807821E+04 -0.18864914006E+04  0.65000000000E+04  0.15050000000E+03 0. -1.
</event>
<event>
 4    1  0.5143956E-004  0.6500000E+04  0.7818608E-02  0.7223770E-01
         52   -1    0    0    0    0  0.00000000000E+00  0.00000000000E+00  0.64930732323E+04  0.65000000000E+04  0.30000000000E+03 0. -1.
        -52   -1    0    0    0    0 -0.00000000000E+00 -0.00000000000E+00 -0.64930732323E+04  0.65000000000E+04  0.30000000000E+03 0.  1.
     100001    1    1    2    0    0 -0.17783925442E+03 -0.93661985665E+03 -0.64279441654E+04  0.65000000000E+04  0.15050000000E+03 0.  1.
     100001    1    1    2    0    0  0.17783925442E+03  0.93661985665E+03  0.64279441654E+04  0.65000000000E+04  0.15050000000E+03 0. -1.
</event>
<event>
 4    1  0.5143956E-004  0.6500000E+04  0.7818608E-02  0.7223770E-01
         52   -1    0    0    0    0  0.00000000000E+00  0.00000000000E+00  0.64930732323E+04  0.65000000000E+04  0.30000000000E+03 0. -1.
        -52   -1    0    0    0    0 -0.00000000000E+00 -0.00000000000E+00 -0.64930732323E+04  0.65000000000E+04  0.30000000000E+03 0.  1.
     100001    1    1    2    0    0 -0.18572740348E+04  0.74755077678E+03 -0.61821558332E+04  0.65000000000E+04  0.15050000000E+03 0.  1.
     100001    1    1    2    0    0  0.18572740348E+04 -0.74755077678E+03  0.61821558332E+04  0.65000000000E+04  0.15050000000E+03 0. -1.
</event>
<event>
 4    1  0.5143956E-004  0.6500000E+04  0.7818608E-02  0.7223770E-01
         52   -1    0    0    0    0  0.00000000000E+00  0.00000000000E+00  0.64930732323E+04  0.65000000000E+04  0.30000000000E+03 0.  1.
        -52   -1    0    0    0    0 -0.00000000000E+00 -0.00000000000E+00 -0.64930732323E+04  0.65000000000E+04  0.30000000000E+03 0. -1.
     100001    1    1    2    0    0  0.13216396676E+04  0.23549330880E+04  0.59105759863E+04  0.65000000000E+04  0.15050000000E+03 0.  1.
     100001    1    1    2    0    0 -0.13216396676E+04 -0.23549330880E+04 -0.59105759863E+04  0.65000000000E+04  0.15050000000E+03 0. -1.
</event>
<event>
 4    1  0.5143956E-004  0.6500000E+04  0.7818608E-02  0.7223770E-01
         52   -1    0    0    0    0  0.00000000000E+00  0.00000000000E+00  0.64930732323E+04  0.65000000000E+04  0.30000000000E+03 0. -1.
        -52   -1    0    0    0    0 -0.00000000000E+00 -0.00000000000E+00 -0.64930732323E+04  0.65000000000E+04  0.30000000000E+03 0.  1.
     100001    1    1    2    0    0 -0.32124468865E+04 -0.24096843506E+04 -0.51089094807E+04  0.65000000000E+04  0.15050000000E+03 0.  1.
     100001    1    1    2    0    0  0.32124468865E+04  0.24096843506E+04  0.51089094807E+04  0.65000000000E+04  0.15050000000E+03 0. -1.
</event>
<event>
 4    1  0.5143956E-004  0.6500000E+04  0.7818608E-02  0.7223770E-01
         52   -1    0    0    0    0  0.00000000000E+00  0.00000000000E+00  0.64930732323E+04  0.65000000000E+04  0.30000000000E+03 0.  1.
        -52   -1    0    0    0    0 -0.00000000000E+00 -0.00000000000E+00 -0.64930732323E+04  0.65000000000E+04  0.30000000000E+03 0. -1.
     100001    1    1    2    0    0 -0.33366602179E+04 -0.25799501261E+04 -0.49434710161E+04  0.65000000000E+04  0.15050000000E+03 0. -1.
     100001    1    1    2    0    0  0.33366602179E+04  0.25799501261E+04  0.49434710161E+04  0.65000000000E+04  0.15050000000E+03 0.  1.
</event>
<event>
 4    1  0.5143956E-004  0.6500000E+04  0.7818608E-02  0.7223770E-01
         52   -1    0    0    0    0  0.00000000000E+00  0.00000000000E+00  0.64930732323E+04  0.65000000000E+04  0.30000000000E+03 0. -1.
        -52   -1    0    0    0    0 -0.00000000000E+00 -0.00000000000E+00 -0.64930732323E+04  0.65000000000E+04  0.30000000000E+03 0.  1.
     100001    1    1    2    0    0 -0.84794452072E+03 -0.29773248000E+03  0.64358134847E+04  0.65000000000E+04  0.15050000000E+03 0. -1.
     100001    1    1    2    0    0  0.84794452072E+03  0.29773248000E+03 -0.64358134847E+04  0.65000000000E+04  0.15050000000E+03 0.  1.
</event>
<event>
 4    1  0.7043360E-004  0.6500000E+04  0.7818608E-02  0.7223770E-01
         52   -1    0    0    0    0  0.00000000000E+00  0.00000000000E+00  0.64930732323E+04  0.65000000000E+04  0.30000000000E+03 0.  1.
        -52   -1    0    0    0    0 -0.00000000000E+00 -0.00000000000E+00 -0.64930732323E+04  0.65000000000E+04  0.30000000000E+03 0.  1.
     100001    1    1    2    0    0 -0.80077973143E+02  0.85018820111E+02 -0.64972077902E+04  0.65000000000E+04  0.15050000000E+03 0.  1.
     100001    1    1    2    0    0  0.80077973143E+02 -0.85018820111E+02  0.64972077902E+04  0.65000000000E+04  0.15050000000E+03 0.  1.
</event>
<event>
 4    1  0.5143956E-004  0.6500000E+04  0.7818608E-02  0.7223770E-01
         52   -1    0    0    0    0  0.00000000000E+00  0.00000000000E+00  0.64930732323E+04  0.65000000000E+04  0.30000000000E+03 0.  1.
        -52   -1    0    0    0    0 -0.00000000000E+00 -0.00000000000E+00 -0.64930732323E+04  0.65000000000E+04  0.30000000000E+03 0. -1.
     100001    1    1    2    0    0  0.20735687201E+03  0.47948265606E+04 -0.43810947412E+04  0.65000000000E+04  0.15050000000E+03 0. -1.
     100001    1    1    2    0    0 -0.20735687201E+03 -0.47948265606E+04  0.43810947412E+04  0.65000000000E+04  0.15050000000E+03 0.  1.
</event>
<event>
 4    1  0.5143956E-004  0.6500000E+04  0.7818608E-02  0.7223770E-01
         52   -1    0    0    0    0  0.00000000000E+00  0.00000000000E+00  0.64930732323E+04  0.65000000000E+04  0.30000000000E+03 0. -1.
        -52   -1    0    0    0    0 -0.00000000000E+00 -0.00000000000E+00 -0.64930732323E+04  0.65000000000E+04  0.30000000000E+03 0. -1.
     100001    1    1    2    0    0 -0.33158094954E+03  0.97337863821E+02  0.64890622716E+04  0.65000000000E+04  0.15050000000E+03 0. -1.
     100001    1    1    2    0    0  0.33158094954E+03 -0.97337863821E+02 -0.64890622716E+04  0.65000000000E+04  0.15050000000E+03 0. -1.
</event>
<event>
 4    1  0.5143956E-004  0.6500000E+04  0.7818608E-02  0.7223770E-01
         52   -1    0    0    0    0  0.00000000000E+00  0.00000000000E+00  0.64930732323E+04  0.65000000000E+04  0.30000000000E+03 0. -1.
        -52   -1    0    0    0    0 -0.00000000000E+00 -0.00000000000E+00 -0.64930732323E+04  0.65000000000E+04  0.30000000000E+03 0.  1.
     100001    1    1    2    0    0 -0.20216727808E+04 -0.20739295163E+04  0.58171303302E+04  0.65000000000E+04  0.15050000000E+03 0. -1.
     100001    1    1    2    0    0  0.20216727808E+04  0.20739295163E+04 -0.58171303302E+04  0.65000000000E+04  0.15050000000E+03 0.  1.
</event>
<event>
 4    1  0.6760377E-004  0.6500000E+04  0.7818608E-02  0.7223770E-01
         52   -1    0    0    0    0  0.00000000000E+00  0.00000000000E+00  0.64930732323E+04  0.65000000000E+04  0.30000000000E+03 0. -1.
        -52   -1    0    0    0    0 -0.00000000000E+00 -0.00000000000E+00 -0.64930732323E+04  0.65000000000E+04  0.30000000000E+03 0. -1.
     100001    1    1    2    0    0  0.13620720123E+03 -0.13539001318E+03 -0.64954189159E+04  0.65000000000E+04  0.15050000000E+03 0. -1.
     100001    1    1    2    0    0 -0.13620720123E+03  0.13539001318E+03  0.64954189159E+04  0.65000000000E+04  0.15050000000E+03 0. -1.
</event>
<event>
 4    1  0.5143956E-004  0.6500000E+04  0.7818608E-02  0.7223770E-01
         52   -1    0    0    0    0  0.00000000000E+00  0.00000000000E+00  0.64930732323E+04  0.65000000000E+04  0.30000000000E+03 0. -1.
        -52   -1    0    0    0    0 -0.00000000000E+00 -0.00000000000E+00 -0.64930732323E+04  0.65000000000E+04  0.30000000000E+03 0.  1.
     100001    1    1    2    0    0  0.41004631429E+04 -0.22088757873E+04  0.45314919751E+04  0.65000000000E+04  0.15050000000E+03 0. -1.
     100001    1    1    2    0    0 -0.41004631429E+04  0.22088757873E+04 -0.45314919751E+04  0.65000000000E+04  0.15050000000E+03 0.  1.
</event>
<event>
 4    1  0.5143956E-004  0.6500000E+04  0.7818608E-02  0.7223770E-01
         52   -1    0    0    0    0  0.00000000000E+00  0.00000000000E+00  0.64930732323E+04  0.65000000000E+04  0.30000000000E+03 0.  1.
        -52   -1    0    0    0    0 -0.00000000000E+00 -0.00000000000E+00 -0.64930732323E+04  0.65000000000E+04  0.30000000000E+03 0. -1.
     100001    1    1    2    0    0  0.86191198612E+03  0.13787178182E+04  0.62915494638E+04  0.65000000000E+04  0.15050000000E+03 0.  1.
     100001    1    1    2    0    0 -0.86191198612E+03 -0.13787178182E+04 -0.62915494638E+04  0.65000000000E+04  0.15050000000E+03 0. -1.
</event>
<event>
 4    1  0.5143956E-004  0.6500000E+04  0.7818608E-02  0.7223770E-01
         52   -1    0    0    0    0  0.00000000000E+00  0.00000000000E+00  0.64930732323E+04  0.65000000000E+04  0.30000000000E+03 0. -1.
        -52   -1    0    0    0    0 -0.00000000000E+00 -0.00000000000E+00 -0.64930732323E+04  0.65000000000E+04  0.30000000000E+03 0.  1.
     100001    1    1    2    0    0  0.31463713906E+03 -0.67658187335E+03  0.64552761513E+04  0.65000000000E+04  0.15050000000E+03 0. -1.
     100001    1    1    2    0    0 -0.31463713906E+03  0.67658187335E+03 -0.64552761513E+04  0.65000000000E+04  0.15050000000E+03 0.  1.
</event>
<event>
 4    1  0.5143956E-004  0.6500000E+04  0.7818608E-02  0.7223770E-01
         52   -1    0    0    0    0  0.00000000000E+00  0.00000000000E+00  0.64930732323E+04  0.65000000000E+04  0.30000000000E+03 0. -1.
        -52   -1    0    0    0    0 -0.00000000000E+00 -0.00000000000E+00 -0.64930732323E+04  0.65000000000E+04  0.30000000000E+03 0.  1.
     100001    1    1    2    0    0  0.24199573276E+04  0.23965500080E+04 -0.55342302393E+04  0.65000000000E+04  0.15050000000E+03 0.  1.
     100001    1    1    2    0    0 -0.24199573276E+04 -0.23965500080E+04  0.55342302393E+04  0.65000000000E+04  0.15050000000E+03 0. -1.
</event>
<event>
 4    1  0.5143956E-004  0.6500000E+04  0.7818608E-02  0.7223770E-01
         52   -1    0    0    0    0  0.00000000000E+00  0.00000000000E+00  0.64930732323E+04  0.65000000000E+04  0.30000000000E+03 0. -1.
        -52   -1    0    0    0    0 -0.00000000000E+00 -0.00000000000E+00 -0.64930732323E+04  0.65000000000E+04  0.30000000000E+03 0.  1.
     100001    1    1    2    0    0  0.45079365455E+03 -0.67820811389E+02  0.64822476942E+04  0.65000000000E+04  0.15050000000E+03 0. -1.
     100001    1    1    2    0    0 -0.45079365455E+03  0.67820811389E+02 -0.64822476942E+04  0.65000000000E+04  0.15050000000E+03 0.  1.
</event>
<event>
 4    1  0.5143956E-004  0.6500000E+04  0.7818608E-02  0.7223770E-01
         52   -1    0    0    0    0  0.00000000000E+00  0.00000000000E+00  0.64930732323E+04  0.65000000000E+04  0.30000000000E+03 0. -1.
        -52   -1    0    0    0    0 -0.00000000000E+00 -0.00000000000E+00 -0.64930732323E+04  0.65000000000E+04  0.30000000000E+03 0.  1.
     100001    1    1    2    0    0  0.10829400441E+04 -0.19789454023E+03  0.64043288768E+04  0.65000000000E+04  0.15050000000E+03 0. -1.
     100001    1    1    2    0    0 -0.10829400441E+04  0.19789454023E+03 -0.64043288768E+04  0.65000000000E+04  0.15050000000E+03 0.  1.
</event>
<event>
 4    1  0.5143956E-004  0.6500000E+04  0.7818608E-02  0.7223770E-01
         52   -1    0    0    0    0  0.00000000000E+00  0.00000000000E+00  0.64930732323E+04  0.65000000000E+04  0.30000000000E+03 0.  1.
        -52   -1    0    0    0    0 -0.00000000000E+00 -0.00000000000E+00 -0.64930732323E+04  0.65000000000E+04  0.30000000000E+03 0.  1.
     100001    1    1    2    0    0  0.97915207227E+02  0.35555072547E+03 -0.64877843709E+04  0.65000000000E+04  0.15050000000E+03 0.  1.
     100001    1    1    2    0    0 -0.97915207227E+02 -0.35555072547E+03  0.64877843709E+04  0.65000000000E+04  0.15050000000E+03 0.  1.
</event>
<event>
 4    1  0.5143956E-004  0.6500000E+04  0.7818608E-02  0.7223770E-01
         52   -1    0    0    0    0  0.00000000000E+00  0.00000000000E+00  0.64930732323E+04  0.65000000000E+04  0.30000000000E+03 0.  1.
        -52   -1    0    0    0    0 -0.00000000000E+00 -0.00000000000E+00 -0.64930732323E+04  0.65000000000E+04  0.30000000000E+03 0. -1.
     100001    1    1    2    0    0 -0.44618720825E+04 -0.46797529978E+04  0.64727053749E+03  0.65000000000E+04  0.15050000000E+03 0. -1.
     100001    1    1    2    0    0  0.44618720825E+04  0.46797529978E+04 -0.64727053749E+03  0.65000000000E+04  0.15050000000E+03 0.  1.
</event>
<event>
 4    1  0.5143956E-004  0.6500000E+04  0.7818608E-02  0.7223770E-01
         52   -1    0    0    0    0  0.00000000000E+00  0.00000000000E+00  0.64930732323E+04  0.65000000000E+04  0.30000000000E+03 0. -1.
        -52   -1    0    0    0    0 -0.00000000000E+00 -0.00000000000E+00 -0.64930732323E+04  0.65000000000E+04  0.30000000000E+03 0.  1.
     100001    1    1    2    0    0 -0.32996496108E+04 -0.26549289478E+04  0.49285915309E+04  0.65000000000E+04  0.15050000000E+03 0. -1.
     100001    1    1    2    0    0  0.32996496108E+04  0.26549289478E+04 -0.49285915309E+04  0.65000000000E+04  0.15050000000E+03 0.  1.
</event>
<event>
 4    1  0.5143956E-004  0.6500000E+04  0.7818608E-02  0.7223770E-01
         52   -1    0    0    0    0  0.00000000000E+00  0.00000000000E+00  0.64930732323E+04  0.65000000000E+04  0.30000000000E+03 0. -1.
        -52   -1    0    0    0    0 -0.00000000000E+00 -0.00000000000E+00 -0.64930732323E+04  0.65000000000E+04  0.30000000000E+03 0.  1.
     100001    1    1    2    0    0 -0.60075538153E+03  0.93920531656E+03  0.64019009751E+04  0.65000000000E+04  0.15050000000E+03 0. -1.
     100001    1    1    2    0    0  0.60075538153E+03 -0.93920531656E+03 -0.64019009751E+04  0.65000000000E+04  0.15050000000E+03 0.  1.
</event>
<event>
 4    1  0.5143956E-004  0.6500000E+04  0.7818608E-02  0.7223770E-01
         52   -1    0    0    0    0  0.00000000000E+00  0.00000000000E+00  0.64930732323E+04  0.65000000000E+04  0.30000000000E+03 0.  1.
        -52   -1    0    0    0    0 -0.00000000000E+00 -0.00000000000E+00 -0.64930732323E+04  0.65000000000E+04  0.30000000000E+03 0. -1.
     100001    1    1    2    0    0 -0.84743157490E+03 -0.63718937558E+04  0.95298449130E+03  0.65000000000E+04  0.15050000000E+03 0.  1.
     100001    1    1    2    0    0  0.84743157490E+03  0.63718937558E+04 -0.95298449130E+03  0.65000000000E+04  0.15050000000E+03 0. -1.
</event>
<event>
 4    1  0.5143956E-004  0.6500000E+04  0.7818608E-02  0.7223770E-01
         52   -1    0    0    0    0  0.00000000000E+00  0.00000000000E+00  0.64930732323E+04  0.65000000000E+04  0.30000000000E+03 0. -1.
        -52   -1    0    0    0    0 -0.00000000000E+00 -0.00000000000E+00 -0.64930732323E+04  0.65000000000E+04  0.30000000000E+03 0.  1.
     100001    1    1    2    0    0  0.17119153164E+03  0.94612723110E+03  0.64267321768E+04  0.65000000000E+04  0.15050000000E+03 0. -1.
     100001    1    1    2    0    0 -0.17119153164E+03 -0.94612723110E+03 -0.64267321768E+04  0.65000000000E+04  0.15050000000E+03 0.  1.
</event>
<event>
 4    1  0.5143956E-004  0.6500000E+04  0.7818608E-02  0.7223770E-01
         52   -1    0    0    0    0  0.00000000000E+00  0.00000000000E+00  0.64930732323E+04  0.65000000000E+04  0.30000000000E+03 0. -1.
        -52   -1    0    0    0    0 -0.00000000000E+00 -0.00000000000E+00 -0.64930732323E+04  0.65000000000E+04  0.30000000000E+03 0.  1.
     100001    1    1    2    0    0 -0.12619338288E+03  0.55278990768E+03  0.64734726614E+04  0.65000000000E+04  0.15050000000E+03 0. -1.
     100001    1    1    2    0    0  0.12619338288E+03 -0.55278990768E+03 -0.64734726614E+04  0.65000000000E+04  0.15050000000E+03 0.  1.
</event>
<event>
 4    1  0.5143956E-004  0.6500000E+04  0.7818608E-02  0.7223770E-01
         52   -1    0    0    0    0  0.00000000000E+00  0.00000000000E+00  0.64930732323E+04  0.65000000000E+04  0.30000000000E+03 0. -1.
        -52   -1    0    0    0    0 -0.00000000000E+00 -0.00000000000E+00 -0.64930732323E+04  0.65000000000E+04  0.30000000000E+03 0.  1.
     100001    1    1    2    0    0  0.83200029886E+02 -0.50606804277E+03  0.64779875456E+04  0.65000000000E+04  0.15050000000E+03 0. -1.
     100001    1    1    2    0    0 -0.83200029886E+02  0.50606804277E+03 -0.64779875456E+04  0.65000000000E+04  0.15050000000E+03 0.  1.
</event>
<event>
 4    1  0.5143956E-004  0.6500000E+04  0.7818608E-02  0.7223770E-01
         52   -1    0    0    0    0  0.00000000000E+00  0.00000000000E+00  0.64930732323E+04  0.65000000000E+04  0.30000000000E+03 0.  1.
        -52   -1    0    0    0    0 -0.00000000000E+00 -0.00000000000E+00 -0.64930732323E+04  0.65000000000E+04  0.30000000000E+03 0.  1.
     100001    1    1    2    0    0  0.14005632924E+04  0.13026414080E+04 -0.62103862663E+04  0.65000000000E+04  0.15050000000E+03 0.  1.
     100001    1    1    2    0    0 -0.14005632924E+04 -0.13026414080E+04  0.62103862663E+04  0.65000000000E+04  0.15050000000E+03 0.  1.
</event>
<event>
 4    1  0.5143956E-004  0.6500000E+04  0.7818608E-02  0.7223770E-01
         52   -1    0    0    0    0  0.00000000000E+00  0.00000000000E+00  0.64930732323E+04  0.65000000000E+04  0.30000000000E+03 0.  1.
        -52   -1    0    0    0    0 -0.00000000000E+00 -0.00000000000E+00 -0.64930732323E+04  0.65000000000E+04  0.30000000000E+03 0. -1.
     100001    1    1    2    0    0  0.33739172172E+03  0.19628357978E+04  0.61855308751E+04  0.65000000000E+04  0.15050000000E+03 0.  1.
     100001    1    1    2    0    0 -0.33739172172E+03 -0.19628357978E+04 -0.61855308751E+04  0.65000000000E+04  0.15050000000E+03 0. -1.
</event>
<event>
 4    1  0.5143956E-004  0.6500000E+04  0.7818608E-02  0.7223770E-01
         52   -1    0    0    0    0  0.00000000000E+00  0.00000000000E+00  0.64930732323E+04  0.65000000000E+04  0.30000000000E+03 0. -1.
        -52   -1    0    0    0    0 -0.00000000000E+00 -0.00000000000E+00 -0.64930732323E+04  0.65000000000E+04  0.30000000000E+03 0.  1.
     100001    1    1    2    0    0  0.54870725432E+04  0.40161139903E+03  0.34580475618E+04  0.65000000000E+04  0.15050000000E+03 0. -1.
     100001    1    1    2    0    0 -0.54870725432E+04 -0.40161139903E+03 -0.34580475618E+04  0.65000000000E+04  0.15050000000E+03 0.  1.
</event>
<event>
 4    1  0.5143956E-004  0.6500000E+04  0.7818608E-02  0.7223770E-01
         52   -1    0    0    0    0  0.00000000000E+00  0.00000000000E+00  0.64930732323E+04  0.65000000000E+04  0.30000000000E+03 0. -1.
        -52   -1    0    0    0    0 -0.00000000000E+00 -0.00000000000E+00 -0.64930732323E+04  0.65000000000E+04  0.30000000000E+03 0.  1.
     100001    1    1    2    0    0 -0.41235116665E+04  0.47243818433E+04 -0.17041764830E+04  0.65000000000E+04  0.15050000000E+03 0.  1.
     100001    1    1    2    0    0  0.41235116665E+04 -0.47243818433E+04  0.17041764830E+04  0.65000000000E+04  0.15050000000E+03 0. -1.
</event>
<event>
 4    1  0.5143956E-004  0.6500000E+04  0.7818608E-02  0.7223770E-01
         52   -1    0    0    0    0  0.00000000000E+00  0.00000000000E+00  0.64930732323E+04  0.65000000000E+04  0.30000000000E+03 0. -1.
        -52   -1    0    0    0    0 -0.00000000000E+00 -0.00000000000E+00 -0.64930732323E+04  0.65000000000E+04  0.30000000000E+03 0.  1.
     100001    1    1    2    0    0  0.20971931031E+04  0.22315461752E+04 -0.57314337217E+04  0.65000000000E+04  0.15050000000E+03 0.  1.
     100001    1    1    2    0    0 -0.20971931031E+04 -0.22315461752E+04  0.57314337217E+04  0.65000000000E+04  0.15050000000E+03 0. -1.
</event>
<event>
 4    1  0.5143956E-004  0.6500000E+04  0.7818608E-02  0.7223770E-01
         52   -1    0    0    0    0  0.00000000000E+00  0.00000000000E+00  0.64930732323E+04  0.65000000000E+04  0.30000000000E+03 0. -1.
        -52   -1    0    0    0    0 -0.00000000000E+00 -0.00000000000E+00 -0.64930732323E+04  0.65000000000E+04  0.30000000000E+03 0.  1.
     100001    1    1    2    0    0  0.46969581177E+03  0.58792981820E+03 -0.64545390326E+04  0.65000000000E+04  0.15050000000E+03 0.  1.
     100001    1    1    2    0    0 -0.46969581177E+03 -0.58792981820E+03  0.64545390326E+04  0.65000000000E+04  0.15050000000E+03 0. -1.
</event>
<event>
 4    1  0.5143956E-004  0.6500000E+04  0.7818608E-02  0.7223770E-01
         52   -1    0    0    0    0  0.00000000000E+00  0.00000000000E+00  0.64930732323E+04  0.65000000000E+04  0.30000000000E+03 0.  1.
        -52   -1    0    0    0    0 -0.00000000000E+00 -0.00000000000E+00 -0.64930732323E+04  0.65000000000E+04  0.30000000000E+03 0. -1.
     100001    1    1    2    0    0 -0.19906974193E+04 -0.13286463214E+04  0.60414545010E+04  0.65000000000E+04  0.15050000000E+03 0.  1.
     100001    1    1    2    0    0  0.19906974193E+04  0.13286463214E+04 -0.60414545010E+04  0.65000000000E+04  0.15050000000E+03 0. -1.
</event>
<event>
 4    1  0.5143956E-004  0.6500000E+04  0.7818608E-02  0.7223770E-01
         52   -1    0    0    0    0  0.00000000000E+00  0.00000000000E+00  0.64930732323E+04  0.65000000000E+04  0.30000000000E+03 0. -1.
        -52   -1    0    0    0    0 -0.00000000000E+00 -0.00000000000E+00 -0.64930732323E+04  0.65000000000E+04  0.30000000000E+03 0.  1.
     100001    1    1    2    0    0 -0.24769926081E+04 -0.13313885766E+04  0.58582644040E+04  0.65000000000E+04  0.15050000000E+03 0. -1.
     100001    1    1    2    0    0  0.24769926081E+04  0.13313885766E+04 -0.58582644040E+04  0.65000000000E+04  0.15050000000E+03 0.  1.
</event>
<event>
 4    1  0.5143956E-004  0.6500000E+04  0.7818608E-02  0.7223770E-01
         52   -1    0    0    0    0  0.00000000000E+00  0.00000000000E+00  0.64930732323E+04  0.65000000000E+04  0.30000000000E+03 0.  1.
        -52   -1    0    0    0    0 -0.00000000000E+00 -0.00000000000E+00 -0.64930732323E+04  0.65000000000E+04  0.30000000000E+03 0. -1.
     100001    1    1    2    0    0 -0.11459609211E+03 -0.18843524086E+04 -0.62179927216E+04  0.65000000000E+04  0.15050000000E+03 0. -1.
     100001    1    1    2    0    0  0.11459609211E+03  0.18843524086E+04  0.62179927216E+04  0.65000000000E+04  0.15050000000E+03 0.  1.
</event>
<event>
 4    1  0.5143956E-004  0.6500000E+04  0.7818608E-02  0.7223770E-01
         52   -1    0    0    0    0  0.00000000000E+00  0.00000000000E+00  0.64930732323E+04  0.65000000000E+04  0.30000000000E+03 0. -1.
        -52   -1    0    0    0    0 -0.00000000000E+00 -0.00000000000E+00 -0.64930732323E+04  0.65000000000E+04  0.30000000000E+03 0. -1.
     100001    1    1    2    0    0 -0.52904134189E+03 -0.77012098478E+03 -0.64307370244E+04  0.65000000000E+04  0.15050000000E+03 0. -1.
     100001    1    1    2    0    0  0.52904134189E+03  0.77012098478E+03  0.64307370244E+04  0.65000000000E+04  0.15050000000E+03 0. -1.
</event>
<event>
 4    1  0.5143956E-004  0.6500000E+04  0.7818608E-02  0.7223770E-01
         52   -1    0    0    0    0  0.00000000000E+00  0.00000000000E+00  0.64930732323E+04  0.65000000000E+04  0.30000000000E+03 0.  1.
        -52   -1    0    0    0    0 -0.00000000000E+00 -0.00000000000E+00 -0.64930732323E+04  0.65000000000E+04  0.30000000000E+03 0. -1.
     100001    1    1    2    0    0 -0.47753905035E+04  0.31435413875E+04  0.30888740398E+04  0.65000000000E+04  0.15050000000E+03 0.  1.
     100001    1    1    2    0    0  0.47753905035E+04 -0.31435413875E+04 -0.30888740398E+04  0.65000000000E+04  0.15050000000E+03 0. -1.
</event>
<event>
 4    1  0.6934740E-004  0.6500000E+04  0.7818608E-02  0.7223770E-01
         52   -1    0    0    0    0  0.00000000000E+00  0.00000000000E+00  0.64930732323E+04  0.65000000000E+04  0.30000000000E+03 0.  1.
        -52   -1    0    0    0    0 -0.00000000000E+00 -0.00000000000E+00 -0.64930732323E+04  0.65000000000E+04  0.30000000000E+03 0.  1.
     100001    1    1    2    0    0 -0.13119184124E+03 -0.13434205448E+03 -0.64955439082E+04  0.65000000000E+04  0.15050000000E+03 0.  1.
     100001    1    1    2    0    0  0.13119184124E+03  0.13434205448E+03  0.64955439082E+04  0.65000000000E+04  0.15050000000E+03 0.  1.
</event>
<event>
 4    1  0.6008428E-004  0.6500000E+04  0.7818608E-02  0.7223770E-01
         52   -1    0    0    0    0  0.00000000000E+00  0.00000000000E+00  0.64930732323E+04  0.65000000000E+04  0.30000000000E+03 0.  1.
        -52   -1    0    0    0    0 -0.00000000000E+00 -0.00000000000E+00 -0.64930732323E+04  0.65000000000E+04  0.30000000000E+03 0.  1.
     100001    1    1    2    0    0 -0.13754733414E+03  0.10639378311E+03  0.64959303294E+04  0.65000000000E+04  0.15050000000E+03 0.  1.
     100001    1    1    2    0    0  0.13754733414E+03 -0.10639378311E+03 -0.64959303294E+04  0.65000000000E+04  0.15050000000E+03 0.  1.
</event>
<event>
 4    1  0.5143956E-004  0.6500000E+04  0.7818608E-02  0.7223770E-01
         52   -1    0    0    0    0  0.00000000000E+00  0.00000000000E+00  0.64930732323E+04  0.65000000000E+04  0.30000000000E+03 0. -1.
        -52   -1    0    0    0    0 -0.00000000000E+00 -0.00000000000E+00 -0.64930732323E+04  0.65000000000E+04  0.30000000000E+03 0.  1.
     100001    1    1    2    0    0  0.77880610896E+03 -0.64078173971E+04  0.74879035762E+03  0.65000000000E+04  0.15050000000E+03 0.  1.
     100001    1    1    2    0    0 -0.77880610896E+03  0.64078173971E+04 -0.74879035762E+03  0.65000000000E+04  0.15050000000E+03 0. -1.
</event>
<event>
 4    1  0.5143956E-004  0.6500000E+04  0.7818608E-02  0.7223770E-01
         52   -1    0    0    0    0  0.00000000000E+00  0.00000000000E+00  0.64930732323E+04  0.65000000000E+04  0.30000000000E+03 0. -1.
        -52   -1    0    0    0    0 -0.00000000000E+00 -0.00000000000E+00 -0.64930732323E+04  0.65000000000E+04  0.30000000000E+03 0.  1.
     100001    1    1    2    0    0  0.31328546967E+04  0.20038285657E+04 -0.53289062929E+04  0.65000000000E+04  0.15050000000E+03 0.  1.
     100001    1    1    2    0    0 -0.31328546967E+04 -0.20038285657E+04  0.53289062929E+04  0.65000000000E+04  0.15050000000E+03 0. -1.
</event>
<event>
 4    1  0.5143956E-004  0.6500000E+04  0.7818608E-02  0.7223770E-01
         52   -1    0    0    0    0  0.00000000000E+00  0.00000000000E+00  0.64930732323E+04  0.65000000000E+04  0.30000000000E+03 0. -1.
        -52   -1    0    0    0    0 -0.00000000000E+00 -0.00000000000E+00 -0.64930732323E+04  0.65000000000E+04  0.30000000000E+03 0.  1.
     100001    1    1    2    0    0 -0.59892100458E+04  0.21461364524E+04  0.13231821887E+04  0.65000000000E+04  0.15050000000E+03 0.  1.
     100001    1    1    2    0    0  0.59892100458E+04 -0.21461364524E+04 -0.13231821887E+04  0.65000000000E+04  0.15050000000E+03 0. -1.
</event>
<event>
 4    1  0.5143956E-004  0.6500000E+04  0.7818608E-02  0.7223770E-01
         52   -1    0    0    0    0  0.00000000000E+00  0.00000000000E+00  0.64930732323E+04  0.65000000000E+04  0.30000000000E+03 0.  1.
        -52   -1    0    0    0    0 -0.00000000000E+00 -0.00000000000E+00 -0.64930732323E+04  0.65000000000E+04  0.30000000000E+03 0. -1.
     100001    1    1    2    0    0 -0.11369140357E+04  0.62699245729E+04 -0.12739003398E+04  0.65000000000E+04  0.15050000000E+03 0.  1.
     100001    1    1    2    0    0  0.11369140357E+04 -0.62699245729E+04  0.12739003398E+04  0.65000000000E+04  0.15050000000E+03 0. -1.
</event>
<event>
 4    1  0.5143956E-004  0.6500000E+04  0.7818608E-02  0.7223770E-01
         52   -1    0    0    0    0  0.00000000000E+00  0.00000000000E+00  0.64930732323E+04  0.65000000000E+04  0.30000000000E+03 0. -1.
        -52   -1    0    0    0    0 -0.00000000000E+00 -0.00000000000E+00 -0.64930732323E+04  0.65000000000E+04  0.30000000000E+03 0.  1.
     100001    1    1    2    0    0 -0.69668724339E+03  0.93725957662E+03  0.63924581439E+04  0.65000000000E+04  0.15050000000E+03 0. -1.
     100001    1    1    2    0    0  0.69668724339E+03 -0.93725957662E+03 -0.63924581439E+04  0.65000000000E+04  0.15050000000E+03 0.  1.
</event>
<event>
 4    1  0.5143956E-004  0.6500000E+04  0.7818608E-02  0.7223770E-01
         52   -1    0    0    0    0  0.00000000000E+00  0.00000000000E+00  0.64930732323E+04  0.65000000000E+04  0.30000000000E+03 0. -1.
        -52   -1    0    0    0    0 -0.00000000000E+00 -0.00000000000E+00 -0.64930732323E+04  0.65000000000E+04  0.30000000000E+03 0.  1.
     100001    1    1    2    0    0  0.21992790242E+04  0.24082209227E+03  0.61100348807E+04  0.65000000000E+04  0.15050000000E+03 0. -1.
     100001    1    1    2    0    0 -0.21992790242E+04 -0.24082209227E+03 -0.61100348807E+04  0.65000000000E+04  0.15050000000E+03 0.  1.
</event>
<event>
 4    1  0.5143956E-004  0.6500000E+04  0.7818608E-02  0.7223770E-01
         52   -1    0    0    0    0  0.00000000000E+00  0.00000000000E+00  0.64930732323E+04  0.65000000000E+04  0.30000000000E+03 0. -1.
        -52   -1    0    0    0    0 -0.00000000000E+00 -0.00000000000E+00 -0.64930732323E+04  0.65000000000E+04  0.30000000000E+03 0.  1.
     100001    1    1    2    0    0  0.60377391829E+02  0.11510196270E+04 -0.63952215082E+04  0.65000000000E+04  0.15050000000E+03 0.  1.
     100001    1    1    2    0    0 -0.60377391829E+02 -0.11510196270E+04  0.63952215082E+04  0.65000000000E+04  0.15050000000E+03 0. -1.
</event>
<event>
 4    1  0.5143956E-004  0.6500000E+04  0.7818608E-02  0.7223770E-01
         52   -1    0    0    0    0  0.00000000000E+00  0.00000000000E+00  0.64930732323E+04  0.65000000000E+04  0.30000000000E+03 0.  1.
        -52   -1    0    0    0    0 -0.00000000000E+00 -0.00000000000E+00 -0.64930732323E+04  0.65000000000E+04  0.30000000000E+03 0. -1.
     100001    1    1    2    0    0 -0.68319965424E+02  0.32610694104E+03 -0.64897100394E+04  0.65000000000E+04  0.15050000000E+03 0. -1.
     100001    1    1    2    0    0  0.68319965424E+02 -0.32610694104E+03  0.64897100394E+04  0.65000000000E+04  0.15050000000E+03 0.  1.
</event>
<event>
 4    1  0.5143956E-004  0.6500000E+04  0.7818608E-02  0.7223770E-01
         52   -1    0    0    0    0  0.00000000000E+00  0.00000000000E+00  0.64930732323E+04  0.65000000000E+04  0.30000000000E+03 0.  1.
        -52   -1    0    0    0    0 -0.00000000000E+00 -0.00000000000E+00 -0.64930732323E+04  0.65000000000E+04  0.30000000000E+03 0. -1.
     100001    1    1    2    0    0 -0.90574320777E+03 -0.17101334821E+04 -0.62034202232E+04  0.65000000000E+04  0.15050000000E+03 0. -1.
     100001    1    1    2    0    0  0.90574320777E+03  0.17101334821E+04  0.62034202232E+04  0.65000000000E+04  0.15050000000E+03 0.  1.
</event>
<event>
 4    1  0.5143956E-004  0.6500000E+04  0.7818608E-02  0.7223770E-01
         52   -1    0    0    0    0  0.00000000000E+00  0.00000000000E+00  0.64930732323E+04  0.65000000000E+04  0.30000000000E+03 0. -1.
        -52   -1    0    0    0    0 -0.00000000000E+00 -0.00000000000E+00 -0.64930732323E+04  0.65000000000E+04  0.30000000000E+03 0.  1.
     100001    1    1    2    0    0 -0.25732320525E+03 -0.39612946802E+04  0.51448303155E+04  0.65000000000E+04  0.15050000000E+03 0. -1.
     100001    1    1    2    0    0  0.25732320525E+03  0.39612946802E+04 -0.51448303155E+04  0.65000000000E+04  0.15050000000E+03 0.  1.
</event>
<event>
 4    1  0.5143956E-004  0.6500000E+04  0.7818608E-02  0.7223770E-01
         52   -1    0    0    0    0  0.00000000000E+00  0.00000000000E+00  0.64930732323E+04  0.65000000000E+04  0.30000000000E+03 0.  1.
        -52   -1    0    0    0    0 -0.00000000000E+00 -0.00000000000E+00 -0.64930732323E+04  0.65000000000E+04  0.30000000000E+03 0.  1.
     100001    1    1    2    0    0 -0.11705182460E+03 -0.22684581044E+03 -0.64932418405E+04  0.65000000000E+04  0.15050000000E+03 0.  1.
     100001    1    1    2    0    0  0.11705182460E+03  0.22684581044E+03  0.64932418405E+04  0.65000000000E+04  0.15050000000E+03 0.  1.
</event>
<event>
 4    1  0.5143956E-004  0.6500000E+04  0.7818608E-02  0.7223770E-01
         52   -1    0    0    0    0  0.00000000000E+00  0.00000000000E+00  0.64930732323E+04  0.65000000000E+04  0.30000000000E+03 0.  1.
        -52   -1    0    0    0    0 -0.00000000000E+00 -0.00000000000E+00 -0.64930732323E+04  0.65000000000E+04  0.30000000000E+03 0. -1.
     100001    1    1    2    0    0 -0.11793801608E+04  0.26457061916E+04  0.58169279636E+04  0.65000000000E+04  0.15050000000E+03 0.  1.
     100001    1    1    2    0    0  0.11793801608E+04 -0.26457061916E+04 -0.58169279636E+04  0.65000000000E+04  0.15050000000E+03 0. -1.
</event>
<event>
 4    1  0.5143956E-004  0.6500000E+04  0.7818608E-02  0.7223770E-01
         52   -1    0    0    0    0  0.00000000000E+00  0.00000000000E+00  0.64930732323E+04  0.65000000000E+04  0.30000000000E+03 0. -1.
        -52   -1    0    0    0    0 -0.00000000000E+00 -0.00000000000E+00 -0.64930732323E+04  0.65000000000E+04  0.30000000000E+03 0.  1.
     100001    1    1    2    0    0  0.23734255843E+04  0.11636305707E+03 -0.60481948038E+04  0.65000000000E+04  0.15050000000E+03 0.  1.
     100001    1    1    2    0    0 -0.23734255843E+04 -0.11636305707E+03  0.60481948038E+04  0.65000000000E+04  0.15050000000E+03 0. -1.
</event>
<event>
 4    1  0.5143956E-004  0.6500000E+04  0.7818608E-02  0.7223770E-01
         52   -1    0    0    0    0  0.00000000000E+00  0.00000000000E+00  0.64930732323E+04  0.65000000000E+04  0.30000000000E+03 0.  1.
        -52   -1    0    0    0    0 -0.00000000000E+00 -0.00000000000E+00 -0.64930732323E+04  0.65000000000E+04  0.30000000000E+03 0. -1.
     100001    1    1    2    0    0 -0.25068647762E+04 -0.32997232219E+04 -0.50054775399E+04  0.65000000000E+04  0.15050000000E+03 0. -1.
     100001    1    1    2    0    0  0.25068647762E+04  0.32997232219E+04  0.50054775399E+04  0.65000000000E+04  0.15050000000E+03 0.  1.
</event>
