<event>
 4    1  0.4630618E-004  0.6500000E+04  0.7818608E-02  0.7223770E-01
         52   -1    0    0    0    0  0.00000000000E+00  0.00000000000E+00  0.64930732323E+04  0.65000000000E+04  0.30000000000E+03 0.  1.
        -52   -1    0    0    0    0 -0.00000000000E+00 -0.00000000000E+00 -0.64930732323E+04  0.65000000000E+04  0.30000000000E+03 0. -1.
     100001    1    1    2    0    0  0.37869813379E+03  0.69014720395E+02 -0.64868462632E+04  0.65000000000E+04  0.15050000000E+03 0. -1.
     100001    1    1    2    0    0 -0.37869813379E+03 -0.69014720395E+02  0.64868462632E+04  0.65000000000E+04  0.15050000000E+03 0.  1.
</event>
<event>
 4    1  0.4630618E-004  0.6500000E+04  0.7818608E-02  0.7223770E-01
         52   -1    0    0    0    0  0.00000000000E+00  0.00000000000E+00  0.64930732323E+04  0.65000000000E+04  0.30000000000E+03 0.  1.
        -52   -1    0    0    0    0 -0.00000000000E+00 -0.00000000000E+00 -0.64930732323E+04  0.65000000000E+04  0.30000000000E+03 0. -1.
     100001    1    1    2    0    0 -0.12610026584E+04 -0.25396390152E+04  0.58470039950E+04  0.65000000000E+04  0.15050000000E+03 0.  1.
     100001    1    1    2    0    0  0.12610026584E+04  0.25396390152E+04 -0.58470039950E+04  0.65000000000E+04  0.15050000000E+03 0. -1.
</event>
<event>
 4    1  0.4630618E-004  0.6500000E+04  0.7818608E-02  0.7223770E-01
         52   -1    0    0    0    0  0.00000000000E+00  0.00000000000E+00  0.64930732323E+04  0.65000000000E+04  0.30000000000E+03 0. -1.
        -52   -1    0    0    0    0 -0.00000000000E+00 -0.00000000000E+00 -0.64930732323E+04  0.65000000000E+04  0.30000000000E+03 0.  1.
     100001    1    1    2    0    0 -0.92994469936E+03 -0.15307564035E+04  0.62465460407E+04  0.65000000000E+04  0.15050000000E+03 0. -1.
     100001    1    1    2    0    0  0.92994469936E+03  0.15307564035E+04 -0.62465460407E+04  0.65000000000E+04  0.15050000000E+03 0.  1.
</event>
<event>
 4    1  0.4630618E-004  0.6500000E+04  0.7818608E-02  0.7223770E-01
         52   -1    0    0    0    0  0.00000000000E+00  0.00000000000E+00  0.64930732323E+04  0.65000000000E+04  0.30000000000E+03 0. -1.
        -52   -1    0    0    0    0 -0.00000000000E+00 -0.00000000000E+00 -0.64930732323E+04  0.65000000000E+04  0.30000000000E+03 0.  1.
     100001    1    1    2    0    0  0.85935392351E+03  0.73747748422E+03 -0.63988270444E+04  0.65000000000E+04  0.15050000000E+03 0.  1.
     100001    1    1    2    0    0 -0.85935392351E+03 -0.73747748422E+03  0.63988270444E+04  0.65000000000E+04  0.15050000000E+03 0. -1.
</event>
<event>
 4    1  0.4630618E-004  0.6500000E+04  0.7818608E-02  0.7223770E-01
         52   -1    0    0    0    0  0.00000000000E+00  0.00000000000E+00  0.64930732323E+04  0.65000000000E+04  0.30000000000E+03 0. -1.
        -52   -1    0    0    0    0 -0.00000000000E+00 -0.00000000000E+00 -0.64930732323E+04  0.65000000000E+04  0.30000000000E+03 0.  1.
     100001    1    1    2    0    0 -0.22039471438E+04  0.60830692463E+04 -0.60517376192E+03  0.65000000000E+04  0.15050000000E+03 0.  1.
     100001    1    1    2    0    0  0.22039471438E+04 -0.60830692463E+04  0.60517376192E+03  0.65000000000E+04  0.15050000000E+03 0. -1.
</event>
<event>
 4    1  0.5393975E-004  0.6500000E+04  0.7818608E-02  0.7223770E-01
         52   -1    0    0    0    0  0.00000000000E+00  0.00000000000E+00  0.64930732323E+04  0.65000000000E+04  0.30000000000E+03 0. -1.
        -52   -1    0    0    0    0 -0.00000000000E+00 -0.00000000000E+00 -0.64930732323E+04  0.65000000000E+04  0.30000000000E+03 0. -1.
     100001    1    1    2    0    0 -0.44701102300E+02 -0.87753575374E+02 -0.64975111290E+04  0.65000000000E+04  0.15050000000E+03 0. -1.
     100001    1    1    2    0    0  0.44701102300E+02  0.87753575374E+02  0.64975111290E+04  0.65000000000E+04  0.15050000000E+03 0. -1.
</event>
<event>
 4    1  0.4630618E-004  0.6500000E+04  0.7818608E-02  0.7223770E-01
         52   -1    0    0    0    0  0.00000000000E+00  0.00000000000E+00  0.64930732323E+04  0.65000000000E+04  0.30000000000E+03 0. -1.
        -52   -1    0    0    0    0 -0.00000000000E+00 -0.00000000000E+00 -0.64930732323E+04  0.65000000000E+04  0.30000000000E+03 0.  1.
     100001    1    1    2    0    0 -0.18381411215E+02  0.29710792114E+03  0.64914358009E+04  0.65000000000E+04  0.15050000000E+03 0. -1.
     100001    1    1    2    0    0  0.18381411215E+02 -0.29710792114E+03 -0.64914358009E+04  0.65000000000E+04  0.15050000000E+03 0.  1.
</event>
<event>
 4    1  0.7842238E-004  0.6500000E+04  0.7818608E-02  0.7223770E-01
         52   -1    0    0    0    0  0.00000000000E+00  0.00000000000E+00  0.64930732323E+04  0.65000000000E+04  0.30000000000E+03 0.  1.
        -52   -1    0    0    0    0 -0.00000000000E+00 -0.00000000000E+00 -0.64930732323E+04  0.65000000000E+04  0.30000000000E+03 0.  1.
     100001    1    1    2    0    0 -0.26575271857E+02  0.11214124260E+02  0.64981934219E+04  0.65000000000E+04  0.15050000000E+03 0.  1.
     100001    1    1    2    0    0  0.26575271857E+02 -0.11214124260E+02 -0.64981934219E+04  0.65000000000E+04  0.15050000000E+03 0.  1.
</event>
<event>
 4    1  0.4630618E-004  0.6500000E+04  0.7818608E-02  0.7223770E-01
         52   -1    0    0    0    0  0.00000000000E+00  0.00000000000E+00  0.64930732323E+04  0.65000000000E+04  0.30000000000E+03 0. -1.
        -52   -1    0    0    0    0 -0.00000000000E+00 -0.00000000000E+00 -0.64930732323E+04  0.65000000000E+04  0.30000000000E+03 0.  1.
     100001    1    1    2    0    0 -0.33047822088E+03  0.32057261274E+02 -0.64897693509E+04  0.65000000000E+04  0.15050000000E+03 0.  1.
     100001    1    1    2    0    0  0.33047822088E+03 -0.32057261274E+02  0.64897693509E+04  0.65000000000E+04  0.15050000000E+03 0. -1.
</event>
<event>
 4    1  0.4630618E-004  0.6500000E+04  0.7818608E-02  0.7223770E-01
         52   -1    0    0    0    0  0.00000000000E+00  0.00000000000E+00  0.64930732323E+04  0.65000000000E+04  0.30000000000E+03 0. -1.
        -52   -1    0    0    0    0 -0.00000000000E+00 -0.00000000000E+00 -0.64930732323E+04  0.65000000000E+04  0.30000000000E+03 0.  1.
     100001    1    1    2    0    0 -0.24764830945E+04 -0.15391342538E+04 -0.58073614474E+04  0.65000000000E+04  0.15050000000E+03 0.  1.
     100001    1    1    2    0    0  0.24764830945E+04  0.15391342538E+04  0.58073614474E+04  0.65000000000E+04  0.15050000000E+03 0. -1.
</event>
<event>
 4    1  0.4630618E-004  0.6500000E+04  0.7818608E-02  0.7223770E-01
         52   -1    0    0    0    0  0.00000000000E+00  0.00000000000E+00  0.64930732323E+04  0.65000000000E+04  0.30000000000E+03 0. -1.
        -52   -1    0    0    0    0 -0.00000000000E+00 -0.00000000000E+00 -0.64930732323E+04  0.65000000000E+04  0.30000000000E+03 0. -1.
     100001    1    1    2    0    0 -0.11512124271E+03 -0.10585145146E+03 -0.64963753216E+04  0.65000000000E+04  0.15050000000E+03 0. -1.
     100001    1    1    2    0    0  0.11512124271E+03  0.10585145146E+03  0.64963753216E+04  0.65000000000E+04  0.15050000000E+03 0. -1.
</event>
<event>
 4    1  0.4630618E-004  0.6500000E+04  0.7818608E-02  0.7223770E-01
         52   -1    0    0    0    0  0.00000000000E+00  0.00000000000E+00  0.64930732323E+04  0.65000000000E+04  0.30000000000E+03 0.  1.
        -52   -1    0    0    0    0 -0.00000000000E+00 -0.00000000000E+00 -0.64930732323E+04  0.65000000000E+04  0.30000000000E+03 0. -1.
     100001    1    1    2    0    0  0.58543265444E+03 -0.11281119307E+04  0.63727530808E+04  0.65000000000E+04  0.15050000000E+03 0.  1.
     100001    1    1    2    0    0 -0.58543265444E+03  0.11281119307E+04 -0.63727530808E+04  0.65000000000E+04  0.15050000000E+03 0. -1.
</event>
<event>
 4    1  0.4630618E-004  0.6500000E+04  0.7818608E-02  0.7223770E-01
         52   -1    0    0    0    0  0.00000000000E+00  0.00000000000E+00  0.64930732323E+04  0.65000000000E+04  0.30000000000E+03 0. -1.
        -52   -1    0    0    0    0 -0.00000000000E+00 -0.00000000000E+00 -0.64930732323E+04  0.65000000000E+04  0.30000000000E+03 0.  1.
     100001    1    1    2    0    0 -0.24649910707E+02  0.28693721640E+04  0.58303898254E+04  0.65000000000E+04  0.15050000000E+03 0. -1.
     100001    1    1    2    0    0  0.24649910707E+02 -0.28693721640E+04 -0.58303898254E+04  0.65000000000E+04  0.15050000000E+03 0.  1.
</event>
<event>
 4    1  0.4630618E-004  0.6500000E+04  0.7818608E-02  0.7223770E-01
         52   -1    0    0    0    0  0.00000000000E+00  0.00000000000E+00  0.64930732323E+04  0.65000000000E+04  0.30000000000E+03 0.  1.
        -52   -1    0    0    0    0 -0.00000000000E+00 -0.00000000000E+00 -0.64930732323E+04  0.65000000000E+04  0.30000000000E+03 0. -1.
     100001    1    1    2    0    0  0.30535005273E+03 -0.15974805010E+04 -0.62914360161E+04  0.65000000000E+04  0.15050000000E+03 0. -1.
     100001    1    1    2    0    0 -0.30535005273E+03  0.15974805010E+04  0.62914360161E+04  0.65000000000E+04  0.15050000000E+03 0.  1.
</event>
<event>
 4    1  0.4630618E-004  0.6500000E+04  0.7818608E-02  0.7223770E-01
         52   -1    0    0    0    0  0.00000000000E+00  0.00000000000E+00  0.64930732323E+04  0.65000000000E+04  0.30000000000E+03 0.  1.
        -52   -1    0    0    0    0 -0.00000000000E+00 -0.00000000000E+00 -0.64930732323E+04  0.65000000000E+04  0.30000000000E+03 0. -1.
     100001    1    1    2    0    0  0.11360738025E+04 -0.49961686881E+04  0.39968718400E+04  0.65000000000E+04  0.15050000000E+03 0.  1.
     100001    1    1    2    0    0 -0.11360738025E+04  0.49961686881E+04 -0.39968718400E+04  0.65000000000E+04  0.15050000000E+03 0. -1.
</event>
<event>
 4    1  0.4630618E-004  0.6500000E+04  0.7818608E-02  0.7223770E-01
         52   -1    0    0    0    0  0.00000000000E+00  0.00000000000E+00  0.64930732323E+04  0.65000000000E+04  0.30000000000E+03 0. -1.
        -52   -1    0    0    0    0 -0.00000000000E+00 -0.00000000000E+00 -0.64930732323E+04  0.65000000000E+04  0.30000000000E+03 0.  1.
     100001    1    1    2    0    0 -0.98724062386E+03  0.77245902188E+03 -0.63762067689E+04  0.65000000000E+04  0.15050000000E+03 0.  1.
     100001    1    1    2    0    0  0.98724062386E+03 -0.77245902188E+03  0.63762067689E+04  0.65000000000E+04  0.15050000000E+03 0. -1.
</event>
<event>
 4    1  0.4630618E-004  0.6500000E+04  0.7818608E-02  0.7223770E-01
         52   -1    0    0    0    0  0.00000000000E+00  0.00000000000E+00  0.64930732323E+04  0.65000000000E+04  0.30000000000E+03 0.  1.
        -52   -1    0    0    0    0 -0.00000000000E+00 -0.00000000000E+00 -0.64930732323E+04  0.65000000000E+04  0.30000000000E+03 0.  1.
     100001    1    1    2    0    0  0.24468934169E+02  0.11439776763E+03 -0.64972043351E+04  0.65000000000E+04  0.15050000000E+03 0.  1.
     100001    1    1    2    0    0 -0.24468934169E+02 -0.11439776763E+03  0.64972043351E+04  0.65000000000E+04  0.15050000000E+03 0.  1.
</event>
<event>
 4    1  0.4630618E-004  0.6500000E+04  0.7818608E-02  0.7223770E-01
         52   -1    0    0    0    0  0.00000000000E+00  0.00000000000E+00  0.64930732323E+04  0.65000000000E+04  0.30000000000E+03 0.  1.
        -52   -1    0    0    0    0 -0.00000000000E+00 -0.00000000000E+00 -0.64930732323E+04  0.65000000000E+04  0.30000000000E+03 0. -1.
     100001    1    1    2    0    0 -0.33287297518E+04 -0.49535426226E+04 -0.25708604542E+04  0.65000000000E+04  0.15050000000E+03 0.  1.
     100001    1    1    2    0    0  0.33287297518E+04  0.49535426226E+04  0.25708604542E+04  0.65000000000E+04  0.15050000000E+03 0. -1.
</event>
<event>
 4    1  0.4630618E-004  0.6500000E+04  0.7818608E-02  0.7223770E-01
         52   -1    0    0    0    0  0.00000000000E+00  0.00000000000E+00  0.64930732323E+04  0.65000000000E+04  0.30000000000E+03 0.  1.
        -52   -1    0    0    0    0 -0.00000000000E+00 -0.00000000000E+00 -0.64930732323E+04  0.65000000000E+04  0.30000000000E+03 0.  1.
     100001    1    1    2    0    0 -0.10192140559E+03  0.49708841070E+02 -0.64972679495E+04  0.65000000000E+04  0.15050000000E+03 0.  1.
     100001    1    1    2    0    0  0.10192140559E+03 -0.49708841070E+02  0.64972679495E+04  0.65000000000E+04  0.15050000000E+03 0.  1.
</event>
<event>
 4    1  0.4630618E-004  0.6500000E+04  0.7818608E-02  0.7223770E-01
         52   -1    0    0    0    0  0.00000000000E+00  0.00000000000E+00  0.64930732323E+04  0.65000000000E+04  0.30000000000E+03 0. -1.
        -52   -1    0    0    0    0 -0.00000000000E+00 -0.00000000000E+00 -0.64930732323E+04  0.65000000000E+04  0.30000000000E+03 0.  1.
     100001    1    1    2    0    0  0.41634514719E+03  0.18740643796E+03 -0.64821975668E+04  0.65000000000E+04  0.15050000000E+03 0.  1.
     100001    1    1    2    0    0 -0.41634514719E+03 -0.18740643796E+03  0.64821975668E+04  0.65000000000E+04  0.15050000000E+03 0. -1.
</event>
<event>
 4    1  0.4630618E-004  0.6500000E+04  0.7818608E-02  0.7223770E-01
         52   -1    0    0    0    0  0.00000000000E+00  0.00000000000E+00  0.64930732323E+04  0.65000000000E+04  0.30000000000E+03 0. -1.
        -52   -1    0    0    0    0 -0.00000000000E+00 -0.00000000000E+00 -0.64930732323E+04  0.65000000000E+04  0.30000000000E+03 0.  1.
     100001    1    1    2    0    0  0.51128428507E+04  0.34144990150E+04  0.21041350267E+04  0.65000000000E+04  0.15050000000E+03 0. -1.
     100001    1    1    2    0    0 -0.51128428507E+04 -0.34144990150E+04 -0.21041350267E+04  0.65000000000E+04  0.15050000000E+03 0.  1.
</event>
<event>
 4    1  0.4630618E-004  0.6500000E+04  0.7818608E-02  0.7223770E-01
         52   -1    0    0    0    0  0.00000000000E+00  0.00000000000E+00  0.64930732323E+04  0.65000000000E+04  0.30000000000E+03 0.  1.
        -52   -1    0    0    0    0 -0.00000000000E+00 -0.00000000000E+00 -0.64930732323E+04  0.65000000000E+04  0.30000000000E+03 0. -1.
     100001    1    1    2    0    0  0.54773204965E+03 -0.11292599235E+03  0.64741475942E+04  0.65000000000E+04  0.15050000000E+03 0.  1.
     100001    1    1    2    0    0 -0.54773204965E+03  0.11292599235E+03 -0.64741475942E+04  0.65000000000E+04  0.15050000000E+03 0. -1.
</event>
<event>
 4    1  0.4630618E-004  0.6500000E+04  0.7818608E-02  0.7223770E-01
         52   -1    0    0    0    0  0.00000000000E+00  0.00000000000E+00  0.64930732323E+04  0.65000000000E+04  0.30000000000E+03 0. -1.
        -52   -1    0    0    0    0 -0.00000000000E+00 -0.00000000000E+00 -0.64930732323E+04  0.65000000000E+04  0.30000000000E+03 0.  1.
     100001    1    1    2    0    0  0.18472088492E+04  0.35111533323E+03  0.62202803185E+04  0.65000000000E+04  0.15050000000E+03 0. -1.
     100001    1    1    2    0    0 -0.18472088492E+04 -0.35111533323E+03 -0.62202803185E+04  0.65000000000E+04  0.15050000000E+03 0.  1.
</event>
<event>
 4    1  0.4630618E-004  0.6500000E+04  0.7818608E-02  0.7223770E-01
         52   -1    0    0    0    0  0.00000000000E+00  0.00000000000E+00  0.64930732323E+04  0.65000000000E+04  0.30000000000E+03 0.  1.
        -52   -1    0    0    0    0 -0.00000000000E+00 -0.00000000000E+00 -0.64930732323E+04  0.65000000000E+04  0.30000000000E+03 0. -1.
     100001    1    1    2    0    0 -0.78568005515E+03  0.53198524352E+04  0.36481812823E+04  0.65000000000E+04  0.15050000000E+03 0.  1.
     100001    1    1    2    0    0  0.78568005515E+03 -0.53198524352E+04 -0.36481812823E+04  0.65000000000E+04  0.15050000000E+03 0. -1.
</event>
<event>
 4    1  0.4630618E-004  0.6500000E+04  0.7818608E-02  0.7223770E-01
         52   -1    0    0    0    0  0.00000000000E+00  0.00000000000E+00  0.64930732323E+04  0.65000000000E+04  0.30000000000E+03 0. -1.
        -52   -1    0    0    0    0 -0.00000000000E+00 -0.00000000000E+00 -0.64930732323E+04  0.65000000000E+04  0.30000000000E+03 0.  1.
     100001    1    1    2    0    0  0.33103816107E+03  0.18509700103E+04 -0.62202631381E+04  0.65000000000E+04  0.15050000000E+03 0.  1.
     100001    1    1    2    0    0 -0.33103816107E+03 -0.18509700103E+04  0.62202631381E+04  0.65000000000E+04  0.15050000000E+03 0. -1.
</event>
<event>
 4    1  0.4630618E-004  0.6500000E+04  0.7818608E-02  0.7223770E-01
         52   -1    0    0    0    0  0.00000000000E+00  0.00000000000E+00  0.64930732323E+04  0.65000000000E+04  0.30000000000E+03 0. -1.
        -52   -1    0    0    0    0 -0.00000000000E+00 -0.00000000000E+00 -0.64930732323E+04  0.65000000000E+04  0.30000000000E+03 0.  1.
     100001    1    1    2    0    0  0.70584210501E+03 -0.54186764111E+03 -0.64370424989E+04  0.65000000000E+04  0.15050000000E+03 0.  1.
     100001    1    1    2    0    0 -0.70584210501E+03  0.54186764111E+03  0.64370424989E+04  0.65000000000E+04  0.15050000000E+03 0. -1.
</event>
<event>
 4    1  0.4630618E-004  0.6500000E+04  0.7818608E-02  0.7223770E-01
         52   -1    0    0    0    0  0.00000000000E+00  0.00000000000E+00  0.64930732323E+04  0.65000000000E+04  0.30000000000E+03 0. -1.
        -52   -1    0    0    0    0 -0.00000000000E+00 -0.00000000000E+00 -0.64930732323E+04  0.65000000000E+04  0.30000000000E+03 0.  1.
     100001    1    1    2    0    0  0.19295366106E+03 -0.11269429989E+03 -0.64944144177E+04  0.65000000000E+04  0.15050000000E+03 0.  1.
     100001    1    1    2    0    0 -0.19295366106E+03  0.11269429989E+03  0.64944144177E+04  0.65000000000E+04  0.15050000000E+03 0. -1.
</event>
<event>
 4    1  0.4630618E-004  0.6500000E+04  0.7818608E-02  0.7223770E-01
         52   -1    0    0    0    0  0.00000000000E+00  0.00000000000E+00  0.64930732323E+04  0.65000000000E+04  0.30000000000E+03 0.  1.
        -52   -1    0    0    0    0 -0.00000000000E+00 -0.00000000000E+00 -0.64930732323E+04  0.65000000000E+04  0.30000000000E+03 0. -1.
     100001    1    1    2    0    0 -0.31046988219E+03  0.93949333924E+03 -0.64224847581E+04  0.65000000000E+04  0.15050000000E+03 0. -1.
     100001    1    1    2    0    0  0.31046988219E+03 -0.93949333924E+03  0.64224847581E+04  0.65000000000E+04  0.15050000000E+03 0.  1.
</event>
<event>
 4    1  0.4630618E-004  0.6500000E+04  0.7818608E-02  0.7223770E-01
         52   -1    0    0    0    0  0.00000000000E+00  0.00000000000E+00  0.64930732323E+04  0.65000000000E+04  0.30000000000E+03 0. -1.
        -52   -1    0    0    0    0 -0.00000000000E+00 -0.00000000000E+00 -0.64930732323E+04  0.65000000000E+04  0.30000000000E+03 0.  1.
     100001    1    1    2    0    0 -0.37203218844E+03 -0.25311765750E+03 -0.64826594274E+04  0.65000000000E+04  0.15050000000E+03 0.  1.
     100001    1    1    2    0    0  0.37203218844E+03  0.25311765750E+03  0.64826594274E+04  0.65000000000E+04  0.15050000000E+03 0. -1.
</event>
<event>
 4    1  0.4630618E-004  0.6500000E+04  0.7818608E-02  0.7223770E-01
         52   -1    0    0    0    0  0.00000000000E+00  0.00000000000E+00  0.64930732323E+04  0.65000000000E+04  0.30000000000E+03 0. -1.
        -52   -1    0    0    0    0 -0.00000000000E+00 -0.00000000000E+00 -0.64930732323E+04  0.65000000000E+04  0.30000000000E+03 0. -1.
     100001    1    1    2    0    0  0.50083922892E+02 -0.47167363084E+01  0.64980627192E+04  0.65000000000E+04  0.15050000000E+03 0. -1.
     100001    1    1    2    0    0 -0.50083922892E+02  0.47167363084E+01 -0.64980627192E+04  0.65000000000E+04  0.15050000000E+03 0. -1.
</event>
<event>
 4    1  0.4630618E-004  0.6500000E+04  0.7818608E-02  0.7223770E-01
         52   -1    0    0    0    0  0.00000000000E+00  0.00000000000E+00  0.64930732323E+04  0.65000000000E+04  0.30000000000E+03 0.  1.
        -52   -1    0    0    0    0 -0.00000000000E+00 -0.00000000000E+00 -0.64930732323E+04  0.65000000000E+04  0.30000000000E+03 0. -1.
     100001    1    1    2    0    0 -0.32192559169E+04 -0.19103079857E+04 -0.53117289550E+04  0.65000000000E+04  0.15050000000E+03 0. -1.
     100001    1    1    2    0    0  0.32192559169E+04  0.19103079857E+04  0.53117289550E+04  0.65000000000E+04  0.15050000000E+03 0.  1.
</event>
<event>
 4    1  0.4630618E-004  0.6500000E+04  0.7818608E-02  0.7223770E-01
         52   -1    0    0    0    0  0.00000000000E+00  0.00000000000E+00  0.64930732323E+04  0.65000000000E+04  0.30000000000E+03 0. -1.
        -52   -1    0    0    0    0 -0.00000000000E+00 -0.00000000000E+00 -0.64930732323E+04  0.65000000000E+04  0.30000000000E+03 0.  1.
     100001    1    1    2    0    0 -0.65639849506E+03 -0.48741787932E+04  0.42472193089E+04  0.65000000000E+04  0.15050000000E+03 0. -1.
     100001    1    1    2    0    0  0.65639849506E+03  0.48741787932E+04 -0.42472193089E+04  0.65000000000E+04  0.15050000000E+03 0.  1.
</event>
<event>
 4    1  0.4630618E-004  0.6500000E+04  0.7818608E-02  0.7223770E-01
         52   -1    0    0    0    0  0.00000000000E+00  0.00000000000E+00  0.64930732323E+04  0.65000000000E+04  0.30000000000E+03 0.  1.
        -52   -1    0    0    0    0 -0.00000000000E+00 -0.00000000000E+00 -0.64930732323E+04  0.65000000000E+04  0.30000000000E+03 0. -1.
     100001    1    1    2    0    0 -0.54531589033E+03 -0.23397089845E+03 -0.64711079382E+04  0.65000000000E+04  0.15050000000E+03 0. -1.
     100001    1    1    2    0    0  0.54531589033E+03  0.23397089845E+03  0.64711079382E+04  0.65000000000E+04  0.15050000000E+03 0.  1.
</event>
<event>
 4    1  0.4630618E-004  0.6500000E+04  0.7818608E-02  0.7223770E-01
         52   -1    0    0    0    0  0.00000000000E+00  0.00000000000E+00  0.64930732323E+04  0.65000000000E+04  0.30000000000E+03 0.  1.
        -52   -1    0    0    0    0 -0.00000000000E+00 -0.00000000000E+00 -0.64930732323E+04  0.65000000000E+04  0.30000000000E+03 0. -1.
     100001    1    1    2    0    0 -0.97188904722E+02 -0.12092721762E+03  0.64964052117E+04  0.65000000000E+04  0.15050000000E+03 0.  1.
     100001    1    1    2    0    0  0.97188904722E+02  0.12092721762E+03 -0.64964052117E+04  0.65000000000E+04  0.15050000000E+03 0. -1.
</event>
<event>
 4    1  0.4630618E-004  0.6500000E+04  0.7818608E-02  0.7223770E-01
         52   -1    0    0    0    0  0.00000000000E+00  0.00000000000E+00  0.64930732323E+04  0.65000000000E+04  0.30000000000E+03 0. -1.
        -52   -1    0    0    0    0 -0.00000000000E+00 -0.00000000000E+00 -0.64930732323E+04  0.65000000000E+04  0.30000000000E+03 0.  1.
     100001    1    1    2    0    0 -0.91073854708E+02 -0.69213500133E+03 -0.64606504659E+04  0.65000000000E+04  0.15050000000E+03 0.  1.
     100001    1    1    2    0    0  0.91073854708E+02  0.69213500133E+03  0.64606504659E+04  0.65000000000E+04  0.15050000000E+03 0. -1.
</event>
<event>
 4    1  0.4630618E-004  0.6500000E+04  0.7818608E-02  0.7223770E-01
         52   -1    0    0    0    0  0.00000000000E+00  0.00000000000E+00  0.64930732323E+04  0.65000000000E+04  0.30000000000E+03 0.  1.
        -52   -1    0    0    0    0 -0.00000000000E+00 -0.00000000000E+00 -0.64930732323E+04  0.65000000000E+04  0.30000000000E+03 0. -1.
     100001    1    1    2    0    0 -0.18345447375E+04 -0.21679123334E+03 -0.62301522387E+04  0.65000000000E+04  0.15050000000E+03 0. -1.
     100001    1    1    2    0    0  0.18345447375E+04  0.21679123334E+03  0.62301522387E+04  0.65000000000E+04  0.15050000000E+03 0.  1.
</event>
<event>
 4    1  0.4630618E-004  0.6500000E+04  0.7818608E-02  0.7223770E-01
         52   -1    0    0    0    0  0.00000000000E+00  0.00000000000E+00  0.64930732323E+04  0.65000000000E+04  0.30000000000E+03 0. -1.
        -52   -1    0    0    0    0 -0.00000000000E+00 -0.00000000000E+00 -0.64930732323E+04  0.65000000000E+04  0.30000000000E+03 0.  1.
     100001    1    1    2    0    0 -0.48702963846E+03  0.68035286231E+02  0.64796236836E+04  0.65000000000E+04  0.15050000000E+03 0. -1.
     100001    1    1    2    0    0  0.48702963846E+03 -0.68035286231E+02 -0.64796236836E+04  0.65000000000E+04  0.15050000000E+03 0.  1.
</event>
<event>
 4    1  0.4630618E-004  0.6500000E+04  0.7818608E-02  0.7223770E-01
         52   -1    0    0    0    0  0.00000000000E+00  0.00000000000E+00  0.64930732323E+04  0.65000000000E+04  0.30000000000E+03 0.  1.
        -52   -1    0    0    0    0 -0.00000000000E+00 -0.00000000000E+00 -0.64930732323E+04  0.65000000000E+04  0.30000000000E+03 0. -1.
     100001    1    1    2    0    0  0.26988469704E+03 -0.19159144409E+02  0.64926223460E+04  0.65000000000E+04  0.15050000000E+03 0.  1.
     100001    1    1    2    0    0 -0.26988469704E+03  0.19159144409E+02 -0.64926223460E+04  0.65000000000E+04  0.15050000000E+03 0. -1.
</event>
<event>
 4    1  0.4630618E-004  0.6500000E+04  0.7818608E-02  0.7223770E-01
         52   -1    0    0    0    0  0.00000000000E+00  0.00000000000E+00  0.64930732323E+04  0.65000000000E+04  0.30000000000E+03 0.  1.
        -52   -1    0    0    0    0 -0.00000000000E+00 -0.00000000000E+00 -0.64930732323E+04  0.65000000000E+04  0.30000000000E+03 0. -1.
     100001    1    1    2    0    0  0.13409781022E+04  0.13955921601E+04 -0.62033418415E+04  0.65000000000E+04  0.15050000000E+03 0. -1.
     100001    1    1    2    0    0 -0.13409781022E+04 -0.13955921601E+04  0.62033418415E+04  0.65000000000E+04  0.15050000000E+03 0.  1.
</event>
<event>
 4    1  0.4630618E-004  0.6500000E+04  0.7818608E-02  0.7223770E-01
         52   -1    0    0    0    0  0.00000000000E+00  0.00000000000E+00  0.64930732323E+04  0.65000000000E+04  0.30000000000E+03 0.  1.
        -52   -1    0    0    0    0 -0.00000000000E+00 -0.00000000000E+00 -0.64930732323E+04  0.65000000000E+04  0.30000000000E+03 0. -1.
     100001    1    1    2    0    0  0.11532192935E+04 -0.22748854230E+04  0.59768161527E+04  0.65000000000E+04  0.15050000000E+03 0.  1.
     100001    1    1    2    0    0 -0.11532192935E+04  0.22748854230E+04 -0.59768161527E+04  0.65000000000E+04  0.15050000000E+03 0. -1.
</event>
<event>
 4    1  0.4630618E-004  0.6500000E+04  0.7818608E-02  0.7223770E-01
         52   -1    0    0    0    0  0.00000000000E+00  0.00000000000E+00  0.64930732323E+04  0.65000000000E+04  0.30000000000E+03 0.  1.
        -52   -1    0    0    0    0 -0.00000000000E+00 -0.00000000000E+00 -0.64930732323E+04  0.65000000000E+04  0.30000000000E+03 0. -1.
     100001    1    1    2    0    0 -0.88629941954E+03 -0.11871222446E+04  0.63271291962E+04  0.65000000000E+04  0.15050000000E+03 0.  1.
     100001    1    1    2    0    0  0.88629941954E+03  0.11871222446E+04 -0.63271291962E+04  0.65000000000E+04  0.15050000000E+03 0. -1.
</event>
<event>
 4    1  0.4630618E-004  0.6500000E+04  0.7818608E-02  0.7223770E-01
         52   -1    0    0    0    0  0.00000000000E+00  0.00000000000E+00  0.64930732323E+04  0.65000000000E+04  0.30000000000E+03 0.  1.
        -52   -1    0    0    0    0 -0.00000000000E+00 -0.00000000000E+00 -0.64930732323E+04  0.65000000000E+04  0.30000000000E+03 0. -1.
     100001    1    1    2    0    0 -0.30126254043E+03  0.21635875018E+03 -0.64876636413E+04  0.65000000000E+04  0.15050000000E+03 0. -1.
     100001    1    1    2    0    0  0.30126254043E+03 -0.21635875018E+03  0.64876636413E+04  0.65000000000E+04  0.15050000000E+03 0.  1.
</event>
<event>
 4    1  0.4630618E-004  0.6500000E+04  0.7818608E-02  0.7223770E-01
         52   -1    0    0    0    0  0.00000000000E+00  0.00000000000E+00  0.64930732323E+04  0.65000000000E+04  0.30000000000E+03 0. -1.
        -52   -1    0    0    0    0 -0.00000000000E+00 -0.00000000000E+00 -0.64930732323E+04  0.65000000000E+04  0.30000000000E+03 0.  1.
     100001    1    1    2    0    0  0.46239754899E+03  0.60671030191E+03  0.64533278908E+04  0.65000000000E+04  0.15050000000E+03 0. -1.
     100001    1    1    2    0    0 -0.46239754899E+03 -0.60671030191E+03 -0.64533278908E+04  0.65000000000E+04  0.15050000000E+03 0.  1.
</event>
<event>
 4    1  0.4630618E-004  0.6500000E+04  0.7818608E-02  0.7223770E-01
         52   -1    0    0    0    0  0.00000000000E+00  0.00000000000E+00  0.64930732323E+04  0.65000000000E+04  0.30000000000E+03 0. -1.
        -52   -1    0    0    0    0 -0.00000000000E+00 -0.00000000000E+00 -0.64930732323E+04  0.65000000000E+04  0.30000000000E+03 0.  1.
     100001    1    1    2    0    0 -0.54779695874E+03 -0.16153388691E+04  0.62704025852E+04  0.65000000000E+04  0.15050000000E+03 0. -1.
     100001    1    1    2    0    0  0.54779695874E+03  0.16153388691E+04 -0.62704025852E+04  0.65000000000E+04  0.15050000000E+03 0.  1.
</event>
<event>
 4    1  0.4630618E-004  0.6500000E+04  0.7818608E-02  0.7223770E-01
         52   -1    0    0    0    0  0.00000000000E+00  0.00000000000E+00  0.64930732323E+04  0.65000000000E+04  0.30000000000E+03 0.  1.
        -52   -1    0    0    0    0 -0.00000000000E+00 -0.00000000000E+00 -0.64930732323E+04  0.65000000000E+04  0.30000000000E+03 0. -1.
     100001    1    1    2    0    0  0.26229822645E+04  0.12160303660E+04  0.58196721505E+04  0.65000000000E+04  0.15050000000E+03 0.  1.
     100001    1    1    2    0    0 -0.26229822645E+04 -0.12160303660E+04 -0.58196721505E+04  0.65000000000E+04  0.15050000000E+03 0. -1.
</event>
<event>
 4    1  0.4630618E-004  0.6500000E+04  0.7818608E-02  0.7223770E-01
         52   -1    0    0    0    0  0.00000000000E+00  0.00000000000E+00  0.64930732323E+04  0.65000000000E+04  0.30000000000E+03 0.  1.
        -52   -1    0    0    0    0 -0.00000000000E+00 -0.00000000000E+00 -0.64930732323E+04  0.65000000000E+04  0.30000000000E+03 0.  1.
     100001    1    1    2    0    0 -0.47130819368E+03  0.23222465883E+03 -0.64769815535E+04  0.65000000000E+04  0.15050000000E+03 0.  1.
     100001    1    1    2    0    0  0.47130819368E+03 -0.23222465883E+03  0.64769815535E+04  0.65000000000E+04  0.15050000000E+03 0.  1.
</event>
<event>
 4    1  0.4630618E-004  0.6500000E+04  0.7818608E-02  0.7223770E-01
         52   -1    0    0    0    0  0.00000000000E+00  0.00000000000E+00  0.64930732323E+04  0.65000000000E+04  0.30000000000E+03 0. -1.
        -52   -1    0    0    0    0 -0.00000000000E+00 -0.00000000000E+00 -0.64930732323E+04  0.65000000000E+04  0.30000000000E+03 0. -1.
     100001    1    1    2    0    0 -0.34907282780E+03  0.15303482883E+03 -0.64870700823E+04  0.65000000000E+04  0.15050000000E+03 0. -1.
     100001    1    1    2    0    0  0.34907282780E+03 -0.15303482883E+03  0.64870700823E+04  0.65000000000E+04  0.15050000000E+03 0. -1.
</event>
<event>
 4    1  0.4630618E-004  0.6500000E+04  0.7818608E-02  0.7223770E-01
         52   -1    0    0    0    0  0.00000000000E+00  0.00000000000E+00  0.64930732323E+04  0.65000000000E+04  0.30000000000E+03 0. -1.
        -52   -1    0    0    0    0 -0.00000000000E+00 -0.00000000000E+00 -0.64930732323E+04  0.65000000000E+04  0.30000000000E+03 0.  1.
     100001    1    1    2    0    0  0.50454031686E+04  0.62279169150E+03  0.40476396981E+04  0.65000000000E+04  0.15050000000E+03 0. -1.
     100001    1    1    2    0    0 -0.50454031686E+04 -0.62279169150E+03 -0.40476396981E+04  0.65000000000E+04  0.15050000000E+03 0.  1.
</event>
<event>
 4    1  0.4630618E-004  0.6500000E+04  0.7818608E-02  0.7223770E-01
         52   -1    0    0    0    0  0.00000000000E+00  0.00000000000E+00  0.64930732323E+04  0.65000000000E+04  0.30000000000E+03 0. -1.
        -52   -1    0    0    0    0 -0.00000000000E+00 -0.00000000000E+00 -0.64930732323E+04  0.65000000000E+04  0.30000000000E+03 0.  1.
     100001    1    1    2    0    0 -0.34673266458E+04  0.21821468751E+04  0.50441283387E+04  0.65000000000E+04  0.15050000000E+03 0. -1.
     100001    1    1    2    0    0  0.34673266458E+04 -0.21821468751E+04 -0.50441283387E+04  0.65000000000E+04  0.15050000000E+03 0.  1.
</event>
<event>
 4    1  0.4630618E-004  0.6500000E+04  0.7818608E-02  0.7223770E-01
         52   -1    0    0    0    0  0.00000000000E+00  0.00000000000E+00  0.64930732323E+04  0.65000000000E+04  0.30000000000E+03 0. -1.
        -52   -1    0    0    0    0 -0.00000000000E+00 -0.00000000000E+00 -0.64930732323E+04  0.65000000000E+04  0.30000000000E+03 0.  1.
     100001    1    1    2    0    0  0.21084926615E+03 -0.24205909879E+03  0.64903235458E+04  0.65000000000E+04  0.15050000000E+03 0. -1.
     100001    1    1    2    0    0 -0.21084926615E+03  0.24205909879E+03 -0.64903235458E+04  0.65000000000E+04  0.15050000000E+03 0.  1.
</event>
<event>
 4    1  0.4630618E-004  0.6500000E+04  0.7818608E-02  0.7223770E-01
         52   -1    0    0    0    0  0.00000000000E+00  0.00000000000E+00  0.64930732323E+04  0.65000000000E+04  0.30000000000E+03 0.  1.
        -52   -1    0    0    0    0 -0.00000000000E+00 -0.00000000000E+00 -0.64930732323E+04  0.65000000000E+04  0.30000000000E+03 0. -1.
     100001    1    1    2    0    0 -0.64593788920E+04 -0.70861389217E+03  0.40502245627E+02  0.65000000000E+04  0.15050000000E+03 0.  1.
     100001    1    1    2    0    0  0.64593788920E+04  0.70861389217E+03 -0.40502245627E+02  0.65000000000E+04  0.15050000000E+03 0. -1.
</event>
<event>
 4    1  0.4630618E-004  0.6500000E+04  0.7818608E-02  0.7223770E-01
         52   -1    0    0    0    0  0.00000000000E+00  0.00000000000E+00  0.64930732323E+04  0.65000000000E+04  0.30000000000E+03 0. -1.
        -52   -1    0    0    0    0 -0.00000000000E+00 -0.00000000000E+00 -0.64930732323E+04  0.65000000000E+04  0.30000000000E+03 0. -1.
     100001    1    1    2    0    0 -0.67183229429E+02 -0.31389222753E+03  0.64903241701E+04  0.65000000000E+04  0.15050000000E+03 0. -1.
     100001    1    1    2    0    0  0.67183229429E+02  0.31389222753E+03 -0.64903241701E+04  0.65000000000E+04  0.15050000000E+03 0. -1.
</event>
<event>
 4    1  0.4965685E-004  0.6500000E+04  0.7818608E-02  0.7223770E-01
         52   -1    0    0    0    0  0.00000000000E+00  0.00000000000E+00  0.64930732323E+04  0.65000000000E+04  0.30000000000E+03 0. -1.
        -52   -1    0    0    0    0 -0.00000000000E+00 -0.00000000000E+00 -0.64930732323E+04  0.65000000000E+04  0.30000000000E+03 0. -1.
     100001    1    1    2    0    0  0.10083924191E+03  0.22658947353E+03 -0.64935228041E+04  0.65000000000E+04  0.15050000000E+03 0. -1.
     100001    1    1    2    0    0 -0.10083924191E+03 -0.22658947353E+03  0.64935228041E+04  0.65000000000E+04  0.15050000000E+03 0. -1.
</event>
<event>
 4    1  0.4630618E-004  0.6500000E+04  0.7818608E-02  0.7223770E-01
         52   -1    0    0    0    0  0.00000000000E+00  0.00000000000E+00  0.64930732323E+04  0.65000000000E+04  0.30000000000E+03 0. -1.
        -52   -1    0    0    0    0 -0.00000000000E+00 -0.00000000000E+00 -0.64930732323E+04  0.65000000000E+04  0.30000000000E+03 0. -1.
     100001    1    1    2    0    0 -0.16805897063E+03  0.31661901576E+03 -0.64883633014E+04  0.65000000000E+04  0.15050000000E+03 0. -1.
     100001    1    1    2    0    0  0.16805897063E+03 -0.31661901576E+03  0.64883633014E+04  0.65000000000E+04  0.15050000000E+03 0. -1.
</event>
<event>
 4    1  0.4630618E-004  0.6500000E+04  0.7818608E-02  0.7223770E-01
         52   -1    0    0    0    0  0.00000000000E+00  0.00000000000E+00  0.64930732323E+04  0.65000000000E+04  0.30000000000E+03 0. -1.
        -52   -1    0    0    0    0 -0.00000000000E+00 -0.00000000000E+00 -0.64930732323E+04  0.65000000000E+04  0.30000000000E+03 0.  1.
     100001    1    1    2    0    0  0.36988150696E+04 -0.25444940554E+04 -0.46980492582E+04  0.65000000000E+04  0.15050000000E+03 0. -1.
     100001    1    1    2    0    0 -0.36988150696E+04  0.25444940554E+04  0.46980492582E+04  0.65000000000E+04  0.15050000000E+03 0.  1.
</event>
<event>
 4    1  0.4630618E-004  0.6500000E+04  0.7818608E-02  0.7223770E-01
         52   -1    0    0    0    0  0.00000000000E+00  0.00000000000E+00  0.64930732323E+04  0.65000000000E+04  0.30000000000E+03 0.  1.
        -52   -1    0    0    0    0 -0.00000000000E+00 -0.00000000000E+00 -0.64930732323E+04  0.65000000000E+04  0.30000000000E+03 0.  1.
     100001    1    1    2    0    0  0.20750997585E+03  0.44988823759E+03 -0.64793433258E+04  0.65000000000E+04  0.15050000000E+03 0.  1.
     100001    1    1    2    0    0 -0.20750997585E+03 -0.44988823759E+03  0.64793433258E+04  0.65000000000E+04  0.15050000000E+03 0.  1.
</event>
<event>
 4    1  0.4630618E-004  0.6500000E+04  0.7818608E-02  0.7223770E-01
         52   -1    0    0    0    0  0.00000000000E+00  0.00000000000E+00  0.64930732323E+04  0.65000000000E+04  0.30000000000E+03 0.  1.
        -52   -1    0    0    0    0 -0.00000000000E+00 -0.00000000000E+00 -0.64930732323E+04  0.65000000000E+04  0.30000000000E+03 0. -1.
     100001    1    1    2    0    0  0.69413553070E+03 -0.54741842485E+03  0.64378458108E+04  0.65000000000E+04  0.15050000000E+03 0.  1.
     100001    1    1    2    0    0 -0.69413553070E+03  0.54741842485E+03 -0.64378458108E+04  0.65000000000E+04  0.15050000000E+03 0. -1.
</event>
<event>
 4    1  0.4630618E-004  0.6500000E+04  0.7818608E-02  0.7223770E-01
         52   -1    0    0    0    0  0.00000000000E+00  0.00000000000E+00  0.64930732323E+04  0.65000000000E+04  0.30000000000E+03 0.  1.
        -52   -1    0    0    0    0 -0.00000000000E+00 -0.00000000000E+00 -0.64930732323E+04  0.65000000000E+04  0.30000000000E+03 0.  1.
     100001    1    1    2    0    0  0.10760496676E+04 -0.69511900308E+03  0.63707359414E+04  0.65000000000E+04  0.15050000000E+03 0.  1.
     100001    1    1    2    0    0 -0.10760496676E+04  0.69511900308E+03 -0.63707359414E+04  0.65000000000E+04  0.15050000000E+03 0.  1.
</event>
<event>
 4    1  0.7115417E-004  0.6500000E+04  0.7818608E-02  0.7223770E-01
         52   -1    0    0    0    0  0.00000000000E+00  0.00000000000E+00  0.64930732323E+04  0.65000000000E+04  0.30000000000E+03 0.  1.
        -52   -1    0    0    0    0 -0.00000000000E+00 -0.00000000000E+00 -0.64930732323E+04  0.65000000000E+04  0.30000000000E+03 0.  1.
     100001    1    1    2    0    0  0.78910352127E+01 -0.62513289140E+02 -0.64979519520E+04  0.65000000000E+04  0.15050000000E+03 0.  1.
     100001    1    1    2    0    0 -0.78910352127E+01  0.62513289140E+02  0.64979519520E+04  0.65000000000E+04  0.15050000000E+03 0.  1.
</event>
<event>
 4    1  0.4630618E-004  0.6500000E+04  0.7818608E-02  0.7223770E-01
         52   -1    0    0    0    0  0.00000000000E+00  0.00000000000E+00  0.64930732323E+04  0.65000000000E+04  0.30000000000E+03 0.  1.
        -52   -1    0    0    0    0 -0.00000000000E+00 -0.00000000000E+00 -0.64930732323E+04  0.65000000000E+04  0.30000000000E+03 0. -1.
     100001    1    1    2    0    0 -0.11639276763E+04 -0.84858946575E+03 -0.63366014576E+04  0.65000000000E+04  0.15050000000E+03 0. -1.
     100001    1    1    2    0    0  0.11639276763E+04  0.84858946575E+03  0.63366014576E+04  0.65000000000E+04  0.15050000000E+03 0.  1.
</event>
<event>
 4    1  0.4630618E-004  0.6500000E+04  0.7818608E-02  0.7223770E-01
         52   -1    0    0    0    0  0.00000000000E+00  0.00000000000E+00  0.64930732323E+04  0.65000000000E+04  0.30000000000E+03 0. -1.
        -52   -1    0    0    0    0 -0.00000000000E+00 -0.00000000000E+00 -0.64930732323E+04  0.65000000000E+04  0.30000000000E+03 0.  1.
     100001    1    1    2    0    0 -0.37673237739E+02  0.48683736067E+03  0.64798857908E+04  0.65000000000E+04  0.15050000000E+03 0. -1.
     100001    1    1    2    0    0  0.37673237739E+02 -0.48683736067E+03 -0.64798857908E+04  0.65000000000E+04  0.15050000000E+03 0.  1.
</event>
<event>
 4    1  0.4630618E-004  0.6500000E+04  0.7818608E-02  0.7223770E-01
         52   -1    0    0    0    0  0.00000000000E+00  0.00000000000E+00  0.64930732323E+04  0.65000000000E+04  0.30000000000E+03 0. -1.
        -52   -1    0    0    0    0 -0.00000000000E+00 -0.00000000000E+00 -0.64930732323E+04  0.65000000000E+04  0.30000000000E+03 0.  1.
     100001    1    1    2    0    0 -0.79886691810E+02 -0.25811151620E+04 -0.59631210274E+04  0.65000000000E+04  0.15050000000E+03 0.  1.
     100001    1    1    2    0    0  0.79886691810E+02  0.25811151620E+04  0.59631210274E+04  0.65000000000E+04  0.15050000000E+03 0. -1.
</event>
<event>
 4    1  0.4630618E-004  0.6500000E+04  0.7818608E-02  0.7223770E-01
         52   -1    0    0    0    0  0.00000000000E+00  0.00000000000E+00  0.64930732323E+04  0.65000000000E+04  0.30000000000E+03 0. -1.
        -52   -1    0    0    0    0 -0.00000000000E+00 -0.00000000000E+00 -0.64930732323E+04  0.65000000000E+04  0.30000000000E+03 0.  1.
     100001    1    1    2    0    0 -0.34322410026E+04 -0.39895851586E+04 -0.38118606627E+04  0.65000000000E+04  0.15050000000E+03 0.  1.
     100001    1    1    2    0    0  0.34322410026E+04  0.39895851586E+04  0.38118606627E+04  0.65000000000E+04  0.15050000000E+03 0. -1.
</event>
<event>
 4    1  0.4630618E-004  0.6500000E+04  0.7818608E-02  0.7223770E-01
         52   -1    0    0    0    0  0.00000000000E+00  0.00000000000E+00  0.64930732323E+04  0.65000000000E+04  0.30000000000E+03 0.  1.
        -52   -1    0    0    0    0 -0.00000000000E+00 -0.00000000000E+00 -0.64930732323E+04  0.65000000000E+04  0.30000000000E+03 0. -1.
     100001    1    1    2    0    0 -0.58615900980E+02  0.34047001151E+04  0.55346120960E+04  0.65000000000E+04  0.15050000000E+03 0.  1.
     100001    1    1    2    0    0  0.58615900980E+02 -0.34047001151E+04 -0.55346120960E+04  0.65000000000E+04  0.15050000000E+03 0. -1.
</event>
<event>
 4    1  0.4630618E-004  0.6500000E+04  0.7818608E-02  0.7223770E-01
         52   -1    0    0    0    0  0.00000000000E+00  0.00000000000E+00  0.64930732323E+04  0.65000000000E+04  0.30000000000E+03 0.  1.
        -52   -1    0    0    0    0 -0.00000000000E+00 -0.00000000000E+00 -0.64930732323E+04  0.65000000000E+04  0.30000000000E+03 0. -1.
     100001    1    1    2    0    0  0.29615334545E+03  0.17138926492E+03 -0.64892425341E+04  0.65000000000E+04  0.15050000000E+03 0. -1.
     100001    1    1    2    0    0 -0.29615334545E+03 -0.17138926492E+03  0.64892425341E+04  0.65000000000E+04  0.15050000000E+03 0.  1.
</event>
<event>
 4    1  0.4630618E-004  0.6500000E+04  0.7818608E-02  0.7223770E-01
         52   -1    0    0    0    0  0.00000000000E+00  0.00000000000E+00  0.64930732323E+04  0.65000000000E+04  0.30000000000E+03 0.  1.
        -52   -1    0    0    0    0 -0.00000000000E+00 -0.00000000000E+00 -0.64930732323E+04  0.65000000000E+04  0.30000000000E+03 0. -1.
     100001    1    1    2    0    0 -0.13848663094E+04 -0.51112237495E+03  0.63283685870E+04  0.65000000000E+04  0.15050000000E+03 0.  1.
     100001    1    1    2    0    0  0.13848663094E+04  0.51112237495E+03 -0.63283685870E+04  0.65000000000E+04  0.15050000000E+03 0. -1.
</event>
<event>
 4    1  0.4630618E-004  0.6500000E+04  0.7818608E-02  0.7223770E-01
         52   -1    0    0    0    0  0.00000000000E+00  0.00000000000E+00  0.64930732323E+04  0.65000000000E+04  0.30000000000E+03 0. -1.
        -52   -1    0    0    0    0 -0.00000000000E+00 -0.00000000000E+00 -0.64930732323E+04  0.65000000000E+04  0.30000000000E+03 0.  1.
     100001    1    1    2    0    0  0.20943902049E+04 -0.25253124910E+04  0.56092491692E+04  0.65000000000E+04  0.15050000000E+03 0. -1.
     100001    1    1    2    0    0 -0.20943902049E+04  0.25253124910E+04 -0.56092491692E+04  0.65000000000E+04  0.15050000000E+03 0.  1.
</event>
<event>
 4    1  0.4630618E-004  0.6500000E+04  0.7818608E-02  0.7223770E-01
         52   -1    0    0    0    0  0.00000000000E+00  0.00000000000E+00  0.64930732323E+04  0.65000000000E+04  0.30000000000E+03 0.  1.
        -52   -1    0    0    0    0 -0.00000000000E+00 -0.00000000000E+00 -0.64930732323E+04  0.65000000000E+04  0.30000000000E+03 0.  1.
     100001    1    1    2    0    0  0.44706564774E+02  0.29512592711E+03  0.64913982901E+04  0.65000000000E+04  0.15050000000E+03 0.  1.
     100001    1    1    2    0    0 -0.44706564774E+02 -0.29512592711E+03 -0.64913982901E+04  0.65000000000E+04  0.15050000000E+03 0.  1.
</event>
<event>
 4    1  0.4630618E-004  0.6500000E+04  0.7818608E-02  0.7223770E-01
         52   -1    0    0    0    0  0.00000000000E+00  0.00000000000E+00  0.64930732323E+04  0.65000000000E+04  0.30000000000E+03 0.  1.
        -52   -1    0    0    0    0 -0.00000000000E+00 -0.00000000000E+00 -0.64930732323E+04  0.65000000000E+04  0.30000000000E+03 0.  1.
     100001    1    1    2    0    0  0.11974809841E+03 -0.20521317984E+02 -0.64971215949E+04  0.65000000000E+04  0.15050000000E+03 0.  1.
     100001    1    1    2    0    0 -0.11974809841E+03  0.20521317984E+02  0.64971215949E+04  0.65000000000E+04  0.15050000000E+03 0.  1.
</event>
<event>
 4    1  0.4630618E-004  0.6500000E+04  0.7818608E-02  0.7223770E-01
         52   -1    0    0    0    0  0.00000000000E+00  0.00000000000E+00  0.64930732323E+04  0.65000000000E+04  0.30000000000E+03 0.  1.
        -52   -1    0    0    0    0 -0.00000000000E+00 -0.00000000000E+00 -0.64930732323E+04  0.65000000000E+04  0.30000000000E+03 0. -1.
     100001    1    1    2    0    0  0.16640307785E+04  0.59079280201E+04 -0.21341831757E+04  0.65000000000E+04  0.15050000000E+03 0. -1.
     100001    1    1    2    0    0 -0.16640307785E+04 -0.59079280201E+04  0.21341831757E+04  0.65000000000E+04  0.15050000000E+03 0.  1.
</event>
<event>
 4    1  0.4630618E-004  0.6500000E+04  0.7818608E-02  0.7223770E-01
         52   -1    0    0    0    0  0.00000000000E+00  0.00000000000E+00  0.64930732323E+04  0.65000000000E+04  0.30000000000E+03 0.  1.
        -52   -1    0    0    0    0 -0.00000000000E+00 -0.00000000000E+00 -0.64930732323E+04  0.65000000000E+04  0.30000000000E+03 0. -1.
     100001    1    1    2    0    0  0.58243185235E+03  0.23701324074E+03  0.64677621795E+04  0.65000000000E+04  0.15050000000E+03 0.  1.
     100001    1    1    2    0    0 -0.58243185235E+03 -0.23701324074E+03 -0.64677621795E+04  0.65000000000E+04  0.15050000000E+03 0. -1.
</event>
<event>
 4    1  0.4630618E-004  0.6500000E+04  0.7818608E-02  0.7223770E-01
         52   -1    0    0    0    0  0.00000000000E+00  0.00000000000E+00  0.64930732323E+04  0.65000000000E+04  0.30000000000E+03 0.  1.
        -52   -1    0    0    0    0 -0.00000000000E+00 -0.00000000000E+00 -0.64930732323E+04  0.65000000000E+04  0.30000000000E+03 0. -1.
     100001    1    1    2    0    0  0.11139506776E+04  0.74227444305E+02 -0.64016368160E+04  0.65000000000E+04  0.15050000000E+03 0. -1.
     100001    1    1    2    0    0 -0.11139506776E+04 -0.74227444305E+02  0.64016368160E+04  0.65000000000E+04  0.15050000000E+03 0.  1.
</event>
<event>
 4    1  0.4630618E-004  0.6500000E+04  0.7818608E-02  0.7223770E-01
         52   -1    0    0    0    0  0.00000000000E+00  0.00000000000E+00  0.64930732323E+04  0.65000000000E+04  0.30000000000E+03 0.  1.
        -52   -1    0    0    0    0 -0.00000000000E+00 -0.00000000000E+00 -0.64930732323E+04  0.65000000000E+04  0.30000000000E+03 0. -1.
     100001    1    1    2    0    0 -0.95303543545E+03  0.16507455760E+04  0.62124159754E+04  0.65000000000E+04  0.15050000000E+03 0.  1.
     100001    1    1    2    0    0  0.95303543545E+03 -0.16507455760E+04 -0.62124159754E+04  0.65000000000E+04  0.15050000000E+03 0. -1.
</event>
<event>
 4    1  0.4630618E-004  0.6500000E+04  0.7818608E-02  0.7223770E-01
         52   -1    0    0    0    0  0.00000000000E+00  0.00000000000E+00  0.64930732323E+04  0.65000000000E+04  0.30000000000E+03 0.  1.
        -52   -1    0    0    0    0 -0.00000000000E+00 -0.00000000000E+00 -0.64930732323E+04  0.65000000000E+04  0.30000000000E+03 0. -1.
     100001    1    1    2    0    0  0.20405927872E+04 -0.35320205333E+04  0.50584742540E+04  0.65000000000E+04  0.15050000000E+03 0.  1.
     100001    1    1    2    0    0 -0.20405927872E+04  0.35320205333E+04 -0.50584742540E+04  0.65000000000E+04  0.15050000000E+03 0. -1.
</event>
<event>
 4    1  0.4630618E-004  0.6500000E+04  0.7818608E-02  0.7223770E-01
         52   -1    0    0    0    0  0.00000000000E+00  0.00000000000E+00  0.64930732323E+04  0.65000000000E+04  0.30000000000E+03 0. -1.
        -52   -1    0    0    0    0 -0.00000000000E+00 -0.00000000000E+00 -0.64930732323E+04  0.65000000000E+04  0.30000000000E+03 0.  1.
     100001    1    1    2    0    0 -0.63837578185E+03 -0.30669898657E+03  0.64595481144E+04  0.65000000000E+04  0.15050000000E+03 0. -1.
     100001    1    1    2    0    0  0.63837578185E+03  0.30669898657E+03 -0.64595481144E+04  0.65000000000E+04  0.15050000000E+03 0.  1.
</event>
<event>
 4    1  0.5872325E-004  0.6500000E+04  0.7818608E-02  0.7223770E-01
         52   -1    0    0    0    0  0.00000000000E+00  0.00000000000E+00  0.64930732323E+04  0.65000000000E+04  0.30000000000E+03 0.  1.
        -52   -1    0    0    0    0 -0.00000000000E+00 -0.00000000000E+00 -0.64930732323E+04  0.65000000000E+04  0.30000000000E+03 0.  1.
     100001    1    1    2    0    0 -0.20720846978E+02 -0.15241467135E+03 -0.64964367283E+04  0.65000000000E+04  0.15050000000E+03 0.  1.
     100001    1    1    2    0    0  0.20720846978E+02  0.15241467135E+03  0.64964367283E+04  0.65000000000E+04  0.15050000000E+03 0.  1.
</event>
<event>
 4    1  0.4630618E-004  0.6500000E+04  0.7818608E-02  0.7223770E-01
         52   -1    0    0    0    0  0.00000000000E+00  0.00000000000E+00  0.64930732323E+04  0.65000000000E+04  0.30000000000E+03 0.  1.
        -52   -1    0    0    0    0 -0.00000000000E+00 -0.00000000000E+00 -0.64930732323E+04  0.65000000000E+04  0.30000000000E+03 0. -1.
     100001    1    1    2    0    0  0.26444038207E+04  0.19297544418E+04  0.56134237304E+04  0.65000000000E+04  0.15050000000E+03 0.  1.
     100001    1    1    2    0    0 -0.26444038207E+04 -0.19297544418E+04 -0.56134237304E+04  0.65000000000E+04  0.15050000000E+03 0. -1.
</event>
<event>
 4    1  0.4630618E-004  0.6500000E+04  0.7818608E-02  0.7223770E-01
         52   -1    0    0    0    0  0.00000000000E+00  0.00000000000E+00  0.64930732323E+04  0.65000000000E+04  0.30000000000E+03 0.  1.
        -52   -1    0    0    0    0 -0.00000000000E+00 -0.00000000000E+00 -0.64930732323E+04  0.65000000000E+04  0.30000000000E+03 0. -1.
     100001    1    1    2    0    0 -0.35903574758E+04  0.72859031705E+03 -0.53671071441E+04  0.65000000000E+04  0.15050000000E+03 0. -1.
     100001    1    1    2    0    0  0.35903574758E+04 -0.72859031705E+03  0.53671071441E+04  0.65000000000E+04  0.15050000000E+03 0.  1.
</event>
<event>
 4    1  0.4630618E-004  0.6500000E+04  0.7818608E-02  0.7223770E-01
         52   -1    0    0    0    0  0.00000000000E+00  0.00000000000E+00  0.64930732323E+04  0.65000000000E+04  0.30000000000E+03 0. -1.
        -52   -1    0    0    0    0 -0.00000000000E+00 -0.00000000000E+00 -0.64930732323E+04  0.65000000000E+04  0.30000000000E+03 0.  1.
     100001    1    1    2    0    0  0.14769562329E+04 -0.26346511750E+04 -0.57536565089E+04  0.65000000000E+04  0.15050000000E+03 0.  1.
     100001    1    1    2    0    0 -0.14769562329E+04  0.26346511750E+04  0.57536565089E+04  0.65000000000E+04  0.15050000000E+03 0. -1.
</event>
<event>
 4    1  0.4630618E-004  0.6500000E+04  0.7818608E-02  0.7223770E-01
         52   -1    0    0    0    0  0.00000000000E+00  0.00000000000E+00  0.64930732323E+04  0.65000000000E+04  0.30000000000E+03 0. -1.
        -52   -1    0    0    0    0 -0.00000000000E+00 -0.00000000000E+00 -0.64930732323E+04  0.65000000000E+04  0.30000000000E+03 0. -1.
     100001    1    1    2    0    0  0.70693123330E+03  0.58875408087E+02  0.64594219298E+04  0.65000000000E+04  0.15050000000E+03 0. -1.
     100001    1    1    2    0    0 -0.70693123330E+03 -0.58875408087E+02 -0.64594219298E+04  0.65000000000E+04  0.15050000000E+03 0. -1.
</event>
<event>
 4    1  0.4630618E-004  0.6500000E+04  0.7818608E-02  0.7223770E-01
         52   -1    0    0    0    0  0.00000000000E+00  0.00000000000E+00  0.64930732323E+04  0.65000000000E+04  0.30000000000E+03 0. -1.
        -52   -1    0    0    0    0 -0.00000000000E+00 -0.00000000000E+00 -0.64930732323E+04  0.65000000000E+04  0.30000000000E+03 0.  1.
     100001    1    1    2    0    0  0.12834003438E+04 -0.13205617359E+03 -0.63688927197E+04  0.65000000000E+04  0.15050000000E+03 0.  1.
     100001    1    1    2    0    0 -0.12834003438E+04  0.13205617359E+03  0.63688927197E+04  0.65000000000E+04  0.15050000000E+03 0. -1.
</event>
<event>
 4    1  0.4630618E-004  0.6500000E+04  0.7818608E-02  0.7223770E-01
         52   -1    0    0    0    0  0.00000000000E+00  0.00000000000E+00  0.64930732323E+04  0.65000000000E+04  0.30000000000E+03 0. -1.
        -52   -1    0    0    0    0 -0.00000000000E+00 -0.00000000000E+00 -0.64930732323E+04  0.65000000000E+04  0.30000000000E+03 0.  1.
     100001    1    1    2    0    0 -0.24147156832E+04 -0.47686790777E+03  0.60140747350E+04  0.65000000000E+04  0.15050000000E+03 0. -1.
     100001    1    1    2    0    0  0.24147156832E+04  0.47686790777E+03 -0.60140747350E+04  0.65000000000E+04  0.15050000000E+03 0.  1.
</event>
<event>
 4    1  0.5714866E-004  0.6500000E+04  0.7818608E-02  0.7223770E-01
         52   -1    0    0    0    0  0.00000000000E+00  0.00000000000E+00  0.64930732323E+04  0.65000000000E+04  0.30000000000E+03 0.  1.
        -52   -1    0    0    0    0 -0.00000000000E+00 -0.00000000000E+00 -0.64930732323E+04  0.65000000000E+04  0.30000000000E+03 0.  1.
     100001    1    1    2    0    0 -0.26959749012E+02  0.16841264139E+03  0.64960187888E+04  0.65000000000E+04  0.15050000000E+03 0.  1.
     100001    1    1    2    0    0  0.26959749012E+02 -0.16841264139E+03 -0.64960187888E+04  0.65000000000E+04  0.15050000000E+03 0.  1.
</event>
<event>
 4    1  0.4630618E-004  0.6500000E+04  0.7818608E-02  0.7223770E-01
         52   -1    0    0    0    0  0.00000000000E+00  0.00000000000E+00  0.64930732323E+04  0.65000000000E+04  0.30000000000E+03 0. -1.
        -52   -1    0    0    0    0 -0.00000000000E+00 -0.00000000000E+00 -0.64930732323E+04  0.65000000000E+04  0.30000000000E+03 0. -1.
     100001    1    1    2    0    0  0.15181913709E+03  0.19645635445E+03  0.64935125780E+04  0.65000000000E+04  0.15050000000E+03 0. -1.
     100001    1    1    2    0    0 -0.15181913709E+03 -0.19645635445E+03 -0.64935125780E+04  0.65000000000E+04  0.15050000000E+03 0. -1.
</event>
<event>
 4    1  0.4630618E-004  0.6500000E+04  0.7818608E-02  0.7223770E-01
         52   -1    0    0    0    0  0.00000000000E+00  0.00000000000E+00  0.64930732323E+04  0.65000000000E+04  0.30000000000E+03 0.  1.
        -52   -1    0    0    0    0 -0.00000000000E+00 -0.00000000000E+00 -0.64930732323E+04  0.65000000000E+04  0.30000000000E+03 0. -1.
     100001    1    1    2    0    0 -0.58293698788E+03  0.62493329328E+03  0.64418159394E+04  0.65000000000E+04  0.15050000000E+03 0.  1.
     100001    1    1    2    0    0  0.58293698788E+03 -0.62493329328E+03 -0.64418159394E+04  0.65000000000E+04  0.15050000000E+03 0. -1.
</event>
<event>
 4    1  0.4630618E-004  0.6500000E+04  0.7818608E-02  0.7223770E-01
         52   -1    0    0    0    0  0.00000000000E+00  0.00000000000E+00  0.64930732323E+04  0.65000000000E+04  0.30000000000E+03 0. -1.
        -52   -1    0    0    0    0 -0.00000000000E+00 -0.00000000000E+00 -0.64930732323E+04  0.65000000000E+04  0.30000000000E+03 0.  1.
     100001    1    1    2    0    0 -0.24354161791E+03 -0.11408259611E+04 -0.63926953124E+04  0.65000000000E+04  0.15050000000E+03 0.  1.
     100001    1    1    2    0    0  0.24354161791E+03  0.11408259611E+04  0.63926953124E+04  0.65000000000E+04  0.15050000000E+03 0. -1.
</event>
<event>
 4    1  0.4630618E-004  0.6500000E+04  0.7818608E-02  0.7223770E-01
         52   -1    0    0    0    0  0.00000000000E+00  0.00000000000E+00  0.64930732323E+04  0.65000000000E+04  0.30000000000E+03 0.  1.
        -52   -1    0    0    0    0 -0.00000000000E+00 -0.00000000000E+00 -0.64930732323E+04  0.65000000000E+04  0.30000000000E+03 0. -1.
     100001    1    1    2    0    0 -0.21236293161E+04  0.27456802277E+03 -0.61353207478E+04  0.65000000000E+04  0.15050000000E+03 0. -1.
     100001    1    1    2    0    0  0.21236293161E+04 -0.27456802277E+03  0.61353207478E+04  0.65000000000E+04  0.15050000000E+03 0.  1.
</event>
<event>
 4    1  0.4630618E-004  0.6500000E+04  0.7818608E-02  0.7223770E-01
         52   -1    0    0    0    0  0.00000000000E+00  0.00000000000E+00  0.64930732323E+04  0.65000000000E+04  0.30000000000E+03 0.  1.
        -52   -1    0    0    0    0 -0.00000000000E+00 -0.00000000000E+00 -0.64930732323E+04  0.65000000000E+04  0.30000000000E+03 0. -1.
     100001    1    1    2    0    0 -0.29250179886E+03  0.19046272458E+04  0.62059799792E+04  0.65000000000E+04  0.15050000000E+03 0.  1.
     100001    1    1    2    0    0  0.29250179886E+03 -0.19046272458E+04 -0.62059799792E+04  0.65000000000E+04  0.15050000000E+03 0. -1.
</event>
<event>
 4    1  0.4630618E-004  0.6500000E+04  0.7818608E-02  0.7223770E-01
         52   -1    0    0    0    0  0.00000000000E+00  0.00000000000E+00  0.64930732323E+04  0.65000000000E+04  0.30000000000E+03 0. -1.
        -52   -1    0    0    0    0 -0.00000000000E+00 -0.00000000000E+00 -0.64930732323E+04  0.65000000000E+04  0.30000000000E+03 0.  1.
     100001    1    1    2    0    0 -0.50868400154E+04 -0.37978036423E+04  0.13885589302E+04  0.65000000000E+04  0.15050000000E+03 0. -1.
     100001    1    1    2    0    0  0.50868400154E+04  0.37978036423E+04 -0.13885589302E+04  0.65000000000E+04  0.15050000000E+03 0.  1.
</event>
<event>
 4    1  0.4630618E-004  0.6500000E+04  0.7818608E-02  0.7223770E-01
         52   -1    0    0    0    0  0.00000000000E+00  0.00000000000E+00  0.64930732323E+04  0.65000000000E+04  0.30000000000E+03 0.  1.
        -52   -1    0    0    0    0 -0.00000000000E+00 -0.00000000000E+00 -0.64930732323E+04  0.65000000000E+04  0.30000000000E+03 0. -1.
     100001    1    1    2    0    0 -0.88733320684E+03  0.16652819516E+03  0.64352356515E+04  0.65000000000E+04  0.15050000000E+03 0.  1.
     100001    1    1    2    0    0  0.88733320684E+03 -0.16652819516E+03 -0.64352356515E+04  0.65000000000E+04  0.15050000000E+03 0. -1.
</event>
<event>
 4    1  0.4630618E-004  0.6500000E+04  0.7818608E-02  0.7223770E-01
         52   -1    0    0    0    0  0.00000000000E+00  0.00000000000E+00  0.64930732323E+04  0.65000000000E+04  0.30000000000E+03 0. -1.
        -52   -1    0    0    0    0 -0.00000000000E+00 -0.00000000000E+00 -0.64930732323E+04  0.65000000000E+04  0.30000000000E+03 0.  1.
     100001    1    1    2    0    0  0.12288378404E+04 -0.14469789019E+04 -0.62147855449E+04  0.65000000000E+04  0.15050000000E+03 0.  1.
     100001    1    1    2    0    0 -0.12288378404E+04  0.14469789019E+04  0.62147855449E+04  0.65000000000E+04  0.15050000000E+03 0. -1.
</event>
<event>
 4    1  0.4630618E-004  0.6500000E+04  0.7818608E-02  0.7223770E-01
         52   -1    0    0    0    0  0.00000000000E+00  0.00000000000E+00  0.64930732323E+04  0.65000000000E+04  0.30000000000E+03 0. -1.
        -52   -1    0    0    0    0 -0.00000000000E+00 -0.00000000000E+00 -0.64930732323E+04  0.65000000000E+04  0.30000000000E+03 0.  1.
     100001    1    1    2    0    0  0.22870910388E+04 -0.19059530215E+04  0.57761498777E+04  0.65000000000E+04  0.15050000000E+03 0. -1.
     100001    1    1    2    0    0 -0.22870910388E+04  0.19059530215E+04 -0.57761498777E+04  0.65000000000E+04  0.15050000000E+03 0.  1.
</event>
<event>
 4    1  0.4630618E-004  0.6500000E+04  0.7818608E-02  0.7223770E-01
         52   -1    0    0    0    0  0.00000000000E+00  0.00000000000E+00  0.64930732323E+04  0.65000000000E+04  0.30000000000E+03 0.  1.
        -52   -1    0    0    0    0 -0.00000000000E+00 -0.00000000000E+00 -0.64930732323E+04  0.65000000000E+04  0.30000000000E+03 0. -1.
     100001    1    1    2    0    0  0.20291272168E+03 -0.38022779510E+03  0.64839496452E+04  0.65000000000E+04  0.15050000000E+03 0.  1.
     100001    1    1    2    0    0 -0.20291272168E+03  0.38022779510E+03 -0.64839496452E+04  0.65000000000E+04  0.15050000000E+03 0. -1.
</event>
<event>
 4    1  0.4630618E-004  0.6500000E+04  0.7818608E-02  0.7223770E-01
         52   -1    0    0    0    0  0.00000000000E+00  0.00000000000E+00  0.64930732323E+04  0.65000000000E+04  0.30000000000E+03 0.  1.
        -52   -1    0    0    0    0 -0.00000000000E+00 -0.00000000000E+00 -0.64930732323E+04  0.65000000000E+04  0.30000000000E+03 0. -1.
     100001    1    1    2    0    0  0.61123000676E+02  0.38151469394E+03  0.64867603830E+04  0.65000000000E+04  0.15050000000E+03 0.  1.
     100001    1    1    2    0    0 -0.61123000676E+02 -0.38151469394E+03 -0.64867603830E+04  0.65000000000E+04  0.15050000000E+03 0. -1.
</event>
<event>
 4    1  0.4630618E-004  0.6500000E+04  0.7818608E-02  0.7223770E-01
         52   -1    0    0    0    0  0.00000000000E+00  0.00000000000E+00  0.64930732323E+04  0.65000000000E+04  0.30000000000E+03 0.  1.
        -52   -1    0    0    0    0 -0.00000000000E+00 -0.00000000000E+00 -0.64930732323E+04  0.65000000000E+04  0.30000000000E+03 0. -1.
     100001    1    1    2    0    0  0.23700806699E+04 -0.42312574506E+04  0.43251043634E+04  0.65000000000E+04  0.15050000000E+03 0.  1.
     100001    1    1    2    0    0 -0.23700806699E+04  0.42312574506E+04 -0.43251043634E+04  0.65000000000E+04  0.15050000000E+03 0. -1.
</event>
<event>
 4    1  0.4630618E-004  0.6500000E+04  0.7818608E-02  0.7223770E-01
         52   -1    0    0    0    0  0.00000000000E+00  0.00000000000E+00  0.64930732323E+04  0.65000000000E+04  0.30000000000E+03 0. -1.
        -52   -1    0    0    0    0 -0.00000000000E+00 -0.00000000000E+00 -0.64930732323E+04  0.65000000000E+04  0.30000000000E+03 0.  1.
     100001    1    1    2    0    0  0.26468597422E+03  0.17107151797E+03  0.64906105738E+04  0.65000000000E+04  0.15050000000E+03 0. -1.
     100001    1    1    2    0    0 -0.26468597422E+03 -0.17107151797E+03 -0.64906105738E+04  0.65000000000E+04  0.15050000000E+03 0.  1.
</event>
<event>
 4    1  0.4630618E-004  0.6500000E+04  0.7818608E-02  0.7223770E-01
         52   -1    0    0    0    0  0.00000000000E+00  0.00000000000E+00  0.64930732323E+04  0.65000000000E+04  0.30000000000E+03 0.  1.
        -52   -1    0    0    0    0 -0.00000000000E+00 -0.00000000000E+00 -0.64930732323E+04  0.65000000000E+04  0.30000000000E+03 0. -1.
     100001    1    1    2    0    0 -0.19247679931E+03 -0.35715303386E+03 -0.64855797075E+04  0.65000000000E+04  0.15050000000E+03 0. -1.
     100001    1    1    2    0    0  0.19247679931E+03  0.35715303386E+03  0.64855797075E+04  0.65000000000E+04  0.15050000000E+03 0.  1.
</event>
<event>
 4    1  0.4630618E-004  0.6500000E+04  0.7818608E-02  0.7223770E-01
         52   -1    0    0    0    0  0.00000000000E+00  0.00000000000E+00  0.64930732323E+04  0.65000000000E+04  0.30000000000E+03 0. -1.
        -52   -1    0    0    0    0 -0.00000000000E+00 -0.00000000000E+00 -0.64930732323E+04  0.65000000000E+04  0.30000000000E+03 0.  1.
     100001    1    1    2    0    0 -0.28669969349E+04  0.26837445704E+04  0.51773732149E+04  0.65000000000E+04  0.15050000000E+03 0. -1.
     100001    1    1    2    0    0  0.28669969349E+04 -0.26837445704E+04 -0.51773732149E+04  0.65000000000E+04  0.15050000000E+03 0.  1.
</event>
<event>
 4    1  0.4630618E-004  0.6500000E+04  0.7818608E-02  0.7223770E-01
         52   -1    0    0    0    0  0.00000000000E+00  0.00000000000E+00  0.64930732323E+04  0.65000000000E+04  0.30000000000E+03 0.  1.
        -52   -1    0    0    0    0 -0.00000000000E+00 -0.00000000000E+00 -0.64930732323E+04  0.65000000000E+04  0.30000000000E+03 0.  1.
     100001    1    1    2    0    0 -0.30726711256E+03  0.57977654813E+03 -0.64650441472E+04  0.65000000000E+04  0.15050000000E+03 0.  1.
     100001    1    1    2    0    0  0.30726711256E+03 -0.57977654813E+03  0.64650441472E+04  0.65000000000E+04  0.15050000000E+03 0.  1.
</event>
<event>
 4    1  0.4630618E-004  0.6500000E+04  0.7818608E-02  0.7223770E-01
         52   -1    0    0    0    0  0.00000000000E+00  0.00000000000E+00  0.64930732323E+04  0.65000000000E+04  0.30000000000E+03 0.  1.
        -52   -1    0    0    0    0 -0.00000000000E+00 -0.00000000000E+00 -0.64930732323E+04  0.65000000000E+04  0.30000000000E+03 0. -1.
     100001    1    1    2    0    0 -0.96283727049E+03  0.10718986114E+04  0.63365075166E+04  0.65000000000E+04  0.15050000000E+03 0.  1.
     100001    1    1    2    0    0  0.96283727049E+03 -0.10718986114E+04 -0.63365075166E+04  0.65000000000E+04  0.15050000000E+03 0. -1.
</event>
<event>
 4    1  0.4630618E-004  0.6500000E+04  0.7818608E-02  0.7223770E-01
         52   -1    0    0    0    0  0.00000000000E+00  0.00000000000E+00  0.64930732323E+04  0.65000000000E+04  0.30000000000E+03 0.  1.
        -52   -1    0    0    0    0 -0.00000000000E+00 -0.00000000000E+00 -0.64930732323E+04  0.65000000000E+04  0.30000000000E+03 0.  1.
     100001    1    1    2    0    0 -0.58051827337E+02 -0.37533963137E+03 -0.64871488264E+04  0.65000000000E+04  0.15050000000E+03 0.  1.
     100001    1    1    2    0    0  0.58051827337E+02  0.37533963137E+03  0.64871488264E+04  0.65000000000E+04  0.15050000000E+03 0.  1.
</event>
<event>
 4    1  0.4630618E-004  0.6500000E+04  0.7818608E-02  0.7223770E-01
         52   -1    0    0    0    0  0.00000000000E+00  0.00000000000E+00  0.64930732323E+04  0.65000000000E+04  0.30000000000E+03 0.  1.
        -52   -1    0    0    0    0 -0.00000000000E+00 -0.00000000000E+00 -0.64930732323E+04  0.65000000000E+04  0.30000000000E+03 0. -1.
     100001    1    1    2    0    0 -0.31461541173E+03  0.23238650549E+02 -0.64905952622E+04  0.65000000000E+04  0.15050000000E+03 0. -1.
     100001    1    1    2    0    0  0.31461541173E+03 -0.23238650549E+02  0.64905952622E+04  0.65000000000E+04  0.15050000000E+03 0.  1.
</event>
<event>
 4    1  0.4630618E-004  0.6500000E+04  0.7818608E-02  0.7223770E-01
         52   -1    0    0    0    0  0.00000000000E+00  0.00000000000E+00  0.64930732323E+04  0.65000000000E+04  0.30000000000E+03 0. -1.
        -52   -1    0    0    0    0 -0.00000000000E+00 -0.00000000000E+00 -0.64930732323E+04  0.65000000000E+04  0.30000000000E+03 0. -1.
     100001    1    1    2    0    0 -0.14777667648E+03 -0.17553105866E+03 -0.64942051593E+04  0.65000000000E+04  0.15050000000E+03 0. -1.
     100001    1    1    2    0    0  0.14777667648E+03  0.17553105866E+03  0.64942051593E+04  0.65000000000E+04  0.15050000000E+03 0. -1.
</event>
<event>
 4    1  0.4630618E-004  0.6500000E+04  0.7818608E-02  0.7223770E-01
         52   -1    0    0    0    0  0.00000000000E+00  0.00000000000E+00  0.64930732323E+04  0.65000000000E+04  0.30000000000E+03 0. -1.
        -52   -1    0    0    0    0 -0.00000000000E+00 -0.00000000000E+00 -0.64930732323E+04  0.65000000000E+04  0.30000000000E+03 0.  1.
     100001    1    1    2    0    0  0.51582741000E+03  0.28918445595E+02 -0.64776875161E+04  0.65000000000E+04  0.15050000000E+03 0.  1.
     100001    1    1    2    0    0 -0.51582741000E+03 -0.28918445595E+02  0.64776875161E+04  0.65000000000E+04  0.15050000000E+03 0. -1.
</event>
<event>
 4    1  0.4630618E-004  0.6500000E+04  0.7818608E-02  0.7223770E-01
         52   -1    0    0    0    0  0.00000000000E+00  0.00000000000E+00  0.64930732323E+04  0.65000000000E+04  0.30000000000E+03 0.  1.
        -52   -1    0    0    0    0 -0.00000000000E+00 -0.00000000000E+00 -0.64930732323E+04  0.65000000000E+04  0.30000000000E+03 0.  1.
     100001    1    1    2    0    0 -0.19078489506E+03  0.32158836287E+03  0.64874904084E+04  0.65000000000E+04  0.15050000000E+03 0.  1.
     100001    1    1    2    0    0  0.19078489506E+03 -0.32158836287E+03 -0.64874904084E+04  0.65000000000E+04  0.15050000000E+03 0.  1.
</event>
<event>
 4    1  0.4630618E-004  0.6500000E+04  0.7818608E-02  0.7223770E-01
         52   -1    0    0    0    0  0.00000000000E+00  0.00000000000E+00  0.64930732323E+04  0.65000000000E+04  0.30000000000E+03 0. -1.
        -52   -1    0    0    0    0 -0.00000000000E+00 -0.00000000000E+00 -0.64930732323E+04  0.65000000000E+04  0.30000000000E+03 0.  1.
     100001    1    1    2    0    0  0.56745586916E+04 -0.19378895436E+04 -0.25042598751E+04  0.65000000000E+04  0.15050000000E+03 0.  1.
     100001    1    1    2    0    0 -0.56745586916E+04  0.19378895436E+04  0.25042598751E+04  0.65000000000E+04  0.15050000000E+03 0. -1.
</event>
<event>
 4    1  0.4630618E-004  0.6500000E+04  0.7818608E-02  0.7223770E-01
         52   -1    0    0    0    0  0.00000000000E+00  0.00000000000E+00  0.64930732323E+04  0.65000000000E+04  0.30000000000E+03 0.  1.
        -52   -1    0    0    0    0 -0.00000000000E+00 -0.00000000000E+00 -0.64930732323E+04  0.65000000000E+04  0.30000000000E+03 0. -1.
     100001    1    1    2    0    0  0.36420776471E+04 -0.36200140507E+04 -0.39822253120E+04  0.65000000000E+04  0.15050000000E+03 0. -1.
     100001    1    1    2    0    0 -0.36420776471E+04  0.36200140507E+04  0.39822253120E+04  0.65000000000E+04  0.15050000000E+03 0.  1.
</event>
<event>
 4    1  0.4630618E-004  0.6500000E+04  0.7818608E-02  0.7223770E-01
         52   -1    0    0    0    0  0.00000000000E+00  0.00000000000E+00  0.64930732323E+04  0.65000000000E+04  0.30000000000E+03 0.  1.
        -52   -1    0    0    0    0 -0.00000000000E+00 -0.00000000000E+00 -0.64930732323E+04  0.65000000000E+04  0.30000000000E+03 0. -1.
     100001    1    1    2    0    0 -0.61592239880E+03  0.90544951373E+02 -0.64683684929E+04  0.65000000000E+04  0.15050000000E+03 0. -1.
     100001    1    1    2    0    0  0.61592239880E+03 -0.90544951373E+02  0.64683684929E+04  0.65000000000E+04  0.15050000000E+03 0.  1.
</event>
<event>
 4    1  0.4630618E-004  0.6500000E+04  0.7818608E-02  0.7223770E-01
         52   -1    0    0    0    0  0.00000000000E+00  0.00000000000E+00  0.64930732323E+04  0.65000000000E+04  0.30000000000E+03 0.  1.
        -52   -1    0    0    0    0 -0.00000000000E+00 -0.00000000000E+00 -0.64930732323E+04  0.65000000000E+04  0.30000000000E+03 0. -1.
     100001    1    1    2    0    0 -0.18085299692E+04  0.13295519430E+04  0.60982670269E+04  0.65000000000E+04  0.15050000000E+03 0.  1.
     100001    1    1    2    0    0  0.18085299692E+04 -0.13295519430E+04 -0.60982670269E+04  0.65000000000E+04  0.15050000000E+03 0. -1.
</event>
<event>
 4    1  0.4630618E-004  0.6500000E+04  0.7818608E-02  0.7223770E-01
         52   -1    0    0    0    0  0.00000000000E+00  0.00000000000E+00  0.64930732323E+04  0.65000000000E+04  0.30000000000E+03 0. -1.
        -52   -1    0    0    0    0 -0.00000000000E+00 -0.00000000000E+00 -0.64930732323E+04  0.65000000000E+04  0.30000000000E+03 0.  1.
     100001    1    1    2    0    0  0.85908922751E+03  0.13885418397E+04  0.62897747979E+04  0.65000000000E+04  0.15050000000E+03 0. -1.
     100001    1    1    2    0    0 -0.85908922751E+03 -0.13885418397E+04 -0.62897747979E+04  0.65000000000E+04  0.15050000000E+03 0.  1.
</event>
<event>
 4    1  0.4630618E-004  0.6500000E+04  0.7818608E-02  0.7223770E-01
         52   -1    0    0    0    0  0.00000000000E+00  0.00000000000E+00  0.64930732323E+04  0.65000000000E+04  0.30000000000E+03 0.  1.
        -52   -1    0    0    0    0 -0.00000000000E+00 -0.00000000000E+00 -0.64930732323E+04  0.65000000000E+04  0.30000000000E+03 0. -1.
     100001    1    1    2    0    0 -0.25370487943E+03 -0.10605415754E+04  0.64061092054E+04  0.65000000000E+04  0.15050000000E+03 0.  1.
     100001    1    1    2    0    0  0.25370487943E+03  0.10605415754E+04 -0.64061092054E+04  0.65000000000E+04  0.15050000000E+03 0. -1.
</event>
<event>
 4    1  0.4630618E-004  0.6500000E+04  0.7818608E-02  0.7223770E-01
         52   -1    0    0    0    0  0.00000000000E+00  0.00000000000E+00  0.64930732323E+04  0.65000000000E+04  0.30000000000E+03 0. -1.
        -52   -1    0    0    0    0 -0.00000000000E+00 -0.00000000000E+00 -0.64930732323E+04  0.65000000000E+04  0.30000000000E+03 0. -1.
     100001    1    1    2    0    0 -0.48594383842E+03 -0.38145139598E+03  0.64688254860E+04  0.65000000000E+04  0.15050000000E+03 0. -1.
     100001    1    1    2    0    0  0.48594383842E+03  0.38145139598E+03 -0.64688254860E+04  0.65000000000E+04  0.15050000000E+03 0. -1.
</event>
<event>
 4    1  0.4630618E-004  0.6500000E+04  0.7818608E-02  0.7223770E-01
         52   -1    0    0    0    0  0.00000000000E+00  0.00000000000E+00  0.64930732323E+04  0.65000000000E+04  0.30000000000E+03 0. -1.
        -52   -1    0    0    0    0 -0.00000000000E+00 -0.00000000000E+00 -0.64930732323E+04  0.65000000000E+04  0.30000000000E+03 0.  1.
     100001    1    1    2    0    0  0.40463851188E+04  0.11312900466E+04 -0.49572472251E+04  0.65000000000E+04  0.15050000000E+03 0.  1.
     100001    1    1    2    0    0 -0.40463851188E+04 -0.11312900466E+04  0.49572472251E+04  0.65000000000E+04  0.15050000000E+03 0. -1.
</event>
<event>
 4    1  0.4630618E-004  0.6500000E+04  0.7818608E-02  0.7223770E-01
         52   -1    0    0    0    0  0.00000000000E+00  0.00000000000E+00  0.64930732323E+04  0.65000000000E+04  0.30000000000E+03 0.  1.
        -52   -1    0    0    0    0 -0.00000000000E+00 -0.00000000000E+00 -0.64930732323E+04  0.65000000000E+04  0.30000000000E+03 0. -1.
     100001    1    1    2    0    0 -0.41112552827E+04 -0.32875861121E+03 -0.50216379326E+04  0.65000000000E+04  0.15050000000E+03 0. -1.
     100001    1    1    2    0    0  0.41112552827E+04  0.32875861121E+03  0.50216379326E+04  0.65000000000E+04  0.15050000000E+03 0.  1.
</event>
<event>
 4    1  0.4630618E-004  0.6500000E+04  0.7818608E-02  0.7223770E-01
         52   -1    0    0    0    0  0.00000000000E+00  0.00000000000E+00  0.64930732323E+04  0.65000000000E+04  0.30000000000E+03 0.  1.
        -52   -1    0    0    0    0 -0.00000000000E+00 -0.00000000000E+00 -0.64930732323E+04  0.65000000000E+04  0.30000000000E+03 0. -1.
     100001    1    1    2    0    0 -0.63382828154E+02 -0.63757630713E+03  0.64665932932E+04  0.65000000000E+04  0.15050000000E+03 0.  1.
     100001    1    1    2    0    0  0.63382828154E+02  0.63757630713E+03 -0.64665932932E+04  0.65000000000E+04  0.15050000000E+03 0. -1.
</event>
<event>
 4    1  0.4630618E-004  0.6500000E+04  0.7818608E-02  0.7223770E-01
         52   -1    0    0    0    0  0.00000000000E+00  0.00000000000E+00  0.64930732323E+04  0.65000000000E+04  0.30000000000E+03 0. -1.
        -52   -1    0    0    0    0 -0.00000000000E+00 -0.00000000000E+00 -0.64930732323E+04  0.65000000000E+04  0.30000000000E+03 0.  1.
     100001    1    1    2    0    0  0.17191553850E+03  0.35005720538E+04  0.54720919303E+04  0.65000000000E+04  0.15050000000E+03 0. -1.
     100001    1    1    2    0    0 -0.17191553850E+03 -0.35005720538E+04 -0.54720919303E+04  0.65000000000E+04  0.15050000000E+03 0.  1.
</event>
<event>
 4    1  0.4630618E-004  0.6500000E+04  0.7818608E-02  0.7223770E-01
         52   -1    0    0    0    0  0.00000000000E+00  0.00000000000E+00  0.64930732323E+04  0.65000000000E+04  0.30000000000E+03 0.  1.
        -52   -1    0    0    0    0 -0.00000000000E+00 -0.00000000000E+00 -0.64930732323E+04  0.65000000000E+04  0.30000000000E+03 0. -1.
     100001    1    1    2    0    0  0.97196653988E+03  0.61599467578E+03 -0.63955595029E+04  0.65000000000E+04  0.15050000000E+03 0. -1.
     100001    1    1    2    0    0 -0.97196653988E+03 -0.61599467578E+03  0.63955595029E+04  0.65000000000E+04  0.15050000000E+03 0.  1.
</event>
<event>
 4    1  0.4630618E-004  0.6500000E+04  0.7818608E-02  0.7223770E-01
         52   -1    0    0    0    0  0.00000000000E+00  0.00000000000E+00  0.64930732323E+04  0.65000000000E+04  0.30000000000E+03 0. -1.
        -52   -1    0    0    0    0 -0.00000000000E+00 -0.00000000000E+00 -0.64930732323E+04  0.65000000000E+04  0.30000000000E+03 0.  1.
     100001    1    1    2    0    0  0.35692485562E+03  0.23615203619E+04  0.60434407400E+04  0.65000000000E+04  0.15050000000E+03 0. -1.
     100001    1    1    2    0    0 -0.35692485562E+03 -0.23615203619E+04 -0.60434407400E+04  0.65000000000E+04  0.15050000000E+03 0.  1.
</event>
<event>
 4    1  0.4630618E-004  0.6500000E+04  0.7818608E-02  0.7223770E-01
         52   -1    0    0    0    0  0.00000000000E+00  0.00000000000E+00  0.64930732323E+04  0.65000000000E+04  0.30000000000E+03 0.  1.
        -52   -1    0    0    0    0 -0.00000000000E+00 -0.00000000000E+00 -0.64930732323E+04  0.65000000000E+04  0.30000000000E+03 0. -1.
     100001    1    1    2    0    0 -0.11847713221E+04 -0.26570975331E+04  0.58106367434E+04  0.65000000000E+04  0.15050000000E+03 0.  1.
     100001    1    1    2    0    0  0.11847713221E+04  0.26570975331E+04 -0.58106367434E+04  0.65000000000E+04  0.15050000000E+03 0. -1.
</event>
<event>
 4    1  0.4630618E-004  0.6500000E+04  0.7818608E-02  0.7223770E-01
         52   -1    0    0    0    0  0.00000000000E+00  0.00000000000E+00  0.64930732323E+04  0.65000000000E+04  0.30000000000E+03 0.  1.
        -52   -1    0    0    0    0 -0.00000000000E+00 -0.00000000000E+00 -0.64930732323E+04  0.65000000000E+04  0.30000000000E+03 0. -1.
     100001    1    1    2    0    0  0.23212180524E+04 -0.13877782360E+04  0.59087535125E+04  0.65000000000E+04  0.15050000000E+03 0.  1.
     100001    1    1    2    0    0 -0.23212180524E+04  0.13877782360E+04 -0.59087535125E+04  0.65000000000E+04  0.15050000000E+03 0. -1.
</event>
<event>
 4    1  0.4630618E-004  0.6500000E+04  0.7818608E-02  0.7223770E-01
         52   -1    0    0    0    0  0.00000000000E+00  0.00000000000E+00  0.64930732323E+04  0.65000000000E+04  0.30000000000E+03 0. -1.
        -52   -1    0    0    0    0 -0.00000000000E+00 -0.00000000000E+00 -0.64930732323E+04  0.65000000000E+04  0.30000000000E+03 0.  1.
     100001    1    1    2    0    0  0.44517970706E+04  0.44488208784E+04 -0.16176666480E+04  0.65000000000E+04  0.15050000000E+03 0.  1.
     100001    1    1    2    0    0 -0.44517970706E+04 -0.44488208784E+04  0.16176666480E+04  0.65000000000E+04  0.15050000000E+03 0. -1.
</event>
<event>
 4    1  0.4630618E-004  0.6500000E+04  0.7818608E-02  0.7223770E-01
         52   -1    0    0    0    0  0.00000000000E+00  0.00000000000E+00  0.64930732323E+04  0.65000000000E+04  0.30000000000E+03 0.  1.
        -52   -1    0    0    0    0 -0.00000000000E+00 -0.00000000000E+00 -0.64930732323E+04  0.65000000000E+04  0.30000000000E+03 0. -1.
     100001    1    1    2    0    0 -0.17799977190E+04  0.76433796485E+02  0.62492492145E+04  0.65000000000E+04  0.15050000000E+03 0.  1.
     100001    1    1    2    0    0  0.17799977190E+04 -0.76433796485E+02 -0.62492492145E+04  0.65000000000E+04  0.15050000000E+03 0. -1.
</event>
<event>
 4    1  0.4630618E-004  0.6500000E+04  0.7818608E-02  0.7223770E-01
         52   -1    0    0    0    0  0.00000000000E+00  0.00000000000E+00  0.64930732323E+04  0.65000000000E+04  0.30000000000E+03 0.  1.
        -52   -1    0    0    0    0 -0.00000000000E+00 -0.00000000000E+00 -0.64930732323E+04  0.65000000000E+04  0.30000000000E+03 0. -1.
     100001    1    1    2    0    0  0.32397677614E+04 -0.55369147061E+04  0.10362577572E+04  0.65000000000E+04  0.15050000000E+03 0.  1.
     100001    1    1    2    0    0 -0.32397677614E+04  0.55369147061E+04 -0.10362577572E+04  0.65000000000E+04  0.15050000000E+03 0. -1.
</event>
<event>
 4    1  0.4630618E-004  0.6500000E+04  0.7818608E-02  0.7223770E-01
         52   -1    0    0    0    0  0.00000000000E+00  0.00000000000E+00  0.64930732323E+04  0.65000000000E+04  0.30000000000E+03 0.  1.
        -52   -1    0    0    0    0 -0.00000000000E+00 -0.00000000000E+00 -0.64930732323E+04  0.65000000000E+04  0.30000000000E+03 0. -1.
     100001    1    1    2    0    0 -0.12558438014E+04  0.39531305961E+04 -0.50022959315E+04  0.65000000000E+04  0.15050000000E+03 0. -1.
     100001    1    1    2    0    0  0.12558438014E+04 -0.39531305961E+04  0.50022959315E+04  0.65000000000E+04  0.15050000000E+03 0.  1.
</event>
<event>
 4    1  0.4630618E-004  0.6500000E+04  0.7818608E-02  0.7223770E-01
         52   -1    0    0    0    0  0.00000000000E+00  0.00000000000E+00  0.64930732323E+04  0.65000000000E+04  0.30000000000E+03 0. -1.
        -52   -1    0    0    0    0 -0.00000000000E+00 -0.00000000000E+00 -0.64930732323E+04  0.65000000000E+04  0.30000000000E+03 0.  1.
     100001    1    1    2    0    0  0.28335223503E+03 -0.99494078711E+03 -0.64153841733E+04  0.65000000000E+04  0.15050000000E+03 0.  1.
     100001    1    1    2    0    0 -0.28335223503E+03  0.99494078711E+03  0.64153841733E+04  0.65000000000E+04  0.15050000000E+03 0. -1.
</event>
<event>
 4    1  0.4630618E-004  0.6500000E+04  0.7818608E-02  0.7223770E-01
         52   -1    0    0    0    0  0.00000000000E+00  0.00000000000E+00  0.64930732323E+04  0.65000000000E+04  0.30000000000E+03 0. -1.
        -52   -1    0    0    0    0 -0.00000000000E+00 -0.00000000000E+00 -0.64930732323E+04  0.65000000000E+04  0.30000000000E+03 0.  1.
     100001    1    1    2    0    0 -0.35176081235E+04  0.54637450443E+04 -0.35678158469E+02  0.65000000000E+04  0.15050000000E+03 0.  1.
     100001    1    1    2    0    0  0.35176081235E+04 -0.54637450443E+04  0.35678158469E+02  0.65000000000E+04  0.15050000000E+03 0. -1.
</event>
<event>
 4    1  0.4630618E-004  0.6500000E+04  0.7818608E-02  0.7223770E-01
         52   -1    0    0    0    0  0.00000000000E+00  0.00000000000E+00  0.64930732323E+04  0.65000000000E+04  0.30000000000E+03 0. -1.
        -52   -1    0    0    0    0 -0.00000000000E+00 -0.00000000000E+00 -0.64930732323E+04  0.65000000000E+04  0.30000000000E+03 0.  1.
     100001    1    1    2    0    0 -0.15548003387E+04  0.53960585546E+04  0.32699384905E+04  0.65000000000E+04  0.15050000000E+03 0.  1.
     100001    1    1    2    0    0  0.15548003387E+04 -0.53960585546E+04 -0.32699384905E+04  0.65000000000E+04  0.15050000000E+03 0. -1.
</event>
<event>
 4    1  0.4630618E-004  0.6500000E+04  0.7818608E-02  0.7223770E-01
         52   -1    0    0    0    0  0.00000000000E+00  0.00000000000E+00  0.64930732323E+04  0.65000000000E+04  0.30000000000E+03 0.  1.
        -52   -1    0    0    0    0 -0.00000000000E+00 -0.00000000000E+00 -0.64930732323E+04  0.65000000000E+04  0.30000000000E+03 0. -1.
     100001    1    1    2    0    0 -0.82652587626E+02  0.42557930206E+03 -0.64837798048E+04  0.65000000000E+04  0.15050000000E+03 0. -1.
     100001    1    1    2    0    0  0.82652587626E+02 -0.42557930206E+03  0.64837798048E+04  0.65000000000E+04  0.15050000000E+03 0.  1.
</event>
<event>
 4    1  0.4630618E-004  0.6500000E+04  0.7818608E-02  0.7223770E-01
         52   -1    0    0    0    0  0.00000000000E+00  0.00000000000E+00  0.64930732323E+04  0.65000000000E+04  0.30000000000E+03 0. -1.
        -52   -1    0    0    0    0 -0.00000000000E+00 -0.00000000000E+00 -0.64930732323E+04  0.65000000000E+04  0.30000000000E+03 0.  1.
     100001    1    1    2    0    0 -0.40658428174E+03 -0.14099611038E+03 -0.64839925253E+04  0.65000000000E+04  0.15050000000E+03 0.  1.
     100001    1    1    2    0    0  0.40658428174E+03  0.14099611038E+03  0.64839925253E+04  0.65000000000E+04  0.15050000000E+03 0. -1.
</event>
<event>
 4    1  0.4630618E-004  0.6500000E+04  0.7818608E-02  0.7223770E-01
         52   -1    0    0    0    0  0.00000000000E+00  0.00000000000E+00  0.64930732323E+04  0.65000000000E+04  0.30000000000E+03 0. -1.
        -52   -1    0    0    0    0 -0.00000000000E+00 -0.00000000000E+00 -0.64930732323E+04  0.65000000000E+04  0.30000000000E+03 0.  1.
     100001    1    1    2    0    0 -0.76522088041E+03  0.32004975470E+03 -0.64451031729E+04  0.65000000000E+04  0.15050000000E+03 0.  1.
     100001    1    1    2    0    0  0.76522088041E+03 -0.32004975470E+03  0.64451031729E+04  0.65000000000E+04  0.15050000000E+03 0. -1.
</event>
<event>
 4    1  0.4630618E-004  0.6500000E+04  0.7818608E-02  0.7223770E-01
         52   -1    0    0    0    0  0.00000000000E+00  0.00000000000E+00  0.64930732323E+04  0.65000000000E+04  0.30000000000E+03 0.  1.
        -52   -1    0    0    0    0 -0.00000000000E+00 -0.00000000000E+00 -0.64930732323E+04  0.65000000000E+04  0.30000000000E+03 0. -1.
     100001    1    1    2    0    0 -0.30639262496E+04  0.35821574223E+04  0.44730139603E+04  0.65000000000E+04  0.15050000000E+03 0.  1.
     100001    1    1    2    0    0  0.30639262496E+04 -0.35821574223E+04 -0.44730139603E+04  0.65000000000E+04  0.15050000000E+03 0. -1.
</event>
<event>
 4    1  0.4630618E-004  0.6500000E+04  0.7818608E-02  0.7223770E-01
         52   -1    0    0    0    0  0.00000000000E+00  0.00000000000E+00  0.64930732323E+04  0.65000000000E+04  0.30000000000E+03 0.  1.
        -52   -1    0    0    0    0 -0.00000000000E+00 -0.00000000000E+00 -0.64930732323E+04  0.65000000000E+04  0.30000000000E+03 0. -1.
     100001    1    1    2    0    0  0.52164878229E+03 -0.43582139481E+03 -0.64626072146E+04  0.65000000000E+04  0.15050000000E+03 0. -1.
     100001    1    1    2    0    0 -0.52164878229E+03  0.43582139481E+03  0.64626072146E+04  0.65000000000E+04  0.15050000000E+03 0.  1.
</event>
<event>
 4    1  0.4630618E-004  0.6500000E+04  0.7818608E-02  0.7223770E-01
         52   -1    0    0    0    0  0.00000000000E+00  0.00000000000E+00  0.64930732323E+04  0.65000000000E+04  0.30000000000E+03 0.  1.
        -52   -1    0    0    0    0 -0.00000000000E+00 -0.00000000000E+00 -0.64930732323E+04  0.65000000000E+04  0.30000000000E+03 0. -1.
     100001    1    1    2    0    0 -0.29639869207E+03  0.12120879190E+03 -0.64903625472E+04  0.65000000000E+04  0.15050000000E+03 0. -1.
     100001    1    1    2    0    0  0.29639869207E+03 -0.12120879190E+03  0.64903625472E+04  0.65000000000E+04  0.15050000000E+03 0.  1.
</event>
<event>
 4    1  0.4630618E-004  0.6500000E+04  0.7818608E-02  0.7223770E-01
         52   -1    0    0    0    0  0.00000000000E+00  0.00000000000E+00  0.64930732323E+04  0.65000000000E+04  0.30000000000E+03 0. -1.
        -52   -1    0    0    0    0 -0.00000000000E+00 -0.00000000000E+00 -0.64930732323E+04  0.65000000000E+04  0.30000000000E+03 0.  1.
     100001    1    1    2    0    0 -0.10102561022E+04 -0.12288799838E+04 -0.63005227040E+04  0.65000000000E+04  0.15050000000E+03 0.  1.
     100001    1    1    2    0    0  0.10102561022E+04  0.12288799838E+04  0.63005227040E+04  0.65000000000E+04  0.15050000000E+03 0. -1.
</event>
<event>
 4    1  0.4630618E-004  0.6500000E+04  0.7818608E-02  0.7223770E-01
         52   -1    0    0    0    0  0.00000000000E+00  0.00000000000E+00  0.64930732323E+04  0.65000000000E+04  0.30000000000E+03 0.  1.
        -52   -1    0    0    0    0 -0.00000000000E+00 -0.00000000000E+00 -0.64930732323E+04  0.65000000000E+04  0.30000000000E+03 0. -1.
     100001    1    1    2    0    0  0.28744955602E+04  0.56382456191E+04 -0.14747241651E+04  0.65000000000E+04  0.15050000000E+03 0. -1.
     100001    1    1    2    0    0 -0.28744955602E+04 -0.56382456191E+04  0.14747241651E+04  0.65000000000E+04  0.15050000000E+03 0.  1.
</event>
<event>
 4    1  0.4630618E-004  0.6500000E+04  0.7818608E-02  0.7223770E-01
         52   -1    0    0    0    0  0.00000000000E+00  0.00000000000E+00  0.64930732323E+04  0.65000000000E+04  0.30000000000E+03 0.  1.
        -52   -1    0    0    0    0 -0.00000000000E+00 -0.00000000000E+00 -0.64930732323E+04  0.65000000000E+04  0.30000000000E+03 0. -1.
     100001    1    1    2    0    0  0.31064400753E+03 -0.76948387960E+03 -0.64450558267E+04  0.65000000000E+04  0.15050000000E+03 0. -1.
     100001    1    1    2    0    0 -0.31064400753E+03  0.76948387960E+03  0.64450558267E+04  0.65000000000E+04  0.15050000000E+03 0.  1.
</event>
<event>
 4    1  0.4630618E-004  0.6500000E+04  0.7818608E-02  0.7223770E-01
         52   -1    0    0    0    0  0.00000000000E+00  0.00000000000E+00  0.64930732323E+04  0.65000000000E+04  0.30000000000E+03 0.  1.
        -52   -1    0    0    0    0 -0.00000000000E+00 -0.00000000000E+00 -0.64930732323E+04  0.65000000000E+04  0.30000000000E+03 0. -1.
     100001    1    1    2    0    0  0.53200187429E+03  0.79054937219E+03  0.64280133359E+04  0.65000000000E+04  0.15050000000E+03 0.  1.
     100001    1    1    2    0    0 -0.53200187429E+03 -0.79054937219E+03 -0.64280133359E+04  0.65000000000E+04  0.15050000000E+03 0. -1.
</event>
<event>
 4    1  0.4630618E-004  0.6500000E+04  0.7818608E-02  0.7223770E-01
         52   -1    0    0    0    0  0.00000000000E+00  0.00000000000E+00  0.64930732323E+04  0.65000000000E+04  0.30000000000E+03 0. -1.
        -52   -1    0    0    0    0 -0.00000000000E+00 -0.00000000000E+00 -0.64930732323E+04  0.65000000000E+04  0.30000000000E+03 0.  1.
     100001    1    1    2    0    0  0.14334148813E+04 -0.89860657163E+03  0.62741674952E+04  0.65000000000E+04  0.15050000000E+03 0. -1.
     100001    1    1    2    0    0 -0.14334148813E+04  0.89860657163E+03 -0.62741674952E+04  0.65000000000E+04  0.15050000000E+03 0.  1.
</event>
<event>
 4    1  0.4630618E-004  0.6500000E+04  0.7818608E-02  0.7223770E-01
         52   -1    0    0    0    0  0.00000000000E+00  0.00000000000E+00  0.64930732323E+04  0.65000000000E+04  0.30000000000E+03 0.  1.
        -52   -1    0    0    0    0 -0.00000000000E+00 -0.00000000000E+00 -0.64930732323E+04  0.65000000000E+04  0.30000000000E+03 0. -1.
     100001    1    1    2    0    0 -0.49580302388E+04 -0.41860654178E+04  0.34948851013E+03  0.65000000000E+04  0.15050000000E+03 0. -1.
     100001    1    1    2    0    0  0.49580302388E+04  0.41860654178E+04 -0.34948851013E+03  0.65000000000E+04  0.15050000000E+03 0.  1.
</event>
<event>
 4    1  0.4630618E-004  0.6500000E+04  0.7818608E-02  0.7223770E-01
         52   -1    0    0    0    0  0.00000000000E+00  0.00000000000E+00  0.64930732323E+04  0.65000000000E+04  0.30000000000E+03 0. -1.
        -52   -1    0    0    0    0 -0.00000000000E+00 -0.00000000000E+00 -0.64930732323E+04  0.65000000000E+04  0.30000000000E+03 0.  1.
     100001    1    1    2    0    0 -0.54244959247E+04 -0.29044648635E+04  0.20895639662E+04  0.65000000000E+04  0.15050000000E+03 0. -1.
     100001    1    1    2    0    0  0.54244959247E+04  0.29044648635E+04 -0.20895639662E+04  0.65000000000E+04  0.15050000000E+03 0.  1.
</event>
<event>
 4    1  0.4630618E-004  0.6500000E+04  0.7818608E-02  0.7223770E-01
         52   -1    0    0    0    0  0.00000000000E+00  0.00000000000E+00  0.64930732323E+04  0.65000000000E+04  0.30000000000E+03 0.  1.
        -52   -1    0    0    0    0 -0.00000000000E+00 -0.00000000000E+00 -0.64930732323E+04  0.65000000000E+04  0.30000000000E+03 0. -1.
     100001    1    1    2    0    0  0.98313703053E+02  0.45275875545E+04  0.46603256434E+04  0.65000000000E+04  0.15050000000E+03 0.  1.
     100001    1    1    2    0    0 -0.98313703053E+02 -0.45275875545E+04 -0.46603256434E+04  0.65000000000E+04  0.15050000000E+03 0. -1.
</event>
<event>
 4    1  0.4630618E-004  0.6500000E+04  0.7818608E-02  0.7223770E-01
         52   -1    0    0    0    0  0.00000000000E+00  0.00000000000E+00  0.64930732323E+04  0.65000000000E+04  0.30000000000E+03 0. -1.
        -52   -1    0    0    0    0 -0.00000000000E+00 -0.00000000000E+00 -0.64930732323E+04  0.65000000000E+04  0.30000000000E+03 0.  1.
     100001    1    1    2    0    0 -0.52693169389E+04 -0.30370321926E+04 -0.22886861316E+04  0.65000000000E+04  0.15050000000E+03 0.  1.
     100001    1    1    2    0    0  0.52693169389E+04  0.30370321926E+04  0.22886861316E+04  0.65000000000E+04  0.15050000000E+03 0. -1.
</event>
<event>
 4    1  0.4630618E-004  0.6500000E+04  0.7818608E-02  0.7223770E-01
         52   -1    0    0    0    0  0.00000000000E+00  0.00000000000E+00  0.64930732323E+04  0.65000000000E+04  0.30000000000E+03 0. -1.
        -52   -1    0    0    0    0 -0.00000000000E+00 -0.00000000000E+00 -0.64930732323E+04  0.65000000000E+04  0.30000000000E+03 0.  1.
     100001    1    1    2    0    0  0.76774130435E+03 -0.24788251406E+03  0.64479824208E+04  0.65000000000E+04  0.15050000000E+03 0. -1.
     100001    1    1    2    0    0 -0.76774130435E+03  0.24788251406E+03 -0.64479824208E+04  0.65000000000E+04  0.15050000000E+03 0.  1.
</event>
<event>
 4    1  0.4630618E-004  0.6500000E+04  0.7818608E-02  0.7223770E-01
         52   -1    0    0    0    0  0.00000000000E+00  0.00000000000E+00  0.64930732323E+04  0.65000000000E+04  0.30000000000E+03 0. -1.
        -52   -1    0    0    0    0 -0.00000000000E+00 -0.00000000000E+00 -0.64930732323E+04  0.65000000000E+04  0.30000000000E+03 0. -1.
     100001    1    1    2    0    0  0.35380049613E+03  0.33516605973E+03  0.64799566875E+04  0.65000000000E+04  0.15050000000E+03 0. -1.
     100001    1    1    2    0    0 -0.35380049613E+03 -0.33516605973E+03 -0.64799566875E+04  0.65000000000E+04  0.15050000000E+03 0. -1.
</event>
<event>
 4    1  0.4630618E-004  0.6500000E+04  0.7818608E-02  0.7223770E-01
         52   -1    0    0    0    0  0.00000000000E+00  0.00000000000E+00  0.64930732323E+04  0.65000000000E+04  0.30000000000E+03 0. -1.
        -52   -1    0    0    0    0 -0.00000000000E+00 -0.00000000000E+00 -0.64930732323E+04  0.65000000000E+04  0.30000000000E+03 0. -1.
     100001    1    1    2    0    0 -0.91500391054E+02  0.13253777108E+03  0.64962613223E+04  0.65000000000E+04  0.15050000000E+03 0. -1.
     100001    1    1    2    0    0  0.91500391054E+02 -0.13253777108E+03 -0.64962613223E+04  0.65000000000E+04  0.15050000000E+03 0. -1.
</event>
<event>
 4    1  0.4630618E-004  0.6500000E+04  0.7818608E-02  0.7223770E-01
         52   -1    0    0    0    0  0.00000000000E+00  0.00000000000E+00  0.64930732323E+04  0.65000000000E+04  0.30000000000E+03 0. -1.
        -52   -1    0    0    0    0 -0.00000000000E+00 -0.00000000000E+00 -0.64930732323E+04  0.65000000000E+04  0.30000000000E+03 0.  1.
     100001    1    1    2    0    0  0.67463527645E+03 -0.34035921736E+04  0.54943404799E+04  0.65000000000E+04  0.15050000000E+03 0. -1.
     100001    1    1    2    0    0 -0.67463527645E+03  0.34035921736E+04 -0.54943404799E+04  0.65000000000E+04  0.15050000000E+03 0.  1.
</event>
<event>
 4    1  0.4630618E-004  0.6500000E+04  0.7818608E-02  0.7223770E-01
         52   -1    0    0    0    0  0.00000000000E+00  0.00000000000E+00  0.64930732323E+04  0.65000000000E+04  0.30000000000E+03 0. -1.
        -52   -1    0    0    0    0 -0.00000000000E+00 -0.00000000000E+00 -0.64930732323E+04  0.65000000000E+04  0.30000000000E+03 0.  1.
     100001    1    1    2    0    0 -0.10523818332E+03 -0.70256380687E+03  0.64593094656E+04  0.65000000000E+04  0.15050000000E+03 0. -1.
     100001    1    1    2    0    0  0.10523818332E+03  0.70256380687E+03 -0.64593094656E+04  0.65000000000E+04  0.15050000000E+03 0.  1.
</event>
<event>
 4    1  0.4630618E-004  0.6500000E+04  0.7818608E-02  0.7223770E-01
         52   -1    0    0    0    0  0.00000000000E+00  0.00000000000E+00  0.64930732323E+04  0.65000000000E+04  0.30000000000E+03 0.  1.
        -52   -1    0    0    0    0 -0.00000000000E+00 -0.00000000000E+00 -0.64930732323E+04  0.65000000000E+04  0.30000000000E+03 0. -1.
     100001    1    1    2    0    0 -0.59998703790E+04  0.33421490511E+03  0.24732985228E+04  0.65000000000E+04  0.15050000000E+03 0.  1.
     100001    1    1    2    0    0  0.59998703790E+04 -0.33421490511E+03 -0.24732985228E+04  0.65000000000E+04  0.15050000000E+03 0. -1.
</event>
<event>
 4    1  0.4630618E-004  0.6500000E+04  0.7818608E-02  0.7223770E-01
         52   -1    0    0    0    0  0.00000000000E+00  0.00000000000E+00  0.64930732323E+04  0.65000000000E+04  0.30000000000E+03 0. -1.
        -52   -1    0    0    0    0 -0.00000000000E+00 -0.00000000000E+00 -0.64930732323E+04  0.65000000000E+04  0.30000000000E+03 0.  1.
     100001    1    1    2    0    0  0.71371372697E+03  0.57625772629E+04  0.29173045359E+04  0.65000000000E+04  0.15050000000E+03 0. -1.
     100001    1    1    2    0    0 -0.71371372697E+03 -0.57625772629E+04 -0.29173045359E+04  0.65000000000E+04  0.15050000000E+03 0.  1.
</event>
<event>
 4    1  0.4630618E-004  0.6500000E+04  0.7818608E-02  0.7223770E-01
         52   -1    0    0    0    0  0.00000000000E+00  0.00000000000E+00  0.64930732323E+04  0.65000000000E+04  0.30000000000E+03 0.  1.
        -52   -1    0    0    0    0 -0.00000000000E+00 -0.00000000000E+00 -0.64930732323E+04  0.65000000000E+04  0.30000000000E+03 0. -1.
     100001    1    1    2    0    0  0.20107096102E+04 -0.20796008647E+04  0.58189051253E+04  0.65000000000E+04  0.15050000000E+03 0.  1.
     100001    1    1    2    0    0 -0.20107096102E+04  0.20796008647E+04 -0.58189051253E+04  0.65000000000E+04  0.15050000000E+03 0. -1.
</event>
<event>
 4    1  0.4630618E-004  0.6500000E+04  0.7818608E-02  0.7223770E-01
         52   -1    0    0    0    0  0.00000000000E+00  0.00000000000E+00  0.64930732323E+04  0.65000000000E+04  0.30000000000E+03 0.  1.
        -52   -1    0    0    0    0 -0.00000000000E+00 -0.00000000000E+00 -0.64930732323E+04  0.65000000000E+04  0.30000000000E+03 0. -1.
     100001    1    1    2    0    0 -0.38205921586E+03  0.12647005495E+04  0.63625398251E+04  0.65000000000E+04  0.15050000000E+03 0.  1.
     100001    1    1    2    0    0  0.38205921586E+03 -0.12647005495E+04 -0.63625398251E+04  0.65000000000E+04  0.15050000000E+03 0. -1.
</event>
<event>
 4    1  0.4630618E-004  0.6500000E+04  0.7818608E-02  0.7223770E-01
         52   -1    0    0    0    0  0.00000000000E+00  0.00000000000E+00  0.64930732323E+04  0.65000000000E+04  0.30000000000E+03 0. -1.
        -52   -1    0    0    0    0 -0.00000000000E+00 -0.00000000000E+00 -0.64930732323E+04  0.65000000000E+04  0.30000000000E+03 0.  1.
     100001    1    1    2    0    0  0.27875017066E+04 -0.10906402429E+04 -0.57678148242E+04  0.65000000000E+04  0.15050000000E+03 0.  1.
     100001    1    1    2    0    0 -0.27875017066E+04  0.10906402429E+04  0.57678148242E+04  0.65000000000E+04  0.15050000000E+03 0. -1.
</event>
<event>
 4    1  0.4630618E-004  0.6500000E+04  0.7818608E-02  0.7223770E-01
         52   -1    0    0    0    0  0.00000000000E+00  0.00000000000E+00  0.64930732323E+04  0.65000000000E+04  0.30000000000E+03 0. -1.
        -52   -1    0    0    0    0 -0.00000000000E+00 -0.00000000000E+00 -0.64930732323E+04  0.65000000000E+04  0.30000000000E+03 0. -1.
     100001    1    1    2    0    0 -0.48337408791E+03  0.17956732592E+03 -0.64777661903E+04  0.65000000000E+04  0.15050000000E+03 0. -1.
     100001    1    1    2    0    0  0.48337408791E+03 -0.17956732592E+03  0.64777661903E+04  0.65000000000E+04  0.15050000000E+03 0. -1.
</event>
<event>
 4    1  0.4630618E-004  0.6500000E+04  0.7818608E-02  0.7223770E-01
         52   -1    0    0    0    0  0.00000000000E+00  0.00000000000E+00  0.64930732323E+04  0.65000000000E+04  0.30000000000E+03 0.  1.
        -52   -1    0    0    0    0 -0.00000000000E+00 -0.00000000000E+00 -0.64930732323E+04  0.65000000000E+04  0.30000000000E+03 0. -1.
     100001    1    1    2    0    0 -0.76785318296E+03 -0.34504790459E+00  0.64527320664E+04  0.65000000000E+04  0.15050000000E+03 0.  1.
     100001    1    1    2    0    0  0.76785318296E+03  0.34504790459E+00 -0.64527320664E+04  0.65000000000E+04  0.15050000000E+03 0. -1.
</event>
<event>
 4    1  0.4630618E-004  0.6500000E+04  0.7818608E-02  0.7223770E-01
         52   -1    0    0    0    0  0.00000000000E+00  0.00000000000E+00  0.64930732323E+04  0.65000000000E+04  0.30000000000E+03 0.  1.
        -52   -1    0    0    0    0 -0.00000000000E+00 -0.00000000000E+00 -0.64930732323E+04  0.65000000000E+04  0.30000000000E+03 0. -1.
     100001    1    1    2    0    0  0.11292040983E+04  0.19049121583E+04 -0.61093009030E+04  0.65000000000E+04  0.15050000000E+03 0. -1.
     100001    1    1    2    0    0 -0.11292040983E+04 -0.19049121583E+04  0.61093009030E+04  0.65000000000E+04  0.15050000000E+03 0.  1.
</event>
<event>
 4    1  0.4630618E-004  0.6500000E+04  0.7818608E-02  0.7223770E-01
         52   -1    0    0    0    0  0.00000000000E+00  0.00000000000E+00  0.64930732323E+04  0.65000000000E+04  0.30000000000E+03 0. -1.
        -52   -1    0    0    0    0 -0.00000000000E+00 -0.00000000000E+00 -0.64930732323E+04  0.65000000000E+04  0.30000000000E+03 0.  1.
     100001    1    1    2    0    0 -0.26080612846E+04  0.18680734243E+04  0.56511651690E+04  0.65000000000E+04  0.15050000000E+03 0. -1.
     100001    1    1    2    0    0  0.26080612846E+04 -0.18680734243E+04 -0.56511651690E+04  0.65000000000E+04  0.15050000000E+03 0.  1.
</event>
<event>
 4    1  0.4630618E-004  0.6500000E+04  0.7818608E-02  0.7223770E-01
         52   -1    0    0    0    0  0.00000000000E+00  0.00000000000E+00  0.64930732323E+04  0.65000000000E+04  0.30000000000E+03 0. -1.
        -52   -1    0    0    0    0 -0.00000000000E+00 -0.00000000000E+00 -0.64930732323E+04  0.65000000000E+04  0.30000000000E+03 0.  1.
     100001    1    1    2    0    0  0.96286751747E+03  0.54382192418E+03  0.64034751197E+04  0.65000000000E+04  0.15050000000E+03 0. -1.
     100001    1    1    2    0    0 -0.96286751747E+03 -0.54382192418E+03 -0.64034751197E+04  0.65000000000E+04  0.15050000000E+03 0.  1.
</event>
<event>
 4    1  0.4630618E-004  0.6500000E+04  0.7818608E-02  0.7223770E-01
         52   -1    0    0    0    0  0.00000000000E+00  0.00000000000E+00  0.64930732323E+04  0.65000000000E+04  0.30000000000E+03 0. -1.
        -52   -1    0    0    0    0 -0.00000000000E+00 -0.00000000000E+00 -0.64930732323E+04  0.65000000000E+04  0.30000000000E+03 0.  1.
     100001    1    1    2    0    0 -0.48008118952E+04  0.28895942730E+04 -0.32908661222E+04  0.65000000000E+04  0.15050000000E+03 0.  1.
     100001    1    1    2    0    0  0.48008118952E+04 -0.28895942730E+04  0.32908661222E+04  0.65000000000E+04  0.15050000000E+03 0. -1.
</event>
<event>
 4    1  0.4630618E-004  0.6500000E+04  0.7818608E-02  0.7223770E-01
         52   -1    0    0    0    0  0.00000000000E+00  0.00000000000E+00  0.64930732323E+04  0.65000000000E+04  0.30000000000E+03 0. -1.
        -52   -1    0    0    0    0 -0.00000000000E+00 -0.00000000000E+00 -0.64930732323E+04  0.65000000000E+04  0.30000000000E+03 0.  1.
     100001    1    1    2    0    0 -0.16123600722E+04  0.62535001095E+04 -0.72206726024E+03  0.65000000000E+04  0.15050000000E+03 0.  1.
     100001    1    1    2    0    0  0.16123600722E+04 -0.62535001095E+04  0.72206726024E+03  0.65000000000E+04  0.15050000000E+03 0. -1.
</event>
<event>
 4    1  0.4630618E-004  0.6500000E+04  0.7818608E-02  0.7223770E-01
         52   -1    0    0    0    0  0.00000000000E+00  0.00000000000E+00  0.64930732323E+04  0.65000000000E+04  0.30000000000E+03 0.  1.
        -52   -1    0    0    0    0 -0.00000000000E+00 -0.00000000000E+00 -0.64930732323E+04  0.65000000000E+04  0.30000000000E+03 0. -1.
     100001    1    1    2    0    0 -0.25448388973E+04  0.22796013775E+04  0.55276181395E+04  0.65000000000E+04  0.15050000000E+03 0.  1.
     100001    1    1    2    0    0  0.25448388973E+04 -0.22796013775E+04 -0.55276181395E+04  0.65000000000E+04  0.15050000000E+03 0. -1.
</event>
<event>
 4    1  0.4630618E-004  0.6500000E+04  0.7818608E-02  0.7223770E-01
         52   -1    0    0    0    0  0.00000000000E+00  0.00000000000E+00  0.64930732323E+04  0.65000000000E+04  0.30000000000E+03 0. -1.
        -52   -1    0    0    0    0 -0.00000000000E+00 -0.00000000000E+00 -0.64930732323E+04  0.65000000000E+04  0.30000000000E+03 0.  1.
     100001    1    1    2    0    0 -0.40443393013E+04  0.15492225113E+04  0.48446443602E+04  0.65000000000E+04  0.15050000000E+03 0. -1.
     100001    1    1    2    0    0  0.40443393013E+04 -0.15492225113E+04 -0.48446443602E+04  0.65000000000E+04  0.15050000000E+03 0.  1.
</event>
<event>
 4    1  0.4630618E-004  0.6500000E+04  0.7818608E-02  0.7223770E-01
         52   -1    0    0    0    0  0.00000000000E+00  0.00000000000E+00  0.64930732323E+04  0.65000000000E+04  0.30000000000E+03 0. -1.
        -52   -1    0    0    0    0 -0.00000000000E+00 -0.00000000000E+00 -0.64930732323E+04  0.65000000000E+04  0.30000000000E+03 0.  1.
     100001    1    1    2    0    0  0.31571361544E+04 -0.29616413075E+04 -0.48464958288E+04  0.65000000000E+04  0.15050000000E+03 0.  1.
     100001    1    1    2    0    0 -0.31571361544E+04  0.29616413075E+04  0.48464958288E+04  0.65000000000E+04  0.15050000000E+03 0. -1.
</event>
<event>
 4    1  0.4630618E-004  0.6500000E+04  0.7818608E-02  0.7223770E-01
         52   -1    0    0    0    0  0.00000000000E+00  0.00000000000E+00  0.64930732323E+04  0.65000000000E+04  0.30000000000E+03 0.  1.
        -52   -1    0    0    0    0 -0.00000000000E+00 -0.00000000000E+00 -0.64930732323E+04  0.65000000000E+04  0.30000000000E+03 0. -1.
     100001    1    1    2    0    0  0.20313704032E+03 -0.56709073646E+03 -0.64702776748E+04  0.65000000000E+04  0.15050000000E+03 0. -1.
     100001    1    1    2    0    0 -0.20313704032E+03  0.56709073646E+03  0.64702776748E+04  0.65000000000E+04  0.15050000000E+03 0.  1.
</event>
<event>
 4    1  0.4630618E-004  0.6500000E+04  0.7818608E-02  0.7223770E-01
         52   -1    0    0    0    0  0.00000000000E+00  0.00000000000E+00  0.64930732323E+04  0.65000000000E+04  0.30000000000E+03 0. -1.
        -52   -1    0    0    0    0 -0.00000000000E+00 -0.00000000000E+00 -0.64930732323E+04  0.65000000000E+04  0.30000000000E+03 0.  1.
     100001    1    1    2    0    0 -0.34293441949E+03  0.11465498949E+03  0.64881892672E+04  0.65000000000E+04  0.15050000000E+03 0. -1.
     100001    1    1    2    0    0  0.34293441949E+03 -0.11465498949E+03 -0.64881892672E+04  0.65000000000E+04  0.15050000000E+03 0.  1.
</event>
<event>
 4    1  0.4630618E-004  0.6500000E+04  0.7818608E-02  0.7223770E-01
         52   -1    0    0    0    0  0.00000000000E+00  0.00000000000E+00  0.64930732323E+04  0.65000000000E+04  0.30000000000E+03 0. -1.
        -52   -1    0    0    0    0 -0.00000000000E+00 -0.00000000000E+00 -0.64930732323E+04  0.65000000000E+04  0.30000000000E+03 0.  1.
     100001    1    1    2    0    0  0.34288900141E+03 -0.35031500149E+03 -0.64797419920E+04  0.65000000000E+04  0.15050000000E+03 0.  1.
     100001    1    1    2    0    0 -0.34288900141E+03  0.35031500149E+03  0.64797419920E+04  0.65000000000E+04  0.15050000000E+03 0. -1.
</event>
<event>
 4    1  0.7420087E-004  0.6500000E+04  0.7818608E-02  0.7223770E-01
         52   -1    0    0    0    0  0.00000000000E+00  0.00000000000E+00  0.64930732323E+04  0.65000000000E+04  0.30000000000E+03 0. -1.
        -52   -1    0    0    0    0 -0.00000000000E+00 -0.00000000000E+00 -0.64930732323E+04  0.65000000000E+04  0.30000000000E+03 0. -1.
     100001    1    1    2    0    0 -0.47066991110E+02  0.30678207632E+02 -0.64980145657E+04  0.65000000000E+04  0.15050000000E+03 0. -1.
     100001    1    1    2    0    0  0.47066991110E+02 -0.30678207632E+02  0.64980145657E+04  0.65000000000E+04  0.15050000000E+03 0. -1.
</event>
<event>
 4    1  0.4630618E-004  0.6500000E+04  0.7818608E-02  0.7223770E-01
         52   -1    0    0    0    0  0.00000000000E+00  0.00000000000E+00  0.64930732323E+04  0.65000000000E+04  0.30000000000E+03 0.  1.
        -52   -1    0    0    0    0 -0.00000000000E+00 -0.00000000000E+00 -0.64930732323E+04  0.65000000000E+04  0.30000000000E+03 0.  1.
     100001    1    1    2    0    0 -0.27018289521E+03  0.13772429592E+03  0.64911773178E+04  0.65000000000E+04  0.15050000000E+03 0.  1.
     100001    1    1    2    0    0  0.27018289521E+03 -0.13772429592E+03 -0.64911773178E+04  0.65000000000E+04  0.15050000000E+03 0.  1.
</event>
<event>
 4    1  0.4630618E-004  0.6500000E+04  0.7818608E-02  0.7223770E-01
         52   -1    0    0    0    0  0.00000000000E+00  0.00000000000E+00  0.64930732323E+04  0.65000000000E+04  0.30000000000E+03 0.  1.
        -52   -1    0    0    0    0 -0.00000000000E+00 -0.00000000000E+00 -0.64930732323E+04  0.65000000000E+04  0.30000000000E+03 0. -1.
     100001    1    1    2    0    0  0.30192801333E+03  0.69251694700E+03  0.64541931721E+04  0.65000000000E+04  0.15050000000E+03 0.  1.
     100001    1    1    2    0    0 -0.30192801333E+03 -0.69251694700E+03 -0.64541931721E+04  0.65000000000E+04  0.15050000000E+03 0. -1.
</event>
<event>
 4    1  0.4630618E-004  0.6500000E+04  0.7818608E-02  0.7223770E-01
         52   -1    0    0    0    0  0.00000000000E+00  0.00000000000E+00  0.64930732323E+04  0.65000000000E+04  0.30000000000E+03 0. -1.
        -52   -1    0    0    0    0 -0.00000000000E+00 -0.00000000000E+00 -0.64930732323E+04  0.65000000000E+04  0.30000000000E+03 0.  1.
     100001    1    1    2    0    0  0.32319784441E+03 -0.56459494817E+03 -0.64656109880E+04  0.65000000000E+04  0.15050000000E+03 0.  1.
     100001    1    1    2    0    0 -0.32319784441E+03  0.56459494817E+03  0.64656109880E+04  0.65000000000E+04  0.15050000000E+03 0. -1.
</event>
<event>
 4    1  0.4630618E-004  0.6500000E+04  0.7818608E-02  0.7223770E-01
         52   -1    0    0    0    0  0.00000000000E+00  0.00000000000E+00  0.64930732323E+04  0.65000000000E+04  0.30000000000E+03 0.  1.
        -52   -1    0    0    0    0 -0.00000000000E+00 -0.00000000000E+00 -0.64930732323E+04  0.65000000000E+04  0.30000000000E+03 0. -1.
     100001    1    1    2    0    0 -0.12889138766E+04 -0.38391374421E+03 -0.63575672239E+04  0.65000000000E+04  0.15050000000E+03 0. -1.
     100001    1    1    2    0    0  0.12889138766E+04  0.38391374421E+03  0.63575672239E+04  0.65000000000E+04  0.15050000000E+03 0.  1.
</event>
<event>
 4    1  0.4630618E-004  0.6500000E+04  0.7818608E-02  0.7223770E-01
         52   -1    0    0    0    0  0.00000000000E+00  0.00000000000E+00  0.64930732323E+04  0.65000000000E+04  0.30000000000E+03 0.  1.
        -52   -1    0    0    0    0 -0.00000000000E+00 -0.00000000000E+00 -0.64930732323E+04  0.65000000000E+04  0.30000000000E+03 0. -1.
     100001    1    1    2    0    0 -0.60089639857E+03 -0.65503780080E+02 -0.64700836566E+04  0.65000000000E+04  0.15050000000E+03 0. -1.
     100001    1    1    2    0    0  0.60089639857E+03  0.65503780080E+02  0.64700836566E+04  0.65000000000E+04  0.15050000000E+03 0.  1.
</event>
<event>
 4    1  0.4630618E-004  0.6500000E+04  0.7818608E-02  0.7223770E-01
         52   -1    0    0    0    0  0.00000000000E+00  0.00000000000E+00  0.64930732323E+04  0.65000000000E+04  0.30000000000E+03 0.  1.
        -52   -1    0    0    0    0 -0.00000000000E+00 -0.00000000000E+00 -0.64930732323E+04  0.65000000000E+04  0.30000000000E+03 0. -1.
     100001    1    1    2    0    0  0.76844950724E+02  0.28163897669E+03 -0.64916965495E+04  0.65000000000E+04  0.15050000000E+03 0. -1.
     100001    1    1    2    0    0 -0.76844950724E+02 -0.28163897669E+03  0.64916965495E+04  0.65000000000E+04  0.15050000000E+03 0.  1.
</event>
<event>
 4    1  0.4630618E-004  0.6500000E+04  0.7818608E-02  0.7223770E-01
         52   -1    0    0    0    0  0.00000000000E+00  0.00000000000E+00  0.64930732323E+04  0.65000000000E+04  0.30000000000E+03 0.  1.
        -52   -1    0    0    0    0 -0.00000000000E+00 -0.00000000000E+00 -0.64930732323E+04  0.65000000000E+04  0.30000000000E+03 0.  1.
     100001    1    1    2    0    0  0.23237574668E+03  0.22246212539E+02 -0.64940631633E+04  0.65000000000E+04  0.15050000000E+03 0.  1.
     100001    1    1    2    0    0 -0.23237574668E+03 -0.22246212539E+02  0.64940631633E+04  0.65000000000E+04  0.15050000000E+03 0.  1.
</event>
<event>
 4    1  0.4630618E-004  0.6500000E+04  0.7818608E-02  0.7223770E-01
         52   -1    0    0    0    0  0.00000000000E+00  0.00000000000E+00  0.64930732323E+04  0.65000000000E+04  0.30000000000E+03 0.  1.
        -52   -1    0    0    0    0 -0.00000000000E+00 -0.00000000000E+00 -0.64930732323E+04  0.65000000000E+04  0.30000000000E+03 0. -1.
     100001    1    1    2    0    0  0.25813666747E+03  0.61401315144E+02  0.64928379842E+04  0.65000000000E+04  0.15050000000E+03 0.  1.
     100001    1    1    2    0    0 -0.25813666747E+03 -0.61401315144E+02 -0.64928379842E+04  0.65000000000E+04  0.15050000000E+03 0. -1.
</event>
<event>
 4    1  0.4630618E-004  0.6500000E+04  0.7818608E-02  0.7223770E-01
         52   -1    0    0    0    0  0.00000000000E+00  0.00000000000E+00  0.64930732323E+04  0.65000000000E+04  0.30000000000E+03 0. -1.
        -52   -1    0    0    0    0 -0.00000000000E+00 -0.00000000000E+00 -0.64930732323E+04  0.65000000000E+04  0.30000000000E+03 0.  1.
     100001    1    1    2    0    0 -0.63545087289E+04 -0.10857868781E+03 -0.13549093078E+04  0.65000000000E+04  0.15050000000E+03 0.  1.
     100001    1    1    2    0    0  0.63545087289E+04  0.10857868781E+03  0.13549093078E+04  0.65000000000E+04  0.15050000000E+03 0. -1.
</event>
<event>
 4    1  0.4630618E-004  0.6500000E+04  0.7818608E-02  0.7223770E-01
         52   -1    0    0    0    0  0.00000000000E+00  0.00000000000E+00  0.64930732323E+04  0.65000000000E+04  0.30000000000E+03 0.  1.
        -52   -1    0    0    0    0 -0.00000000000E+00 -0.00000000000E+00 -0.64930732323E+04  0.65000000000E+04  0.30000000000E+03 0. -1.
     100001    1    1    2    0    0  0.23001135470E+04  0.95093631209E+03  0.60027116832E+04  0.65000000000E+04  0.15050000000E+03 0.  1.
     100001    1    1    2    0    0 -0.23001135470E+04 -0.95093631209E+03 -0.60027116832E+04  0.65000000000E+04  0.15050000000E+03 0. -1.
</event>
<event>
 4    1  0.4630618E-004  0.6500000E+04  0.7818608E-02  0.7223770E-01
         52   -1    0    0    0    0  0.00000000000E+00  0.00000000000E+00  0.64930732323E+04  0.65000000000E+04  0.30000000000E+03 0.  1.
        -52   -1    0    0    0    0 -0.00000000000E+00 -0.00000000000E+00 -0.64930732323E+04  0.65000000000E+04  0.30000000000E+03 0.  1.
     100001    1    1    2    0    0 -0.23476844349E+03  0.35625673699E+03 -0.64842358582E+04  0.65000000000E+04  0.15050000000E+03 0.  1.
     100001    1    1    2    0    0  0.23476844349E+03 -0.35625673699E+03  0.64842358582E+04  0.65000000000E+04  0.15050000000E+03 0.  1.
</event>
<event>
 4    1  0.4630618E-004  0.6500000E+04  0.7818608E-02  0.7223770E-01
         52   -1    0    0    0    0  0.00000000000E+00  0.00000000000E+00  0.64930732323E+04  0.65000000000E+04  0.30000000000E+03 0. -1.
        -52   -1    0    0    0    0 -0.00000000000E+00 -0.00000000000E+00 -0.64930732323E+04  0.65000000000E+04  0.30000000000E+03 0.  1.
     100001    1    1    2    0    0  0.26021140658E+04  0.10758213244E+03 -0.59535517318E+04  0.65000000000E+04  0.15050000000E+03 0.  1.
     100001    1    1    2    0    0 -0.26021140658E+04 -0.10758213244E+03  0.59535517318E+04  0.65000000000E+04  0.15050000000E+03 0. -1.
</event>
<event>
 4    1  0.4630618E-004  0.6500000E+04  0.7818608E-02  0.7223770E-01
         52   -1    0    0    0    0  0.00000000000E+00  0.00000000000E+00  0.64930732323E+04  0.65000000000E+04  0.30000000000E+03 0. -1.
        -52   -1    0    0    0    0 -0.00000000000E+00 -0.00000000000E+00 -0.64930732323E+04  0.65000000000E+04  0.30000000000E+03 0.  1.
     100001    1    1    2    0    0  0.39701008410E+04 -0.19998944328E+03 -0.51405888072E+04  0.65000000000E+04  0.15050000000E+03 0.  1.
     100001    1    1    2    0    0 -0.39701008410E+04  0.19998944328E+03  0.51405888072E+04  0.65000000000E+04  0.15050000000E+03 0. -1.
</event>
<event>
 4    1  0.4630618E-004  0.6500000E+04  0.7818608E-02  0.7223770E-01
         52   -1    0    0    0    0  0.00000000000E+00  0.00000000000E+00  0.64930732323E+04  0.65000000000E+04  0.30000000000E+03 0.  1.
        -52   -1    0    0    0    0 -0.00000000000E+00 -0.00000000000E+00 -0.64930732323E+04  0.65000000000E+04  0.30000000000E+03 0. -1.
     100001    1    1    2    0    0  0.39701484601E+03  0.71082356934E+02 -0.64857286607E+04  0.65000000000E+04  0.15050000000E+03 0. -1.
     100001    1    1    2    0    0 -0.39701484601E+03 -0.71082356934E+02  0.64857286607E+04  0.65000000000E+04  0.15050000000E+03 0.  1.
</event>
<event>
 4    1  0.4630618E-004  0.6500000E+04  0.7818608E-02  0.7223770E-01
         52   -1    0    0    0    0  0.00000000000E+00  0.00000000000E+00  0.64930732323E+04  0.65000000000E+04  0.30000000000E+03 0. -1.
        -52   -1    0    0    0    0 -0.00000000000E+00 -0.00000000000E+00 -0.64930732323E+04  0.65000000000E+04  0.30000000000E+03 0. -1.
     100001    1    1    2    0    0  0.11066389028E+04 -0.17203808074E+03 -0.64010235891E+04  0.65000000000E+04  0.15050000000E+03 0. -1.
     100001    1    1    2    0    0 -0.11066389028E+04  0.17203808074E+03  0.64010235891E+04  0.65000000000E+04  0.15050000000E+03 0. -1.
</event>
<event>
 4    1  0.4630618E-004  0.6500000E+04  0.7818608E-02  0.7223770E-01
         52   -1    0    0    0    0  0.00000000000E+00  0.00000000000E+00  0.64930732323E+04  0.65000000000E+04  0.30000000000E+03 0. -1.
        -52   -1    0    0    0    0 -0.00000000000E+00 -0.00000000000E+00 -0.64930732323E+04  0.65000000000E+04  0.30000000000E+03 0.  1.
     100001    1    1    2    0    0  0.75021872154E+02 -0.37234583738E+03  0.64871472965E+04  0.65000000000E+04  0.15050000000E+03 0. -1.
     100001    1    1    2    0    0 -0.75021872154E+02  0.37234583738E+03 -0.64871472965E+04  0.65000000000E+04  0.15050000000E+03 0.  1.
</event>
<event>
 4    1  0.4630618E-004  0.6500000E+04  0.7818608E-02  0.7223770E-01
         52   -1    0    0    0    0  0.00000000000E+00  0.00000000000E+00  0.64930732323E+04  0.65000000000E+04  0.30000000000E+03 0.  1.
        -52   -1    0    0    0    0 -0.00000000000E+00 -0.00000000000E+00 -0.64930732323E+04  0.65000000000E+04  0.30000000000E+03 0. -1.
     100001    1    1    2    0    0 -0.39529112808E+03  0.98617228932E+03 -0.64108157741E+04  0.65000000000E+04  0.15050000000E+03 0. -1.
     100001    1    1    2    0    0  0.39529112808E+03 -0.98617228932E+03  0.64108157741E+04  0.65000000000E+04  0.15050000000E+03 0.  1.
</event>
<event>
 4    1  0.4630618E-004  0.6500000E+04  0.7818608E-02  0.7223770E-01
         52   -1    0    0    0    0  0.00000000000E+00  0.00000000000E+00  0.64930732323E+04  0.65000000000E+04  0.30000000000E+03 0. -1.
        -52   -1    0    0    0    0 -0.00000000000E+00 -0.00000000000E+00 -0.64930732323E+04  0.65000000000E+04  0.30000000000E+03 0.  1.
     100001    1    1    2    0    0  0.51962272906E+03 -0.24846926769E+04 -0.59819431852E+04  0.65000000000E+04  0.15050000000E+03 0.  1.
     100001    1    1    2    0    0 -0.51962272906E+03  0.24846926769E+04  0.59819431852E+04  0.65000000000E+04  0.15050000000E+03 0. -1.
</event>
<event>
 4    1  0.4630618E-004  0.6500000E+04  0.7818608E-02  0.7223770E-01
         52   -1    0    0    0    0  0.00000000000E+00  0.00000000000E+00  0.64930732323E+04  0.65000000000E+04  0.30000000000E+03 0. -1.
        -52   -1    0    0    0    0 -0.00000000000E+00 -0.00000000000E+00 -0.64930732323E+04  0.65000000000E+04  0.30000000000E+03 0. -1.
     100001    1    1    2    0    0  0.62425051492E+03  0.39879393925E+03  0.64558984223E+04  0.65000000000E+04  0.15050000000E+03 0. -1.
     100001    1    1    2    0    0 -0.62425051492E+03 -0.39879393925E+03 -0.64558984223E+04  0.65000000000E+04  0.15050000000E+03 0. -1.
</event>
<event>
 4    1  0.4630618E-004  0.6500000E+04  0.7818608E-02  0.7223770E-01
         52   -1    0    0    0    0  0.00000000000E+00  0.00000000000E+00  0.64930732323E+04  0.65000000000E+04  0.30000000000E+03 0. -1.
        -52   -1    0    0    0    0 -0.00000000000E+00 -0.00000000000E+00 -0.64930732323E+04  0.65000000000E+04  0.30000000000E+03 0.  1.
     100001    1    1    2    0    0 -0.23808968258E+04  0.37716478837E+04 -0.47258176326E+04  0.65000000000E+04  0.15050000000E+03 0.  1.
     100001    1    1    2    0    0  0.23808968258E+04 -0.37716478837E+04  0.47258176326E+04  0.65000000000E+04  0.15050000000E+03 0. -1.
</event>
<event>
 4    1  0.4630618E-004  0.6500000E+04  0.7818608E-02  0.7223770E-01
         52   -1    0    0    0    0  0.00000000000E+00  0.00000000000E+00  0.64930732323E+04  0.65000000000E+04  0.30000000000E+03 0.  1.
        -52   -1    0    0    0    0 -0.00000000000E+00 -0.00000000000E+00 -0.64930732323E+04  0.65000000000E+04  0.30000000000E+03 0.  1.
     100001    1    1    2    0    0 -0.85175879654E+02 -0.39780451568E+03  0.64855104955E+04  0.65000000000E+04  0.15050000000E+03 0.  1.
     100001    1    1    2    0    0  0.85175879654E+02  0.39780451568E+03 -0.64855104955E+04  0.65000000000E+04  0.15050000000E+03 0.  1.
</event>
<event>
 4    1  0.4630618E-004  0.6500000E+04  0.7818608E-02  0.7223770E-01
         52   -1    0    0    0    0  0.00000000000E+00  0.00000000000E+00  0.64930732323E+04  0.65000000000E+04  0.30000000000E+03 0.  1.
        -52   -1    0    0    0    0 -0.00000000000E+00 -0.00000000000E+00 -0.64930732323E+04  0.65000000000E+04  0.30000000000E+03 0. -1.
     100001    1    1    2    0    0 -0.30073604551E+03  0.22170555445E+03  0.64875075513E+04  0.65000000000E+04  0.15050000000E+03 0.  1.
     100001    1    1    2    0    0  0.30073604551E+03 -0.22170555445E+03 -0.64875075513E+04  0.65000000000E+04  0.15050000000E+03 0. -1.
</event>
<event>
 4    1  0.4630618E-004  0.6500000E+04  0.7818608E-02  0.7223770E-01
         52   -1    0    0    0    0  0.00000000000E+00  0.00000000000E+00  0.64930732323E+04  0.65000000000E+04  0.30000000000E+03 0.  1.
        -52   -1    0    0    0    0 -0.00000000000E+00 -0.00000000000E+00 -0.64930732323E+04  0.65000000000E+04  0.30000000000E+03 0.  1.
     100001    1    1    2    0    0  0.91298237635E+02  0.30119621522E+03  0.64906313423E+04  0.65000000000E+04  0.15050000000E+03 0.  1.
     100001    1    1    2    0    0 -0.91298237635E+02 -0.30119621522E+03 -0.64906313423E+04  0.65000000000E+04  0.15050000000E+03 0.  1.
</event>
<event>
 4    1  0.4630618E-004  0.6500000E+04  0.7818608E-02  0.7223770E-01
         52   -1    0    0    0    0  0.00000000000E+00  0.00000000000E+00  0.64930732323E+04  0.65000000000E+04  0.30000000000E+03 0. -1.
        -52   -1    0    0    0    0 -0.00000000000E+00 -0.00000000000E+00 -0.64930732323E+04  0.65000000000E+04  0.30000000000E+03 0.  1.
     100001    1    1    2    0    0 -0.36030873118E+04 -0.10979157675E+04  0.52952518864E+04  0.65000000000E+04  0.15050000000E+03 0. -1.
     100001    1    1    2    0    0  0.36030873118E+04  0.10979157675E+04 -0.52952518864E+04  0.65000000000E+04  0.15050000000E+03 0.  1.
</event>
<event>
 4    1  0.4630618E-004  0.6500000E+04  0.7818608E-02  0.7223770E-01
         52   -1    0    0    0    0  0.00000000000E+00  0.00000000000E+00  0.64930732323E+04  0.65000000000E+04  0.30000000000E+03 0. -1.
        -52   -1    0    0    0    0 -0.00000000000E+00 -0.00000000000E+00 -0.64930732323E+04  0.65000000000E+04  0.30000000000E+03 0.  1.
     100001    1    1    2    0    0  0.17680992275E+04 -0.16657182528E+04 -0.60271516966E+04  0.65000000000E+04  0.15050000000E+03 0.  1.
     100001    1    1    2    0    0 -0.17680992275E+04  0.16657182528E+04  0.60271516966E+04  0.65000000000E+04  0.15050000000E+03 0. -1.
</event>
<event>
 4    1  0.4630618E-004  0.6500000E+04  0.7818608E-02  0.7223770E-01
         52   -1    0    0    0    0  0.00000000000E+00  0.00000000000E+00  0.64930732323E+04  0.65000000000E+04  0.30000000000E+03 0.  1.
        -52   -1    0    0    0    0 -0.00000000000E+00 -0.00000000000E+00 -0.64930732323E+04  0.65000000000E+04  0.30000000000E+03 0.  1.
     100001    1    1    2    0    0 -0.72003987414E+02 -0.16603079150E+03 -0.64957369830E+04  0.65000000000E+04  0.15050000000E+03 0.  1.
     100001    1    1    2    0    0  0.72003987414E+02  0.16603079150E+03  0.64957369830E+04  0.65000000000E+04  0.15050000000E+03 0.  1.
</event>
<event>
 4    1  0.4630618E-004  0.6500000E+04  0.7818608E-02  0.7223770E-01
         52   -1    0    0    0    0  0.00000000000E+00  0.00000000000E+00  0.64930732323E+04  0.65000000000E+04  0.30000000000E+03 0. -1.
        -52   -1    0    0    0    0 -0.00000000000E+00 -0.00000000000E+00 -0.64930732323E+04  0.65000000000E+04  0.30000000000E+03 0.  1.
     100001    1    1    2    0    0  0.10094019212E+04 -0.11994070513E+04  0.63063365147E+04  0.65000000000E+04  0.15050000000E+03 0. -1.
     100001    1    1    2    0    0 -0.10094019212E+04  0.11994070513E+04 -0.63063365147E+04  0.65000000000E+04  0.15050000000E+03 0.  1.
</event>
<event>
 4    1  0.4630618E-004  0.6500000E+04  0.7818608E-02  0.7223770E-01
         52   -1    0    0    0    0  0.00000000000E+00  0.00000000000E+00  0.64930732323E+04  0.65000000000E+04  0.30000000000E+03 0.  1.
        -52   -1    0    0    0    0 -0.00000000000E+00 -0.00000000000E+00 -0.64930732323E+04  0.65000000000E+04  0.30000000000E+03 0. -1.
     100001    1    1    2    0    0  0.59644752753E+03  0.58049196730E+04 -0.28591095968E+04  0.65000000000E+04  0.15050000000E+03 0.  1.
     100001    1    1    2    0    0 -0.59644752753E+03 -0.58049196730E+04  0.28591095968E+04  0.65000000000E+04  0.15050000000E+03 0. -1.
</event>
<event>
 4    1  0.4630618E-004  0.6500000E+04  0.7818608E-02  0.7223770E-01
         52   -1    0    0    0    0  0.00000000000E+00  0.00000000000E+00  0.64930732323E+04  0.65000000000E+04  0.30000000000E+03 0.  1.
        -52   -1    0    0    0    0 -0.00000000000E+00 -0.00000000000E+00 -0.64930732323E+04  0.65000000000E+04  0.30000000000E+03 0. -1.
     100001    1    1    2    0    0  0.23005615993E+03 -0.23174537746E+04  0.60666161833E+04  0.65000000000E+04  0.15050000000E+03 0.  1.
     100001    1    1    2    0    0 -0.23005615993E+03  0.23174537746E+04 -0.60666161833E+04  0.65000000000E+04  0.15050000000E+03 0. -1.
</event>
<event>
 4    1  0.4630618E-004  0.6500000E+04  0.7818608E-02  0.7223770E-01
         52   -1    0    0    0    0  0.00000000000E+00  0.00000000000E+00  0.64930732323E+04  0.65000000000E+04  0.30000000000E+03 0.  1.
        -52   -1    0    0    0    0 -0.00000000000E+00 -0.00000000000E+00 -0.64930732323E+04  0.65000000000E+04  0.30000000000E+03 0. -1.
     100001    1    1    2    0    0 -0.53971706274E+03 -0.39183875938E+03  0.64639397916E+04  0.65000000000E+04  0.15050000000E+03 0.  1.
     100001    1    1    2    0    0  0.53971706274E+03  0.39183875938E+03 -0.64639397916E+04  0.65000000000E+04  0.15050000000E+03 0. -1.
</event>
<event>
 4    1  0.4630618E-004  0.6500000E+04  0.7818608E-02  0.7223770E-01
         52   -1    0    0    0    0  0.00000000000E+00  0.00000000000E+00  0.64930732323E+04  0.65000000000E+04  0.30000000000E+03 0.  1.
        -52   -1    0    0    0    0 -0.00000000000E+00 -0.00000000000E+00 -0.64930732323E+04  0.65000000000E+04  0.30000000000E+03 0. -1.
     100001    1    1    2    0    0  0.98834111032E+03 -0.58241274725E+04  0.27074103463E+04  0.65000000000E+04  0.15050000000E+03 0.  1.
     100001    1    1    2    0    0 -0.98834111032E+03  0.58241274725E+04 -0.27074103463E+04  0.65000000000E+04  0.15050000000E+03 0. -1.
</event>
<event>
 4    1  0.4630618E-004  0.6500000E+04  0.7818608E-02  0.7223770E-01
         52   -1    0    0    0    0  0.00000000000E+00  0.00000000000E+00  0.64930732323E+04  0.65000000000E+04  0.30000000000E+03 0.  1.
        -52   -1    0    0    0    0 -0.00000000000E+00 -0.00000000000E+00 -0.64930732323E+04  0.65000000000E+04  0.30000000000E+03 0. -1.
     100001    1    1    2    0    0 -0.13807614971E+04 -0.89150053775E+02  0.63492440263E+04  0.65000000000E+04  0.15050000000E+03 0.  1.
     100001    1    1    2    0    0  0.13807614971E+04  0.89150053775E+02 -0.63492440263E+04  0.65000000000E+04  0.15050000000E+03 0. -1.
</event>
<event>
 4    1  0.4630618E-004  0.6500000E+04  0.7818608E-02  0.7223770E-01
         52   -1    0    0    0    0  0.00000000000E+00  0.00000000000E+00  0.64930732323E+04  0.65000000000E+04  0.30000000000E+03 0. -1.
        -52   -1    0    0    0    0 -0.00000000000E+00 -0.00000000000E+00 -0.64930732323E+04  0.65000000000E+04  0.30000000000E+03 0.  1.
     100001    1    1    2    0    0  0.59354870300E+04  0.26296242523E+04  0.28708841657E+03  0.65000000000E+04  0.15050000000E+03 0. -1.
     100001    1    1    2    0    0 -0.59354870300E+04 -0.26296242523E+04 -0.28708841657E+03  0.65000000000E+04  0.15050000000E+03 0.  1.
</event>
<event>
 4    1  0.4630618E-004  0.6500000E+04  0.7818608E-02  0.7223770E-01
         52   -1    0    0    0    0  0.00000000000E+00  0.00000000000E+00  0.64930732323E+04  0.65000000000E+04  0.30000000000E+03 0. -1.
        -52   -1    0    0    0    0 -0.00000000000E+00 -0.00000000000E+00 -0.64930732323E+04  0.65000000000E+04  0.30000000000E+03 0.  1.
     100001    1    1    2    0    0 -0.38437431979E+04  0.35451353340E+04 -0.38581087909E+04  0.65000000000E+04  0.15050000000E+03 0.  1.
     100001    1    1    2    0    0  0.38437431979E+04 -0.35451353340E+04  0.38581087909E+04  0.65000000000E+04  0.15050000000E+03 0. -1.
</event>
<event>
 4    1  0.4630618E-004  0.6500000E+04  0.7818608E-02  0.7223770E-01
         52   -1    0    0    0    0  0.00000000000E+00  0.00000000000E+00  0.64930732323E+04  0.65000000000E+04  0.30000000000E+03 0.  1.
        -52   -1    0    0    0    0 -0.00000000000E+00 -0.00000000000E+00 -0.64930732323E+04  0.65000000000E+04  0.30000000000E+03 0. -1.
     100001    1    1    2    0    0  0.49187300331E+04 -0.37937719061E+04 -0.19080721518E+04  0.65000000000E+04  0.15050000000E+03 0. -1.
     100001    1    1    2    0    0 -0.49187300331E+04  0.37937719061E+04  0.19080721518E+04  0.65000000000E+04  0.15050000000E+03 0.  1.
</event>
<event>
 4    1  0.4630618E-004  0.6500000E+04  0.7818608E-02  0.7223770E-01
         52   -1    0    0    0    0  0.00000000000E+00  0.00000000000E+00  0.64930732323E+04  0.65000000000E+04  0.30000000000E+03 0.  1.
        -52   -1    0    0    0    0 -0.00000000000E+00 -0.00000000000E+00 -0.64930732323E+04  0.65000000000E+04  0.30000000000E+03 0.  1.
     100001    1    1    2    0    0  0.26486613498E+03 -0.25320479433E+03  0.64879182341E+04  0.65000000000E+04  0.15050000000E+03 0.  1.
     100001    1    1    2    0    0 -0.26486613498E+03  0.25320479433E+03 -0.64879182341E+04  0.65000000000E+04  0.15050000000E+03 0.  1.
</event>
<event>
 4    1  0.4630618E-004  0.6500000E+04  0.7818608E-02  0.7223770E-01
         52   -1    0    0    0    0  0.00000000000E+00  0.00000000000E+00  0.64930732323E+04  0.65000000000E+04  0.30000000000E+03 0. -1.
        -52   -1    0    0    0    0 -0.00000000000E+00 -0.00000000000E+00 -0.64930732323E+04  0.65000000000E+04  0.30000000000E+03 0.  1.
     100001    1    1    2    0    0 -0.44873925194E+02 -0.21462804796E+04  0.61334179854E+04  0.65000000000E+04  0.15050000000E+03 0. -1.
     100001    1    1    2    0    0  0.44873925194E+02  0.21462804796E+04 -0.61334179854E+04  0.65000000000E+04  0.15050000000E+03 0.  1.
</event>
<event>
 4    1  0.4630618E-004  0.6500000E+04  0.7818608E-02  0.7223770E-01
         52   -1    0    0    0    0  0.00000000000E+00  0.00000000000E+00  0.64930732323E+04  0.65000000000E+04  0.30000000000E+03 0. -1.
        -52   -1    0    0    0    0 -0.00000000000E+00 -0.00000000000E+00 -0.64930732323E+04  0.65000000000E+04  0.30000000000E+03 0.  1.
     100001    1    1    2    0    0 -0.82641572994E+01  0.23271230990E+04 -0.60672711770E+04  0.65000000000E+04  0.15050000000E+03 0.  1.
     100001    1    1    2    0    0  0.82641572994E+01 -0.23271230990E+04  0.60672711770E+04  0.65000000000E+04  0.15050000000E+03 0. -1.
</event>
<event>
 4    1  0.4630618E-004  0.6500000E+04  0.7818608E-02  0.7223770E-01
         52   -1    0    0    0    0  0.00000000000E+00  0.00000000000E+00  0.64930732323E+04  0.65000000000E+04  0.30000000000E+03 0. -1.
        -52   -1    0    0    0    0 -0.00000000000E+00 -0.00000000000E+00 -0.64930732323E+04  0.65000000000E+04  0.30000000000E+03 0.  1.
     100001    1    1    2    0    0 -0.12346970249E+04  0.47855705950E+04 -0.42191453029E+04  0.65000000000E+04  0.15050000000E+03 0.  1.
     100001    1    1    2    0    0  0.12346970249E+04 -0.47855705950E+04  0.42191453029E+04  0.65000000000E+04  0.15050000000E+03 0. -1.
</event>
<event>
 4    1  0.4630618E-004  0.6500000E+04  0.7818608E-02  0.7223770E-01
         52   -1    0    0    0    0  0.00000000000E+00  0.00000000000E+00  0.64930732323E+04  0.65000000000E+04  0.30000000000E+03 0. -1.
        -52   -1    0    0    0    0 -0.00000000000E+00 -0.00000000000E+00 -0.64930732323E+04  0.65000000000E+04  0.30000000000E+03 0.  1.
     100001    1    1    2    0    0 -0.80656375768E+03 -0.62488544369E+03  0.64176571143E+04  0.65000000000E+04  0.15050000000E+03 0. -1.
     100001    1    1    2    0    0  0.80656375768E+03  0.62488544369E+03 -0.64176571143E+04  0.65000000000E+04  0.15050000000E+03 0.  1.
</event>
<event>
 4    1  0.4630618E-004  0.6500000E+04  0.7818608E-02  0.7223770E-01
         52   -1    0    0    0    0  0.00000000000E+00  0.00000000000E+00  0.64930732323E+04  0.65000000000E+04  0.30000000000E+03 0. -1.
        -52   -1    0    0    0    0 -0.00000000000E+00 -0.00000000000E+00 -0.64930732323E+04  0.65000000000E+04  0.30000000000E+03 0.  1.
     100001    1    1    2    0    0  0.11429120225E+04  0.66647538030E+03  0.63621468410E+04  0.65000000000E+04  0.15050000000E+03 0. -1.
     100001    1    1    2    0    0 -0.11429120225E+04 -0.66647538030E+03 -0.63621468410E+04  0.65000000000E+04  0.15050000000E+03 0.  1.
</event>
<event>
 4    1  0.4630618E-004  0.6500000E+04  0.7818608E-02  0.7223770E-01
         52   -1    0    0    0    0  0.00000000000E+00  0.00000000000E+00  0.64930732323E+04  0.65000000000E+04  0.30000000000E+03 0. -1.
        -52   -1    0    0    0    0 -0.00000000000E+00 -0.00000000000E+00 -0.64930732323E+04  0.65000000000E+04  0.30000000000E+03 0.  1.
     100001    1    1    2    0    0 -0.24070290920E+03  0.10956977955E+03 -0.64928735028E+04  0.65000000000E+04  0.15050000000E+03 0.  1.
     100001    1    1    2    0    0  0.24070290920E+03 -0.10956977955E+03  0.64928735028E+04  0.65000000000E+04  0.15050000000E+03 0. -1.
</event>
<event>
 4    1  0.4630618E-004  0.6500000E+04  0.7818608E-02  0.7223770E-01
         52   -1    0    0    0    0  0.00000000000E+00  0.00000000000E+00  0.64930732323E+04  0.65000000000E+04  0.30000000000E+03 0.  1.
        -52   -1    0    0    0    0 -0.00000000000E+00 -0.00000000000E+00 -0.64930732323E+04  0.65000000000E+04  0.30000000000E+03 0. -1.
     100001    1    1    2    0    0 -0.12464182433E+04  0.42895734989E+04 -0.47194650662E+04  0.65000000000E+04  0.15050000000E+03 0. -1.
     100001    1    1    2    0    0  0.12464182433E+04 -0.42895734989E+04  0.47194650662E+04  0.65000000000E+04  0.15050000000E+03 0.  1.
</event>
<event>
 4    1  0.4630618E-004  0.6500000E+04  0.7818608E-02  0.7223770E-01
         52   -1    0    0    0    0  0.00000000000E+00  0.00000000000E+00  0.64930732323E+04  0.65000000000E+04  0.30000000000E+03 0. -1.
        -52   -1    0    0    0    0 -0.00000000000E+00 -0.00000000000E+00 -0.64930732323E+04  0.65000000000E+04  0.30000000000E+03 0.  1.
     100001    1    1    2    0    0  0.34821205309E+03 -0.88029851253E+03 -0.64289324654E+04  0.65000000000E+04  0.15050000000E+03 0.  1.
     100001    1    1    2    0    0 -0.34821205309E+03  0.88029851253E+03  0.64289324654E+04  0.65000000000E+04  0.15050000000E+03 0. -1.
</event>
<event>
 4    1  0.4630618E-004  0.6500000E+04  0.7818608E-02  0.7223770E-01
         52   -1    0    0    0    0  0.00000000000E+00  0.00000000000E+00  0.64930732323E+04  0.65000000000E+04  0.30000000000E+03 0. -1.
        -52   -1    0    0    0    0 -0.00000000000E+00 -0.00000000000E+00 -0.64930732323E+04  0.65000000000E+04  0.30000000000E+03 0.  1.
     100001    1    1    2    0    0  0.85609328401E+03  0.15430806244E+04 -0.62540671747E+04  0.65000000000E+04  0.15050000000E+03 0.  1.
     100001    1    1    2    0    0 -0.85609328401E+03 -0.15430806244E+04  0.62540671747E+04  0.65000000000E+04  0.15050000000E+03 0. -1.
</event>
<event>
 4    1  0.4630618E-004  0.6500000E+04  0.7818608E-02  0.7223770E-01
         52   -1    0    0    0    0  0.00000000000E+00  0.00000000000E+00  0.64930732323E+04  0.65000000000E+04  0.30000000000E+03 0. -1.
        -52   -1    0    0    0    0 -0.00000000000E+00 -0.00000000000E+00 -0.64930732323E+04  0.65000000000E+04  0.30000000000E+03 0.  1.
     100001    1    1    2    0    0 -0.84911994076E+03  0.47614049871E+03 -0.64249229802E+04  0.65000000000E+04  0.15050000000E+03 0.  1.
     100001    1    1    2    0    0  0.84911994076E+03 -0.47614049871E+03  0.64249229802E+04  0.65000000000E+04  0.15050000000E+03 0. -1.
</event>
<event>
 4    1  0.4630618E-004  0.6500000E+04  0.7818608E-02  0.7223770E-01
         52   -1    0    0    0    0  0.00000000000E+00  0.00000000000E+00  0.64930732323E+04  0.65000000000E+04  0.30000000000E+03 0. -1.
        -52   -1    0    0    0    0 -0.00000000000E+00 -0.00000000000E+00 -0.64930732323E+04  0.65000000000E+04  0.30000000000E+03 0.  1.
     100001    1    1    2    0    0  0.10449681363E+04 -0.94165776176E+03  0.63441841086E+04  0.65000000000E+04  0.15050000000E+03 0. -1.
     100001    1    1    2    0    0 -0.10449681363E+04  0.94165776176E+03 -0.63441841086E+04  0.65000000000E+04  0.15050000000E+03 0.  1.
</event>
<event>
 4    1  0.4630618E-004  0.6500000E+04  0.7818608E-02  0.7223770E-01
         52   -1    0    0    0    0  0.00000000000E+00  0.00000000000E+00  0.64930732323E+04  0.65000000000E+04  0.30000000000E+03 0.  1.
        -52   -1    0    0    0    0 -0.00000000000E+00 -0.00000000000E+00 -0.64930732323E+04  0.65000000000E+04  0.30000000000E+03 0. -1.
     100001    1    1    2    0    0  0.52832961446E+03 -0.87638022614E+03  0.64171781390E+04  0.65000000000E+04  0.15050000000E+03 0.  1.
     100001    1    1    2    0    0 -0.52832961446E+03  0.87638022614E+03 -0.64171781390E+04  0.65000000000E+04  0.15050000000E+03 0. -1.
</event>
<event>
 4    1  0.4630618E-004  0.6500000E+04  0.7818608E-02  0.7223770E-01
         52   -1    0    0    0    0  0.00000000000E+00  0.00000000000E+00  0.64930732323E+04  0.65000000000E+04  0.30000000000E+03 0.  1.
        -52   -1    0    0    0    0 -0.00000000000E+00 -0.00000000000E+00 -0.64930732323E+04  0.65000000000E+04  0.30000000000E+03 0. -1.
     100001    1    1    2    0    0 -0.28823672099E+03  0.64485684402E+03  0.64597545614E+04  0.65000000000E+04  0.15050000000E+03 0.  1.
     100001    1    1    2    0    0  0.28823672099E+03 -0.64485684402E+03 -0.64597545614E+04  0.65000000000E+04  0.15050000000E+03 0. -1.
</event>
<event>
 4    1  0.4630618E-004  0.6500000E+04  0.7818608E-02  0.7223770E-01
         52   -1    0    0    0    0  0.00000000000E+00  0.00000000000E+00  0.64930732323E+04  0.65000000000E+04  0.30000000000E+03 0.  1.
        -52   -1    0    0    0    0 -0.00000000000E+00 -0.00000000000E+00 -0.64930732323E+04  0.65000000000E+04  0.30000000000E+03 0. -1.
     100001    1    1    2    0    0  0.38768434420E+03 -0.14152194828E+04 -0.63304189762E+04  0.65000000000E+04  0.15050000000E+03 0. -1.
     100001    1    1    2    0    0 -0.38768434420E+03  0.14152194828E+04  0.63304189762E+04  0.65000000000E+04  0.15050000000E+03 0.  1.
</event>
<event>
 4    1  0.4630618E-004  0.6500000E+04  0.7818608E-02  0.7223770E-01
         52   -1    0    0    0    0  0.00000000000E+00  0.00000000000E+00  0.64930732323E+04  0.65000000000E+04  0.30000000000E+03 0. -1.
        -52   -1    0    0    0    0 -0.00000000000E+00 -0.00000000000E+00 -0.64930732323E+04  0.65000000000E+04  0.30000000000E+03 0. -1.
     100001    1    1    2    0    0  0.14002042050E+02  0.72026298995E+02  0.64978431733E+04  0.65000000000E+04  0.15050000000E+03 0. -1.
     100001    1    1    2    0    0 -0.14002042050E+02 -0.72026298995E+02 -0.64978431733E+04  0.65000000000E+04  0.15050000000E+03 0. -1.
</event>
<event>
 4    1  0.4630618E-004  0.6500000E+04  0.7818608E-02  0.7223770E-01
         52   -1    0    0    0    0  0.00000000000E+00  0.00000000000E+00  0.64930732323E+04  0.65000000000E+04  0.30000000000E+03 0. -1.
        -52   -1    0    0    0    0 -0.00000000000E+00 -0.00000000000E+00 -0.64930732323E+04  0.65000000000E+04  0.30000000000E+03 0.  1.
     100001    1    1    2    0    0  0.45747660573E+04  0.37519734836E+04 -0.26872960853E+04  0.65000000000E+04  0.15050000000E+03 0.  1.
     100001    1    1    2    0    0 -0.45747660573E+04 -0.37519734836E+04  0.26872960853E+04  0.65000000000E+04  0.15050000000E+03 0. -1.
</event>
<event>
 4    1  0.4630618E-004  0.6500000E+04  0.7818608E-02  0.7223770E-01
         52   -1    0    0    0    0  0.00000000000E+00  0.00000000000E+00  0.64930732323E+04  0.65000000000E+04  0.30000000000E+03 0. -1.
        -52   -1    0    0    0    0 -0.00000000000E+00 -0.00000000000E+00 -0.64930732323E+04  0.65000000000E+04  0.30000000000E+03 0.  1.
     100001    1    1    2    0    0 -0.38245210819E+04 -0.44367326601E+04  0.28135016521E+04  0.65000000000E+04  0.15050000000E+03 0.  1.
     100001    1    1    2    0    0  0.38245210819E+04  0.44367326601E+04 -0.28135016521E+04  0.65000000000E+04  0.15050000000E+03 0. -1.
</event>
<event>
 4    1  0.4630618E-004  0.6500000E+04  0.7818608E-02  0.7223770E-01
         52   -1    0    0    0    0  0.00000000000E+00  0.00000000000E+00  0.64930732323E+04  0.65000000000E+04  0.30000000000E+03 0. -1.
        -52   -1    0    0    0    0 -0.00000000000E+00 -0.00000000000E+00 -0.64930732323E+04  0.65000000000E+04  0.30000000000E+03 0.  1.
     100001    1    1    2    0    0  0.24400385062E+04  0.39936180128E+04  0.45082787188E+04  0.65000000000E+04  0.15050000000E+03 0. -1.
     100001    1    1    2    0    0 -0.24400385062E+04 -0.39936180128E+04 -0.45082787188E+04  0.65000000000E+04  0.15050000000E+03 0.  1.
</event>
<event>
 4    1  0.4630618E-004  0.6500000E+04  0.7818608E-02  0.7223770E-01
         52   -1    0    0    0    0  0.00000000000E+00  0.00000000000E+00  0.64930732323E+04  0.65000000000E+04  0.30000000000E+03 0.  1.
        -52   -1    0    0    0    0 -0.00000000000E+00 -0.00000000000E+00 -0.64930732323E+04  0.65000000000E+04  0.30000000000E+03 0. -1.
     100001    1    1    2    0    0  0.25792538850E+01  0.71274260264E+03 -0.64590510975E+04  0.65000000000E+04  0.15050000000E+03 0. -1.
     100001    1    1    2    0    0 -0.25792538850E+01 -0.71274260264E+03  0.64590510975E+04  0.65000000000E+04  0.15050000000E+03 0.  1.
</event>
<event>
 4    1  0.4630618E-004  0.6500000E+04  0.7818608E-02  0.7223770E-01
         52   -1    0    0    0    0  0.00000000000E+00  0.00000000000E+00  0.64930732323E+04  0.65000000000E+04  0.30000000000E+03 0.  1.
        -52   -1    0    0    0    0 -0.00000000000E+00 -0.00000000000E+00 -0.64930732323E+04  0.65000000000E+04  0.30000000000E+03 0. -1.
     100001    1    1    2    0    0 -0.61619669947E+02 -0.11101724520E+04  0.64024268753E+04  0.65000000000E+04  0.15050000000E+03 0.  1.
     100001    1    1    2    0    0  0.61619669947E+02  0.11101724520E+04 -0.64024268753E+04  0.65000000000E+04  0.15050000000E+03 0. -1.
</event>
<event>
 4    1  0.4630618E-004  0.6500000E+04  0.7818608E-02  0.7223770E-01
         52   -1    0    0    0    0  0.00000000000E+00  0.00000000000E+00  0.64930732323E+04  0.65000000000E+04  0.30000000000E+03 0. -1.
        -52   -1    0    0    0    0 -0.00000000000E+00 -0.00000000000E+00 -0.64930732323E+04  0.65000000000E+04  0.30000000000E+03 0.  1.
     100001    1    1    2    0    0  0.33626330610E+04 -0.73897828866E+03  0.55112575458E+04  0.65000000000E+04  0.15050000000E+03 0. -1.
     100001    1    1    2    0    0 -0.33626330610E+04  0.73897828866E+03 -0.55112575458E+04  0.65000000000E+04  0.15050000000E+03 0.  1.
</event>
<event>
 4    1  0.4760418E-004  0.6500000E+04  0.7818608E-02  0.7223770E-01
         52   -1    0    0    0    0  0.00000000000E+00  0.00000000000E+00  0.64930732323E+04  0.65000000000E+04  0.30000000000E+03 0. -1.
        -52   -1    0    0    0    0 -0.00000000000E+00 -0.00000000000E+00 -0.64930732323E+04  0.65000000000E+04  0.30000000000E+03 0. -1.
     100001    1    1    2    0    0  0.19384143178E+03  0.14896972302E+03  0.64936571569E+04  0.65000000000E+04  0.15050000000E+03 0. -1.
     100001    1    1    2    0    0 -0.19384143178E+03 -0.14896972302E+03 -0.64936571569E+04  0.65000000000E+04  0.15050000000E+03 0. -1.
</event>
<event>
 4    1  0.4630618E-004  0.6500000E+04  0.7818608E-02  0.7223770E-01
         52   -1    0    0    0    0  0.00000000000E+00  0.00000000000E+00  0.64930732323E+04  0.65000000000E+04  0.30000000000E+03 0.  1.
        -52   -1    0    0    0    0 -0.00000000000E+00 -0.00000000000E+00 -0.64930732323E+04  0.65000000000E+04  0.30000000000E+03 0.  1.
     100001    1    1    2    0    0 -0.55251778862E+03 -0.19435136424E+03 -0.64718082010E+04  0.65000000000E+04  0.15050000000E+03 0.  1.
     100001    1    1    2    0    0  0.55251778862E+03  0.19435136424E+03  0.64718082010E+04  0.65000000000E+04  0.15050000000E+03 0.  1.
</event>
<event>
 4    1  0.4630618E-004  0.6500000E+04  0.7818608E-02  0.7223770E-01
         52   -1    0    0    0    0  0.00000000000E+00  0.00000000000E+00  0.64930732323E+04  0.65000000000E+04  0.30000000000E+03 0. -1.
        -52   -1    0    0    0    0 -0.00000000000E+00 -0.00000000000E+00 -0.64930732323E+04  0.65000000000E+04  0.30000000000E+03 0.  1.
     100001    1    1    2    0    0 -0.10537180744E+03  0.10130292603E+04  0.64179450177E+04  0.65000000000E+04  0.15050000000E+03 0. -1.
     100001    1    1    2    0    0  0.10537180744E+03 -0.10130292603E+04 -0.64179450177E+04  0.65000000000E+04  0.15050000000E+03 0.  1.
</event>
<event>
 4    1  0.4630618E-004  0.6500000E+04  0.7818608E-02  0.7223770E-01
         52   -1    0    0    0    0  0.00000000000E+00  0.00000000000E+00  0.64930732323E+04  0.65000000000E+04  0.30000000000E+03 0. -1.
        -52   -1    0    0    0    0 -0.00000000000E+00 -0.00000000000E+00 -0.64930732323E+04  0.65000000000E+04  0.30000000000E+03 0.  1.
     100001    1    1    2    0    0 -0.16532233727E+04 -0.16990167059E+04 -0.60504168834E+04  0.65000000000E+04  0.15050000000E+03 0.  1.
     100001    1    1    2    0    0  0.16532233727E+04  0.16990167059E+04  0.60504168834E+04  0.65000000000E+04  0.15050000000E+03 0. -1.
</event>
<event>
 4    1  0.4630618E-004  0.6500000E+04  0.7818608E-02  0.7223770E-01
         52   -1    0    0    0    0  0.00000000000E+00  0.00000000000E+00  0.64930732323E+04  0.65000000000E+04  0.30000000000E+03 0. -1.
        -52   -1    0    0    0    0 -0.00000000000E+00 -0.00000000000E+00 -0.64930732323E+04  0.65000000000E+04  0.30000000000E+03 0. -1.
     100001    1    1    2    0    0 -0.85324676850E+02 -0.35779894279E+03 -0.64878385743E+04  0.65000000000E+04  0.15050000000E+03 0. -1.
     100001    1    1    2    0    0  0.85324676850E+02  0.35779894279E+03  0.64878385743E+04  0.65000000000E+04  0.15050000000E+03 0. -1.
</event>
<event>
 4    1  0.4630618E-004  0.6500000E+04  0.7818608E-02  0.7223770E-01
         52   -1    0    0    0    0  0.00000000000E+00  0.00000000000E+00  0.64930732323E+04  0.65000000000E+04  0.30000000000E+03 0. -1.
        -52   -1    0    0    0    0 -0.00000000000E+00 -0.00000000000E+00 -0.64930732323E+04  0.65000000000E+04  0.30000000000E+03 0.  1.
     100001    1    1    2    0    0  0.33436247408E+02 -0.17942921476E+03 -0.64956937216E+04  0.65000000000E+04  0.15050000000E+03 0.  1.
     100001    1    1    2    0    0 -0.33436247408E+02  0.17942921476E+03  0.64956937216E+04  0.65000000000E+04  0.15050000000E+03 0. -1.
</event>
<event>
 4    1  0.4630618E-004  0.6500000E+04  0.7818608E-02  0.7223770E-01
         52   -1    0    0    0    0  0.00000000000E+00  0.00000000000E+00  0.64930732323E+04  0.65000000000E+04  0.30000000000E+03 0. -1.
        -52   -1    0    0    0    0 -0.00000000000E+00 -0.00000000000E+00 -0.64930732323E+04  0.65000000000E+04  0.30000000000E+03 0. -1.
     100001    1    1    2    0    0 -0.36266962770E+03  0.88131529291E+02 -0.64875306030E+04  0.65000000000E+04  0.15050000000E+03 0. -1.
     100001    1    1    2    0    0  0.36266962770E+03 -0.88131529291E+02  0.64875306030E+04  0.65000000000E+04  0.15050000000E+03 0. -1.
</event>
<event>
 4    1  0.7132893E-004  0.6500000E+04  0.7818608E-02  0.7223770E-01
         52   -1    0    0    0    0  0.00000000000E+00  0.00000000000E+00  0.64930732323E+04  0.65000000000E+04  0.30000000000E+03 0. -1.
        -52   -1    0    0    0    0 -0.00000000000E+00 -0.00000000000E+00 -0.64930732323E+04  0.65000000000E+04  0.30000000000E+03 0. -1.
     100001    1    1    2    0    0  0.10283782664E+02  0.13168264069E+02  0.64982359599E+04  0.65000000000E+04  0.15050000000E+03 0. -1.
     100001    1    1    2    0    0 -0.10283782664E+02 -0.13168264069E+02 -0.64982359599E+04  0.65000000000E+04  0.15050000000E+03 0. -1.
</event>
<event>
 4    1  0.4630618E-004  0.6500000E+04  0.7818608E-02  0.7223770E-01
         52   -1    0    0    0    0  0.00000000000E+00  0.00000000000E+00  0.64930732323E+04  0.65000000000E+04  0.30000000000E+03 0.  1.
        -52   -1    0    0    0    0 -0.00000000000E+00 -0.00000000000E+00 -0.64930732323E+04  0.65000000000E+04  0.30000000000E+03 0. -1.
     100001    1    1    2    0    0 -0.64937010725E+03  0.27077808535E+04 -0.58714215539E+04  0.65000000000E+04  0.15050000000E+03 0. -1.
     100001    1    1    2    0    0  0.64937010725E+03 -0.27077808535E+04  0.58714215539E+04  0.65000000000E+04  0.15050000000E+03 0.  1.
</event>
<event>
 4    1  0.4630618E-004  0.6500000E+04  0.7818608E-02  0.7223770E-01
         52   -1    0    0    0    0  0.00000000000E+00  0.00000000000E+00  0.64930732323E+04  0.65000000000E+04  0.30000000000E+03 0.  1.
        -52   -1    0    0    0    0 -0.00000000000E+00 -0.00000000000E+00 -0.64930732323E+04  0.65000000000E+04  0.30000000000E+03 0. -1.
     100001    1    1    2    0    0 -0.23498420124E+04 -0.16457673503E+04  0.58306982511E+04  0.65000000000E+04  0.15050000000E+03 0.  1.
     100001    1    1    2    0    0  0.23498420124E+04  0.16457673503E+04 -0.58306982511E+04  0.65000000000E+04  0.15050000000E+03 0. -1.
</event>
<event>
 4    1  0.4630618E-004  0.6500000E+04  0.7818608E-02  0.7223770E-01
         52   -1    0    0    0    0  0.00000000000E+00  0.00000000000E+00  0.64930732323E+04  0.65000000000E+04  0.30000000000E+03 0. -1.
        -52   -1    0    0    0    0 -0.00000000000E+00 -0.00000000000E+00 -0.64930732323E+04  0.65000000000E+04  0.30000000000E+03 0.  1.
     100001    1    1    2    0    0  0.22449350878E+03 -0.58605255087E+03 -0.64678817879E+04  0.65000000000E+04  0.15050000000E+03 0.  1.
     100001    1    1    2    0    0 -0.22449350878E+03  0.58605255087E+03  0.64678817879E+04  0.65000000000E+04  0.15050000000E+03 0. -1.
</event>
<event>
 4    1  0.4630618E-004  0.6500000E+04  0.7818608E-02  0.7223770E-01
         52   -1    0    0    0    0  0.00000000000E+00  0.00000000000E+00  0.64930732323E+04  0.65000000000E+04  0.30000000000E+03 0. -1.
        -52   -1    0    0    0    0 -0.00000000000E+00 -0.00000000000E+00 -0.64930732323E+04  0.65000000000E+04  0.30000000000E+03 0.  1.
     100001    1    1    2    0    0  0.15944251611E+04 -0.41114040282E+03  0.62861849897E+04  0.65000000000E+04  0.15050000000E+03 0. -1.
     100001    1    1    2    0    0 -0.15944251611E+04  0.41114040282E+03 -0.62861849897E+04  0.65000000000E+04  0.15050000000E+03 0.  1.
</event>
<event>
 4    1  0.4630618E-004  0.6500000E+04  0.7818608E-02  0.7223770E-01
         52   -1    0    0    0    0  0.00000000000E+00  0.00000000000E+00  0.64930732323E+04  0.65000000000E+04  0.30000000000E+03 0.  1.
        -52   -1    0    0    0    0 -0.00000000000E+00 -0.00000000000E+00 -0.64930732323E+04  0.65000000000E+04  0.30000000000E+03 0. -1.
     100001    1    1    2    0    0  0.50604765627E+03  0.27454219693E+03 -0.64727036161E+04  0.65000000000E+04  0.15050000000E+03 0. -1.
     100001    1    1    2    0    0 -0.50604765627E+03 -0.27454219693E+03  0.64727036161E+04  0.65000000000E+04  0.15050000000E+03 0.  1.
</event>
<event>
 4    1  0.6448314E-004  0.6500000E+04  0.7818608E-02  0.7223770E-01
         52   -1    0    0    0    0  0.00000000000E+00  0.00000000000E+00  0.64930732323E+04  0.65000000000E+04  0.30000000000E+03 0. -1.
        -52   -1    0    0    0    0 -0.00000000000E+00 -0.00000000000E+00 -0.64930732323E+04  0.65000000000E+04  0.30000000000E+03 0. -1.
     100001    1    1    2    0    0 -0.77930573466E+02 -0.95214409971E+02  0.64970924876E+04  0.65000000000E+04  0.15050000000E+03 0. -1.
     100001    1    1    2    0    0  0.77930573466E+02  0.95214409971E+02 -0.64970924876E+04  0.65000000000E+04  0.15050000000E+03 0. -1.
</event>
<event>
 4    1  0.4630618E-004  0.6500000E+04  0.7818608E-02  0.7223770E-01
         52   -1    0    0    0    0  0.00000000000E+00  0.00000000000E+00  0.64930732323E+04  0.65000000000E+04  0.30000000000E+03 0.  1.
        -52   -1    0    0    0    0 -0.00000000000E+00 -0.00000000000E+00 -0.64930732323E+04  0.65000000000E+04  0.30000000000E+03 0. -1.
     100001    1    1    2    0    0 -0.32722695337E+03 -0.62755238127E+03  0.64596014025E+04  0.65000000000E+04  0.15050000000E+03 0.  1.
     100001    1    1    2    0    0  0.32722695337E+03  0.62755238127E+03 -0.64596014025E+04  0.65000000000E+04  0.15050000000E+03 0. -1.
</event>
<event>
 4    1  0.4630618E-004  0.6500000E+04  0.7818608E-02  0.7223770E-01
         52   -1    0    0    0    0  0.00000000000E+00  0.00000000000E+00  0.64930732323E+04  0.65000000000E+04  0.30000000000E+03 0. -1.
        -52   -1    0    0    0    0 -0.00000000000E+00 -0.00000000000E+00 -0.64930732323E+04  0.65000000000E+04  0.30000000000E+03 0.  1.
     100001    1    1    2    0    0 -0.23163865696E+03 -0.17640320335E+03 -0.64917312939E+04  0.65000000000E+04  0.15050000000E+03 0.  1.
     100001    1    1    2    0    0  0.23163865696E+03  0.17640320335E+03  0.64917312939E+04  0.65000000000E+04  0.15050000000E+03 0. -1.
</event>
<event>
 4    1  0.4630618E-004  0.6500000E+04  0.7818608E-02  0.7223770E-01
         52   -1    0    0    0    0  0.00000000000E+00  0.00000000000E+00  0.64930732323E+04  0.65000000000E+04  0.30000000000E+03 0. -1.
        -52   -1    0    0    0    0 -0.00000000000E+00 -0.00000000000E+00 -0.64930732323E+04  0.65000000000E+04  0.30000000000E+03 0.  1.
     100001    1    1    2    0    0 -0.41324128079E+04 -0.16128750940E+04 -0.47485943253E+04  0.65000000000E+04  0.15050000000E+03 0.  1.
     100001    1    1    2    0    0  0.41324128079E+04  0.16128750940E+04  0.47485943253E+04  0.65000000000E+04  0.15050000000E+03 0. -1.
</event>
<event>
 4    1  0.5591905E-004  0.6500000E+04  0.7818608E-02  0.7223770E-01
         52   -1    0    0    0    0  0.00000000000E+00  0.00000000000E+00  0.64930732323E+04  0.65000000000E+04  0.30000000000E+03 0.  1.
        -52   -1    0    0    0    0 -0.00000000000E+00 -0.00000000000E+00 -0.64930732323E+04  0.65000000000E+04  0.30000000000E+03 0.  1.
     100001    1    1    2    0    0  0.17969980445E+03 -0.94535358141E+02  0.64950843564E+04  0.65000000000E+04  0.15050000000E+03 0.  1.
     100001    1    1    2    0    0 -0.17969980445E+03  0.94535358141E+02 -0.64950843564E+04  0.65000000000E+04  0.15050000000E+03 0.  1.
</event>
<event>
 4    1  0.4630618E-004  0.6500000E+04  0.7818608E-02  0.7223770E-01
         52   -1    0    0    0    0  0.00000000000E+00  0.00000000000E+00  0.64930732323E+04  0.65000000000E+04  0.30000000000E+03 0. -1.
        -52   -1    0    0    0    0 -0.00000000000E+00 -0.00000000000E+00 -0.64930732323E+04  0.65000000000E+04  0.30000000000E+03 0.  1.
     100001    1    1    2    0    0  0.19429625226E+04 -0.43931437565E+04  0.43763608535E+04  0.65000000000E+04  0.15050000000E+03 0. -1.
     100001    1    1    2    0    0 -0.19429625226E+04  0.43931437565E+04 -0.43763608535E+04  0.65000000000E+04  0.15050000000E+03 0.  1.
</event>
<event>
 4    1  0.4630618E-004  0.6500000E+04  0.7818608E-02  0.7223770E-01
         52   -1    0    0    0    0  0.00000000000E+00  0.00000000000E+00  0.64930732323E+04  0.65000000000E+04  0.30000000000E+03 0.  1.
        -52   -1    0    0    0    0 -0.00000000000E+00 -0.00000000000E+00 -0.64930732323E+04  0.65000000000E+04  0.30000000000E+03 0. -1.
     100001    1    1    2    0    0 -0.12675959653E+02 -0.63878392046E+04  0.11927696198E+04  0.65000000000E+04  0.15050000000E+03 0.  1.
     100001    1    1    2    0    0  0.12675959653E+02  0.63878392046E+04 -0.11927696198E+04  0.65000000000E+04  0.15050000000E+03 0. -1.
</event>
<event>
 4    1  0.4630618E-004  0.6500000E+04  0.7818608E-02  0.7223770E-01
         52   -1    0    0    0    0  0.00000000000E+00  0.00000000000E+00  0.64930732323E+04  0.65000000000E+04  0.30000000000E+03 0.  1.
        -52   -1    0    0    0    0 -0.00000000000E+00 -0.00000000000E+00 -0.64930732323E+04  0.65000000000E+04  0.30000000000E+03 0.  1.
     100001    1    1    2    0    0 -0.52456473184E+02 -0.50621285834E+03 -0.64782981261E+04  0.65000000000E+04  0.15050000000E+03 0.  1.
     100001    1    1    2    0    0  0.52456473184E+02  0.50621285834E+03  0.64782981261E+04  0.65000000000E+04  0.15050000000E+03 0.  1.
</event>
<event>
 4    1  0.4630618E-004  0.6500000E+04  0.7818608E-02  0.7223770E-01
         52   -1    0    0    0    0  0.00000000000E+00  0.00000000000E+00  0.64930732323E+04  0.65000000000E+04  0.30000000000E+03 0. -1.
        -52   -1    0    0    0    0 -0.00000000000E+00 -0.00000000000E+00 -0.64930732323E+04  0.65000000000E+04  0.30000000000E+03 0. -1.
     100001    1    1    2    0    0 -0.30608984265E+03 -0.21538992553E+03 -0.64874699181E+04  0.65000000000E+04  0.15050000000E+03 0. -1.
     100001    1    1    2    0    0  0.30608984265E+03  0.21538992553E+03  0.64874699181E+04  0.65000000000E+04  0.15050000000E+03 0. -1.
</event>
<event>
 4    1  0.4630618E-004  0.6500000E+04  0.7818608E-02  0.7223770E-01
         52   -1    0    0    0    0  0.00000000000E+00  0.00000000000E+00  0.64930732323E+04  0.65000000000E+04  0.30000000000E+03 0. -1.
        -52   -1    0    0    0    0 -0.00000000000E+00 -0.00000000000E+00 -0.64930732323E+04  0.65000000000E+04  0.30000000000E+03 0.  1.
     100001    1    1    2    0    0 -0.34537813663E+03 -0.15114761759E+04 -0.63105866179E+04  0.65000000000E+04  0.15050000000E+03 0.  1.
     100001    1    1    2    0    0  0.34537813663E+03  0.15114761759E+04  0.63105866179E+04  0.65000000000E+04  0.15050000000E+03 0. -1.
</event>
<event>
 4    1  0.4630618E-004  0.6500000E+04  0.7818608E-02  0.7223770E-01
         52   -1    0    0    0    0  0.00000000000E+00  0.00000000000E+00  0.64930732323E+04  0.65000000000E+04  0.30000000000E+03 0. -1.
        -52   -1    0    0    0    0 -0.00000000000E+00 -0.00000000000E+00 -0.64930732323E+04  0.65000000000E+04  0.30000000000E+03 0.  1.
     100001    1    1    2    0    0 -0.13234507790E+03  0.36257110810E+04 -0.53911087623E+04  0.65000000000E+04  0.15050000000E+03 0.  1.
     100001    1    1    2    0    0  0.13234507790E+03 -0.36257110810E+04  0.53911087623E+04  0.65000000000E+04  0.15050000000E+03 0. -1.
</event>
<event>
 4    1  0.4630618E-004  0.6500000E+04  0.7818608E-02  0.7223770E-01
         52   -1    0    0    0    0  0.00000000000E+00  0.00000000000E+00  0.64930732323E+04  0.65000000000E+04  0.30000000000E+03 0.  1.
        -52   -1    0    0    0    0 -0.00000000000E+00 -0.00000000000E+00 -0.64930732323E+04  0.65000000000E+04  0.30000000000E+03 0. -1.
     100001    1    1    2    0    0 -0.76920011434E+03 -0.13209941861E+04  0.63159049466E+04  0.65000000000E+04  0.15050000000E+03 0.  1.
     100001    1    1    2    0    0  0.76920011434E+03  0.13209941861E+04 -0.63159049466E+04  0.65000000000E+04  0.15050000000E+03 0. -1.
</event>
<event>
 4    1  0.4630618E-004  0.6500000E+04  0.7818608E-02  0.7223770E-01
         52   -1    0    0    0    0  0.00000000000E+00  0.00000000000E+00  0.64930732323E+04  0.65000000000E+04  0.30000000000E+03 0. -1.
        -52   -1    0    0    0    0 -0.00000000000E+00 -0.00000000000E+00 -0.64930732323E+04  0.65000000000E+04  0.30000000000E+03 0.  1.
     100001    1    1    2    0    0  0.63466128276E+04  0.50522814611E+03 -0.13009995722E+04  0.65000000000E+04  0.15050000000E+03 0.  1.
     100001    1    1    2    0    0 -0.63466128276E+04 -0.50522814611E+03  0.13009995722E+04  0.65000000000E+04  0.15050000000E+03 0. -1.
</event>
<event>
 4    1  0.4630618E-004  0.6500000E+04  0.7818608E-02  0.7223770E-01
         52   -1    0    0    0    0  0.00000000000E+00  0.00000000000E+00  0.64930732323E+04  0.65000000000E+04  0.30000000000E+03 0.  1.
        -52   -1    0    0    0    0 -0.00000000000E+00 -0.00000000000E+00 -0.64930732323E+04  0.65000000000E+04  0.30000000000E+03 0. -1.
     100001    1    1    2    0    0  0.20789500309E+04  0.15913675777E+04  0.59475092057E+04  0.65000000000E+04  0.15050000000E+03 0.  1.
     100001    1    1    2    0    0 -0.20789500309E+04 -0.15913675777E+04 -0.59475092057E+04  0.65000000000E+04  0.15050000000E+03 0. -1.
</event>
<event>
 4    1  0.4630618E-004  0.6500000E+04  0.7818608E-02  0.7223770E-01
         52   -1    0    0    0    0  0.00000000000E+00  0.00000000000E+00  0.64930732323E+04  0.65000000000E+04  0.30000000000E+03 0.  1.
        -52   -1    0    0    0    0 -0.00000000000E+00 -0.00000000000E+00 -0.64930732323E+04  0.65000000000E+04  0.30000000000E+03 0. -1.
     100001    1    1    2    0    0 -0.84802659329E+03 -0.30761082818E+04 -0.56608973216E+04  0.65000000000E+04  0.15050000000E+03 0. -1.
     100001    1    1    2    0    0  0.84802659329E+03  0.30761082818E+04  0.56608973216E+04  0.65000000000E+04  0.15050000000E+03 0.  1.
</event>
<event>
 4    1  0.4630618E-004  0.6500000E+04  0.7818608E-02  0.7223770E-01
         52   -1    0    0    0    0  0.00000000000E+00  0.00000000000E+00  0.64930732323E+04  0.65000000000E+04  0.30000000000E+03 0.  1.
        -52   -1    0    0    0    0 -0.00000000000E+00 -0.00000000000E+00 -0.64930732323E+04  0.65000000000E+04  0.30000000000E+03 0. -1.
     100001    1    1    2    0    0  0.14235689004E+04  0.20335492662E+03 -0.63371482632E+04  0.65000000000E+04  0.15050000000E+03 0. -1.
     100001    1    1    2    0    0 -0.14235689004E+04 -0.20335492662E+03  0.63371482632E+04  0.65000000000E+04  0.15050000000E+03 0.  1.
</event>
<event>
 4    1  0.4630618E-004  0.6500000E+04  0.7818608E-02  0.7223770E-01
         52   -1    0    0    0    0  0.00000000000E+00  0.00000000000E+00  0.64930732323E+04  0.65000000000E+04  0.30000000000E+03 0. -1.
        -52   -1    0    0    0    0 -0.00000000000E+00 -0.00000000000E+00 -0.64930732323E+04  0.65000000000E+04  0.30000000000E+03 0.  1.
     100001    1    1    2    0    0 -0.40902978165E+03  0.21569057475E+03  0.64817838566E+04  0.65000000000E+04  0.15050000000E+03 0. -1.
     100001    1    1    2    0    0  0.40902978165E+03 -0.21569057475E+03 -0.64817838566E+04  0.65000000000E+04  0.15050000000E+03 0.  1.
</event>
<event>
 4    1  0.4630618E-004  0.6500000E+04  0.7818608E-02  0.7223770E-01
         52   -1    0    0    0    0  0.00000000000E+00  0.00000000000E+00  0.64930732323E+04  0.65000000000E+04  0.30000000000E+03 0. -1.
        -52   -1    0    0    0    0 -0.00000000000E+00 -0.00000000000E+00 -0.64930732323E+04  0.65000000000E+04  0.30000000000E+03 0.  1.
     100001    1    1    2    0    0 -0.28296853315E+02  0.93726870016E+03 -0.64302469954E+04  0.65000000000E+04  0.15050000000E+03 0.  1.
     100001    1    1    2    0    0  0.28296853315E+02 -0.93726870016E+03  0.64302469954E+04  0.65000000000E+04  0.15050000000E+03 0. -1.
</event>
<event>
 4    1  0.4630618E-004  0.6500000E+04  0.7818608E-02  0.7223770E-01
         52   -1    0    0    0    0  0.00000000000E+00  0.00000000000E+00  0.64930732323E+04  0.65000000000E+04  0.30000000000E+03 0. -1.
        -52   -1    0    0    0    0 -0.00000000000E+00 -0.00000000000E+00 -0.64930732323E+04  0.65000000000E+04  0.30000000000E+03 0.  1.
     100001    1    1    2    0    0 -0.33540751007E+03  0.27787507761E+03  0.64836438053E+04  0.65000000000E+04  0.15050000000E+03 0. -1.
     100001    1    1    2    0    0  0.33540751007E+03 -0.27787507761E+03 -0.64836438053E+04  0.65000000000E+04  0.15050000000E+03 0.  1.
</event>
<event>
 4    1  0.4630618E-004  0.6500000E+04  0.7818608E-02  0.7223770E-01
         52   -1    0    0    0    0  0.00000000000E+00  0.00000000000E+00  0.64930732323E+04  0.65000000000E+04  0.30000000000E+03 0.  1.
        -52   -1    0    0    0    0 -0.00000000000E+00 -0.00000000000E+00 -0.64930732323E+04  0.65000000000E+04  0.30000000000E+03 0. -1.
     100001    1    1    2    0    0 -0.44757273772E+04 -0.17960603015E+04  0.43553853547E+04  0.65000000000E+04  0.15050000000E+03 0.  1.
     100001    1    1    2    0    0  0.44757273772E+04  0.17960603015E+04 -0.43553853547E+04  0.65000000000E+04  0.15050000000E+03 0. -1.
</event>
<event>
 4    1  0.4630618E-004  0.6500000E+04  0.7818608E-02  0.7223770E-01
         52   -1    0    0    0    0  0.00000000000E+00  0.00000000000E+00  0.64930732323E+04  0.65000000000E+04  0.30000000000E+03 0. -1.
        -52   -1    0    0    0    0 -0.00000000000E+00 -0.00000000000E+00 -0.64930732323E+04  0.65000000000E+04  0.30000000000E+03 0.  1.
     100001    1    1    2    0    0  0.47096064223E+03 -0.38087591544E+02 -0.64810566391E+04  0.65000000000E+04  0.15050000000E+03 0.  1.
     100001    1    1    2    0    0 -0.47096064223E+03  0.38087591544E+02  0.64810566391E+04  0.65000000000E+04  0.15050000000E+03 0. -1.
</event>
<event>
 4    1  0.4630618E-004  0.6500000E+04  0.7818608E-02  0.7223770E-01
         52   -1    0    0    0    0  0.00000000000E+00  0.00000000000E+00  0.64930732323E+04  0.65000000000E+04  0.30000000000E+03 0.  1.
        -52   -1    0    0    0    0 -0.00000000000E+00 -0.00000000000E+00 -0.64930732323E+04  0.65000000000E+04  0.30000000000E+03 0. -1.
     100001    1    1    2    0    0  0.39869376606E+02 -0.30851191123E+03 -0.64908073907E+04  0.65000000000E+04  0.15050000000E+03 0. -1.
     100001    1    1    2    0    0 -0.39869376606E+02  0.30851191123E+03  0.64908073907E+04  0.65000000000E+04  0.15050000000E+03 0.  1.
</event>
<event>
 4    1  0.4630618E-004  0.6500000E+04  0.7818608E-02  0.7223770E-01
         52   -1    0    0    0    0  0.00000000000E+00  0.00000000000E+00  0.64930732323E+04  0.65000000000E+04  0.30000000000E+03 0.  1.
        -52   -1    0    0    0    0 -0.00000000000E+00 -0.00000000000E+00 -0.64930732323E+04  0.65000000000E+04  0.30000000000E+03 0. -1.
     100001    1    1    2    0    0  0.84627604428E+03  0.62643279008E+01  0.64429129565E+04  0.65000000000E+04  0.15050000000E+03 0.  1.
     100001    1    1    2    0    0 -0.84627604428E+03 -0.62643279008E+01 -0.64429129565E+04  0.65000000000E+04  0.15050000000E+03 0. -1.
</event>
<event>
 4    1  0.4630618E-004  0.6500000E+04  0.7818608E-02  0.7223770E-01
         52   -1    0    0    0    0  0.00000000000E+00  0.00000000000E+00  0.64930732323E+04  0.65000000000E+04  0.30000000000E+03 0. -1.
        -52   -1    0    0    0    0 -0.00000000000E+00 -0.00000000000E+00 -0.64930732323E+04  0.65000000000E+04  0.30000000000E+03 0.  1.
     100001    1    1    2    0    0 -0.17400038340E+03  0.10908426916E+04  0.64036814286E+04  0.65000000000E+04  0.15050000000E+03 0. -1.
     100001    1    1    2    0    0  0.17400038340E+03 -0.10908426916E+04 -0.64036814286E+04  0.65000000000E+04  0.15050000000E+03 0.  1.
</event>
<event>
 4    1  0.4630618E-004  0.6500000E+04  0.7818608E-02  0.7223770E-01
         52   -1    0    0    0    0  0.00000000000E+00  0.00000000000E+00  0.64930732323E+04  0.65000000000E+04  0.30000000000E+03 0. -1.
        -52   -1    0    0    0    0 -0.00000000000E+00 -0.00000000000E+00 -0.64930732323E+04  0.65000000000E+04  0.30000000000E+03 0.  1.
     100001    1    1    2    0    0  0.97191682118E+03 -0.10888029489E+04 -0.63322378020E+04  0.65000000000E+04  0.15050000000E+03 0.  1.
     100001    1    1    2    0    0 -0.97191682118E+03  0.10888029489E+04  0.63322378020E+04  0.65000000000E+04  0.15050000000E+03 0. -1.
</event>
<event>
 4    1  0.4630618E-004  0.6500000E+04  0.7818608E-02  0.7223770E-01
         52   -1    0    0    0    0  0.00000000000E+00  0.00000000000E+00  0.64930732323E+04  0.65000000000E+04  0.30000000000E+03 0.  1.
        -52   -1    0    0    0    0 -0.00000000000E+00 -0.00000000000E+00 -0.64930732323E+04  0.65000000000E+04  0.30000000000E+03 0. -1.
     100001    1    1    2    0    0  0.47033567571E+03 -0.19211569476E+04 -0.61899345784E+04  0.65000000000E+04  0.15050000000E+03 0. -1.
     100001    1    1    2    0    0 -0.47033567571E+03  0.19211569476E+04  0.61899345784E+04  0.65000000000E+04  0.15050000000E+03 0.  1.
</event>
<event>
 4    1  0.4630618E-004  0.6500000E+04  0.7818608E-02  0.7223770E-01
         52   -1    0    0    0    0  0.00000000000E+00  0.00000000000E+00  0.64930732323E+04  0.65000000000E+04  0.30000000000E+03 0.  1.
        -52   -1    0    0    0    0 -0.00000000000E+00 -0.00000000000E+00 -0.64930732323E+04  0.65000000000E+04  0.30000000000E+03 0. -1.
     100001    1    1    2    0    0 -0.96631033628E+03 -0.74486496500E+03 -0.63826930263E+04  0.65000000000E+04  0.15050000000E+03 0. -1.
     100001    1    1    2    0    0  0.96631033628E+03  0.74486496500E+03  0.63826930263E+04  0.65000000000E+04  0.15050000000E+03 0.  1.
</event>
<event>
 4    1  0.4630618E-004  0.6500000E+04  0.7818608E-02  0.7223770E-01
         52   -1    0    0    0    0  0.00000000000E+00  0.00000000000E+00  0.64930732323E+04  0.65000000000E+04  0.30000000000E+03 0.  1.
        -52   -1    0    0    0    0 -0.00000000000E+00 -0.00000000000E+00 -0.64930732323E+04  0.65000000000E+04  0.30000000000E+03 0.  1.
     100001    1    1    2    0    0 -0.28909763563E+02 -0.46546266073E+03  0.64815012526E+04  0.65000000000E+04  0.15050000000E+03 0.  1.
     100001    1    1    2    0    0  0.28909763563E+02  0.46546266073E+03 -0.64815012526E+04  0.65000000000E+04  0.15050000000E+03 0.  1.
</event>
<event>
 4    1  0.4630618E-004  0.6500000E+04  0.7818608E-02  0.7223770E-01
         52   -1    0    0    0    0  0.00000000000E+00  0.00000000000E+00  0.64930732323E+04  0.65000000000E+04  0.30000000000E+03 0.  1.
        -52   -1    0    0    0    0 -0.00000000000E+00 -0.00000000000E+00 -0.64930732323E+04  0.65000000000E+04  0.30000000000E+03 0. -1.
     100001    1    1    2    0    0 -0.14714453349E+04 -0.12527272020E+04 -0.62042624811E+04  0.65000000000E+04  0.15050000000E+03 0. -1.
     100001    1    1    2    0    0  0.14714453349E+04  0.12527272020E+04  0.62042624811E+04  0.65000000000E+04  0.15050000000E+03 0.  1.
</event>
<event>
 4    1  0.4630618E-004  0.6500000E+04  0.7818608E-02  0.7223770E-01
         52   -1    0    0    0    0  0.00000000000E+00  0.00000000000E+00  0.64930732323E+04  0.65000000000E+04  0.30000000000E+03 0.  1.
        -52   -1    0    0    0    0 -0.00000000000E+00 -0.00000000000E+00 -0.64930732323E+04  0.65000000000E+04  0.30000000000E+03 0. -1.
     100001    1    1    2    0    0  0.17062802496E+04 -0.25074237102E+03  0.62652283058E+04  0.65000000000E+04  0.15050000000E+03 0.  1.
     100001    1    1    2    0    0 -0.17062802496E+04  0.25074237102E+03 -0.62652283058E+04  0.65000000000E+04  0.15050000000E+03 0. -1.
</event>
<event>
 4    1  0.4630618E-004  0.6500000E+04  0.7818608E-02  0.7223770E-01
         52   -1    0    0    0    0  0.00000000000E+00  0.00000000000E+00  0.64930732323E+04  0.65000000000E+04  0.30000000000E+03 0. -1.
        -52   -1    0    0    0    0 -0.00000000000E+00 -0.00000000000E+00 -0.64930732323E+04  0.65000000000E+04  0.30000000000E+03 0.  1.
     100001    1    1    2    0    0  0.37532019144E+03 -0.19072455034E+04 -0.62007176273E+04  0.65000000000E+04  0.15050000000E+03 0.  1.
     100001    1    1    2    0    0 -0.37532019144E+03  0.19072455034E+04  0.62007176273E+04  0.65000000000E+04  0.15050000000E+03 0. -1.
</event>
<event>
 4    1  0.4630618E-004  0.6500000E+04  0.7818608E-02  0.7223770E-01
         52   -1    0    0    0    0  0.00000000000E+00  0.00000000000E+00  0.64930732323E+04  0.65000000000E+04  0.30000000000E+03 0. -1.
        -52   -1    0    0    0    0 -0.00000000000E+00 -0.00000000000E+00 -0.64930732323E+04  0.65000000000E+04  0.30000000000E+03 0.  1.
     100001    1    1    2    0    0  0.17932362268E+04  0.89664277022E+03  0.61812365533E+04  0.65000000000E+04  0.15050000000E+03 0. -1.
     100001    1    1    2    0    0 -0.17932362268E+04 -0.89664277022E+03 -0.61812365533E+04  0.65000000000E+04  0.15050000000E+03 0.  1.
</event>
<event>
 4    1  0.4630618E-004  0.6500000E+04  0.7818608E-02  0.7223770E-01
         52   -1    0    0    0    0  0.00000000000E+00  0.00000000000E+00  0.64930732323E+04  0.65000000000E+04  0.30000000000E+03 0. -1.
        -52   -1    0    0    0    0 -0.00000000000E+00 -0.00000000000E+00 -0.64930732323E+04  0.65000000000E+04  0.30000000000E+03 0. -1.
     100001    1    1    2    0    0 -0.14030276915E+02  0.25156768684E+03 -0.64933709736E+04  0.65000000000E+04  0.15050000000E+03 0. -1.
     100001    1    1    2    0    0  0.14030276915E+02 -0.25156768684E+03  0.64933709736E+04  0.65000000000E+04  0.15050000000E+03 0. -1.
</event>
<event>
 4    1  0.4630618E-004  0.6500000E+04  0.7818608E-02  0.7223770E-01
         52   -1    0    0    0    0  0.00000000000E+00  0.00000000000E+00  0.64930732323E+04  0.65000000000E+04  0.30000000000E+03 0. -1.
        -52   -1    0    0    0    0 -0.00000000000E+00 -0.00000000000E+00 -0.64930732323E+04  0.65000000000E+04  0.30000000000E+03 0.  1.
     100001    1    1    2    0    0  0.12350545572E+04 -0.30739398030E+03  0.63724013473E+04  0.65000000000E+04  0.15050000000E+03 0. -1.
     100001    1    1    2    0    0 -0.12350545572E+04  0.30739398030E+03 -0.63724013473E+04  0.65000000000E+04  0.15050000000E+03 0.  1.
</event>
<event>
 4    1  0.4630618E-004  0.6500000E+04  0.7818608E-02  0.7223770E-01
         52   -1    0    0    0    0  0.00000000000E+00  0.00000000000E+00  0.64930732323E+04  0.65000000000E+04  0.30000000000E+03 0.  1.
        -52   -1    0    0    0    0 -0.00000000000E+00 -0.00000000000E+00 -0.64930732323E+04  0.65000000000E+04  0.30000000000E+03 0. -1.
     100001    1    1    2    0    0 -0.10939628514E+02 -0.29981903888E+03  0.64913279549E+04  0.65000000000E+04  0.15050000000E+03 0.  1.
     100001    1    1    2    0    0  0.10939628514E+02  0.29981903888E+03 -0.64913279549E+04  0.65000000000E+04  0.15050000000E+03 0. -1.
</event>
<event>
 4    1  0.4630618E-004  0.6500000E+04  0.7818608E-02  0.7223770E-01
         52   -1    0    0    0    0  0.00000000000E+00  0.00000000000E+00  0.64930732323E+04  0.65000000000E+04  0.30000000000E+03 0.  1.
        -52   -1    0    0    0    0 -0.00000000000E+00 -0.00000000000E+00 -0.64930732323E+04  0.65000000000E+04  0.30000000000E+03 0. -1.
     100001    1    1    2    0    0 -0.51863964506E+03  0.34088786422E+03 -0.64685514710E+04  0.65000000000E+04  0.15050000000E+03 0. -1.
     100001    1    1    2    0    0  0.51863964506E+03 -0.34088786422E+03  0.64685514710E+04  0.65000000000E+04  0.15050000000E+03 0.  1.
</event>
<event>
 4    1  0.4630618E-004  0.6500000E+04  0.7818608E-02  0.7223770E-01
         52   -1    0    0    0    0  0.00000000000E+00  0.00000000000E+00  0.64930732323E+04  0.65000000000E+04  0.30000000000E+03 0. -1.
        -52   -1    0    0    0    0 -0.00000000000E+00 -0.00000000000E+00 -0.64930732323E+04  0.65000000000E+04  0.30000000000E+03 0.  1.
     100001    1    1    2    0    0 -0.25466006599E+03 -0.64932655857E+04 -0.18675071806E+00  0.65000000000E+04  0.15050000000E+03 0.  1.
     100001    1    1    2    0    0  0.25466006599E+03  0.64932655857E+04  0.18675071806E+00  0.65000000000E+04  0.15050000000E+03 0. -1.
</event>
<event>
 4    1  0.4630618E-004  0.6500000E+04  0.7818608E-02  0.7223770E-01
         52   -1    0    0    0    0  0.00000000000E+00  0.00000000000E+00  0.64930732323E+04  0.65000000000E+04  0.30000000000E+03 0. -1.
        -52   -1    0    0    0    0 -0.00000000000E+00 -0.00000000000E+00 -0.64930732323E+04  0.65000000000E+04  0.30000000000E+03 0.  1.
     100001    1    1    2    0    0  0.12623708111E+03 -0.21119742413E+03  0.64935975851E+04  0.65000000000E+04  0.15050000000E+03 0. -1.
     100001    1    1    2    0    0 -0.12623708111E+03  0.21119742413E+03 -0.64935975851E+04  0.65000000000E+04  0.15050000000E+03 0.  1.
</event>
<event>
 4    1  0.4630618E-004  0.6500000E+04  0.7818608E-02  0.7223770E-01
         52   -1    0    0    0    0  0.00000000000E+00  0.00000000000E+00  0.64930732323E+04  0.65000000000E+04  0.30000000000E+03 0.  1.
        -52   -1    0    0    0    0 -0.00000000000E+00 -0.00000000000E+00 -0.64930732323E+04  0.65000000000E+04  0.30000000000E+03 0. -1.
     100001    1    1    2    0    0  0.15216330000E+04  0.19269274171E+04  0.60165549522E+04  0.65000000000E+04  0.15050000000E+03 0.  1.
     100001    1    1    2    0    0 -0.15216330000E+04 -0.19269274171E+04 -0.60165549522E+04  0.65000000000E+04  0.15050000000E+03 0. -1.
</event>
<event>
 4    1  0.4630618E-004  0.6500000E+04  0.7818608E-02  0.7223770E-01
         52   -1    0    0    0    0  0.00000000000E+00  0.00000000000E+00  0.64930732323E+04  0.65000000000E+04  0.30000000000E+03 0. -1.
        -52   -1    0    0    0    0 -0.00000000000E+00 -0.00000000000E+00 -0.64930732323E+04  0.65000000000E+04  0.30000000000E+03 0.  1.
     100001    1    1    2    0    0  0.86880994286E+03 -0.72959532827E+03  0.63984536952E+04  0.65000000000E+04  0.15050000000E+03 0. -1.
     100001    1    1    2    0    0 -0.86880994286E+03  0.72959532827E+03 -0.63984536952E+04  0.65000000000E+04  0.15050000000E+03 0.  1.
</event>
<event>
 4    1  0.4630618E-004  0.6500000E+04  0.7818608E-02  0.7223770E-01
         52   -1    0    0    0    0  0.00000000000E+00  0.00000000000E+00  0.64930732323E+04  0.65000000000E+04  0.30000000000E+03 0.  1.
        -52   -1    0    0    0    0 -0.00000000000E+00 -0.00000000000E+00 -0.64930732323E+04  0.65000000000E+04  0.30000000000E+03 0. -1.
     100001    1    1    2    0    0 -0.16118087191E+04  0.18686781091E+04  0.60114444626E+04  0.65000000000E+04  0.15050000000E+03 0.  1.
     100001    1    1    2    0    0  0.16118087191E+04 -0.18686781091E+04 -0.60114444626E+04  0.65000000000E+04  0.15050000000E+03 0. -1.
</event>
<event>
 4    1  0.4630618E-004  0.6500000E+04  0.7818608E-02  0.7223770E-01
         52   -1    0    0    0    0  0.00000000000E+00  0.00000000000E+00  0.64930732323E+04  0.65000000000E+04  0.30000000000E+03 0.  1.
        -52   -1    0    0    0    0 -0.00000000000E+00 -0.00000000000E+00 -0.64930732323E+04  0.65000000000E+04  0.30000000000E+03 0. -1.
     100001    1    1    2    0    0 -0.18678364170E+04  0.35515083325E+04  0.51112939099E+04  0.65000000000E+04  0.15050000000E+03 0.  1.
     100001    1    1    2    0    0  0.18678364170E+04 -0.35515083325E+04 -0.51112939099E+04  0.65000000000E+04  0.15050000000E+03 0. -1.
</event>
<event>
 4    1  0.4630618E-004  0.6500000E+04  0.7818608E-02  0.7223770E-01
         52   -1    0    0    0    0  0.00000000000E+00  0.00000000000E+00  0.64930732323E+04  0.65000000000E+04  0.30000000000E+03 0. -1.
        -52   -1    0    0    0    0 -0.00000000000E+00 -0.00000000000E+00 -0.64930732323E+04  0.65000000000E+04  0.30000000000E+03 0.  1.
     100001    1    1    2    0    0  0.13469429727E+04 -0.61162953005E+04  0.17332126747E+04  0.65000000000E+04  0.15050000000E+03 0. -1.
     100001    1    1    2    0    0 -0.13469429727E+04  0.61162953005E+04 -0.17332126747E+04  0.65000000000E+04  0.15050000000E+03 0.  1.
</event>
<event>
 4    1  0.4630618E-004  0.6500000E+04  0.7818608E-02  0.7223770E-01
         52   -1    0    0    0    0  0.00000000000E+00  0.00000000000E+00  0.64930732323E+04  0.65000000000E+04  0.30000000000E+03 0.  1.
        -52   -1    0    0    0    0 -0.00000000000E+00 -0.00000000000E+00 -0.64930732323E+04  0.65000000000E+04  0.30000000000E+03 0. -1.
     100001    1    1    2    0    0  0.79616623894E+03 -0.61583097985E+03  0.64198303151E+04  0.65000000000E+04  0.15050000000E+03 0.  1.
     100001    1    1    2    0    0 -0.79616623894E+03  0.61583097985E+03 -0.64198303151E+04  0.65000000000E+04  0.15050000000E+03 0. -1.
</event>
<event>
 4    1  0.4630618E-004  0.6500000E+04  0.7818608E-02  0.7223770E-01
         52   -1    0    0    0    0  0.00000000000E+00  0.00000000000E+00  0.64930732323E+04  0.65000000000E+04  0.30000000000E+03 0. -1.
        -52   -1    0    0    0    0 -0.00000000000E+00 -0.00000000000E+00 -0.64930732323E+04  0.65000000000E+04  0.30000000000E+03 0.  1.
     100001    1    1    2    0    0 -0.25025638850E+04  0.18365134294E+04  0.57089177762E+04  0.65000000000E+04  0.15050000000E+03 0. -1.
     100001    1    1    2    0    0  0.25025638850E+04 -0.18365134294E+04 -0.57089177762E+04  0.65000000000E+04  0.15050000000E+03 0.  1.
</event>
<event>
 4    1  0.4630618E-004  0.6500000E+04  0.7818608E-02  0.7223770E-01
         52   -1    0    0    0    0  0.00000000000E+00  0.00000000000E+00  0.64930732323E+04  0.65000000000E+04  0.30000000000E+03 0.  1.
        -52   -1    0    0    0    0 -0.00000000000E+00 -0.00000000000E+00 -0.64930732323E+04  0.65000000000E+04  0.30000000000E+03 0. -1.
     100001    1    1    2    0    0 -0.43353738544E+03  0.12606320215E+03 -0.64825537525E+04  0.65000000000E+04  0.15050000000E+03 0. -1.
     100001    1    1    2    0    0  0.43353738544E+03 -0.12606320215E+03  0.64825537525E+04  0.65000000000E+04  0.15050000000E+03 0.  1.
</event>
<event>
 4    1  0.4630618E-004  0.6500000E+04  0.7818608E-02  0.7223770E-01
         52   -1    0    0    0    0  0.00000000000E+00  0.00000000000E+00  0.64930732323E+04  0.65000000000E+04  0.30000000000E+03 0. -1.
        -52   -1    0    0    0    0 -0.00000000000E+00 -0.00000000000E+00 -0.64930732323E+04  0.65000000000E+04  0.30000000000E+03 0.  1.
     100001    1    1    2    0    0  0.40504177589E+03 -0.89649677560E+03 -0.64233623937E+04  0.65000000000E+04  0.15050000000E+03 0.  1.
     100001    1    1    2    0    0 -0.40504177589E+03  0.89649677560E+03  0.64233623937E+04  0.65000000000E+04  0.15050000000E+03 0. -1.
</event>
<event>
 4    1  0.4630618E-004  0.6500000E+04  0.7818608E-02  0.7223770E-01
         52   -1    0    0    0    0  0.00000000000E+00  0.00000000000E+00  0.64930732323E+04  0.65000000000E+04  0.30000000000E+03 0. -1.
        -52   -1    0    0    0    0 -0.00000000000E+00 -0.00000000000E+00 -0.64930732323E+04  0.65000000000E+04  0.30000000000E+03 0.  1.
     100001    1    1    2    0    0 -0.11677337222E+04 -0.66821231436E+02  0.63921266122E+04  0.65000000000E+04  0.15050000000E+03 0. -1.
     100001    1    1    2    0    0  0.11677337222E+04  0.66821231436E+02 -0.63921266122E+04  0.65000000000E+04  0.15050000000E+03 0.  1.
</event>
<event>
 4    1  0.4630618E-004  0.6500000E+04  0.7818608E-02  0.7223770E-01
         52   -1    0    0    0    0  0.00000000000E+00  0.00000000000E+00  0.64930732323E+04  0.65000000000E+04  0.30000000000E+03 0. -1.
        -52   -1    0    0    0    0 -0.00000000000E+00 -0.00000000000E+00 -0.64930732323E+04  0.65000000000E+04  0.30000000000E+03 0.  1.
     100001    1    1    2    0    0  0.13741341384E+03  0.22229412374E+03 -0.64930002792E+04  0.65000000000E+04  0.15050000000E+03 0.  1.
     100001    1    1    2    0    0 -0.13741341384E+03 -0.22229412374E+03  0.64930002792E+04  0.65000000000E+04  0.15050000000E+03 0. -1.
</event>
<event>
 4    1  0.4630618E-004  0.6500000E+04  0.7818608E-02  0.7223770E-01
         52   -1    0    0    0    0  0.00000000000E+00  0.00000000000E+00  0.64930732323E+04  0.65000000000E+04  0.30000000000E+03 0.  1.
        -52   -1    0    0    0    0 -0.00000000000E+00 -0.00000000000E+00 -0.64930732323E+04  0.65000000000E+04  0.30000000000E+03 0. -1.
     100001    1    1    2    0    0 -0.42811113375E+04 -0.58830106229E+03  0.48531780645E+04  0.65000000000E+04  0.15050000000E+03 0.  1.
     100001    1    1    2    0    0  0.42811113375E+04  0.58830106229E+03 -0.48531780645E+04  0.65000000000E+04  0.15050000000E+03 0. -1.
</event>
<event>
 4    1  0.4630618E-004  0.6500000E+04  0.7818608E-02  0.7223770E-01
         52   -1    0    0    0    0  0.00000000000E+00  0.00000000000E+00  0.64930732323E+04  0.65000000000E+04  0.30000000000E+03 0.  1.
        -52   -1    0    0    0    0 -0.00000000000E+00 -0.00000000000E+00 -0.64930732323E+04  0.65000000000E+04  0.30000000000E+03 0.  1.
     100001    1    1    2    0    0  0.51071391971E+03  0.28279930047E+03  0.64719815820E+04  0.65000000000E+04  0.15050000000E+03 0.  1.
     100001    1    1    2    0    0 -0.51071391971E+03 -0.28279930047E+03 -0.64719815820E+04  0.65000000000E+04  0.15050000000E+03 0.  1.
</event>
<event>
 4    1  0.4630618E-004  0.6500000E+04  0.7818608E-02  0.7223770E-01
         52   -1    0    0    0    0  0.00000000000E+00  0.00000000000E+00  0.64930732323E+04  0.65000000000E+04  0.30000000000E+03 0. -1.
        -52   -1    0    0    0    0 -0.00000000000E+00 -0.00000000000E+00 -0.64930732323E+04  0.65000000000E+04  0.30000000000E+03 0.  1.
     100001    1    1    2    0    0  0.10385639471E+02 -0.24264840631E+03  0.64937172436E+04  0.65000000000E+04  0.15050000000E+03 0. -1.
     100001    1    1    2    0    0 -0.10385639471E+02  0.24264840631E+03 -0.64937172436E+04  0.65000000000E+04  0.15050000000E+03 0.  1.
</event>
<event>
 4    1  0.4630618E-004  0.6500000E+04  0.7818608E-02  0.7223770E-01
         52   -1    0    0    0    0  0.00000000000E+00  0.00000000000E+00  0.64930732323E+04  0.65000000000E+04  0.30000000000E+03 0.  1.
        -52   -1    0    0    0    0 -0.00000000000E+00 -0.00000000000E+00 -0.64930732323E+04  0.65000000000E+04  0.30000000000E+03 0. -1.
     100001    1    1    2    0    0  0.28585209925E+04  0.10209146606E+03  0.58348765898E+04  0.65000000000E+04  0.15050000000E+03 0.  1.
     100001    1    1    2    0    0 -0.28585209925E+04 -0.10209146606E+03 -0.58348765898E+04  0.65000000000E+04  0.15050000000E+03 0. -1.
</event>
<event>
 4    1  0.4630618E-004  0.6500000E+04  0.7818608E-02  0.7223770E-01
         52   -1    0    0    0    0  0.00000000000E+00  0.00000000000E+00  0.64930732323E+04  0.65000000000E+04  0.30000000000E+03 0. -1.
        -52   -1    0    0    0    0 -0.00000000000E+00 -0.00000000000E+00 -0.64930732323E+04  0.65000000000E+04  0.30000000000E+03 0.  1.
     100001    1    1    2    0    0  0.48796776238E+04  0.19642514500E+03  0.42869001855E+04  0.65000000000E+04  0.15050000000E+03 0.  1.
     100001    1    1    2    0    0 -0.48796776238E+04 -0.19642514500E+03 -0.42869001855E+04  0.65000000000E+04  0.15050000000E+03 0. -1.
</event>
<event>
 4    1  0.4630618E-004  0.6500000E+04  0.7818608E-02  0.7223770E-01
         52   -1    0    0    0    0  0.00000000000E+00  0.00000000000E+00  0.64930732323E+04  0.65000000000E+04  0.30000000000E+03 0. -1.
        -52   -1    0    0    0    0 -0.00000000000E+00 -0.00000000000E+00 -0.64930732323E+04  0.65000000000E+04  0.30000000000E+03 0.  1.
     100001    1    1    2    0    0 -0.23183725126E+03 -0.10845575921E+04  0.64029162159E+04  0.65000000000E+04  0.15050000000E+03 0. -1.
     100001    1    1    2    0    0  0.23183725126E+03  0.10845575921E+04 -0.64029162159E+04  0.65000000000E+04  0.15050000000E+03 0.  1.
</event>
<event>
 4    1  0.4630618E-004  0.6500000E+04  0.7818608E-02  0.7223770E-01
         52   -1    0    0    0    0  0.00000000000E+00  0.00000000000E+00  0.64930732323E+04  0.65000000000E+04  0.30000000000E+03 0. -1.
        -52   -1    0    0    0    0 -0.00000000000E+00 -0.00000000000E+00 -0.64930732323E+04  0.65000000000E+04  0.30000000000E+03 0.  1.
     100001    1    1    2    0    0 -0.38238941058E+02  0.83596614765E+03  0.64441483637E+04  0.65000000000E+04  0.15050000000E+03 0. -1.
     100001    1    1    2    0    0  0.38238941058E+02 -0.83596614765E+03 -0.64441483637E+04  0.65000000000E+04  0.15050000000E+03 0.  1.
</event>
<event>
 4    1  0.4630618E-004  0.6500000E+04  0.7818608E-02  0.7223770E-01
         52   -1    0    0    0    0  0.00000000000E+00  0.00000000000E+00  0.64930732323E+04  0.65000000000E+04  0.30000000000E+03 0.  1.
        -52   -1    0    0    0    0 -0.00000000000E+00 -0.00000000000E+00 -0.64930732323E+04  0.65000000000E+04  0.30000000000E+03 0. -1.
     100001    1    1    2    0    0 -0.42236060192E+04  0.30870115645E+04  0.38547193861E+04  0.65000000000E+04  0.15050000000E+03 0.  1.
     100001    1    1    2    0    0  0.42236060192E+04 -0.30870115645E+04 -0.38547193861E+04  0.65000000000E+04  0.15050000000E+03 0. -1.
</event>
<event>
 4    1  0.4630618E-004  0.6500000E+04  0.7818608E-02  0.7223770E-01
         52   -1    0    0    0    0  0.00000000000E+00  0.00000000000E+00  0.64930732323E+04  0.65000000000E+04  0.30000000000E+03 0. -1.
        -52   -1    0    0    0    0 -0.00000000000E+00 -0.00000000000E+00 -0.64930732323E+04  0.65000000000E+04  0.30000000000E+03 0.  1.
     100001    1    1    2    0    0  0.30361298470E+04  0.73108739608E+03 -0.56986644507E+04  0.65000000000E+04  0.15050000000E+03 0.  1.
     100001    1    1    2    0    0 -0.30361298470E+04 -0.73108739608E+03  0.56986644507E+04  0.65000000000E+04  0.15050000000E+03 0. -1.
</event>
<event>
 4    1  0.4630618E-004  0.6500000E+04  0.7818608E-02  0.7223770E-01
         52   -1    0    0    0    0  0.00000000000E+00  0.00000000000E+00  0.64930732323E+04  0.65000000000E+04  0.30000000000E+03 0.  1.
        -52   -1    0    0    0    0 -0.00000000000E+00 -0.00000000000E+00 -0.64930732323E+04  0.65000000000E+04  0.30000000000E+03 0. -1.
     100001    1    1    2    0    0 -0.30371013603E+04 -0.11588619851E+04 -0.56267578566E+04  0.65000000000E+04  0.15050000000E+03 0. -1.
     100001    1    1    2    0    0  0.30371013603E+04  0.11588619851E+04  0.56267578566E+04  0.65000000000E+04  0.15050000000E+03 0.  1.
</event>
<event>
 4    1  0.4630618E-004  0.6500000E+04  0.7818608E-02  0.7223770E-01
         52   -1    0    0    0    0  0.00000000000E+00  0.00000000000E+00  0.64930732323E+04  0.65000000000E+04  0.30000000000E+03 0. -1.
        -52   -1    0    0    0    0 -0.00000000000E+00 -0.00000000000E+00 -0.64930732323E+04  0.65000000000E+04  0.30000000000E+03 0.  1.
     100001    1    1    2    0    0 -0.12702836478E+04  0.10430251642E+04 -0.62869569516E+04  0.65000000000E+04  0.15050000000E+03 0.  1.
     100001    1    1    2    0    0  0.12702836478E+04 -0.10430251642E+04  0.62869569516E+04  0.65000000000E+04  0.15050000000E+03 0. -1.
</event>
<event>
 4    1  0.4630618E-004  0.6500000E+04  0.7818608E-02  0.7223770E-01
         52   -1    0    0    0    0  0.00000000000E+00  0.00000000000E+00  0.64930732323E+04  0.65000000000E+04  0.30000000000E+03 0. -1.
        -52   -1    0    0    0    0 -0.00000000000E+00 -0.00000000000E+00 -0.64930732323E+04  0.65000000000E+04  0.30000000000E+03 0.  1.
     100001    1    1    2    0    0  0.12662503457E+04  0.92234366288E+03 -0.63066030460E+04  0.65000000000E+04  0.15050000000E+03 0.  1.
     100001    1    1    2    0    0 -0.12662503457E+04 -0.92234366288E+03  0.63066030460E+04  0.65000000000E+04  0.15050000000E+03 0. -1.
</event>
<event>
 4    1  0.4630618E-004  0.6500000E+04  0.7818608E-02  0.7223770E-01
         52   -1    0    0    0    0  0.00000000000E+00  0.00000000000E+00  0.64930732323E+04  0.65000000000E+04  0.30000000000E+03 0. -1.
        -52   -1    0    0    0    0 -0.00000000000E+00 -0.00000000000E+00 -0.64930732323E+04  0.65000000000E+04  0.30000000000E+03 0.  1.
     100001    1    1    2    0    0  0.17692500049E+04 -0.38796582906E+04  0.49036063992E+04  0.65000000000E+04  0.15050000000E+03 0. -1.
     100001    1    1    2    0    0 -0.17692500049E+04  0.38796582906E+04 -0.49036063992E+04  0.65000000000E+04  0.15050000000E+03 0.  1.
</event>
<event>
 4    1  0.4630618E-004  0.6500000E+04  0.7818608E-02  0.7223770E-01
         52   -1    0    0    0    0  0.00000000000E+00  0.00000000000E+00  0.64930732323E+04  0.65000000000E+04  0.30000000000E+03 0. -1.
        -52   -1    0    0    0    0 -0.00000000000E+00 -0.00000000000E+00 -0.64930732323E+04  0.65000000000E+04  0.30000000000E+03 0.  1.
     100001    1    1    2    0    0  0.16201222440E+04  0.43024701272E+03 -0.62783310818E+04  0.65000000000E+04  0.15050000000E+03 0.  1.
     100001    1    1    2    0    0 -0.16201222440E+04 -0.43024701272E+03  0.62783310818E+04  0.65000000000E+04  0.15050000000E+03 0. -1.
</event>
<event>
 4    1  0.4630618E-004  0.6500000E+04  0.7818608E-02  0.7223770E-01
         52   -1    0    0    0    0  0.00000000000E+00  0.00000000000E+00  0.64930732323E+04  0.65000000000E+04  0.30000000000E+03 0. -1.
        -52   -1    0    0    0    0 -0.00000000000E+00 -0.00000000000E+00 -0.64930732323E+04  0.65000000000E+04  0.30000000000E+03 0.  1.
     100001    1    1    2    0    0  0.78027273047E+02  0.16328318577E+04 -0.62892862567E+04  0.65000000000E+04  0.15050000000E+03 0.  1.
     100001    1    1    2    0    0 -0.78027273047E+02 -0.16328318577E+04  0.62892862567E+04  0.65000000000E+04  0.15050000000E+03 0. -1.
</event>
<event>
 4    1  0.4630618E-004  0.6500000E+04  0.7818608E-02  0.7223770E-01
         52   -1    0    0    0    0  0.00000000000E+00  0.00000000000E+00  0.64930732323E+04  0.65000000000E+04  0.30000000000E+03 0. -1.
        -52   -1    0    0    0    0 -0.00000000000E+00 -0.00000000000E+00 -0.64930732323E+04  0.65000000000E+04  0.30000000000E+03 0.  1.
     100001    1    1    2    0    0 -0.14883055863E+04 -0.73242091482E+03 -0.62829814448E+04  0.65000000000E+04  0.15050000000E+03 0.  1.
     100001    1    1    2    0    0  0.14883055863E+04  0.73242091482E+03  0.62829814448E+04  0.65000000000E+04  0.15050000000E+03 0. -1.
</event>
<event>
 4    1  0.4630618E-004  0.6500000E+04  0.7818608E-02  0.7223770E-01
         52   -1    0    0    0    0  0.00000000000E+00  0.00000000000E+00  0.64930732323E+04  0.65000000000E+04  0.30000000000E+03 0.  1.
        -52   -1    0    0    0    0 -0.00000000000E+00 -0.00000000000E+00 -0.64930732323E+04  0.65000000000E+04  0.30000000000E+03 0. -1.
     100001    1    1    2    0    0 -0.12989047604E+04 -0.27838278778E+04  0.57262988500E+04  0.65000000000E+04  0.15050000000E+03 0.  1.
     100001    1    1    2    0    0  0.12989047604E+04  0.27838278778E+04 -0.57262988500E+04  0.65000000000E+04  0.15050000000E+03 0. -1.
</event>
<event>
 4    1  0.4630618E-004  0.6500000E+04  0.7818608E-02  0.7223770E-01
         52   -1    0    0    0    0  0.00000000000E+00  0.00000000000E+00  0.64930732323E+04  0.65000000000E+04  0.30000000000E+03 0.  1.
        -52   -1    0    0    0    0 -0.00000000000E+00 -0.00000000000E+00 -0.64930732323E+04  0.65000000000E+04  0.30000000000E+03 0. -1.
     100001    1    1    2    0    0  0.27992499016E+03 -0.70298979846E+02 -0.64918448690E+04  0.65000000000E+04  0.15050000000E+03 0. -1.
     100001    1    1    2    0    0 -0.27992499016E+03  0.70298979846E+02  0.64918448690E+04  0.65000000000E+04  0.15050000000E+03 0.  1.
</event>
<event>
 4    1  0.4630618E-004  0.6500000E+04  0.7818608E-02  0.7223770E-01
         52   -1    0    0    0    0  0.00000000000E+00  0.00000000000E+00  0.64930732323E+04  0.65000000000E+04  0.30000000000E+03 0. -1.
        -52   -1    0    0    0    0 -0.00000000000E+00 -0.00000000000E+00 -0.64930732323E+04  0.65000000000E+04  0.30000000000E+03 0. -1.
     100001    1    1    2    0    0 -0.51170879425E+03 -0.16227661687E+01  0.64780785135E+04  0.65000000000E+04  0.15050000000E+03 0. -1.
     100001    1    1    2    0    0  0.51170879425E+03  0.16227661687E+01 -0.64780785135E+04  0.65000000000E+04  0.15050000000E+03 0. -1.
</event>
<event>
 4    1  0.4630618E-004  0.6500000E+04  0.7818608E-02  0.7223770E-01
         52   -1    0    0    0    0  0.00000000000E+00  0.00000000000E+00  0.64930732323E+04  0.65000000000E+04  0.30000000000E+03 0.  1.
        -52   -1    0    0    0    0 -0.00000000000E+00 -0.00000000000E+00 -0.64930732323E+04  0.65000000000E+04  0.30000000000E+03 0.  1.
     100001    1    1    2    0    0  0.12911597113E+03 -0.34220300196E+03  0.64879562207E+04  0.65000000000E+04  0.15050000000E+03 0.  1.
     100001    1    1    2    0    0 -0.12911597113E+03  0.34220300196E+03 -0.64879562207E+04  0.65000000000E+04  0.15050000000E+03 0.  1.
</event>
<event>
 4    1  0.4630618E-004  0.6500000E+04  0.7818608E-02  0.7223770E-01
         52   -1    0    0    0    0  0.00000000000E+00  0.00000000000E+00  0.64930732323E+04  0.65000000000E+04  0.30000000000E+03 0.  1.
        -52   -1    0    0    0    0 -0.00000000000E+00 -0.00000000000E+00 -0.64930732323E+04  0.65000000000E+04  0.30000000000E+03 0.  1.
     100001    1    1    2    0    0 -0.50509403398E+03  0.27648770075E+03 -0.64726952901E+04  0.65000000000E+04  0.15050000000E+03 0.  1.
     100001    1    1    2    0    0  0.50509403398E+03 -0.27648770075E+03  0.64726952901E+04  0.65000000000E+04  0.15050000000E+03 0.  1.
</event>
<event>
 4    1  0.4630618E-004  0.6500000E+04  0.7818608E-02  0.7223770E-01
         52   -1    0    0    0    0  0.00000000000E+00  0.00000000000E+00  0.64930732323E+04  0.65000000000E+04  0.30000000000E+03 0.  1.
        -52   -1    0    0    0    0 -0.00000000000E+00 -0.00000000000E+00 -0.64930732323E+04  0.65000000000E+04  0.30000000000E+03 0. -1.
     100001    1    1    2    0    0  0.22095884354E+03 -0.64356442480E+04 -0.87235890093E+03  0.65000000000E+04  0.15050000000E+03 0. -1.
     100001    1    1    2    0    0 -0.22095884354E+03  0.64356442480E+04  0.87235890093E+03  0.65000000000E+04  0.15050000000E+03 0.  1.
</event>
<event>
 4    1  0.4630618E-004  0.6500000E+04  0.7818608E-02  0.7223770E-01
         52   -1    0    0    0    0  0.00000000000E+00  0.00000000000E+00  0.64930732323E+04  0.65000000000E+04  0.30000000000E+03 0.  1.
        -52   -1    0    0    0    0 -0.00000000000E+00 -0.00000000000E+00 -0.64930732323E+04  0.65000000000E+04  0.30000000000E+03 0. -1.
     100001    1    1    2    0    0 -0.15597612701E+04 -0.63043322655E+04  0.22335894171E+03  0.65000000000E+04  0.15050000000E+03 0.  1.
     100001    1    1    2    0    0  0.15597612701E+04  0.63043322655E+04 -0.22335894171E+03  0.65000000000E+04  0.15050000000E+03 0. -1.
</event>
<event>
 4    1  0.4630618E-004  0.6500000E+04  0.7818608E-02  0.7223770E-01
         52   -1    0    0    0    0  0.00000000000E+00  0.00000000000E+00  0.64930732323E+04  0.65000000000E+04  0.30000000000E+03 0.  1.
        -52   -1    0    0    0    0 -0.00000000000E+00 -0.00000000000E+00 -0.64930732323E+04  0.65000000000E+04  0.30000000000E+03 0. -1.
     100001    1    1    2    0    0 -0.27082266541E+04  0.27451287736E+04 -0.52304040146E+04  0.65000000000E+04  0.15050000000E+03 0. -1.
     100001    1    1    2    0    0  0.27082266541E+04 -0.27451287736E+04  0.52304040146E+04  0.65000000000E+04  0.15050000000E+03 0.  1.
</event>
<event>
 4    1  0.4630618E-004  0.6500000E+04  0.7818608E-02  0.7223770E-01
         52   -1    0    0    0    0  0.00000000000E+00  0.00000000000E+00  0.64930732323E+04  0.65000000000E+04  0.30000000000E+03 0. -1.
        -52   -1    0    0    0    0 -0.00000000000E+00 -0.00000000000E+00 -0.64930732323E+04  0.65000000000E+04  0.30000000000E+03 0.  1.
     100001    1    1    2    0    0  0.12066944768E+04  0.25657927317E+04 -0.58470459078E+04  0.65000000000E+04  0.15050000000E+03 0.  1.
     100001    1    1    2    0    0 -0.12066944768E+04 -0.25657927317E+04  0.58470459078E+04  0.65000000000E+04  0.15050000000E+03 0. -1.
</event>
<event>
 4    1  0.4630618E-004  0.6500000E+04  0.7818608E-02  0.7223770E-01
         52   -1    0    0    0    0  0.00000000000E+00  0.00000000000E+00  0.64930732323E+04  0.65000000000E+04  0.30000000000E+03 0.  1.
        -52   -1    0    0    0    0 -0.00000000000E+00 -0.00000000000E+00 -0.64930732323E+04  0.65000000000E+04  0.30000000000E+03 0. -1.
     100001    1    1    2    0    0 -0.12719451261E+03  0.88269473361E+03 -0.64367710316E+04  0.65000000000E+04  0.15050000000E+03 0. -1.
     100001    1    1    2    0    0  0.12719451261E+03 -0.88269473361E+03  0.64367710316E+04  0.65000000000E+04  0.15050000000E+03 0.  1.
</event>
<event>
 4    1  0.4630618E-004  0.6500000E+04  0.7818608E-02  0.7223770E-01
         52   -1    0    0    0    0  0.00000000000E+00  0.00000000000E+00  0.64930732323E+04  0.65000000000E+04  0.30000000000E+03 0. -1.
        -52   -1    0    0    0    0 -0.00000000000E+00 -0.00000000000E+00 -0.64930732323E+04  0.65000000000E+04  0.30000000000E+03 0.  1.
     100001    1    1    2    0    0  0.62407565328E+02 -0.32048657852E+03  0.64900495683E+04  0.65000000000E+04  0.15050000000E+03 0. -1.
     100001    1    1    2    0    0 -0.62407565328E+02  0.32048657852E+03 -0.64900495683E+04  0.65000000000E+04  0.15050000000E+03 0.  1.
</event>
<event>
 4    1  0.4630618E-004  0.6500000E+04  0.7818608E-02  0.7223770E-01
         52   -1    0    0    0    0  0.00000000000E+00  0.00000000000E+00  0.64930732323E+04  0.65000000000E+04  0.30000000000E+03 0. -1.
        -52   -1    0    0    0    0 -0.00000000000E+00 -0.00000000000E+00 -0.64930732323E+04  0.65000000000E+04  0.30000000000E+03 0.  1.
     100001    1    1    2    0    0 -0.47929943430E+03  0.30505892231E+03 -0.64733732208E+04  0.65000000000E+04  0.15050000000E+03 0.  1.
     100001    1    1    2    0    0  0.47929943430E+03 -0.30505892231E+03  0.64733732208E+04  0.65000000000E+04  0.15050000000E+03 0. -1.
</event>
<event>
 4    1  0.4630618E-004  0.6500000E+04  0.7818608E-02  0.7223770E-01
         52   -1    0    0    0    0  0.00000000000E+00  0.00000000000E+00  0.64930732323E+04  0.65000000000E+04  0.30000000000E+03 0. -1.
        -52   -1    0    0    0    0 -0.00000000000E+00 -0.00000000000E+00 -0.64930732323E+04  0.65000000000E+04  0.30000000000E+03 0.  1.
     100001    1    1    2    0    0 -0.84701792954E+03  0.23694308441E+04  0.59913026841E+04  0.65000000000E+04  0.15050000000E+03 0. -1.
     100001    1    1    2    0    0  0.84701792954E+03 -0.23694308441E+04 -0.59913026841E+04  0.65000000000E+04  0.15050000000E+03 0.  1.
</event>
<event>
 4    1  0.4630618E-004  0.6500000E+04  0.7818608E-02  0.7223770E-01
         52   -1    0    0    0    0  0.00000000000E+00  0.00000000000E+00  0.64930732323E+04  0.65000000000E+04  0.30000000000E+03 0.  1.
        -52   -1    0    0    0    0 -0.00000000000E+00 -0.00000000000E+00 -0.64930732323E+04  0.65000000000E+04  0.30000000000E+03 0.  1.
     100001    1    1    2    0    0 -0.80729810934E+02  0.98079000537E+03  0.64233078249E+04  0.65000000000E+04  0.15050000000E+03 0.  1.
     100001    1    1    2    0    0  0.80729810934E+02 -0.98079000537E+03 -0.64233078249E+04  0.65000000000E+04  0.15050000000E+03 0.  1.
</event>
<event>
 4    1  0.4630618E-004  0.6500000E+04  0.7818608E-02  0.7223770E-01
         52   -1    0    0    0    0  0.00000000000E+00  0.00000000000E+00  0.64930732323E+04  0.65000000000E+04  0.30000000000E+03 0.  1.
        -52   -1    0    0    0    0 -0.00000000000E+00 -0.00000000000E+00 -0.64930732323E+04  0.65000000000E+04  0.30000000000E+03 0. -1.
     100001    1    1    2    0    0  0.20847096963E+04  0.27306036225E+03 -0.61487212712E+04  0.65000000000E+04  0.15050000000E+03 0. -1.
     100001    1    1    2    0    0 -0.20847096963E+04 -0.27306036225E+03  0.61487212712E+04  0.65000000000E+04  0.15050000000E+03 0.  1.
</event>
<event>
 4    1  0.4630618E-004  0.6500000E+04  0.7818608E-02  0.7223770E-01
         52   -1    0    0    0    0  0.00000000000E+00  0.00000000000E+00  0.64930732323E+04  0.65000000000E+04  0.30000000000E+03 0.  1.
        -52   -1    0    0    0    0 -0.00000000000E+00 -0.00000000000E+00 -0.64930732323E+04  0.65000000000E+04  0.30000000000E+03 0. -1.
     100001    1    1    2    0    0 -0.10948923695E+04  0.15919498866E+04  0.62043739417E+04  0.65000000000E+04  0.15050000000E+03 0.  1.
     100001    1    1    2    0    0  0.10948923695E+04 -0.15919498866E+04 -0.62043739417E+04  0.65000000000E+04  0.15050000000E+03 0. -1.
</event>
<event>
 4    1  0.4630618E-004  0.6500000E+04  0.7818608E-02  0.7223770E-01
         52   -1    0    0    0    0  0.00000000000E+00  0.00000000000E+00  0.64930732323E+04  0.65000000000E+04  0.30000000000E+03 0.  1.
        -52   -1    0    0    0    0 -0.00000000000E+00 -0.00000000000E+00 -0.64930732323E+04  0.65000000000E+04  0.30000000000E+03 0. -1.
     100001    1    1    2    0    0  0.49482319149E+04  0.23191602296E+04 -0.35162261725E+04  0.65000000000E+04  0.15050000000E+03 0. -1.
     100001    1    1    2    0    0 -0.49482319149E+04 -0.23191602296E+04  0.35162261725E+04  0.65000000000E+04  0.15050000000E+03 0.  1.
</event>
<event>
 4    1  0.4630618E-004  0.6500000E+04  0.7818608E-02  0.7223770E-01
         52   -1    0    0    0    0  0.00000000000E+00  0.00000000000E+00  0.64930732323E+04  0.65000000000E+04  0.30000000000E+03 0.  1.
        -52   -1    0    0    0    0 -0.00000000000E+00 -0.00000000000E+00 -0.64930732323E+04  0.65000000000E+04  0.30000000000E+03 0. -1.
     100001    1    1    2    0    0  0.30235124641E+04 -0.15607459606E+04 -0.55362256255E+04  0.65000000000E+04  0.15050000000E+03 0. -1.
     100001    1    1    2    0    0 -0.30235124641E+04  0.15607459606E+04  0.55362256255E+04  0.65000000000E+04  0.15050000000E+03 0.  1.
</event>
<event>
 4    1  0.4630618E-004  0.6500000E+04  0.7818608E-02  0.7223770E-01
         52   -1    0    0    0    0  0.00000000000E+00  0.00000000000E+00  0.64930732323E+04  0.65000000000E+04  0.30000000000E+03 0.  1.
        -52   -1    0    0    0    0 -0.00000000000E+00 -0.00000000000E+00 -0.64930732323E+04  0.65000000000E+04  0.30000000000E+03 0. -1.
     100001    1    1    2    0    0 -0.25661313319E+02  0.31706739953E+03 -0.64904668177E+04  0.65000000000E+04  0.15050000000E+03 0. -1.
     100001    1    1    2    0    0  0.25661313319E+02 -0.31706739953E+03  0.64904668177E+04  0.65000000000E+04  0.15050000000E+03 0.  1.
</event>
<event>
 4    1  0.4630618E-004  0.6500000E+04  0.7818608E-02  0.7223770E-01
         52   -1    0    0    0    0  0.00000000000E+00  0.00000000000E+00  0.64930732323E+04  0.65000000000E+04  0.30000000000E+03 0.  1.
        -52   -1    0    0    0    0 -0.00000000000E+00 -0.00000000000E+00 -0.64930732323E+04  0.65000000000E+04  0.30000000000E+03 0. -1.
     100001    1    1    2    0    0 -0.58714390328E+03 -0.17757687380E+04 -0.62232834723E+04  0.65000000000E+04  0.15050000000E+03 0. -1.
     100001    1    1    2    0    0  0.58714390328E+03  0.17757687380E+04  0.62232834723E+04  0.65000000000E+04  0.15050000000E+03 0.  1.
</event>
<event>
 4    1  0.4630618E-004  0.6500000E+04  0.7818608E-02  0.7223770E-01
         52   -1    0    0    0    0  0.00000000000E+00  0.00000000000E+00  0.64930732323E+04  0.65000000000E+04  0.30000000000E+03 0. -1.
        -52   -1    0    0    0    0 -0.00000000000E+00 -0.00000000000E+00 -0.64930732323E+04  0.65000000000E+04  0.30000000000E+03 0.  1.
     100001    1    1    2    0    0 -0.11580806291E+04 -0.16896143000E+04 -0.61669605580E+04  0.65000000000E+04  0.15050000000E+03 0.  1.
     100001    1    1    2    0    0  0.11580806291E+04  0.16896143000E+04  0.61669605580E+04  0.65000000000E+04  0.15050000000E+03 0. -1.
</event>
<event>
 4    1  0.4630618E-004  0.6500000E+04  0.7818608E-02  0.7223770E-01
         52   -1    0    0    0    0  0.00000000000E+00  0.00000000000E+00  0.64930732323E+04  0.65000000000E+04  0.30000000000E+03 0.  1.
        -52   -1    0    0    0    0 -0.00000000000E+00 -0.00000000000E+00 -0.64930732323E+04  0.65000000000E+04  0.30000000000E+03 0. -1.
     100001    1    1    2    0    0  0.24643080593E+04 -0.14348551943E+03  0.60111519233E+04  0.65000000000E+04  0.15050000000E+03 0.  1.
     100001    1    1    2    0    0 -0.24643080593E+04  0.14348551943E+03 -0.60111519233E+04  0.65000000000E+04  0.15050000000E+03 0. -1.
</event>
<event>
 4    1  0.4630618E-004  0.6500000E+04  0.7818608E-02  0.7223770E-01
         52   -1    0    0    0    0  0.00000000000E+00  0.00000000000E+00  0.64930732323E+04  0.65000000000E+04  0.30000000000E+03 0.  1.
        -52   -1    0    0    0    0 -0.00000000000E+00 -0.00000000000E+00 -0.64930732323E+04  0.65000000000E+04  0.30000000000E+03 0. -1.
     100001    1    1    2    0    0  0.59530018978E+04 -0.11671564246E+04  0.23295630566E+04  0.65000000000E+04  0.15050000000E+03 0. -1.
     100001    1    1    2    0    0 -0.59530018978E+04  0.11671564246E+04 -0.23295630566E+04  0.65000000000E+04  0.15050000000E+03 0.  1.
</event>
<event>
 4    1  0.4630618E-004  0.6500000E+04  0.7818608E-02  0.7223770E-01
         52   -1    0    0    0    0  0.00000000000E+00  0.00000000000E+00  0.64930732323E+04  0.65000000000E+04  0.30000000000E+03 0.  1.
        -52   -1    0    0    0    0 -0.00000000000E+00 -0.00000000000E+00 -0.64930732323E+04  0.65000000000E+04  0.30000000000E+03 0. -1.
     100001    1    1    2    0    0  0.98440730961E+03 -0.22990847710E+03  0.64191459004E+04  0.65000000000E+04  0.15050000000E+03 0.  1.
     100001    1    1    2    0    0 -0.98440730961E+03  0.22990847710E+03 -0.64191459004E+04  0.65000000000E+04  0.15050000000E+03 0. -1.
</event>
<event>
 4    1  0.4630618E-004  0.6500000E+04  0.7818608E-02  0.7223770E-01
         52   -1    0    0    0    0  0.00000000000E+00  0.00000000000E+00  0.64930732323E+04  0.65000000000E+04  0.30000000000E+03 0.  1.
        -52   -1    0    0    0    0 -0.00000000000E+00 -0.00000000000E+00 -0.64930732323E+04  0.65000000000E+04  0.30000000000E+03 0. -1.
     100001    1    1    2    0    0 -0.11075077011E+04  0.24710169780E+04 -0.59071864315E+04  0.65000000000E+04  0.15050000000E+03 0. -1.
     100001    1    1    2    0    0  0.11075077011E+04 -0.24710169780E+04  0.59071864315E+04  0.65000000000E+04  0.15050000000E+03 0.  1.
</event>
<event>
 4    1  0.6304211E-004  0.6500000E+04  0.7818608E-02  0.7223770E-01
         52   -1    0    0    0    0  0.00000000000E+00  0.00000000000E+00  0.64930732323E+04  0.65000000000E+04  0.30000000000E+03 0.  1.
        -52   -1    0    0    0    0 -0.00000000000E+00 -0.00000000000E+00 -0.64930732323E+04  0.65000000000E+04  0.30000000000E+03 0.  1.
     100001    1    1    2    0    0  0.72425401160E+02  0.89798551849E+02  0.64972332982E+04  0.65000000000E+04  0.15050000000E+03 0.  1.
     100001    1    1    2    0    0 -0.72425401160E+02 -0.89798551849E+02 -0.64972332982E+04  0.65000000000E+04  0.15050000000E+03 0.  1.
</event>
<event>
 4    1  0.4630618E-004  0.6500000E+04  0.7818608E-02  0.7223770E-01
         52   -1    0    0    0    0  0.00000000000E+00  0.00000000000E+00  0.64930732323E+04  0.65000000000E+04  0.30000000000E+03 0.  1.
        -52   -1    0    0    0    0 -0.00000000000E+00 -0.00000000000E+00 -0.64930732323E+04  0.65000000000E+04  0.30000000000E+03 0. -1.
     100001    1    1    2    0    0  0.24436941632E+04 -0.22297504695E+04  0.55932031458E+04  0.65000000000E+04  0.15050000000E+03 0.  1.
     100001    1    1    2    0    0 -0.24436941632E+04  0.22297504695E+04 -0.55932031458E+04  0.65000000000E+04  0.15050000000E+03 0. -1.
</event>
<event>
 4    1  0.5577938E-004  0.6500000E+04  0.7818608E-02  0.7223770E-01
         52   -1    0    0    0    0  0.00000000000E+00  0.00000000000E+00  0.64930732323E+04  0.65000000000E+04  0.30000000000E+03 0.  1.
        -52   -1    0    0    0    0 -0.00000000000E+00 -0.00000000000E+00 -0.64930732323E+04  0.65000000000E+04  0.30000000000E+03 0.  1.
     100001    1    1    2    0    0  0.16731274696E+03  0.67417363771E+02 -0.64957533123E+04  0.65000000000E+04  0.15050000000E+03 0.  1.
     100001    1    1    2    0    0 -0.16731274696E+03 -0.67417363771E+02  0.64957533123E+04  0.65000000000E+04  0.15050000000E+03 0.  1.
</event>
<event>
 4    1  0.4630618E-004  0.6500000E+04  0.7818608E-02  0.7223770E-01
         52   -1    0    0    0    0  0.00000000000E+00  0.00000000000E+00  0.64930732323E+04  0.65000000000E+04  0.30000000000E+03 0.  1.
        -52   -1    0    0    0    0 -0.00000000000E+00 -0.00000000000E+00 -0.64930732323E+04  0.65000000000E+04  0.30000000000E+03 0. -1.
     100001    1    1    2    0    0 -0.40100424680E+04  0.43756255528E+04  0.26459044155E+04  0.65000000000E+04  0.15050000000E+03 0.  1.
     100001    1    1    2    0    0  0.40100424680E+04 -0.43756255528E+04 -0.26459044155E+04  0.65000000000E+04  0.15050000000E+03 0. -1.
</event>
<event>
 4    1  0.4630618E-004  0.6500000E+04  0.7818608E-02  0.7223770E-01
         52   -1    0    0    0    0  0.00000000000E+00  0.00000000000E+00  0.64930732323E+04  0.65000000000E+04  0.30000000000E+03 0. -1.
        -52   -1    0    0    0    0 -0.00000000000E+00 -0.00000000000E+00 -0.64930732323E+04  0.65000000000E+04  0.30000000000E+03 0. -1.
     100001    1    1    2    0    0  0.36034313811E+03 -0.12068918775E+03  0.64871362474E+04  0.65000000000E+04  0.15050000000E+03 0. -1.
     100001    1    1    2    0    0 -0.36034313811E+03  0.12068918775E+03 -0.64871362474E+04  0.65000000000E+04  0.15050000000E+03 0. -1.
</event>
<event>
 4    1  0.4630618E-004  0.6500000E+04  0.7818608E-02  0.7223770E-01
         52   -1    0    0    0    0  0.00000000000E+00  0.00000000000E+00  0.64930732323E+04  0.65000000000E+04  0.30000000000E+03 0.  1.
        -52   -1    0    0    0    0 -0.00000000000E+00 -0.00000000000E+00 -0.64930732323E+04  0.65000000000E+04  0.30000000000E+03 0. -1.
     100001    1    1    2    0    0 -0.72728735360E+03 -0.32452072303E+02  0.64573485053E+04  0.65000000000E+04  0.15050000000E+03 0.  1.
     100001    1    1    2    0    0  0.72728735360E+03  0.32452072303E+02 -0.64573485053E+04  0.65000000000E+04  0.15050000000E+03 0. -1.
</event>
<event>
 4    1  0.5978369E-004  0.6500000E+04  0.7818608E-02  0.7223770E-01
         52   -1    0    0    0    0  0.00000000000E+00  0.00000000000E+00  0.64930732323E+04  0.65000000000E+04  0.30000000000E+03 0.  1.
        -52   -1    0    0    0    0 -0.00000000000E+00 -0.00000000000E+00 -0.64930732323E+04  0.65000000000E+04  0.30000000000E+03 0.  1.
     100001    1    1    2    0    0  0.11091301987E+03  0.60543077341E+02 -0.64970287507E+04  0.65000000000E+04  0.15050000000E+03 0.  1.
     100001    1    1    2    0    0 -0.11091301987E+03 -0.60543077341E+02  0.64970287507E+04  0.65000000000E+04  0.15050000000E+03 0.  1.
</event>
<event>
 4    1  0.4630618E-004  0.6500000E+04  0.7818608E-02  0.7223770E-01
         52   -1    0    0    0    0  0.00000000000E+00  0.00000000000E+00  0.64930732323E+04  0.65000000000E+04  0.30000000000E+03 0.  1.
        -52   -1    0    0    0    0 -0.00000000000E+00 -0.00000000000E+00 -0.64930732323E+04  0.65000000000E+04  0.30000000000E+03 0. -1.
     100001    1    1    2    0    0  0.11787617153E+04  0.58516462110E+04 -0.25682887669E+04  0.65000000000E+04  0.15050000000E+03 0. -1.
     100001    1    1    2    0    0 -0.11787617153E+04 -0.58516462110E+04  0.25682887669E+04  0.65000000000E+04  0.15050000000E+03 0.  1.
</event>
<event>
 4    1  0.4630618E-004  0.6500000E+04  0.7818608E-02  0.7223770E-01
         52   -1    0    0    0    0  0.00000000000E+00  0.00000000000E+00  0.64930732323E+04  0.65000000000E+04  0.30000000000E+03 0.  1.
        -52   -1    0    0    0    0 -0.00000000000E+00 -0.00000000000E+00 -0.64930732323E+04  0.65000000000E+04  0.30000000000E+03 0. -1.
     100001    1    1    2    0    0 -0.47987103175E+03  0.19746536537E+03 -0.64775057678E+04  0.65000000000E+04  0.15050000000E+03 0. -1.
     100001    1    1    2    0    0  0.47987103175E+03 -0.19746536537E+03  0.64775057678E+04  0.65000000000E+04  0.15050000000E+03 0.  1.
</event>
<event>
 4    1  0.4630618E-004  0.6500000E+04  0.7818608E-02  0.7223770E-01
         52   -1    0    0    0    0  0.00000000000E+00  0.00000000000E+00  0.64930732323E+04  0.65000000000E+04  0.30000000000E+03 0. -1.
        -52   -1    0    0    0    0 -0.00000000000E+00 -0.00000000000E+00 -0.64930732323E+04  0.65000000000E+04  0.30000000000E+03 0. -1.
     100001    1    1    2    0    0  0.55558215778E+03 -0.93965344913E+03  0.64059136438E+04  0.65000000000E+04  0.15050000000E+03 0. -1.
     100001    1    1    2    0    0 -0.55558215778E+03  0.93965344913E+03 -0.64059136438E+04  0.65000000000E+04  0.15050000000E+03 0. -1.
</event>
<event>
 4    1  0.4630618E-004  0.6500000E+04  0.7818608E-02  0.7223770E-01
         52   -1    0    0    0    0  0.00000000000E+00  0.00000000000E+00  0.64930732323E+04  0.65000000000E+04  0.30000000000E+03 0.  1.
        -52   -1    0    0    0    0 -0.00000000000E+00 -0.00000000000E+00 -0.64930732323E+04  0.65000000000E+04  0.30000000000E+03 0. -1.
     100001    1    1    2    0    0  0.49901331547E+03 -0.71697893796E+03 -0.64392760978E+04  0.65000000000E+04  0.15050000000E+03 0. -1.
     100001    1    1    2    0    0 -0.49901331547E+03  0.71697893796E+03  0.64392760978E+04  0.65000000000E+04  0.15050000000E+03 0.  1.
</event>
<event>
 4    1  0.4630618E-004  0.6500000E+04  0.7818608E-02  0.7223770E-01
         52   -1    0    0    0    0  0.00000000000E+00  0.00000000000E+00  0.64930732323E+04  0.65000000000E+04  0.30000000000E+03 0.  1.
        -52   -1    0    0    0    0 -0.00000000000E+00 -0.00000000000E+00 -0.64930732323E+04  0.65000000000E+04  0.30000000000E+03 0. -1.
     100001    1    1    2    0    0 -0.94336221145E+03 -0.10611439460E+03  0.64285423871E+04  0.65000000000E+04  0.15050000000E+03 0.  1.
     100001    1    1    2    0    0  0.94336221145E+03  0.10611439460E+03 -0.64285423871E+04  0.65000000000E+04  0.15050000000E+03 0. -1.
</event>
<event>
 4    1  0.4630618E-004  0.6500000E+04  0.7818608E-02  0.7223770E-01
         52   -1    0    0    0    0  0.00000000000E+00  0.00000000000E+00  0.64930732323E+04  0.65000000000E+04  0.30000000000E+03 0. -1.
        -52   -1    0    0    0    0 -0.00000000000E+00 -0.00000000000E+00 -0.64930732323E+04  0.65000000000E+04  0.30000000000E+03 0.  1.
     100001    1    1    2    0    0  0.49031323419E+02  0.26853422028E+04 -0.59172529888E+04  0.65000000000E+04  0.15050000000E+03 0.  1.
     100001    1    1    2    0    0 -0.49031323419E+02 -0.26853422028E+04  0.59172529888E+04  0.65000000000E+04  0.15050000000E+03 0. -1.
</event>
<event>
 4    1  0.4630618E-004  0.6500000E+04  0.7818608E-02  0.7223770E-01
         52   -1    0    0    0    0  0.00000000000E+00  0.00000000000E+00  0.64930732323E+04  0.65000000000E+04  0.30000000000E+03 0. -1.
        -52   -1    0    0    0    0 -0.00000000000E+00 -0.00000000000E+00 -0.64930732323E+04  0.65000000000E+04  0.30000000000E+03 0.  1.
     100001    1    1    2    0    0  0.44842249780E+03  0.80268459269E+03 -0.64328815051E+04  0.65000000000E+04  0.15050000000E+03 0.  1.
     100001    1    1    2    0    0 -0.44842249780E+03 -0.80268459269E+03  0.64328815051E+04  0.65000000000E+04  0.15050000000E+03 0. -1.
</event>
<event>
 4    1  0.4630618E-004  0.6500000E+04  0.7818608E-02  0.7223770E-01
         52   -1    0    0    0    0  0.00000000000E+00  0.00000000000E+00  0.64930732323E+04  0.65000000000E+04  0.30000000000E+03 0. -1.
        -52   -1    0    0    0    0 -0.00000000000E+00 -0.00000000000E+00 -0.64930732323E+04  0.65000000000E+04  0.30000000000E+03 0.  1.
     100001    1    1    2    0    0  0.40616146457E+03  0.36183656264E+03  0.64754503254E+04  0.65000000000E+04  0.15050000000E+03 0. -1.
     100001    1    1    2    0    0 -0.40616146457E+03 -0.36183656264E+03 -0.64754503254E+04  0.65000000000E+04  0.15050000000E+03 0.  1.
</event>
<event>
 4    1  0.4630618E-004  0.6500000E+04  0.7818608E-02  0.7223770E-01
         52   -1    0    0    0    0  0.00000000000E+00  0.00000000000E+00  0.64930732323E+04  0.65000000000E+04  0.30000000000E+03 0. -1.
        -52   -1    0    0    0    0 -0.00000000000E+00 -0.00000000000E+00 -0.64930732323E+04  0.65000000000E+04  0.30000000000E+03 0.  1.
     100001    1    1    2    0    0 -0.91520804995E+02 -0.14780243277E+04  0.63272756996E+04  0.65000000000E+04  0.15050000000E+03 0. -1.
     100001    1    1    2    0    0  0.91520804995E+02  0.14780243277E+04 -0.63272756996E+04  0.65000000000E+04  0.15050000000E+03 0.  1.
</event>
<event>
 4    1  0.4630618E-004  0.6500000E+04  0.7818608E-02  0.7223770E-01
         52   -1    0    0    0    0  0.00000000000E+00  0.00000000000E+00  0.64930732323E+04  0.65000000000E+04  0.30000000000E+03 0.  1.
        -52   -1    0    0    0    0 -0.00000000000E+00 -0.00000000000E+00 -0.64930732323E+04  0.65000000000E+04  0.30000000000E+03 0. -1.
     100001    1    1    2    0    0  0.33079048070E+04 -0.44595338594E+04 -0.33760440304E+04  0.65000000000E+04  0.15050000000E+03 0. -1.
     100001    1    1    2    0    0 -0.33079048070E+04  0.44595338594E+04  0.33760440304E+04  0.65000000000E+04  0.15050000000E+03 0.  1.
</event>
<event>
 4    1  0.4630618E-004  0.6500000E+04  0.7818608E-02  0.7223770E-01
         52   -1    0    0    0    0  0.00000000000E+00  0.00000000000E+00  0.64930732323E+04  0.65000000000E+04  0.30000000000E+03 0. -1.
        -52   -1    0    0    0    0 -0.00000000000E+00 -0.00000000000E+00 -0.64930732323E+04  0.65000000000E+04  0.30000000000E+03 0.  1.
     100001    1    1    2    0    0  0.28486981292E+03 -0.51356422878E+03  0.64716652202E+04  0.65000000000E+04  0.15050000000E+03 0. -1.
     100001    1    1    2    0    0 -0.28486981292E+03  0.51356422878E+03 -0.64716652202E+04  0.65000000000E+04  0.15050000000E+03 0.  1.
</event>
<event>
 4    1  0.4630618E-004  0.6500000E+04  0.7818608E-02  0.7223770E-01
         52   -1    0    0    0    0  0.00000000000E+00  0.00000000000E+00  0.64930732323E+04  0.65000000000E+04  0.30000000000E+03 0. -1.
        -52   -1    0    0    0    0 -0.00000000000E+00 -0.00000000000E+00 -0.64930732323E+04  0.65000000000E+04  0.30000000000E+03 0.  1.
     100001    1    1    2    0    0 -0.96731096167E+03 -0.47584824038E+04 -0.43183914212E+04  0.65000000000E+04  0.15050000000E+03 0.  1.
     100001    1    1    2    0    0  0.96731096167E+03  0.47584824038E+04  0.43183914212E+04  0.65000000000E+04  0.15050000000E+03 0. -1.
</event>
<event>
 4    1  0.5328294E-004  0.6500000E+04  0.7818608E-02  0.7223770E-01
         52   -1    0    0    0    0  0.00000000000E+00  0.00000000000E+00  0.64930732323E+04  0.65000000000E+04  0.30000000000E+03 0. -1.
        -52   -1    0    0    0    0 -0.00000000000E+00 -0.00000000000E+00 -0.64930732323E+04  0.65000000000E+04  0.30000000000E+03 0.  1.
     100001    1    1    2    0    0  0.16179672801E+03  0.11916766282E+03  0.64951497779E+04  0.65000000000E+04  0.15050000000E+03 0. -1.
     100001    1    1    2    0    0 -0.16179672801E+03 -0.11916766282E+03 -0.64951497779E+04  0.65000000000E+04  0.15050000000E+03 0.  1.
</event>
<event>
 4    1  0.4630618E-004  0.6500000E+04  0.7818608E-02  0.7223770E-01
         52   -1    0    0    0    0  0.00000000000E+00  0.00000000000E+00  0.64930732323E+04  0.65000000000E+04  0.30000000000E+03 0.  1.
        -52   -1    0    0    0    0 -0.00000000000E+00 -0.00000000000E+00 -0.64930732323E+04  0.65000000000E+04  0.30000000000E+03 0. -1.
     100001    1    1    2    0    0 -0.64926726407E+03  0.12151625902E+03  0.64645986394E+04  0.65000000000E+04  0.15050000000E+03 0.  1.
     100001    1    1    2    0    0  0.64926726407E+03 -0.12151625902E+03 -0.64645986394E+04  0.65000000000E+04  0.15050000000E+03 0. -1.
</event>
<event>
 4    1  0.4630618E-004  0.6500000E+04  0.7818608E-02  0.7223770E-01
         52   -1    0    0    0    0  0.00000000000E+00  0.00000000000E+00  0.64930732323E+04  0.65000000000E+04  0.30000000000E+03 0. -1.
        -52   -1    0    0    0    0 -0.00000000000E+00 -0.00000000000E+00 -0.64930732323E+04  0.65000000000E+04  0.30000000000E+03 0.  1.
     100001    1    1    2    0    0  0.38437860853E+04 -0.45278930388E+04  0.26364451275E+04  0.65000000000E+04  0.15050000000E+03 0. -1.
     100001    1    1    2    0    0 -0.38437860853E+04  0.45278930388E+04 -0.26364451275E+04  0.65000000000E+04  0.15050000000E+03 0.  1.
</event>
<event>
 4    1  0.4630618E-004  0.6500000E+04  0.7818608E-02  0.7223770E-01
         52   -1    0    0    0    0  0.00000000000E+00  0.00000000000E+00  0.64930732323E+04  0.65000000000E+04  0.30000000000E+03 0. -1.
        -52   -1    0    0    0    0 -0.00000000000E+00 -0.00000000000E+00 -0.64930732323E+04  0.65000000000E+04  0.30000000000E+03 0.  1.
     100001    1    1    2    0    0  0.41759100844E+03 -0.34666831289E+03  0.64755531486E+04  0.65000000000E+04  0.15050000000E+03 0. -1.
     100001    1    1    2    0    0 -0.41759100844E+03  0.34666831289E+03 -0.64755531486E+04  0.65000000000E+04  0.15050000000E+03 0.  1.
</event>
<event>
 4    1  0.4630618E-004  0.6500000E+04  0.7818608E-02  0.7223770E-01
         52   -1    0    0    0    0  0.00000000000E+00  0.00000000000E+00  0.64930732323E+04  0.65000000000E+04  0.30000000000E+03 0. -1.
        -52   -1    0    0    0    0 -0.00000000000E+00 -0.00000000000E+00 -0.64930732323E+04  0.65000000000E+04  0.30000000000E+03 0.  1.
     100001    1    1    2    0    0  0.27414780834E+03 -0.58486568414E+04 -0.28187596351E+04  0.65000000000E+04  0.15050000000E+03 0.  1.
     100001    1    1    2    0    0 -0.27414780834E+03  0.58486568414E+04  0.28187596351E+04  0.65000000000E+04  0.15050000000E+03 0. -1.
</event>
<event>
 4    1  0.4630618E-004  0.6500000E+04  0.7818608E-02  0.7223770E-01
         52   -1    0    0    0    0  0.00000000000E+00  0.00000000000E+00  0.64930732323E+04  0.65000000000E+04  0.30000000000E+03 0.  1.
        -52   -1    0    0    0    0 -0.00000000000E+00 -0.00000000000E+00 -0.64930732323E+04  0.65000000000E+04  0.30000000000E+03 0. -1.
     100001    1    1    2    0    0  0.41354933438E+04  0.85045217822E+03  0.49398153453E+04  0.65000000000E+04  0.15050000000E+03 0.  1.
     100001    1    1    2    0    0 -0.41354933438E+04 -0.85045217822E+03 -0.49398153453E+04  0.65000000000E+04  0.15050000000E+03 0. -1.
</event>
<event>
 4    1  0.4630618E-004  0.6500000E+04  0.7818608E-02  0.7223770E-01
         52   -1    0    0    0    0  0.00000000000E+00  0.00000000000E+00  0.64930732323E+04  0.65000000000E+04  0.30000000000E+03 0. -1.
        -52   -1    0    0    0    0 -0.00000000000E+00 -0.00000000000E+00 -0.64930732323E+04  0.65000000000E+04  0.30000000000E+03 0.  1.
     100001    1    1    2    0    0  0.53535075947E+03  0.58636113369E+03 -0.64495681976E+04  0.65000000000E+04  0.15050000000E+03 0.  1.
     100001    1    1    2    0    0 -0.53535075947E+03 -0.58636113369E+03  0.64495681976E+04  0.65000000000E+04  0.15050000000E+03 0. -1.
</event>
<event>
 4    1  0.4630618E-004  0.6500000E+04  0.7818608E-02  0.7223770E-01
         52   -1    0    0    0    0  0.00000000000E+00  0.00000000000E+00  0.64930732323E+04  0.65000000000E+04  0.30000000000E+03 0. -1.
        -52   -1    0    0    0    0 -0.00000000000E+00 -0.00000000000E+00 -0.64930732323E+04  0.65000000000E+04  0.30000000000E+03 0.  1.
     100001    1    1    2    0    0  0.38493329873E+04 -0.19264339146E+04  0.48681451987E+04  0.65000000000E+04  0.15050000000E+03 0. -1.
     100001    1    1    2    0    0 -0.38493329873E+04  0.19264339146E+04 -0.48681451987E+04  0.65000000000E+04  0.15050000000E+03 0.  1.
</event>
<event>
 4    1  0.4630618E-004  0.6500000E+04  0.7818608E-02  0.7223770E-01
         52   -1    0    0    0    0  0.00000000000E+00  0.00000000000E+00  0.64930732323E+04  0.65000000000E+04  0.30000000000E+03 0. -1.
        -52   -1    0    0    0    0 -0.00000000000E+00 -0.00000000000E+00 -0.64930732323E+04  0.65000000000E+04  0.30000000000E+03 0.  1.
     100001    1    1    2    0    0 -0.19924402623E+04 -0.20542955535E+04  0.58341581509E+04  0.65000000000E+04  0.15050000000E+03 0. -1.
     100001    1    1    2    0    0  0.19924402623E+04  0.20542955535E+04 -0.58341581509E+04  0.65000000000E+04  0.15050000000E+03 0.  1.
</event>
<event>
 4    1  0.4630618E-004  0.6500000E+04  0.7818608E-02  0.7223770E-01
         52   -1    0    0    0    0  0.00000000000E+00  0.00000000000E+00  0.64930732323E+04  0.65000000000E+04  0.30000000000E+03 0. -1.
        -52   -1    0    0    0    0 -0.00000000000E+00 -0.00000000000E+00 -0.64930732323E+04  0.65000000000E+04  0.30000000000E+03 0.  1.
     100001    1    1    2    0    0  0.16786945983E+04  0.58539169626E+03 -0.62503320518E+04  0.65000000000E+04  0.15050000000E+03 0.  1.
     100001    1    1    2    0    0 -0.16786945983E+04 -0.58539169626E+03  0.62503320518E+04  0.65000000000E+04  0.15050000000E+03 0. -1.
</event>
<event>
 4    1  0.4630618E-004  0.6500000E+04  0.7818608E-02  0.7223770E-01
         52   -1    0    0    0    0  0.00000000000E+00  0.00000000000E+00  0.64930732323E+04  0.65000000000E+04  0.30000000000E+03 0. -1.
        -52   -1    0    0    0    0 -0.00000000000E+00 -0.00000000000E+00 -0.64930732323E+04  0.65000000000E+04  0.30000000000E+03 0. -1.
     100001    1    1    2    0    0  0.23389113638E+03  0.40310200223E+03  0.64815240077E+04  0.65000000000E+04  0.15050000000E+03 0. -1.
     100001    1    1    2    0    0 -0.23389113638E+03 -0.40310200223E+03 -0.64815240077E+04  0.65000000000E+04  0.15050000000E+03 0. -1.
</event>
<event>
 4    1  0.4630618E-004  0.6500000E+04  0.7818608E-02  0.7223770E-01
         52   -1    0    0    0    0  0.00000000000E+00  0.00000000000E+00  0.64930732323E+04  0.65000000000E+04  0.30000000000E+03 0. -1.
        -52   -1    0    0    0    0 -0.00000000000E+00 -0.00000000000E+00 -0.64930732323E+04  0.65000000000E+04  0.30000000000E+03 0.  1.
     100001    1    1    2    0    0  0.61062815989E+04  0.11450769770E+04 -0.19051177134E+04  0.65000000000E+04  0.15050000000E+03 0.  1.
     100001    1    1    2    0    0 -0.61062815989E+04 -0.11450769770E+04  0.19051177134E+04  0.65000000000E+04  0.15050000000E+03 0. -1.
</event>
<event>
 4    1  0.4630618E-004  0.6500000E+04  0.7818608E-02  0.7223770E-01
         52   -1    0    0    0    0  0.00000000000E+00  0.00000000000E+00  0.64930732323E+04  0.65000000000E+04  0.30000000000E+03 0. -1.
        -52   -1    0    0    0    0 -0.00000000000E+00 -0.00000000000E+00 -0.64930732323E+04  0.65000000000E+04  0.30000000000E+03 0.  1.
     100001    1    1    2    0    0  0.40689472973E+03  0.72456840468E+03 -0.64449039602E+04  0.65000000000E+04  0.15050000000E+03 0.  1.
     100001    1    1    2    0    0 -0.40689472973E+03 -0.72456840468E+03  0.64449039602E+04  0.65000000000E+04  0.15050000000E+03 0. -1.
</event>
<event>
 4    1  0.4630618E-004  0.6500000E+04  0.7818608E-02  0.7223770E-01
         52   -1    0    0    0    0  0.00000000000E+00  0.00000000000E+00  0.64930732323E+04  0.65000000000E+04  0.30000000000E+03 0.  1.
        -52   -1    0    0    0    0 -0.00000000000E+00 -0.00000000000E+00 -0.64930732323E+04  0.65000000000E+04  0.30000000000E+03 0. -1.
     100001    1    1    2    0    0  0.45259695794E+04  0.19409616973E+04 -0.42397661263E+04  0.65000000000E+04  0.15050000000E+03 0. -1.
     100001    1    1    2    0    0 -0.45259695794E+04 -0.19409616973E+04  0.42397661263E+04  0.65000000000E+04  0.15050000000E+03 0.  1.
</event>
<event>
 4    1  0.5088866E-004  0.6500000E+04  0.7818608E-02  0.7223770E-01
         52   -1    0    0    0    0  0.00000000000E+00  0.00000000000E+00  0.64930732323E+04  0.65000000000E+04  0.30000000000E+03 0. -1.
        -52   -1    0    0    0    0 -0.00000000000E+00 -0.00000000000E+00 -0.64930732323E+04  0.65000000000E+04  0.30000000000E+03 0. -1.
     100001    1    1    2    0    0  0.23329171060E+02 -0.18237869058E+03  0.64956557416E+04  0.65000000000E+04  0.15050000000E+03 0. -1.
     100001    1    1    2    0    0 -0.23329171060E+02  0.18237869058E+03 -0.64956557416E+04  0.65000000000E+04  0.15050000000E+03 0. -1.
</event>
<event>
 4    1  0.4630618E-004  0.6500000E+04  0.7818608E-02  0.7223770E-01
         52   -1    0    0    0    0  0.00000000000E+00  0.00000000000E+00  0.64930732323E+04  0.65000000000E+04  0.30000000000E+03 0. -1.
        -52   -1    0    0    0    0 -0.00000000000E+00 -0.00000000000E+00 -0.64930732323E+04  0.65000000000E+04  0.30000000000E+03 0.  1.
     100001    1    1    2    0    0 -0.14975243743E+04 -0.30697439063E+04  0.55282404839E+04  0.65000000000E+04  0.15050000000E+03 0. -1.
     100001    1    1    2    0    0  0.14975243743E+04  0.30697439063E+04 -0.55282404839E+04  0.65000000000E+04  0.15050000000E+03 0.  1.
</event>
<event>
 4    1  0.4630618E-004  0.6500000E+04  0.7818608E-02  0.7223770E-01
         52   -1    0    0    0    0  0.00000000000E+00  0.00000000000E+00  0.64930732323E+04  0.65000000000E+04  0.30000000000E+03 0. -1.
        -52   -1    0    0    0    0 -0.00000000000E+00 -0.00000000000E+00 -0.64930732323E+04  0.65000000000E+04  0.30000000000E+03 0. -1.
     100001    1    1    2    0    0  0.21435849128E+03  0.10436091864E+03 -0.64938824278E+04  0.65000000000E+04  0.15050000000E+03 0. -1.
     100001    1    1    2    0    0 -0.21435849128E+03 -0.10436091864E+03  0.64938824278E+04  0.65000000000E+04  0.15050000000E+03 0. -1.
</event>
<event>
 4    1  0.4630618E-004  0.6500000E+04  0.7818608E-02  0.7223770E-01
         52   -1    0    0    0    0  0.00000000000E+00  0.00000000000E+00  0.64930732323E+04  0.65000000000E+04  0.30000000000E+03 0. -1.
        -52   -1    0    0    0    0 -0.00000000000E+00 -0.00000000000E+00 -0.64930732323E+04  0.65000000000E+04  0.30000000000E+03 0.  1.
     100001    1    1    2    0    0 -0.21956245954E+04  0.11856599882E+04  0.60000660645E+04  0.65000000000E+04  0.15050000000E+03 0. -1.
     100001    1    1    2    0    0  0.21956245954E+04 -0.11856599882E+04 -0.60000660645E+04  0.65000000000E+04  0.15050000000E+03 0.  1.
</event>
<event>
 4    1  0.4630618E-004  0.6500000E+04  0.7818608E-02  0.7223770E-01
         52   -1    0    0    0    0  0.00000000000E+00  0.00000000000E+00  0.64930732323E+04  0.65000000000E+04  0.30000000000E+03 0.  1.
        -52   -1    0    0    0    0 -0.00000000000E+00 -0.00000000000E+00 -0.64930732323E+04  0.65000000000E+04  0.30000000000E+03 0. -1.
     100001    1    1    2    0    0  0.69160420065E+02 -0.14863504095E+04  0.63256089862E+04  0.65000000000E+04  0.15050000000E+03 0.  1.
     100001    1    1    2    0    0 -0.69160420065E+02  0.14863504095E+04 -0.63256089862E+04  0.65000000000E+04  0.15050000000E+03 0. -1.
</event>
<event>
 4    1  0.4630618E-004  0.6500000E+04  0.7818608E-02  0.7223770E-01
         52   -1    0    0    0    0  0.00000000000E+00  0.00000000000E+00  0.64930732323E+04  0.65000000000E+04  0.30000000000E+03 0. -1.
        -52   -1    0    0    0    0 -0.00000000000E+00 -0.00000000000E+00 -0.64930732323E+04  0.65000000000E+04  0.30000000000E+03 0.  1.
     100001    1    1    2    0    0  0.19101338128E+04 -0.23088489496E+04 -0.57661039788E+04  0.65000000000E+04  0.15050000000E+03 0.  1.
     100001    1    1    2    0    0 -0.19101338128E+04  0.23088489496E+04  0.57661039788E+04  0.65000000000E+04  0.15050000000E+03 0. -1.
</event>
<event>
 4    1  0.4630618E-004  0.6500000E+04  0.7818608E-02  0.7223770E-01
         52   -1    0    0    0    0  0.00000000000E+00  0.00000000000E+00  0.64930732323E+04  0.65000000000E+04  0.30000000000E+03 0. -1.
        -52   -1    0    0    0    0 -0.00000000000E+00 -0.00000000000E+00 -0.64930732323E+04  0.65000000000E+04  0.30000000000E+03 0.  1.
     100001    1    1    2    0    0  0.26926653067E+04 -0.11520710065E+04 -0.58008306036E+04  0.65000000000E+04  0.15050000000E+03 0. -1.
     100001    1    1    2    0    0 -0.26926653067E+04  0.11520710065E+04  0.58008306036E+04  0.65000000000E+04  0.15050000000E+03 0.  1.
</event>
<event>
 4    1  0.4630618E-004  0.6500000E+04  0.7818608E-02  0.7223770E-01
         52   -1    0    0    0    0  0.00000000000E+00  0.00000000000E+00  0.64930732323E+04  0.65000000000E+04  0.30000000000E+03 0. -1.
        -52   -1    0    0    0    0 -0.00000000000E+00 -0.00000000000E+00 -0.64930732323E+04  0.65000000000E+04  0.30000000000E+03 0.  1.
     100001    1    1    2    0    0 -0.69653584434E+03 -0.30863187444E+03  0.64534435717E+04  0.65000000000E+04  0.15050000000E+03 0. -1.
     100001    1    1    2    0    0  0.69653584434E+03  0.30863187444E+03 -0.64534435717E+04  0.65000000000E+04  0.15050000000E+03 0.  1.
</event>
<event>
 4    1  0.5247387E-004  0.6500000E+04  0.7818608E-02  0.7223770E-01
         52   -1    0    0    0    0  0.00000000000E+00  0.00000000000E+00  0.64930732323E+04  0.65000000000E+04  0.30000000000E+03 0. -1.
        -52   -1    0    0    0    0 -0.00000000000E+00 -0.00000000000E+00 -0.64930732323E+04  0.65000000000E+04  0.30000000000E+03 0. -1.
     100001    1    1    2    0    0  0.20558955723E+03 -0.87158391225E+02 -0.64944196122E+04  0.65000000000E+04  0.15050000000E+03 0. -1.
     100001    1    1    2    0    0 -0.20558955723E+03  0.87158391225E+02  0.64944196122E+04  0.65000000000E+04  0.15050000000E+03 0. -1.
</event>
<event>
 4    1  0.4630618E-004  0.6500000E+04  0.7818608E-02  0.7223770E-01
         52   -1    0    0    0    0  0.00000000000E+00  0.00000000000E+00  0.64930732323E+04  0.65000000000E+04  0.30000000000E+03 0. -1.
        -52   -1    0    0    0    0 -0.00000000000E+00 -0.00000000000E+00 -0.64930732323E+04  0.65000000000E+04  0.30000000000E+03 0. -1.
     100001    1    1    2    0    0  0.23155294950E+03 -0.43136291652E+03 -0.64797885009E+04  0.65000000000E+04  0.15050000000E+03 0. -1.
     100001    1    1    2    0    0 -0.23155294950E+03  0.43136291652E+03  0.64797885009E+04  0.65000000000E+04  0.15050000000E+03 0. -1.
</event>
<event>
 4    1  0.4630618E-004  0.6500000E+04  0.7818608E-02  0.7223770E-01
         52   -1    0    0    0    0  0.00000000000E+00  0.00000000000E+00  0.64930732323E+04  0.65000000000E+04  0.30000000000E+03 0. -1.
        -52   -1    0    0    0    0 -0.00000000000E+00 -0.00000000000E+00 -0.64930732323E+04  0.65000000000E+04  0.30000000000E+03 0.  1.
     100001    1    1    2    0    0  0.25616428959E+04 -0.59717632503E+04 -0.58130081453E+02  0.65000000000E+04  0.15050000000E+03 0.  1.
     100001    1    1    2    0    0 -0.25616428959E+04  0.59717632503E+04  0.58130081453E+02  0.65000000000E+04  0.15050000000E+03 0. -1.
</event>
<event>
 4    1  0.4630618E-004  0.6500000E+04  0.7818608E-02  0.7223770E-01
         52   -1    0    0    0    0  0.00000000000E+00  0.00000000000E+00  0.64930732323E+04  0.65000000000E+04  0.30000000000E+03 0. -1.
        -52   -1    0    0    0    0 -0.00000000000E+00 -0.00000000000E+00 -0.64930732323E+04  0.65000000000E+04  0.30000000000E+03 0.  1.
     100001    1    1    2    0    0  0.47644886144E+04 -0.16505797026E+04 -0.40990955878E+04  0.65000000000E+04  0.15050000000E+03 0.  1.
     100001    1    1    2    0    0 -0.47644886144E+04  0.16505797026E+04  0.40990955878E+04  0.65000000000E+04  0.15050000000E+03 0. -1.
</event>
<event>
 4    1  0.5311510E-004  0.6500000E+04  0.7818608E-02  0.7223770E-01
         52   -1    0    0    0    0  0.00000000000E+00  0.00000000000E+00  0.64930732323E+04  0.65000000000E+04  0.30000000000E+03 0. -1.
        -52   -1    0    0    0    0 -0.00000000000E+00 -0.00000000000E+00 -0.64930732323E+04  0.65000000000E+04  0.30000000000E+03 0. -1.
     100001    1    1    2    0    0  0.11853671122E+03  0.15917878454E+03 -0.64952260094E+04  0.65000000000E+04  0.15050000000E+03 0. -1.
     100001    1    1    2    0    0 -0.11853671122E+03 -0.15917878454E+03  0.64952260094E+04  0.65000000000E+04  0.15050000000E+03 0. -1.
</event>
<event>
 4    1  0.4630618E-004  0.6500000E+04  0.7818608E-02  0.7223770E-01
         52   -1    0    0    0    0  0.00000000000E+00  0.00000000000E+00  0.64930732323E+04  0.65000000000E+04  0.30000000000E+03 0. -1.
        -52   -1    0    0    0    0 -0.00000000000E+00 -0.00000000000E+00 -0.64930732323E+04  0.65000000000E+04  0.30000000000E+03 0.  1.
     100001    1    1    2    0    0  0.21352212928E+04  0.12712884189E+03 -0.61361240240E+04  0.65000000000E+04  0.15050000000E+03 0.  1.
     100001    1    1    2    0    0 -0.21352212928E+04 -0.12712884189E+03  0.61361240240E+04  0.65000000000E+04  0.15050000000E+03 0. -1.
</event>
<event>
 4    1  0.4630618E-004  0.6500000E+04  0.7818608E-02  0.7223770E-01
         52   -1    0    0    0    0  0.00000000000E+00  0.00000000000E+00  0.64930732323E+04  0.65000000000E+04  0.30000000000E+03 0.  1.
        -52   -1    0    0    0    0 -0.00000000000E+00 -0.00000000000E+00 -0.64930732323E+04  0.65000000000E+04  0.30000000000E+03 0. -1.
     100001    1    1    2    0    0 -0.23210387747E+04 -0.50272481399E+03  0.60487516496E+04  0.65000000000E+04  0.15050000000E+03 0.  1.
     100001    1    1    2    0    0  0.23210387747E+04  0.50272481399E+03 -0.60487516496E+04  0.65000000000E+04  0.15050000000E+03 0. -1.
</event>
<event>
 4    1  0.4630618E-004  0.6500000E+04  0.7818608E-02  0.7223770E-01
         52   -1    0    0    0    0  0.00000000000E+00  0.00000000000E+00  0.64930732323E+04  0.65000000000E+04  0.30000000000E+03 0. -1.
        -52   -1    0    0    0    0 -0.00000000000E+00 -0.00000000000E+00 -0.64930732323E+04  0.65000000000E+04  0.30000000000E+03 0.  1.
     100001    1    1    2    0    0 -0.15915882721E+02 -0.43486839961E+03 -0.64836707126E+04  0.65000000000E+04  0.15050000000E+03 0.  1.
     100001    1    1    2    0    0  0.15915882721E+02  0.43486839961E+03  0.64836707126E+04  0.65000000000E+04  0.15050000000E+03 0. -1.
</event>
<event>
 4    1  0.4630618E-004  0.6500000E+04  0.7818608E-02  0.7223770E-01
         52   -1    0    0    0    0  0.00000000000E+00  0.00000000000E+00  0.64930732323E+04  0.65000000000E+04  0.30000000000E+03 0. -1.
        -52   -1    0    0    0    0 -0.00000000000E+00 -0.00000000000E+00 -0.64930732323E+04  0.65000000000E+04  0.30000000000E+03 0.  1.
     100001    1    1    2    0    0 -0.10929626316E+03 -0.53847845874E+03 -0.64749861024E+04  0.65000000000E+04  0.15050000000E+03 0.  1.
     100001    1    1    2    0    0  0.10929626316E+03  0.53847845874E+03  0.64749861024E+04  0.65000000000E+04  0.15050000000E+03 0. -1.
</event>
<event>
 4    1  0.4630618E-004  0.6500000E+04  0.7818608E-02  0.7223770E-01
         52   -1    0    0    0    0  0.00000000000E+00  0.00000000000E+00  0.64930732323E+04  0.65000000000E+04  0.30000000000E+03 0.  1.
        -52   -1    0    0    0    0 -0.00000000000E+00 -0.00000000000E+00 -0.64930732323E+04  0.65000000000E+04  0.30000000000E+03 0. -1.
     100001    1    1    2    0    0 -0.59149304631E+04  0.26900580897E+04 -0.67341224903E+02  0.65000000000E+04  0.15050000000E+03 0.  1.
     100001    1    1    2    0    0  0.59149304631E+04 -0.26900580897E+04  0.67341224903E+02  0.65000000000E+04  0.15050000000E+03 0. -1.
</event>
<event>
 4    1  0.5539531E-004  0.6500000E+04  0.7818608E-02  0.7223770E-01
         52   -1    0    0    0    0  0.00000000000E+00  0.00000000000E+00  0.64930732323E+04  0.65000000000E+04  0.30000000000E+03 0.  1.
        -52   -1    0    0    0    0 -0.00000000000E+00 -0.00000000000E+00 -0.64930732323E+04  0.65000000000E+04  0.30000000000E+03 0.  1.
     100001    1    1    2    0    0 -0.74984349736E+01 -0.18543113447E+03 -0.64956068860E+04  0.65000000000E+04  0.15050000000E+03 0.  1.
     100001    1    1    2    0    0  0.74984349736E+01  0.18543113447E+03  0.64956068860E+04  0.65000000000E+04  0.15050000000E+03 0.  1.
</event>
<event>
 4    1  0.4630618E-004  0.6500000E+04  0.7818608E-02  0.7223770E-01
         52   -1    0    0    0    0  0.00000000000E+00  0.00000000000E+00  0.64930732323E+04  0.65000000000E+04  0.30000000000E+03 0.  1.
        -52   -1    0    0    0    0 -0.00000000000E+00 -0.00000000000E+00 -0.64930732323E+04  0.65000000000E+04  0.30000000000E+03 0.  1.
     100001    1    1    2    0    0 -0.78853431971E+01 -0.22662921750E+02  0.64982131362E+04  0.65000000000E+04  0.15050000000E+03 0.  1.
     100001    1    1    2    0    0  0.78853431971E+01  0.22662921750E+02 -0.64982131362E+04  0.65000000000E+04  0.15050000000E+03 0.  1.
</event>
<event>
 4    1  0.4630618E-004  0.6500000E+04  0.7818608E-02  0.7223770E-01
         52   -1    0    0    0    0  0.00000000000E+00  0.00000000000E+00  0.64930732323E+04  0.65000000000E+04  0.30000000000E+03 0. -1.
        -52   -1    0    0    0    0 -0.00000000000E+00 -0.00000000000E+00 -0.64930732323E+04  0.65000000000E+04  0.30000000000E+03 0.  1.
     100001    1    1    2    0    0 -0.25442662035E+03  0.20682230203E+03  0.64899800755E+04  0.65000000000E+04  0.15050000000E+03 0. -1.
     100001    1    1    2    0    0  0.25442662035E+03 -0.20682230203E+03 -0.64899800755E+04  0.65000000000E+04  0.15050000000E+03 0.  1.
</event>
<event>
 4    1  0.4630618E-004  0.6500000E+04  0.7818608E-02  0.7223770E-01
         52   -1    0    0    0    0  0.00000000000E+00  0.00000000000E+00  0.64930732323E+04  0.65000000000E+04  0.30000000000E+03 0.  1.
        -52   -1    0    0    0    0 -0.00000000000E+00 -0.00000000000E+00 -0.64930732323E+04  0.65000000000E+04  0.30000000000E+03 0. -1.
     100001    1    1    2    0    0 -0.34235214190E+04  0.11022074499E+04 -0.54122074592E+04  0.65000000000E+04  0.15050000000E+03 0. -1.
     100001    1    1    2    0    0  0.34235214190E+04 -0.11022074499E+04  0.54122074592E+04  0.65000000000E+04  0.15050000000E+03 0.  1.
</event>
<event>
 4    1  0.4630618E-004  0.6500000E+04  0.7818608E-02  0.7223770E-01
         52   -1    0    0    0    0  0.00000000000E+00  0.00000000000E+00  0.64930732323E+04  0.65000000000E+04  0.30000000000E+03 0.  1.
        -52   -1    0    0    0    0 -0.00000000000E+00 -0.00000000000E+00 -0.64930732323E+04  0.65000000000E+04  0.30000000000E+03 0. -1.
     100001    1    1    2    0    0 -0.92404056531E+03 -0.80204370632E+02 -0.64317234115E+04  0.65000000000E+04  0.15050000000E+03 0. -1.
     100001    1    1    2    0    0  0.92404056531E+03  0.80204370632E+02  0.64317234115E+04  0.65000000000E+04  0.15050000000E+03 0.  1.
</event>
<event>
 4    1  0.4630618E-004  0.6500000E+04  0.7818608E-02  0.7223770E-01
         52   -1    0    0    0    0  0.00000000000E+00  0.00000000000E+00  0.64930732323E+04  0.65000000000E+04  0.30000000000E+03 0.  1.
        -52   -1    0    0    0    0 -0.00000000000E+00 -0.00000000000E+00 -0.64930732323E+04  0.65000000000E+04  0.30000000000E+03 0.  1.
     100001    1    1    2    0    0  0.30818400879E+02  0.10145288570E+03  0.64973923453E+04  0.65000000000E+04  0.15050000000E+03 0.  1.
     100001    1    1    2    0    0 -0.30818400879E+02 -0.10145288570E+03 -0.64973923453E+04  0.65000000000E+04  0.15050000000E+03 0.  1.
</event>
<event>
 4    1  0.4630618E-004  0.6500000E+04  0.7818608E-02  0.7223770E-01
         52   -1    0    0    0    0  0.00000000000E+00  0.00000000000E+00  0.64930732323E+04  0.65000000000E+04  0.30000000000E+03 0. -1.
        -52   -1    0    0    0    0 -0.00000000000E+00 -0.00000000000E+00 -0.64930732323E+04  0.65000000000E+04  0.30000000000E+03 0.  1.
     100001    1    1    2    0    0 -0.44869886061E+04  0.60462591651E+03  0.46614064937E+04  0.65000000000E+04  0.15050000000E+03 0. -1.
     100001    1    1    2    0    0  0.44869886061E+04 -0.60462591651E+03 -0.46614064937E+04  0.65000000000E+04  0.15050000000E+03 0.  1.
</event>
<event>
 4    1  0.4630618E-004  0.6500000E+04  0.7818608E-02  0.7223770E-01
         52   -1    0    0    0    0  0.00000000000E+00  0.00000000000E+00  0.64930732323E+04  0.65000000000E+04  0.30000000000E+03 0.  1.
        -52   -1    0    0    0    0 -0.00000000000E+00 -0.00000000000E+00 -0.64930732323E+04  0.65000000000E+04  0.30000000000E+03 0. -1.
     100001    1    1    2    0    0  0.13692585432E+04  0.19858320040E+04 -0.60339830994E+04  0.65000000000E+04  0.15050000000E+03 0. -1.
     100001    1    1    2    0    0 -0.13692585432E+04 -0.19858320040E+04  0.60339830994E+04  0.65000000000E+04  0.15050000000E+03 0.  1.
</event>
<event>
 4    1  0.5618316E-004  0.6500000E+04  0.7818608E-02  0.7223770E-01
         52   -1    0    0    0    0  0.00000000000E+00  0.00000000000E+00  0.64930732323E+04  0.65000000000E+04  0.30000000000E+03 0.  1.
        -52   -1    0    0    0    0 -0.00000000000E+00 -0.00000000000E+00 -0.64930732323E+04  0.65000000000E+04  0.30000000000E+03 0.  1.
     100001    1    1    2    0    0  0.17987837500E+03 -0.50570144349E+01 -0.64957653858E+04  0.65000000000E+04  0.15050000000E+03 0.  1.
     100001    1    1    2    0    0 -0.17987837500E+03  0.50570144349E+01  0.64957653858E+04  0.65000000000E+04  0.15050000000E+03 0.  1.
</event>
<event>
 4    1  0.4630618E-004  0.6500000E+04  0.7818608E-02  0.7223770E-01
         52   -1    0    0    0    0  0.00000000000E+00  0.00000000000E+00  0.64930732323E+04  0.65000000000E+04  0.30000000000E+03 0. -1.
        -52   -1    0    0    0    0 -0.00000000000E+00 -0.00000000000E+00 -0.64930732323E+04  0.65000000000E+04  0.30000000000E+03 0.  1.
     100001    1    1    2    0    0 -0.38867402215E+03  0.16126028058E+02 -0.64866032872E+04  0.65000000000E+04  0.15050000000E+03 0.  1.
     100001    1    1    2    0    0  0.38867402215E+03 -0.16126028058E+02  0.64866032872E+04  0.65000000000E+04  0.15050000000E+03 0. -1.
</event>
<event>
 4    1  0.4630618E-004  0.6500000E+04  0.7818608E-02  0.7223770E-01
         52   -1    0    0    0    0  0.00000000000E+00  0.00000000000E+00  0.64930732323E+04  0.65000000000E+04  0.30000000000E+03 0. -1.
        -52   -1    0    0    0    0 -0.00000000000E+00 -0.00000000000E+00 -0.64930732323E+04  0.65000000000E+04  0.30000000000E+03 0.  1.
     100001    1    1    2    0    0 -0.35130835142E+03  0.25362899944E+04 -0.59725342407E+04  0.65000000000E+04  0.15050000000E+03 0.  1.
     100001    1    1    2    0    0  0.35130835142E+03 -0.25362899944E+04  0.59725342407E+04  0.65000000000E+04  0.15050000000E+03 0. -1.
</event>
<event>
 4    1  0.4630618E-004  0.6500000E+04  0.7818608E-02  0.7223770E-01
         52   -1    0    0    0    0  0.00000000000E+00  0.00000000000E+00  0.64930732323E+04  0.65000000000E+04  0.30000000000E+03 0. -1.
        -52   -1    0    0    0    0 -0.00000000000E+00 -0.00000000000E+00 -0.64930732323E+04  0.65000000000E+04  0.30000000000E+03 0. -1.
     100001    1    1    2    0    0  0.11292355600E+04 -0.43559685707E+03  0.63845463565E+04  0.65000000000E+04  0.15050000000E+03 0. -1.
     100001    1    1    2    0    0 -0.11292355600E+04  0.43559685707E+03 -0.63845463565E+04  0.65000000000E+04  0.15050000000E+03 0. -1.
</event>
<event>
 4    1  0.4630618E-004  0.6500000E+04  0.7818608E-02  0.7223770E-01
         52   -1    0    0    0    0  0.00000000000E+00  0.00000000000E+00  0.64930732323E+04  0.65000000000E+04  0.30000000000E+03 0.  1.
        -52   -1    0    0    0    0 -0.00000000000E+00 -0.00000000000E+00 -0.64930732323E+04  0.65000000000E+04  0.30000000000E+03 0. -1.
     100001    1    1    2    0    0  0.42719737653E+04  0.21406331652E+04  0.44040072151E+04  0.65000000000E+04  0.15050000000E+03 0.  1.
     100001    1    1    2    0    0 -0.42719737653E+04 -0.21406331652E+04 -0.44040072151E+04  0.65000000000E+04  0.15050000000E+03 0. -1.
</event>
<event>
 4    1  0.4630618E-004  0.6500000E+04  0.7818608E-02  0.7223770E-01
         52   -1    0    0    0    0  0.00000000000E+00  0.00000000000E+00  0.64930732323E+04  0.65000000000E+04  0.30000000000E+03 0.  1.
        -52   -1    0    0    0    0 -0.00000000000E+00 -0.00000000000E+00 -0.64930732323E+04  0.65000000000E+04  0.30000000000E+03 0. -1.
     100001    1    1    2    0    0 -0.45855621513E+04  0.11293010556E+03  0.46029573426E+04  0.65000000000E+04  0.15050000000E+03 0.  1.
     100001    1    1    2    0    0  0.45855621513E+04 -0.11293010556E+03 -0.46029573426E+04  0.65000000000E+04  0.15050000000E+03 0. -1.
</event>
<event>
 4    1  0.4630618E-004  0.6500000E+04  0.7818608E-02  0.7223770E-01
         52   -1    0    0    0    0  0.00000000000E+00  0.00000000000E+00  0.64930732323E+04  0.65000000000E+04  0.30000000000E+03 0.  1.
        -52   -1    0    0    0    0 -0.00000000000E+00 -0.00000000000E+00 -0.64930732323E+04  0.65000000000E+04  0.30000000000E+03 0. -1.
     100001    1    1    2    0    0  0.17592447635E+04  0.10644980324E+04 -0.61643532954E+04  0.65000000000E+04  0.15050000000E+03 0. -1.
     100001    1    1    2    0    0 -0.17592447635E+04 -0.10644980324E+04  0.61643532954E+04  0.65000000000E+04  0.15050000000E+03 0.  1.
</event>
<event>
 4    1  0.4630618E-004  0.6500000E+04  0.7818608E-02  0.7223770E-01
         52   -1    0    0    0    0  0.00000000000E+00  0.00000000000E+00  0.64930732323E+04  0.65000000000E+04  0.30000000000E+03 0. -1.
        -52   -1    0    0    0    0 -0.00000000000E+00 -0.00000000000E+00 -0.64930732323E+04  0.65000000000E+04  0.30000000000E+03 0. -1.
     100001    1    1    2    0    0 -0.16493218331E+03  0.30392920885E+03 -0.64890503281E+04  0.65000000000E+04  0.15050000000E+03 0. -1.
     100001    1    1    2    0    0  0.16493218331E+03 -0.30392920885E+03  0.64890503281E+04  0.65000000000E+04  0.15050000000E+03 0. -1.
</event>
<event>
 4    1  0.4630618E-004  0.6500000E+04  0.7818608E-02  0.7223770E-01
         52   -1    0    0    0    0  0.00000000000E+00  0.00000000000E+00  0.64930732323E+04  0.65000000000E+04  0.30000000000E+03 0.  1.
        -52   -1    0    0    0    0 -0.00000000000E+00 -0.00000000000E+00 -0.64930732323E+04  0.65000000000E+04  0.30000000000E+03 0.  1.
     100001    1    1    2    0    0  0.14036406542E+03  0.10507948360E+02  0.64967328144E+04  0.65000000000E+04  0.15050000000E+03 0.  1.
     100001    1    1    2    0    0 -0.14036406542E+03 -0.10507948360E+02 -0.64967328144E+04  0.65000000000E+04  0.15050000000E+03 0.  1.
</event>
<event>
 4    1  0.4630618E-004  0.6500000E+04  0.7818608E-02  0.7223770E-01
         52   -1    0    0    0    0  0.00000000000E+00  0.00000000000E+00  0.64930732323E+04  0.65000000000E+04  0.30000000000E+03 0. -1.
        -52   -1    0    0    0    0 -0.00000000000E+00 -0.00000000000E+00 -0.64930732323E+04  0.65000000000E+04  0.30000000000E+03 0. -1.
     100001    1    1    2    0    0 -0.33411815483E+03 -0.35074924570E+03 -0.64801766778E+04  0.65000000000E+04  0.15050000000E+03 0. -1.
     100001    1    1    2    0    0  0.33411815483E+03  0.35074924570E+03  0.64801766778E+04  0.65000000000E+04  0.15050000000E+03 0. -1.
</event>
<event>
 4    1  0.4630618E-004  0.6500000E+04  0.7818608E-02  0.7223770E-01
         52   -1    0    0    0    0  0.00000000000E+00  0.00000000000E+00  0.64930732323E+04  0.65000000000E+04  0.30000000000E+03 0. -1.
        -52   -1    0    0    0    0 -0.00000000000E+00 -0.00000000000E+00 -0.64930732323E+04  0.65000000000E+04  0.30000000000E+03 0.  1.
     100001    1    1    2    0    0 -0.69772057174E+03  0.12392973159E+04  0.63407158836E+04  0.65000000000E+04  0.15050000000E+03 0. -1.
     100001    1    1    2    0    0  0.69772057174E+03 -0.12392973159E+04 -0.63407158836E+04  0.65000000000E+04  0.15050000000E+03 0.  1.
</event>
<event>
 4    1  0.6313871E-004  0.6500000E+04  0.7818608E-02  0.7223770E-01
         52   -1    0    0    0    0  0.00000000000E+00  0.00000000000E+00  0.64930732323E+04  0.65000000000E+04  0.30000000000E+03 0. -1.
        -52   -1    0    0    0    0 -0.00000000000E+00 -0.00000000000E+00 -0.64930732323E+04  0.65000000000E+04  0.30000000000E+03 0. -1.
     100001    1    1    2    0    0  0.11218010692E+03  0.78620015028E+02  0.64968133933E+04  0.65000000000E+04  0.15050000000E+03 0. -1.
     100001    1    1    2    0    0 -0.11218010692E+03 -0.78620015028E+02 -0.64968133933E+04  0.65000000000E+04  0.15050000000E+03 0. -1.
</event>
<event>
 4    1  0.4630618E-004  0.6500000E+04  0.7818608E-02  0.7223770E-01
         52   -1    0    0    0    0  0.00000000000E+00  0.00000000000E+00  0.64930732323E+04  0.65000000000E+04  0.30000000000E+03 0. -1.
        -52   -1    0    0    0    0 -0.00000000000E+00 -0.00000000000E+00 -0.64930732323E+04  0.65000000000E+04  0.30000000000E+03 0.  1.
     100001    1    1    2    0    0 -0.16302288011E+03  0.17228282650E+04  0.62635960965E+04  0.65000000000E+04  0.15050000000E+03 0. -1.
     100001    1    1    2    0    0  0.16302288011E+03 -0.17228282650E+04 -0.62635960965E+04  0.65000000000E+04  0.15050000000E+03 0.  1.
</event>
<event>
 4    1  0.4630618E-004  0.6500000E+04  0.7818608E-02  0.7223770E-01
         52   -1    0    0    0    0  0.00000000000E+00  0.00000000000E+00  0.64930732323E+04  0.65000000000E+04  0.30000000000E+03 0. -1.
        -52   -1    0    0    0    0 -0.00000000000E+00 -0.00000000000E+00 -0.64930732323E+04  0.65000000000E+04  0.30000000000E+03 0.  1.
     100001    1    1    2    0    0  0.68218061381E+03 -0.17163014350E+04  0.62302719639E+04  0.65000000000E+04  0.15050000000E+03 0. -1.
     100001    1    1    2    0    0 -0.68218061381E+03  0.17163014350E+04 -0.62302719639E+04  0.65000000000E+04  0.15050000000E+03 0.  1.
</event>
<event>
 4    1  0.4630618E-004  0.6500000E+04  0.7818608E-02  0.7223770E-01
         52   -1    0    0    0    0  0.00000000000E+00  0.00000000000E+00  0.64930732323E+04  0.65000000000E+04  0.30000000000E+03 0.  1.
        -52   -1    0    0    0    0 -0.00000000000E+00 -0.00000000000E+00 -0.64930732323E+04  0.65000000000E+04  0.30000000000E+03 0. -1.
     100001    1    1    2    0    0 -0.32977619349E+04  0.21938119977E+04  0.51516312843E+04  0.65000000000E+04  0.15050000000E+03 0.  1.
     100001    1    1    2    0    0  0.32977619349E+04 -0.21938119977E+04 -0.51516312843E+04  0.65000000000E+04  0.15050000000E+03 0. -1.
</event>
<event>
 4    1  0.4630618E-004  0.6500000E+04  0.7818608E-02  0.7223770E-01
         52   -1    0    0    0    0  0.00000000000E+00  0.00000000000E+00  0.64930732323E+04  0.65000000000E+04  0.30000000000E+03 0. -1.
        -52   -1    0    0    0    0 -0.00000000000E+00 -0.00000000000E+00 -0.64930732323E+04  0.65000000000E+04  0.30000000000E+03 0.  1.
     100001    1    1    2    0    0  0.45069133180E+03 -0.55453164074E+04 -0.33576320548E+04  0.65000000000E+04  0.15050000000E+03 0.  1.
     100001    1    1    2    0    0 -0.45069133180E+03  0.55453164074E+04  0.33576320548E+04  0.65000000000E+04  0.15050000000E+03 0. -1.
</event>
<event>
 4    1  0.4630618E-004  0.6500000E+04  0.7818608E-02  0.7223770E-01
         52   -1    0    0    0    0  0.00000000000E+00  0.00000000000E+00  0.64930732323E+04  0.65000000000E+04  0.30000000000E+03 0.  1.
        -52   -1    0    0    0    0 -0.00000000000E+00 -0.00000000000E+00 -0.64930732323E+04  0.65000000000E+04  0.30000000000E+03 0. -1.
     100001    1    1    2    0    0 -0.14790805187E+04 -0.18240729719E+04  0.60590781776E+04  0.65000000000E+04  0.15050000000E+03 0.  1.
     100001    1    1    2    0    0  0.14790805187E+04  0.18240729719E+04 -0.60590781776E+04  0.65000000000E+04  0.15050000000E+03 0. -1.
</event>
<event>
 4    1  0.4630618E-004  0.6500000E+04  0.7818608E-02  0.7223770E-01
         52   -1    0    0    0    0  0.00000000000E+00  0.00000000000E+00  0.64930732323E+04  0.65000000000E+04  0.30000000000E+03 0. -1.
        -52   -1    0    0    0    0 -0.00000000000E+00 -0.00000000000E+00 -0.64930732323E+04  0.65000000000E+04  0.30000000000E+03 0.  1.
     100001    1    1    2    0    0 -0.13518759911E+02 -0.59386677653E+04  0.26380659897E+04  0.65000000000E+04  0.15050000000E+03 0. -1.
     100001    1    1    2    0    0  0.13518759911E+02  0.59386677653E+04 -0.26380659897E+04  0.65000000000E+04  0.15050000000E+03 0.  1.
</event>
<event>
 4    1  0.4630618E-004  0.6500000E+04  0.7818608E-02  0.7223770E-01
         52   -1    0    0    0    0  0.00000000000E+00  0.00000000000E+00  0.64930732323E+04  0.65000000000E+04  0.30000000000E+03 0.  1.
        -52   -1    0    0    0    0 -0.00000000000E+00 -0.00000000000E+00 -0.64930732323E+04  0.65000000000E+04  0.30000000000E+03 0. -1.
     100001    1    1    2    0    0  0.91478432869E+03 -0.20488580689E+04 -0.60985818020E+04  0.65000000000E+04  0.15050000000E+03 0. -1.
     100001    1    1    2    0    0 -0.91478432869E+03  0.20488580689E+04  0.60985818020E+04  0.65000000000E+04  0.15050000000E+03 0.  1.
</event>
<event>
 4    1  0.4630618E-004  0.6500000E+04  0.7818608E-02  0.7223770E-01
         52   -1    0    0    0    0  0.00000000000E+00  0.00000000000E+00  0.64930732323E+04  0.65000000000E+04  0.30000000000E+03 0. -1.
        -52   -1    0    0    0    0 -0.00000000000E+00 -0.00000000000E+00 -0.64930732323E+04  0.65000000000E+04  0.30000000000E+03 0.  1.
     100001    1    1    2    0    0  0.31537079519E+03 -0.36535866473E+04 -0.53646244624E+04  0.65000000000E+04  0.15050000000E+03 0.  1.
     100001    1    1    2    0    0 -0.31537079519E+03  0.36535866473E+04  0.53646244624E+04  0.65000000000E+04  0.15050000000E+03 0. -1.
</event>
<event>
 4    1  0.4630618E-004  0.6500000E+04  0.7818608E-02  0.7223770E-01
         52   -1    0    0    0    0  0.00000000000E+00  0.00000000000E+00  0.64930732323E+04  0.65000000000E+04  0.30000000000E+03 0.  1.
        -52   -1    0    0    0    0 -0.00000000000E+00 -0.00000000000E+00 -0.64930732323E+04  0.65000000000E+04  0.30000000000E+03 0. -1.
     100001    1    1    2    0    0  0.13099809964E+04 -0.17716749319E+04  0.61133025015E+04  0.65000000000E+04  0.15050000000E+03 0.  1.
     100001    1    1    2    0    0 -0.13099809964E+04  0.17716749319E+04 -0.61133025015E+04  0.65000000000E+04  0.15050000000E+03 0. -1.
</event>
<event>
 4    1  0.6525344E-004  0.6500000E+04  0.7818608E-02  0.7223770E-01
         52   -1    0    0    0    0  0.00000000000E+00  0.00000000000E+00  0.64930732323E+04  0.65000000000E+04  0.30000000000E+03 0. -1.
        -52   -1    0    0    0    0 -0.00000000000E+00 -0.00000000000E+00 -0.64930732323E+04  0.65000000000E+04  0.30000000000E+03 0. -1.
     100001    1    1    2    0    0 -0.61644564256E+02 -0.14018412828E+03  0.64964527327E+04  0.65000000000E+04  0.15050000000E+03 0. -1.
     100001    1    1    2    0    0  0.61644564256E+02  0.14018412828E+03 -0.64964527327E+04  0.65000000000E+04  0.15050000000E+03 0. -1.
</event>
<event>
 4    1  0.4630618E-004  0.6500000E+04  0.7818608E-02  0.7223770E-01
         52   -1    0    0    0    0  0.00000000000E+00  0.00000000000E+00  0.64930732323E+04  0.65000000000E+04  0.30000000000E+03 0. -1.
        -52   -1    0    0    0    0 -0.00000000000E+00 -0.00000000000E+00 -0.64930732323E+04  0.65000000000E+04  0.30000000000E+03 0.  1.
     100001    1    1    2    0    0  0.68850685895E+03  0.10663168380E+04  0.63730900242E+04  0.65000000000E+04  0.15050000000E+03 0. -1.
     100001    1    1    2    0    0 -0.68850685895E+03 -0.10663168380E+04 -0.63730900242E+04  0.65000000000E+04  0.15050000000E+03 0.  1.
</event>
<event>
 4    1  0.4630618E-004  0.6500000E+04  0.7818608E-02  0.7223770E-01
         52   -1    0    0    0    0  0.00000000000E+00  0.00000000000E+00  0.64930732323E+04  0.65000000000E+04  0.30000000000E+03 0. -1.
        -52   -1    0    0    0    0 -0.00000000000E+00 -0.00000000000E+00 -0.64930732323E+04  0.65000000000E+04  0.30000000000E+03 0.  1.
     100001    1    1    2    0    0  0.14112563806E+04  0.11553704647E+04 -0.62370525304E+04  0.65000000000E+04  0.15050000000E+03 0.  1.
     100001    1    1    2    0    0 -0.14112563806E+04 -0.11553704647E+04  0.62370525304E+04  0.65000000000E+04  0.15050000000E+03 0. -1.
</event>
<event>
 4    1  0.4630618E-004  0.6500000E+04  0.7818608E-02  0.7223770E-01
         52   -1    0    0    0    0  0.00000000000E+00  0.00000000000E+00  0.64930732323E+04  0.65000000000E+04  0.30000000000E+03 0. -1.
        -52   -1    0    0    0    0 -0.00000000000E+00 -0.00000000000E+00 -0.64930732323E+04  0.65000000000E+04  0.30000000000E+03 0.  1.
     100001    1    1    2    0    0  0.18880383779E+03 -0.17182657421E+03  0.64932409850E+04  0.65000000000E+04  0.15050000000E+03 0. -1.
     100001    1    1    2    0    0 -0.18880383779E+03  0.17182657421E+03 -0.64932409850E+04  0.65000000000E+04  0.15050000000E+03 0.  1.
</event>
<event>
 4    1  0.4630618E-004  0.6500000E+04  0.7818608E-02  0.7223770E-01
         52   -1    0    0    0    0  0.00000000000E+00  0.00000000000E+00  0.64930732323E+04  0.65000000000E+04  0.30000000000E+03 0. -1.
        -52   -1    0    0    0    0 -0.00000000000E+00 -0.00000000000E+00 -0.64930732323E+04  0.65000000000E+04  0.30000000000E+03 0.  1.
     100001    1    1    2    0    0 -0.11122957394E+04 -0.16766673854E+03  0.64001590451E+04  0.65000000000E+04  0.15050000000E+03 0. -1.
     100001    1    1    2    0    0  0.11122957394E+04  0.16766673854E+03 -0.64001590451E+04  0.65000000000E+04  0.15050000000E+03 0.  1.
</event>
<event>
 4    1  0.4630618E-004  0.6500000E+04  0.7818608E-02  0.7223770E-01
         52   -1    0    0    0    0  0.00000000000E+00  0.00000000000E+00  0.64930732323E+04  0.65000000000E+04  0.30000000000E+03 0.  1.
        -52   -1    0    0    0    0 -0.00000000000E+00 -0.00000000000E+00 -0.64930732323E+04  0.65000000000E+04  0.30000000000E+03 0. -1.
     100001    1    1    2    0    0 -0.22406956961E+03  0.23003830506E+04  0.60733335491E+04  0.65000000000E+04  0.15050000000E+03 0.  1.
     100001    1    1    2    0    0  0.22406956961E+03 -0.23003830506E+04 -0.60733335491E+04  0.65000000000E+04  0.15050000000E+03 0. -1.
</event>
<event>
 4    1  0.4630618E-004  0.6500000E+04  0.7818608E-02  0.7223770E-01
         52   -1    0    0    0    0  0.00000000000E+00  0.00000000000E+00  0.64930732323E+04  0.65000000000E+04  0.30000000000E+03 0. -1.
        -52   -1    0    0    0    0 -0.00000000000E+00 -0.00000000000E+00 -0.64930732323E+04  0.65000000000E+04  0.30000000000E+03 0.  1.
     100001    1    1    2    0    0 -0.34551332393E+03 -0.19299262362E+04 -0.61954301720E+04  0.65000000000E+04  0.15050000000E+03 0.  1.
     100001    1    1    2    0    0  0.34551332393E+03  0.19299262362E+04  0.61954301720E+04  0.65000000000E+04  0.15050000000E+03 0. -1.
</event>
<event>
 4    1  0.4630618E-004  0.6500000E+04  0.7818608E-02  0.7223770E-01
         52   -1    0    0    0    0  0.00000000000E+00  0.00000000000E+00  0.64930732323E+04  0.65000000000E+04  0.30000000000E+03 0.  1.
        -52   -1    0    0    0    0 -0.00000000000E+00 -0.00000000000E+00 -0.64930732323E+04  0.65000000000E+04  0.30000000000E+03 0. -1.
     100001    1    1    2    0    0 -0.33794953269E+04 -0.54143616778E+03  0.55238761718E+04  0.65000000000E+04  0.15050000000E+03 0.  1.
     100001    1    1    2    0    0  0.33794953269E+04  0.54143616778E+03 -0.55238761718E+04  0.65000000000E+04  0.15050000000E+03 0. -1.
</event>
<event>
 4    1  0.4630618E-004  0.6500000E+04  0.7818608E-02  0.7223770E-01
         52   -1    0    0    0    0  0.00000000000E+00  0.00000000000E+00  0.64930732323E+04  0.65000000000E+04  0.30000000000E+03 0.  1.
        -52   -1    0    0    0    0 -0.00000000000E+00 -0.00000000000E+00 -0.64930732323E+04  0.65000000000E+04  0.30000000000E+03 0. -1.
     100001    1    1    2    0    0  0.26725379432E+04  0.78204040135E+02 -0.59227337286E+04  0.65000000000E+04  0.15050000000E+03 0. -1.
     100001    1    1    2    0    0 -0.26725379432E+04 -0.78204040135E+02  0.59227337286E+04  0.65000000000E+04  0.15050000000E+03 0.  1.
</event>
<event>
 4    1  0.4630618E-004  0.6500000E+04  0.7818608E-02  0.7223770E-01
         52   -1    0    0    0    0  0.00000000000E+00  0.00000000000E+00  0.64930732323E+04  0.65000000000E+04  0.30000000000E+03 0. -1.
        -52   -1    0    0    0    0 -0.00000000000E+00 -0.00000000000E+00 -0.64930732323E+04  0.65000000000E+04  0.30000000000E+03 0.  1.
     100001    1    1    2    0    0  0.53262751843E+03  0.39640924431E+03 -0.64642491743E+04  0.65000000000E+04  0.15050000000E+03 0.  1.
     100001    1    1    2    0    0 -0.53262751843E+03 -0.39640924431E+03  0.64642491743E+04  0.65000000000E+04  0.15050000000E+03 0. -1.
</event>
<event>
 4    1  0.4630618E-004  0.6500000E+04  0.7818608E-02  0.7223770E-01
         52   -1    0    0    0    0  0.00000000000E+00  0.00000000000E+00  0.64930732323E+04  0.65000000000E+04  0.30000000000E+03 0. -1.
        -52   -1    0    0    0    0 -0.00000000000E+00 -0.00000000000E+00 -0.64930732323E+04  0.65000000000E+04  0.30000000000E+03 0.  1.
     100001    1    1    2    0    0 -0.45640022627E+04 -0.46238938505E+04 -0.12976422945E+03  0.65000000000E+04  0.15050000000E+03 0.  1.
     100001    1    1    2    0    0  0.45640022627E+04  0.46238938505E+04  0.12976422945E+03  0.65000000000E+04  0.15050000000E+03 0. -1.
</event>
<event>
 4    1  0.4630618E-004  0.6500000E+04  0.7818608E-02  0.7223770E-01
         52   -1    0    0    0    0  0.00000000000E+00  0.00000000000E+00  0.64930732323E+04  0.65000000000E+04  0.30000000000E+03 0. -1.
        -52   -1    0    0    0    0 -0.00000000000E+00 -0.00000000000E+00 -0.64930732323E+04  0.65000000000E+04  0.30000000000E+03 0. -1.
     100001    1    1    2    0    0  0.11183222291E+04 -0.44534351910E+03  0.63857947267E+04  0.65000000000E+04  0.15050000000E+03 0. -1.
     100001    1    1    2    0    0 -0.11183222291E+04  0.44534351910E+03 -0.63857947267E+04  0.65000000000E+04  0.15050000000E+03 0. -1.
</event>
<event>
 4    1  0.4630618E-004  0.6500000E+04  0.7818608E-02  0.7223770E-01
         52   -1    0    0    0    0  0.00000000000E+00  0.00000000000E+00  0.64930732323E+04  0.65000000000E+04  0.30000000000E+03 0. -1.
        -52   -1    0    0    0    0 -0.00000000000E+00 -0.00000000000E+00 -0.64930732323E+04  0.65000000000E+04  0.30000000000E+03 0.  1.
     100001    1    1    2    0    0 -0.50688929516E+04 -0.75256721413E+03  0.39959124844E+04  0.65000000000E+04  0.15050000000E+03 0. -1.
     100001    1    1    2    0    0  0.50688929516E+04  0.75256721413E+03 -0.39959124844E+04  0.65000000000E+04  0.15050000000E+03 0.  1.
</event>
<event>
 4    1  0.4630618E-004  0.6500000E+04  0.7818608E-02  0.7223770E-01
         52   -1    0    0    0    0  0.00000000000E+00  0.00000000000E+00  0.64930732323E+04  0.65000000000E+04  0.30000000000E+03 0. -1.
        -52   -1    0    0    0    0 -0.00000000000E+00 -0.00000000000E+00 -0.64930732323E+04  0.65000000000E+04  0.30000000000E+03 0. -1.
     100001    1    1    2    0    0  0.10484712028E+03 -0.12120889043E+04  0.63833531407E+04  0.65000000000E+04  0.15050000000E+03 0. -1.
     100001    1    1    2    0    0 -0.10484712028E+03  0.12120889043E+04 -0.63833531407E+04  0.65000000000E+04  0.15050000000E+03 0. -1.
</event>
<event>
 4    1  0.4630618E-004  0.6500000E+04  0.7818608E-02  0.7223770E-01
         52   -1    0    0    0    0  0.00000000000E+00  0.00000000000E+00  0.64930732323E+04  0.65000000000E+04  0.30000000000E+03 0. -1.
        -52   -1    0    0    0    0 -0.00000000000E+00 -0.00000000000E+00 -0.64930732323E+04  0.65000000000E+04  0.30000000000E+03 0. -1.
     100001    1    1    2    0    0 -0.25502359463E+03  0.19738695372E+03 -0.64902504656E+04  0.65000000000E+04  0.15050000000E+03 0. -1.
     100001    1    1    2    0    0  0.25502359463E+03 -0.19738695372E+03  0.64902504656E+04  0.65000000000E+04  0.15050000000E+03 0. -1.
</event>
<event>
 4    1  0.4630618E-004  0.6500000E+04  0.7818608E-02  0.7223770E-01
         52   -1    0    0    0    0  0.00000000000E+00  0.00000000000E+00  0.64930732323E+04  0.65000000000E+04  0.30000000000E+03 0. -1.
        -52   -1    0    0    0    0 -0.00000000000E+00 -0.00000000000E+00 -0.64930732323E+04  0.65000000000E+04  0.30000000000E+03 0. -1.
     100001    1    1    2    0    0 -0.23895455714E+03 -0.43254793401E+02  0.64937184642E+04  0.65000000000E+04  0.15050000000E+03 0. -1.
     100001    1    1    2    0    0  0.23895455714E+03  0.43254793401E+02 -0.64937184642E+04  0.65000000000E+04  0.15050000000E+03 0. -1.
</event>
<event>
 4    1  0.4630618E-004  0.6500000E+04  0.7818608E-02  0.7223770E-01
         52   -1    0    0    0    0  0.00000000000E+00  0.00000000000E+00  0.64930732323E+04  0.65000000000E+04  0.30000000000E+03 0. -1.
        -52   -1    0    0    0    0 -0.00000000000E+00 -0.00000000000E+00 -0.64930732323E+04  0.65000000000E+04  0.30000000000E+03 0.  1.
     100001    1    1    2    0    0 -0.15975248051E+04  0.11292434377E+04  0.61967792849E+04  0.65000000000E+04  0.15050000000E+03 0. -1.
     100001    1    1    2    0    0  0.15975248051E+04 -0.11292434377E+04 -0.61967792849E+04  0.65000000000E+04  0.15050000000E+03 0.  1.
</event>
<event>
 4    1  0.4630618E-004  0.6500000E+04  0.7818608E-02  0.7223770E-01
         52   -1    0    0    0    0  0.00000000000E+00  0.00000000000E+00  0.64930732323E+04  0.65000000000E+04  0.30000000000E+03 0. -1.
        -52   -1    0    0    0    0 -0.00000000000E+00 -0.00000000000E+00 -0.64930732323E+04  0.65000000000E+04  0.30000000000E+03 0.  1.
     100001    1    1    2    0    0 -0.15377554713E+04 -0.60854899137E+03 -0.62842920035E+04  0.65000000000E+04  0.15050000000E+03 0.  1.
     100001    1    1    2    0    0  0.15377554713E+04  0.60854899137E+03  0.62842920035E+04  0.65000000000E+04  0.15050000000E+03 0. -1.
</event>
<event>
 4    1  0.4630618E-004  0.6500000E+04  0.7818608E-02  0.7223770E-01
         52   -1    0    0    0    0  0.00000000000E+00  0.00000000000E+00  0.64930732323E+04  0.65000000000E+04  0.30000000000E+03 0. -1.
        -52   -1    0    0    0    0 -0.00000000000E+00 -0.00000000000E+00 -0.64930732323E+04  0.65000000000E+04  0.30000000000E+03 0.  1.
     100001    1    1    2    0    0 -0.86066798474E+03 -0.18663006322E+03  0.64383048693E+04  0.65000000000E+04  0.15050000000E+03 0. -1.
     100001    1    1    2    0    0  0.86066798474E+03  0.18663006322E+03 -0.64383048693E+04  0.65000000000E+04  0.15050000000E+03 0.  1.
</event>
<event>
 4    1  0.4630618E-004  0.6500000E+04  0.7818608E-02  0.7223770E-01
         52   -1    0    0    0    0  0.00000000000E+00  0.00000000000E+00  0.64930732323E+04  0.65000000000E+04  0.30000000000E+03 0. -1.
        -52   -1    0    0    0    0 -0.00000000000E+00 -0.00000000000E+00 -0.64930732323E+04  0.65000000000E+04  0.30000000000E+03 0.  1.
     100001    1    1    2    0    0  0.84107907816E+02 -0.14352023462E+04 -0.63372288767E+04  0.65000000000E+04  0.15050000000E+03 0.  1.
     100001    1    1    2    0    0 -0.84107907816E+02  0.14352023462E+04  0.63372288767E+04  0.65000000000E+04  0.15050000000E+03 0. -1.
</event>
<event>
 4    1  0.4630618E-004  0.6500000E+04  0.7818608E-02  0.7223770E-01
         52   -1    0    0    0    0  0.00000000000E+00  0.00000000000E+00  0.64930732323E+04  0.65000000000E+04  0.30000000000E+03 0. -1.
        -52   -1    0    0    0    0 -0.00000000000E+00 -0.00000000000E+00 -0.64930732323E+04  0.65000000000E+04  0.30000000000E+03 0.  1.
     100001    1    1    2    0    0 -0.32079977979E+03  0.26155734086E+03  0.64850616812E+04  0.65000000000E+04  0.15050000000E+03 0. -1.
     100001    1    1    2    0    0  0.32079977979E+03 -0.26155734086E+03 -0.64850616812E+04  0.65000000000E+04  0.15050000000E+03 0.  1.
</event>
<event>
 4    1  0.4630618E-004  0.6500000E+04  0.7818608E-02  0.7223770E-01
         52   -1    0    0    0    0  0.00000000000E+00  0.00000000000E+00  0.64930732323E+04  0.65000000000E+04  0.30000000000E+03 0. -1.
        -52   -1    0    0    0    0 -0.00000000000E+00 -0.00000000000E+00 -0.64930732323E+04  0.65000000000E+04  0.30000000000E+03 0.  1.
     100001    1    1    2    0    0 -0.21939739268E+04  0.60241849518E+04 -0.10597281843E+04  0.65000000000E+04  0.15050000000E+03 0.  1.
     100001    1    1    2    0    0  0.21939739268E+04 -0.60241849518E+04  0.10597281843E+04  0.65000000000E+04  0.15050000000E+03 0. -1.
</event>
<event>
 4    1  0.4630618E-004  0.6500000E+04  0.7818608E-02  0.7223770E-01
         52   -1    0    0    0    0  0.00000000000E+00  0.00000000000E+00  0.64930732323E+04  0.65000000000E+04  0.30000000000E+03 0. -1.
        -52   -1    0    0    0    0 -0.00000000000E+00 -0.00000000000E+00 -0.64930732323E+04  0.65000000000E+04  0.30000000000E+03 0.  1.
     100001    1    1    2    0    0 -0.19986552269E+04 -0.10497216329E+04 -0.60935056845E+04  0.65000000000E+04  0.15050000000E+03 0.  1.
     100001    1    1    2    0    0  0.19986552269E+04  0.10497216329E+04  0.60935056845E+04  0.65000000000E+04  0.15050000000E+03 0. -1.
</event>
<event>
 4    1  0.4630618E-004  0.6500000E+04  0.7818608E-02  0.7223770E-01
         52   -1    0    0    0    0  0.00000000000E+00  0.00000000000E+00  0.64930732323E+04  0.65000000000E+04  0.30000000000E+03 0. -1.
        -52   -1    0    0    0    0 -0.00000000000E+00 -0.00000000000E+00 -0.64930732323E+04  0.65000000000E+04  0.30000000000E+03 0.  1.
     100001    1    1    2    0    0 -0.19178737979E+04 -0.19637031562E+03  0.62056867907E+04  0.65000000000E+04  0.15050000000E+03 0. -1.
     100001    1    1    2    0    0  0.19178737979E+04  0.19637031562E+03 -0.62056867907E+04  0.65000000000E+04  0.15050000000E+03 0.  1.
</event>
<event>
 4    1  0.4630618E-004  0.6500000E+04  0.7818608E-02  0.7223770E-01
         52   -1    0    0    0    0  0.00000000000E+00  0.00000000000E+00  0.64930732323E+04  0.65000000000E+04  0.30000000000E+03 0.  1.
        -52   -1    0    0    0    0 -0.00000000000E+00 -0.00000000000E+00 -0.64930732323E+04  0.65000000000E+04  0.30000000000E+03 0. -1.
     100001    1    1    2    0    0 -0.25296331773E+04 -0.49888179650E+03  0.59648489245E+04  0.65000000000E+04  0.15050000000E+03 0.  1.
     100001    1    1    2    0    0  0.25296331773E+04  0.49888179650E+03 -0.59648489245E+04  0.65000000000E+04  0.15050000000E+03 0. -1.
</event>
<event>
 4    1  0.4630618E-004  0.6500000E+04  0.7818608E-02  0.7223770E-01
         52   -1    0    0    0    0  0.00000000000E+00  0.00000000000E+00  0.64930732323E+04  0.65000000000E+04  0.30000000000E+03 0.  1.
        -52   -1    0    0    0    0 -0.00000000000E+00 -0.00000000000E+00 -0.64930732323E+04  0.65000000000E+04  0.30000000000E+03 0. -1.
     100001    1    1    2    0    0  0.49431228049E+03 -0.52980332238E+04  0.37301272202E+04  0.65000000000E+04  0.15050000000E+03 0.  1.
     100001    1    1    2    0    0 -0.49431228049E+03  0.52980332238E+04 -0.37301272202E+04  0.65000000000E+04  0.15050000000E+03 0. -1.
</event>
<event>
 4    1  0.4630618E-004  0.6500000E+04  0.7818608E-02  0.7223770E-01
         52   -1    0    0    0    0  0.00000000000E+00  0.00000000000E+00  0.64930732323E+04  0.65000000000E+04  0.30000000000E+03 0.  1.
        -52   -1    0    0    0    0 -0.00000000000E+00 -0.00000000000E+00 -0.64930732323E+04  0.65000000000E+04  0.30000000000E+03 0. -1.
     100001    1    1    2    0    0  0.74538318896E+03 -0.27329180281E+04 -0.58483256325E+04  0.65000000000E+04  0.15050000000E+03 0. -1.
     100001    1    1    2    0    0 -0.74538318896E+03  0.27329180281E+04  0.58483256325E+04  0.65000000000E+04  0.15050000000E+03 0.  1.
</event>
<event>
 4    1  0.4630618E-004  0.6500000E+04  0.7818608E-02  0.7223770E-01
         52   -1    0    0    0    0  0.00000000000E+00  0.00000000000E+00  0.64930732323E+04  0.65000000000E+04  0.30000000000E+03 0. -1.
        -52   -1    0    0    0    0 -0.00000000000E+00 -0.00000000000E+00 -0.64930732323E+04  0.65000000000E+04  0.30000000000E+03 0.  1.
     100001    1    1    2    0    0 -0.26060024609E+04  0.19345138362E+04 -0.56297208760E+04  0.65000000000E+04  0.15050000000E+03 0.  1.
     100001    1    1    2    0    0  0.26060024609E+04 -0.19345138362E+04  0.56297208760E+04  0.65000000000E+04  0.15050000000E+03 0. -1.
</event>
<event>
 4    1  0.4630618E-004  0.6500000E+04  0.7818608E-02  0.7223770E-01
         52   -1    0    0    0    0  0.00000000000E+00  0.00000000000E+00  0.64930732323E+04  0.65000000000E+04  0.30000000000E+03 0.  1.
        -52   -1    0    0    0    0 -0.00000000000E+00 -0.00000000000E+00 -0.64930732323E+04  0.65000000000E+04  0.30000000000E+03 0. -1.
     100001    1    1    2    0    0 -0.98044243936E+03 -0.19182425900E+04  0.61307770910E+04  0.65000000000E+04  0.15050000000E+03 0.  1.
     100001    1    1    2    0    0  0.98044243936E+03  0.19182425900E+04 -0.61307770910E+04  0.65000000000E+04  0.15050000000E+03 0. -1.
</event>
<event>
 4    1  0.4630618E-004  0.6500000E+04  0.7818608E-02  0.7223770E-01
         52   -1    0    0    0    0  0.00000000000E+00  0.00000000000E+00  0.64930732323E+04  0.65000000000E+04  0.30000000000E+03 0. -1.
        -52   -1    0    0    0    0 -0.00000000000E+00 -0.00000000000E+00 -0.64930732323E+04  0.65000000000E+04  0.30000000000E+03 0.  1.
     100001    1    1    2    0    0 -0.26881218183E+03  0.21125467299E+04 -0.61394003025E+04  0.65000000000E+04  0.15050000000E+03 0.  1.
     100001    1    1    2    0    0  0.26881218183E+03 -0.21125467299E+04  0.61394003025E+04  0.65000000000E+04  0.15050000000E+03 0. -1.
</event>
<event>
 4    1  0.4630618E-004  0.6500000E+04  0.7818608E-02  0.7223770E-01
         52   -1    0    0    0    0  0.00000000000E+00  0.00000000000E+00  0.64930732323E+04  0.65000000000E+04  0.30000000000E+03 0. -1.
        -52   -1    0    0    0    0 -0.00000000000E+00 -0.00000000000E+00 -0.64930732323E+04  0.65000000000E+04  0.30000000000E+03 0.  1.
     100001    1    1    2    0    0 -0.25921963110E+03  0.27064346535E+03  0.64874422577E+04  0.65000000000E+04  0.15050000000E+03 0. -1.
     100001    1    1    2    0    0  0.25921963110E+03 -0.27064346535E+03 -0.64874422577E+04  0.65000000000E+04  0.15050000000E+03 0.  1.
</event>
<event>
 4    1  0.4630618E-004  0.6500000E+04  0.7818608E-02  0.7223770E-01
         52   -1    0    0    0    0  0.00000000000E+00  0.00000000000E+00  0.64930732323E+04  0.65000000000E+04  0.30000000000E+03 0. -1.
        -52   -1    0    0    0    0 -0.00000000000E+00 -0.00000000000E+00 -0.64930732323E+04  0.65000000000E+04  0.30000000000E+03 0.  1.
     100001    1    1    2    0    0 -0.28034829994E+04  0.28245386115E+04 -0.51371017563E+04  0.65000000000E+04  0.15050000000E+03 0.  1.
     100001    1    1    2    0    0  0.28034829994E+04 -0.28245386115E+04  0.51371017563E+04  0.65000000000E+04  0.15050000000E+03 0. -1.
</event>
<event>
 4    1  0.4630618E-004  0.6500000E+04  0.7818608E-02  0.7223770E-01
         52   -1    0    0    0    0  0.00000000000E+00  0.00000000000E+00  0.64930732323E+04  0.65000000000E+04  0.30000000000E+03 0. -1.
        -52   -1    0    0    0    0 -0.00000000000E+00 -0.00000000000E+00 -0.64930732323E+04  0.65000000000E+04  0.30000000000E+03 0.  1.
     100001    1    1    2    0    0 -0.84045023060E+02  0.16954955419E+03 -0.64955014535E+04  0.65000000000E+04  0.15050000000E+03 0.  1.
     100001    1    1    2    0    0  0.84045023060E+02 -0.16954955419E+03  0.64955014535E+04  0.65000000000E+04  0.15050000000E+03 0. -1.
</event>
<event>
 4    1  0.4630618E-004  0.6500000E+04  0.7818608E-02  0.7223770E-01
         52   -1    0    0    0    0  0.00000000000E+00  0.00000000000E+00  0.64930732323E+04  0.65000000000E+04  0.30000000000E+03 0. -1.
        -52   -1    0    0    0    0 -0.00000000000E+00 -0.00000000000E+00 -0.64930732323E+04  0.65000000000E+04  0.30000000000E+03 0.  1.
     100001    1    1    2    0    0  0.17084773661E+04  0.13396683585E+04 -0.61248464086E+04  0.65000000000E+04  0.15050000000E+03 0.  1.
     100001    1    1    2    0    0 -0.17084773661E+04 -0.13396683585E+04  0.61248464086E+04  0.65000000000E+04  0.15050000000E+03 0. -1.
</event>
<event>
 4    1  0.4630618E-004  0.6500000E+04  0.7818608E-02  0.7223770E-01
         52   -1    0    0    0    0  0.00000000000E+00  0.00000000000E+00  0.64930732323E+04  0.65000000000E+04  0.30000000000E+03 0.  1.
        -52   -1    0    0    0    0 -0.00000000000E+00 -0.00000000000E+00 -0.64930732323E+04  0.65000000000E+04  0.30000000000E+03 0. -1.
     100001    1    1    2    0    0 -0.21404228929E+04  0.32220031062E+04  0.52215548999E+04  0.65000000000E+04  0.15050000000E+03 0.  1.
     100001    1    1    2    0    0  0.21404228929E+04 -0.32220031062E+04 -0.52215548999E+04  0.65000000000E+04  0.15050000000E+03 0. -1.
</event>
<event>
 4    1  0.4630618E-004  0.6500000E+04  0.7818608E-02  0.7223770E-01
         52   -1    0    0    0    0  0.00000000000E+00  0.00000000000E+00  0.64930732323E+04  0.65000000000E+04  0.30000000000E+03 0. -1.
        -52   -1    0    0    0    0 -0.00000000000E+00 -0.00000000000E+00 -0.64930732323E+04  0.65000000000E+04  0.30000000000E+03 0.  1.
     100001    1    1    2    0    0  0.39674674438E+04 -0.20045403569E+04 -0.47400812008E+04  0.65000000000E+04  0.15050000000E+03 0.  1.
     100001    1    1    2    0    0 -0.39674674438E+04  0.20045403569E+04  0.47400812008E+04  0.65000000000E+04  0.15050000000E+03 0. -1.
</event>
<event>
 4    1  0.4630618E-004  0.6500000E+04  0.7818608E-02  0.7223770E-01
         52   -1    0    0    0    0  0.00000000000E+00  0.00000000000E+00  0.64930732323E+04  0.65000000000E+04  0.30000000000E+03 0. -1.
        -52   -1    0    0    0    0 -0.00000000000E+00 -0.00000000000E+00 -0.64930732323E+04  0.65000000000E+04  0.30000000000E+03 0.  1.
     100001    1    1    2    0    0 -0.15681055856E+04 -0.76649422106E+03 -0.62594633341E+04  0.65000000000E+04  0.15050000000E+03 0.  1.
     100001    1    1    2    0    0  0.15681055856E+04  0.76649422106E+03  0.62594633341E+04  0.65000000000E+04  0.15050000000E+03 0. -1.
</event>
<event>
 4    1  0.4630618E-004  0.6500000E+04  0.7818608E-02  0.7223770E-01
         52   -1    0    0    0    0  0.00000000000E+00  0.00000000000E+00  0.64930732323E+04  0.65000000000E+04  0.30000000000E+03 0.  1.
        -52   -1    0    0    0    0 -0.00000000000E+00 -0.00000000000E+00 -0.64930732323E+04  0.65000000000E+04  0.30000000000E+03 0. -1.
     100001    1    1    2    0    0  0.70631459483E+03 -0.40849408284E+03  0.64468288350E+04  0.65000000000E+04  0.15050000000E+03 0.  1.
     100001    1    1    2    0    0 -0.70631459483E+03  0.40849408284E+03 -0.64468288350E+04  0.65000000000E+04  0.15050000000E+03 0. -1.
</event>
<event>
 4    1  0.4630618E-004  0.6500000E+04  0.7818608E-02  0.7223770E-01
         52   -1    0    0    0    0  0.00000000000E+00  0.00000000000E+00  0.64930732323E+04  0.65000000000E+04  0.30000000000E+03 0. -1.
        -52   -1    0    0    0    0 -0.00000000000E+00 -0.00000000000E+00 -0.64930732323E+04  0.65000000000E+04  0.30000000000E+03 0. -1.
     100001    1    1    2    0    0  0.16641874075E+03  0.32785137860E+03  0.64878477191E+04  0.65000000000E+04  0.15050000000E+03 0. -1.
     100001    1    1    2    0    0 -0.16641874075E+03 -0.32785137860E+03 -0.64878477191E+04  0.65000000000E+04  0.15050000000E+03 0. -1.
</event>
<event>
 4    1  0.4630618E-004  0.6500000E+04  0.7818608E-02  0.7223770E-01
         52   -1    0    0    0    0  0.00000000000E+00  0.00000000000E+00  0.64930732323E+04  0.65000000000E+04  0.30000000000E+03 0.  1.
        -52   -1    0    0    0    0 -0.00000000000E+00 -0.00000000000E+00 -0.64930732323E+04  0.65000000000E+04  0.30000000000E+03 0. -1.
     100001    1    1    2    0    0  0.38627846675E+04 -0.73099457010E+03 -0.51741560956E+04  0.65000000000E+04  0.15050000000E+03 0. -1.
     100001    1    1    2    0    0 -0.38627846675E+04  0.73099457010E+03  0.51741560956E+04  0.65000000000E+04  0.15050000000E+03 0.  1.
</event>
<event>
 4    1  0.4630618E-004  0.6500000E+04  0.7818608E-02  0.7223770E-01
         52   -1    0    0    0    0  0.00000000000E+00  0.00000000000E+00  0.64930732323E+04  0.65000000000E+04  0.30000000000E+03 0. -1.
        -52   -1    0    0    0    0 -0.00000000000E+00 -0.00000000000E+00 -0.64930732323E+04  0.65000000000E+04  0.30000000000E+03 0.  1.
     100001    1    1    2    0    0 -0.10111787020E+04  0.15680331266E+03 -0.64171863074E+04  0.65000000000E+04  0.15050000000E+03 0.  1.
     100001    1    1    2    0    0  0.10111787020E+04 -0.15680331266E+03  0.64171863074E+04  0.65000000000E+04  0.15050000000E+03 0. -1.
</event>
<event>
 4    1  0.4630618E-004  0.6500000E+04  0.7818608E-02  0.7223770E-01
         52   -1    0    0    0    0  0.00000000000E+00  0.00000000000E+00  0.64930732323E+04  0.65000000000E+04  0.30000000000E+03 0. -1.
        -52   -1    0    0    0    0 -0.00000000000E+00 -0.00000000000E+00 -0.64930732323E+04  0.65000000000E+04  0.30000000000E+03 0.  1.
     100001    1    1    2    0    0 -0.56951550503E+03  0.46540329192E+03  0.64565007253E+04  0.65000000000E+04  0.15050000000E+03 0. -1.
     100001    1    1    2    0    0  0.56951550503E+03 -0.46540329192E+03 -0.64565007253E+04  0.65000000000E+04  0.15050000000E+03 0.  1.
</event>
<event>
 4    1  0.4630618E-004  0.6500000E+04  0.7818608E-02  0.7223770E-01
         52   -1    0    0    0    0  0.00000000000E+00  0.00000000000E+00  0.64930732323E+04  0.65000000000E+04  0.30000000000E+03 0.  1.
        -52   -1    0    0    0    0 -0.00000000000E+00 -0.00000000000E+00 -0.64930732323E+04  0.65000000000E+04  0.30000000000E+03 0.  1.
     100001    1    1    2    0    0  0.24392131507E+03 -0.19260707541E+02  0.64936492951E+04  0.65000000000E+04  0.15050000000E+03 0.  1.
     100001    1    1    2    0    0 -0.24392131507E+03  0.19260707541E+02 -0.64936492951E+04  0.65000000000E+04  0.15050000000E+03 0.  1.
</event>
<event>
 4    1  0.4630618E-004  0.6500000E+04  0.7818608E-02  0.7223770E-01
         52   -1    0    0    0    0  0.00000000000E+00  0.00000000000E+00  0.64930732323E+04  0.65000000000E+04  0.30000000000E+03 0. -1.
        -52   -1    0    0    0    0 -0.00000000000E+00 -0.00000000000E+00 -0.64930732323E+04  0.65000000000E+04  0.30000000000E+03 0.  1.
     100001    1    1    2    0    0 -0.79424755446E+03  0.24397822571E+04 -0.59702582113E+04  0.65000000000E+04  0.15050000000E+03 0.  1.
     100001    1    1    2    0    0  0.79424755446E+03 -0.24397822571E+04  0.59702582113E+04  0.65000000000E+04  0.15050000000E+03 0. -1.
</event>
<event>
 4    1  0.4630618E-004  0.6500000E+04  0.7818608E-02  0.7223770E-01
         52   -1    0    0    0    0  0.00000000000E+00  0.00000000000E+00  0.64930732323E+04  0.65000000000E+04  0.30000000000E+03 0.  1.
        -52   -1    0    0    0    0 -0.00000000000E+00 -0.00000000000E+00 -0.64930732323E+04  0.65000000000E+04  0.30000000000E+03 0. -1.
     100001    1    1    2    0    0 -0.22377842222E+04 -0.46074926714E+03 -0.60833692669E+04  0.65000000000E+04  0.15050000000E+03 0. -1.
     100001    1    1    2    0    0  0.22377842222E+04  0.46074926714E+03  0.60833692669E+04  0.65000000000E+04  0.15050000000E+03 0.  1.
</event>
<event>
 4    1  0.4630618E-004  0.6500000E+04  0.7818608E-02  0.7223770E-01
         52   -1    0    0    0    0  0.00000000000E+00  0.00000000000E+00  0.64930732323E+04  0.65000000000E+04  0.30000000000E+03 0. -1.
        -52   -1    0    0    0    0 -0.00000000000E+00 -0.00000000000E+00 -0.64930732323E+04  0.65000000000E+04  0.30000000000E+03 0.  1.
     100001    1    1    2    0    0 -0.38307378784E+04  0.48324184512E+04 -0.20495192043E+04  0.65000000000E+04  0.15050000000E+03 0.  1.
     100001    1    1    2    0    0  0.38307378784E+04 -0.48324184512E+04  0.20495192043E+04  0.65000000000E+04  0.15050000000E+03 0. -1.
</event>
<event>
 4    1  0.4630618E-004  0.6500000E+04  0.7818608E-02  0.7223770E-01
         52   -1    0    0    0    0  0.00000000000E+00  0.00000000000E+00  0.64930732323E+04  0.65000000000E+04  0.30000000000E+03 0. -1.
        -52   -1    0    0    0    0 -0.00000000000E+00 -0.00000000000E+00 -0.64930732323E+04  0.65000000000E+04  0.30000000000E+03 0.  1.
     100001    1    1    2    0    0  0.34048327513E+03  0.20309611246E+04  0.61633284676E+04  0.65000000000E+04  0.15050000000E+03 0. -1.
     100001    1    1    2    0    0 -0.34048327513E+03 -0.20309611246E+04 -0.61633284676E+04  0.65000000000E+04  0.15050000000E+03 0.  1.
</event>
<event>
 4    1  0.4630618E-004  0.6500000E+04  0.7818608E-02  0.7223770E-01
         52   -1    0    0    0    0  0.00000000000E+00  0.00000000000E+00  0.64930732323E+04  0.65000000000E+04  0.30000000000E+03 0. -1.
        -52   -1    0    0    0    0 -0.00000000000E+00 -0.00000000000E+00 -0.64930732323E+04  0.65000000000E+04  0.30000000000E+03 0.  1.
     100001    1    1    2    0    0  0.15690726228E+04 -0.17271348567E+04 -0.60648467451E+04  0.65000000000E+04  0.15050000000E+03 0.  1.
     100001    1    1    2    0    0 -0.15690726228E+04  0.17271348567E+04  0.60648467451E+04  0.65000000000E+04  0.15050000000E+03 0. -1.
</event>
<event>
 4    1  0.4630618E-004  0.6500000E+04  0.7818608E-02  0.7223770E-01
         52   -1    0    0    0    0  0.00000000000E+00  0.00000000000E+00  0.64930732323E+04  0.65000000000E+04  0.30000000000E+03 0. -1.
        -52   -1    0    0    0    0 -0.00000000000E+00 -0.00000000000E+00 -0.64930732323E+04  0.65000000000E+04  0.30000000000E+03 0. -1.
     100001    1    1    2    0    0  0.32511179722E+03 -0.92855102294E+03  0.64233515447E+04  0.65000000000E+04  0.15050000000E+03 0. -1.
     100001    1    1    2    0    0 -0.32511179722E+03  0.92855102294E+03 -0.64233515447E+04  0.65000000000E+04  0.15050000000E+03 0. -1.
</event>
<event>
 4    1  0.4630618E-004  0.6500000E+04  0.7818608E-02  0.7223770E-01
         52   -1    0    0    0    0  0.00000000000E+00  0.00000000000E+00  0.64930732323E+04  0.65000000000E+04  0.30000000000E+03 0. -1.
        -52   -1    0    0    0    0 -0.00000000000E+00 -0.00000000000E+00 -0.64930732323E+04  0.65000000000E+04  0.30000000000E+03 0.  1.
     100001    1    1    2    0    0  0.30032628675E+04 -0.58186627333E+03  0.57331661007E+04  0.65000000000E+04  0.15050000000E+03 0. -1.
     100001    1    1    2    0    0 -0.30032628675E+04  0.58186627333E+03 -0.57331661007E+04  0.65000000000E+04  0.15050000000E+03 0.  1.
</event>
<event>
 4    1  0.4630618E-004  0.6500000E+04  0.7818608E-02  0.7223770E-01
         52   -1    0    0    0    0  0.00000000000E+00  0.00000000000E+00  0.64930732323E+04  0.65000000000E+04  0.30000000000E+03 0.  1.
        -52   -1    0    0    0    0 -0.00000000000E+00 -0.00000000000E+00 -0.64930732323E+04  0.65000000000E+04  0.30000000000E+03 0. -1.
     100001    1    1    2    0    0  0.38341266465E+04 -0.45716354176E+04 -0.25742906241E+04  0.65000000000E+04  0.15050000000E+03 0. -1.
     100001    1    1    2    0    0 -0.38341266465E+04  0.45716354176E+04  0.25742906241E+04  0.65000000000E+04  0.15050000000E+03 0.  1.
</event>
<event>
 4    1  0.4630618E-004  0.6500000E+04  0.7818608E-02  0.7223770E-01
         52   -1    0    0    0    0  0.00000000000E+00  0.00000000000E+00  0.64930732323E+04  0.65000000000E+04  0.30000000000E+03 0.  1.
        -52   -1    0    0    0    0 -0.00000000000E+00 -0.00000000000E+00 -0.64930732323E+04  0.65000000000E+04  0.30000000000E+03 0. -1.
     100001    1    1    2    0    0  0.11535505858E+03 -0.27023339318E+04 -0.59085898725E+04  0.65000000000E+04  0.15050000000E+03 0. -1.
     100001    1    1    2    0    0 -0.11535505858E+03  0.27023339318E+04  0.59085898725E+04  0.65000000000E+04  0.15050000000E+03 0.  1.
</event>
<event>
 4    1  0.4630618E-004  0.6500000E+04  0.7818608E-02  0.7223770E-01
         52   -1    0    0    0    0  0.00000000000E+00  0.00000000000E+00  0.64930732323E+04  0.65000000000E+04  0.30000000000E+03 0.  1.
        -52   -1    0    0    0    0 -0.00000000000E+00 -0.00000000000E+00 -0.64930732323E+04  0.65000000000E+04  0.30000000000E+03 0. -1.
     100001    1    1    2    0    0  0.40867146011E+03  0.32952672816E+02  0.64853104405E+04  0.65000000000E+04  0.15050000000E+03 0.  1.
     100001    1    1    2    0    0 -0.40867146011E+03 -0.32952672816E+02 -0.64853104405E+04  0.65000000000E+04  0.15050000000E+03 0. -1.
</event>
<event>
 4    1  0.4630618E-004  0.6500000E+04  0.7818608E-02  0.7223770E-01
         52   -1    0    0    0    0  0.00000000000E+00  0.00000000000E+00  0.64930732323E+04  0.65000000000E+04  0.30000000000E+03 0.  1.
        -52   -1    0    0    0    0 -0.00000000000E+00 -0.00000000000E+00 -0.64930732323E+04  0.65000000000E+04  0.30000000000E+03 0. -1.
     100001    1    1    2    0    0 -0.32195763108E+04  0.52566817074E+04 -0.20564473141E+04  0.65000000000E+04  0.15050000000E+03 0. -1.
     100001    1    1    2    0    0  0.32195763108E+04 -0.52566817074E+04  0.20564473141E+04  0.65000000000E+04  0.15050000000E+03 0.  1.
</event>
<event>
 4    1  0.4630618E-004  0.6500000E+04  0.7818608E-02  0.7223770E-01
         52   -1    0    0    0    0  0.00000000000E+00  0.00000000000E+00  0.64930732323E+04  0.65000000000E+04  0.30000000000E+03 0.  1.
        -52   -1    0    0    0    0 -0.00000000000E+00 -0.00000000000E+00 -0.64930732323E+04  0.65000000000E+04  0.30000000000E+03 0. -1.
     100001    1    1    2    0    0  0.20491343374E+03 -0.23810341413E+03 -0.64906599818E+04  0.65000000000E+04  0.15050000000E+03 0. -1.
     100001    1    1    2    0    0 -0.20491343374E+03  0.23810341413E+03  0.64906599818E+04  0.65000000000E+04  0.15050000000E+03 0.  1.
</event>
<event>
 4    1  0.4630618E-004  0.6500000E+04  0.7818608E-02  0.7223770E-01
         52   -1    0    0    0    0  0.00000000000E+00  0.00000000000E+00  0.64930732323E+04  0.65000000000E+04  0.30000000000E+03 0. -1.
        -52   -1    0    0    0    0 -0.00000000000E+00 -0.00000000000E+00 -0.64930732323E+04  0.65000000000E+04  0.30000000000E+03 0.  1.
     100001    1    1    2    0    0 -0.98377697109E+03 -0.19269696961E+04  0.61275052355E+04  0.65000000000E+04  0.15050000000E+03 0. -1.
     100001    1    1    2    0    0  0.98377697109E+03  0.19269696961E+04 -0.61275052355E+04  0.65000000000E+04  0.15050000000E+03 0.  1.
</event>
<event>
 4    1  0.4630618E-004  0.6500000E+04  0.7818608E-02  0.7223770E-01
         52   -1    0    0    0    0  0.00000000000E+00  0.00000000000E+00  0.64930732323E+04  0.65000000000E+04  0.30000000000E+03 0. -1.
        -52   -1    0    0    0    0 -0.00000000000E+00 -0.00000000000E+00 -0.64930732323E+04  0.65000000000E+04  0.30000000000E+03 0.  1.
     100001    1    1    2    0    0  0.67117337779E+03 -0.20381205625E+04 -0.61337542028E+04  0.65000000000E+04  0.15050000000E+03 0.  1.
     100001    1    1    2    0    0 -0.67117337779E+03  0.20381205625E+04  0.61337542028E+04  0.65000000000E+04  0.15050000000E+03 0. -1.
</event>
<event>
 4    1  0.4630618E-004  0.6500000E+04  0.7818608E-02  0.7223770E-01
         52   -1    0    0    0    0  0.00000000000E+00  0.00000000000E+00  0.64930732323E+04  0.65000000000E+04  0.30000000000E+03 0. -1.
        -52   -1    0    0    0    0 -0.00000000000E+00 -0.00000000000E+00 -0.64930732323E+04  0.65000000000E+04  0.30000000000E+03 0.  1.
     100001    1    1    2    0    0 -0.14670022121E+04 -0.12956079707E+04  0.61965033887E+04  0.65000000000E+04  0.15050000000E+03 0. -1.
     100001    1    1    2    0    0  0.14670022121E+04  0.12956079707E+04 -0.61965033887E+04  0.65000000000E+04  0.15050000000E+03 0.  1.
</event>
<event>
 4    1  0.4630618E-004  0.6500000E+04  0.7818608E-02  0.7223770E-01
         52   -1    0    0    0    0  0.00000000000E+00  0.00000000000E+00  0.64930732323E+04  0.65000000000E+04  0.30000000000E+03 0.  1.
        -52   -1    0    0    0    0 -0.00000000000E+00 -0.00000000000E+00 -0.64930732323E+04  0.65000000000E+04  0.30000000000E+03 0.  1.
     100001    1    1    2    0    0 -0.71954815576E+02 -0.18174450483E+01  0.64978587974E+04  0.65000000000E+04  0.15050000000E+03 0.  1.
     100001    1    1    2    0    0  0.71954815576E+02  0.18174450483E+01 -0.64978587974E+04  0.65000000000E+04  0.15050000000E+03 0.  1.
</event>
<event>
 4    1  0.4630618E-004  0.6500000E+04  0.7818608E-02  0.7223770E-01
         52   -1    0    0    0    0  0.00000000000E+00  0.00000000000E+00  0.64930732323E+04  0.65000000000E+04  0.30000000000E+03 0. -1.
        -52   -1    0    0    0    0 -0.00000000000E+00 -0.00000000000E+00 -0.64930732323E+04  0.65000000000E+04  0.30000000000E+03 0.  1.
     100001    1    1    2    0    0  0.44213617228E+03  0.28308312623E+03  0.64770154623E+04  0.65000000000E+04  0.15050000000E+03 0. -1.
     100001    1    1    2    0    0 -0.44213617228E+03 -0.28308312623E+03 -0.64770154623E+04  0.65000000000E+04  0.15050000000E+03 0.  1.
</event>
<event>
 4    1  0.4630618E-004  0.6500000E+04  0.7818608E-02  0.7223770E-01
         52   -1    0    0    0    0  0.00000000000E+00  0.00000000000E+00  0.64930732323E+04  0.65000000000E+04  0.30000000000E+03 0. -1.
        -52   -1    0    0    0    0 -0.00000000000E+00 -0.00000000000E+00 -0.64930732323E+04  0.65000000000E+04  0.30000000000E+03 0.  1.
     100001    1    1    2    0    0 -0.88779021622E+03  0.29607740947E+04 -0.57160296572E+04  0.65000000000E+04  0.15050000000E+03 0.  1.
     100001    1    1    2    0    0  0.88779021622E+03 -0.29607740947E+04  0.57160296572E+04  0.65000000000E+04  0.15050000000E+03 0. -1.
</event>
<event>
 4    1  0.4630618E-004  0.6500000E+04  0.7818608E-02  0.7223770E-01
         52   -1    0    0    0    0  0.00000000000E+00  0.00000000000E+00  0.64930732323E+04  0.65000000000E+04  0.30000000000E+03 0.  1.
        -52   -1    0    0    0    0 -0.00000000000E+00 -0.00000000000E+00 -0.64930732323E+04  0.65000000000E+04  0.30000000000E+03 0. -1.
     100001    1    1    2    0    0 -0.56417969472E+03 -0.51179731680E+03 -0.64534575639E+04  0.65000000000E+04  0.15050000000E+03 0. -1.
     100001    1    1    2    0    0  0.56417969472E+03  0.51179731680E+03  0.64534575639E+04  0.65000000000E+04  0.15050000000E+03 0.  1.
</event>
<event>
 4    1  0.4630618E-004  0.6500000E+04  0.7818608E-02  0.7223770E-01
         52   -1    0    0    0    0  0.00000000000E+00  0.00000000000E+00  0.64930732323E+04  0.65000000000E+04  0.30000000000E+03 0.  1.
        -52   -1    0    0    0    0 -0.00000000000E+00 -0.00000000000E+00 -0.64930732323E+04  0.65000000000E+04  0.30000000000E+03 0. -1.
     100001    1    1    2    0    0 -0.94076221418E+03  0.15632460222E+04  0.62368724599E+04  0.65000000000E+04  0.15050000000E+03 0.  1.
     100001    1    1    2    0    0  0.94076221418E+03 -0.15632460222E+04 -0.62368724599E+04  0.65000000000E+04  0.15050000000E+03 0. -1.
</event>
<event>
 4    1  0.4630618E-004  0.6500000E+04  0.7818608E-02  0.7223770E-01
         52   -1    0    0    0    0  0.00000000000E+00  0.00000000000E+00  0.64930732323E+04  0.65000000000E+04  0.30000000000E+03 0. -1.
        -52   -1    0    0    0    0 -0.00000000000E+00 -0.00000000000E+00 -0.64930732323E+04  0.65000000000E+04  0.30000000000E+03 0. -1.
     100001    1    1    2    0    0 -0.37310006022E+03 -0.31295641290E+03 -0.64799849057E+04  0.65000000000E+04  0.15050000000E+03 0. -1.
     100001    1    1    2    0    0  0.37310006022E+03  0.31295641290E+03  0.64799849057E+04  0.65000000000E+04  0.15050000000E+03 0. -1.
</event>
<event>
 4    1  0.4630618E-004  0.6500000E+04  0.7818608E-02  0.7223770E-01
         52   -1    0    0    0    0  0.00000000000E+00  0.00000000000E+00  0.64930732323E+04  0.65000000000E+04  0.30000000000E+03 0.  1.
        -52   -1    0    0    0    0 -0.00000000000E+00 -0.00000000000E+00 -0.64930732323E+04  0.65000000000E+04  0.30000000000E+03 0. -1.
     100001    1    1    2    0    0 -0.12369932588E+04 -0.85808122024E+02 -0.63788583927E+04  0.65000000000E+04  0.15050000000E+03 0. -1.
     100001    1    1    2    0    0  0.12369932588E+04  0.85808122024E+02  0.63788583927E+04  0.65000000000E+04  0.15050000000E+03 0.  1.
</event>
<event>
 4    1  0.4630618E-004  0.6500000E+04  0.7818608E-02  0.7223770E-01
         52   -1    0    0    0    0  0.00000000000E+00  0.00000000000E+00  0.64930732323E+04  0.65000000000E+04  0.30000000000E+03 0. -1.
        -52   -1    0    0    0    0 -0.00000000000E+00 -0.00000000000E+00 -0.64930732323E+04  0.65000000000E+04  0.30000000000E+03 0.  1.
     100001    1    1    2    0    0 -0.56084373749E+04 -0.44733334241E+03 -0.32515646761E+04  0.65000000000E+04  0.15050000000E+03 0.  1.
     100001    1    1    2    0    0  0.56084373749E+04  0.44733334241E+03  0.32515646761E+04  0.65000000000E+04  0.15050000000E+03 0. -1.
</event>
<event>
 4    1  0.4630618E-004  0.6500000E+04  0.7818608E-02  0.7223770E-01
         52   -1    0    0    0    0  0.00000000000E+00  0.00000000000E+00  0.64930732323E+04  0.65000000000E+04  0.30000000000E+03 0. -1.
        -52   -1    0    0    0    0 -0.00000000000E+00 -0.00000000000E+00 -0.64930732323E+04  0.65000000000E+04  0.30000000000E+03 0. -1.
     100001    1    1    2    0    0 -0.36467638897E+02  0.19516345958E+02 -0.64981258047E+04  0.65000000000E+04  0.15050000000E+03 0. -1.
     100001    1    1    2    0    0  0.36467638897E+02 -0.19516345958E+02  0.64981258047E+04  0.65000000000E+04  0.15050000000E+03 0. -1.
</event>
<event>
 4    1  0.4630618E-004  0.6500000E+04  0.7818608E-02  0.7223770E-01
         52   -1    0    0    0    0  0.00000000000E+00  0.00000000000E+00  0.64930732323E+04  0.65000000000E+04  0.30000000000E+03 0. -1.
        -52   -1    0    0    0    0 -0.00000000000E+00 -0.00000000000E+00 -0.64930732323E+04  0.65000000000E+04  0.30000000000E+03 0.  1.
     100001    1    1    2    0    0  0.40328083648E+03 -0.23819264007E+03  0.64813562302E+04  0.65000000000E+04  0.15050000000E+03 0. -1.
     100001    1    1    2    0    0 -0.40328083648E+03  0.23819264007E+03 -0.64813562302E+04  0.65000000000E+04  0.15050000000E+03 0.  1.
</event>
<event>
 4    1  0.4630618E-004  0.6500000E+04  0.7818608E-02  0.7223770E-01
         52   -1    0    0    0    0  0.00000000000E+00  0.00000000000E+00  0.64930732323E+04  0.65000000000E+04  0.30000000000E+03 0.  1.
        -52   -1    0    0    0    0 -0.00000000000E+00 -0.00000000000E+00 -0.64930732323E+04  0.65000000000E+04  0.30000000000E+03 0. -1.
     100001    1    1    2    0    0 -0.13153478583E+04 -0.26283364016E+04  0.57956067432E+04  0.65000000000E+04  0.15050000000E+03 0.  1.
     100001    1    1    2    0    0  0.13153478583E+04  0.26283364016E+04 -0.57956067432E+04  0.65000000000E+04  0.15050000000E+03 0. -1.
</event>
<event>
 4    1  0.4630618E-004  0.6500000E+04  0.7818608E-02  0.7223770E-01
         52   -1    0    0    0    0  0.00000000000E+00  0.00000000000E+00  0.64930732323E+04  0.65000000000E+04  0.30000000000E+03 0. -1.
        -52   -1    0    0    0    0 -0.00000000000E+00 -0.00000000000E+00 -0.64930732323E+04  0.65000000000E+04  0.30000000000E+03 0.  1.
     100001    1    1    2    0    0  0.65743356925E+02  0.86022972099E+03  0.64407322866E+04  0.65000000000E+04  0.15050000000E+03 0. -1.
     100001    1    1    2    0    0 -0.65743356925E+02 -0.86022972099E+03 -0.64407322866E+04  0.65000000000E+04  0.15050000000E+03 0.  1.
</event>
<event>
 4    1  0.4630618E-004  0.6500000E+04  0.7818608E-02  0.7223770E-01
         52   -1    0    0    0    0  0.00000000000E+00  0.00000000000E+00  0.64930732323E+04  0.65000000000E+04  0.30000000000E+03 0.  1.
        -52   -1    0    0    0    0 -0.00000000000E+00 -0.00000000000E+00 -0.64930732323E+04  0.65000000000E+04  0.30000000000E+03 0. -1.
     100001    1    1    2    0    0  0.91260848940E+03 -0.75675355943E+02  0.64334103503E+04  0.65000000000E+04  0.15050000000E+03 0.  1.
     100001    1    1    2    0    0 -0.91260848940E+03  0.75675355943E+02 -0.64334103503E+04  0.65000000000E+04  0.15050000000E+03 0. -1.
</event>
<event>
 4    1  0.4630618E-004  0.6500000E+04  0.7818608E-02  0.7223770E-01
         52   -1    0    0    0    0  0.00000000000E+00  0.00000000000E+00  0.64930732323E+04  0.65000000000E+04  0.30000000000E+03 0.  1.
        -52   -1    0    0    0    0 -0.00000000000E+00 -0.00000000000E+00 -0.64930732323E+04  0.65000000000E+04  0.30000000000E+03 0. -1.
     100001    1    1    2    0    0  0.18609129086E+04  0.67002015331E+03 -0.61899455483E+04  0.65000000000E+04  0.15050000000E+03 0. -1.
     100001    1    1    2    0    0 -0.18609129086E+04 -0.67002015331E+03  0.61899455483E+04  0.65000000000E+04  0.15050000000E+03 0.  1.
</event>
<event>
 4    1  0.4630618E-004  0.6500000E+04  0.7818608E-02  0.7223770E-01
         52   -1    0    0    0    0  0.00000000000E+00  0.00000000000E+00  0.64930732323E+04  0.65000000000E+04  0.30000000000E+03 0. -1.
        -52   -1    0    0    0    0 -0.00000000000E+00 -0.00000000000E+00 -0.64930732323E+04  0.65000000000E+04  0.30000000000E+03 0.  1.
     100001    1    1    2    0    0 -0.47604408746E+03 -0.97481825565E+02 -0.64800639712E+04  0.65000000000E+04  0.15050000000E+03 0.  1.
     100001    1    1    2    0    0  0.47604408746E+03  0.97481825565E+02  0.64800639712E+04  0.65000000000E+04  0.15050000000E+03 0. -1.
</event>
<event>
 4    1  0.4630618E-004  0.6500000E+04  0.7818608E-02  0.7223770E-01
         52   -1    0    0    0    0  0.00000000000E+00  0.00000000000E+00  0.64930732323E+04  0.65000000000E+04  0.30000000000E+03 0.  1.
        -52   -1    0    0    0    0 -0.00000000000E+00 -0.00000000000E+00 -0.64930732323E+04  0.65000000000E+04  0.30000000000E+03 0.  1.
     100001    1    1    2    0    0 -0.52204228603E+03 -0.16760476235E+03 -0.64750853466E+04  0.65000000000E+04  0.15050000000E+03 0.  1.
     100001    1    1    2    0    0  0.52204228603E+03  0.16760476235E+03  0.64750853466E+04  0.65000000000E+04  0.15050000000E+03 0.  1.
</event>
<event>
 4    1  0.4630618E-004  0.6500000E+04  0.7818608E-02  0.7223770E-01
         52   -1    0    0    0    0  0.00000000000E+00  0.00000000000E+00  0.64930732323E+04  0.65000000000E+04  0.30000000000E+03 0.  1.
        -52   -1    0    0    0    0 -0.00000000000E+00 -0.00000000000E+00 -0.64930732323E+04  0.65000000000E+04  0.30000000000E+03 0. -1.
     100001    1    1    2    0    0 -0.38181325888E+03 -0.58400260316E+04  0.28241218697E+04  0.65000000000E+04  0.15050000000E+03 0.  1.
     100001    1    1    2    0    0  0.38181325888E+03  0.58400260316E+04 -0.28241218697E+04  0.65000000000E+04  0.15050000000E+03 0. -1.
</event>
<event>
 4    1  0.4630618E-004  0.6500000E+04  0.7818608E-02  0.7223770E-01
         52   -1    0    0    0    0  0.00000000000E+00  0.00000000000E+00  0.64930732323E+04  0.65000000000E+04  0.30000000000E+03 0. -1.
        -52   -1    0    0    0    0 -0.00000000000E+00 -0.00000000000E+00 -0.64930732323E+04  0.65000000000E+04  0.30000000000E+03 0.  1.
     100001    1    1    2    0    0 -0.65088843040E+03  0.18118260769E+04 -0.62065272309E+04  0.65000000000E+04  0.15050000000E+03 0.  1.
     100001    1    1    2    0    0  0.65088843040E+03 -0.18118260769E+04  0.62065272309E+04  0.65000000000E+04  0.15050000000E+03 0. -1.
</event>
<event>
 4    1  0.4630618E-004  0.6500000E+04  0.7818608E-02  0.7223770E-01
         52   -1    0    0    0    0  0.00000000000E+00  0.00000000000E+00  0.64930732323E+04  0.65000000000E+04  0.30000000000E+03 0.  1.
        -52   -1    0    0    0    0 -0.00000000000E+00 -0.00000000000E+00 -0.64930732323E+04  0.65000000000E+04  0.30000000000E+03 0. -1.
     100001    1    1    2    0    0  0.22728349415E+04  0.17489444008E+03 -0.60853087854E+04  0.65000000000E+04  0.15050000000E+03 0. -1.
     100001    1    1    2    0    0 -0.22728349415E+04 -0.17489444008E+03  0.60853087854E+04  0.65000000000E+04  0.15050000000E+03 0.  1.
</event>
<event>
 4    1  0.4630618E-004  0.6500000E+04  0.7818608E-02  0.7223770E-01
         52   -1    0    0    0    0  0.00000000000E+00  0.00000000000E+00  0.64930732323E+04  0.65000000000E+04  0.30000000000E+03 0. -1.
        -52   -1    0    0    0    0 -0.00000000000E+00 -0.00000000000E+00 -0.64930732323E+04  0.65000000000E+04  0.30000000000E+03 0.  1.
     100001    1    1    2    0    0  0.25617505294E+03  0.11279037110E+03 -0.64922263072E+04  0.65000000000E+04  0.15050000000E+03 0.  1.
     100001    1    1    2    0    0 -0.25617505294E+03 -0.11279037110E+03  0.64922263072E+04  0.65000000000E+04  0.15050000000E+03 0. -1.
</event>
<event>
 4    1  0.6252298E-004  0.6500000E+04  0.7818608E-02  0.7223770E-01
         52   -1    0    0    0    0  0.00000000000E+00  0.00000000000E+00  0.64930732323E+04  0.65000000000E+04  0.30000000000E+03 0.  1.
        -52   -1    0    0    0    0 -0.00000000000E+00 -0.00000000000E+00 -0.64930732323E+04  0.65000000000E+04  0.30000000000E+03 0.  1.
     100001    1    1    2    0    0  0.74587276547E+02  0.52240022853E+02 -0.64976193693E+04  0.65000000000E+04  0.15050000000E+03 0.  1.
     100001    1    1    2    0    0 -0.74587276547E+02 -0.52240022853E+02  0.64976193693E+04  0.65000000000E+04  0.15050000000E+03 0.  1.
</event>
<event>
 4    1  0.4630618E-004  0.6500000E+04  0.7818608E-02  0.7223770E-01
         52   -1    0    0    0    0  0.00000000000E+00  0.00000000000E+00  0.64930732323E+04  0.65000000000E+04  0.30000000000E+03 0. -1.
        -52   -1    0    0    0    0 -0.00000000000E+00 -0.00000000000E+00 -0.64930732323E+04  0.65000000000E+04  0.30000000000E+03 0. -1.
     100001    1    1    2    0    0 -0.58229162565E+03 -0.25499483036E+03  0.64670908335E+04  0.65000000000E+04  0.15050000000E+03 0. -1.
     100001    1    1    2    0    0  0.58229162565E+03  0.25499483036E+03 -0.64670908335E+04  0.65000000000E+04  0.15050000000E+03 0. -1.
</event>
<event>
 4    1  0.4630618E-004  0.6500000E+04  0.7818608E-02  0.7223770E-01
         52   -1    0    0    0    0  0.00000000000E+00  0.00000000000E+00  0.64930732323E+04  0.65000000000E+04  0.30000000000E+03 0.  1.
        -52   -1    0    0    0    0 -0.00000000000E+00 -0.00000000000E+00 -0.64930732323E+04  0.65000000000E+04  0.30000000000E+03 0. -1.
     100001    1    1    2    0    0  0.15579043897E+04  0.14368391479E+03 -0.63071101620E+04  0.65000000000E+04  0.15050000000E+03 0. -1.
     100001    1    1    2    0    0 -0.15579043897E+04 -0.14368391479E+03  0.63071101620E+04  0.65000000000E+04  0.15050000000E+03 0.  1.
</event>
<event>
 4    1  0.4630618E-004  0.6500000E+04  0.7818608E-02  0.7223770E-01
         52   -1    0    0    0    0  0.00000000000E+00  0.00000000000E+00  0.64930732323E+04  0.65000000000E+04  0.30000000000E+03 0.  1.
        -52   -1    0    0    0    0 -0.00000000000E+00 -0.00000000000E+00 -0.64930732323E+04  0.65000000000E+04  0.30000000000E+03 0. -1.
     100001    1    1    2    0    0  0.67400845114E+03  0.10133350989E+04  0.63832761444E+04  0.65000000000E+04  0.15050000000E+03 0.  1.
     100001    1    1    2    0    0 -0.67400845114E+03 -0.10133350989E+04 -0.63832761444E+04  0.65000000000E+04  0.15050000000E+03 0. -1.
</event>
<event>
 4    1  0.4630618E-004  0.6500000E+04  0.7818608E-02  0.7223770E-01
         52   -1    0    0    0    0  0.00000000000E+00  0.00000000000E+00  0.64930732323E+04  0.65000000000E+04  0.30000000000E+03 0. -1.
        -52   -1    0    0    0    0 -0.00000000000E+00 -0.00000000000E+00 -0.64930732323E+04  0.65000000000E+04  0.30000000000E+03 0.  1.
     100001    1    1    2    0    0 -0.19684611222E+04 -0.52307393842E+03 -0.61708106611E+04  0.65000000000E+04  0.15050000000E+03 0.  1.
     100001    1    1    2    0    0  0.19684611222E+04  0.52307393842E+03  0.61708106611E+04  0.65000000000E+04  0.15050000000E+03 0. -1.
</event>
<event>
 4    1  0.4630618E-004  0.6500000E+04  0.7818608E-02  0.7223770E-01
         52   -1    0    0    0    0  0.00000000000E+00  0.00000000000E+00  0.64930732323E+04  0.65000000000E+04  0.30000000000E+03 0. -1.
        -52   -1    0    0    0    0 -0.00000000000E+00 -0.00000000000E+00 -0.64930732323E+04  0.65000000000E+04  0.30000000000E+03 0.  1.
     100001    1    1    2    0    0  0.10014162068E+04  0.56208041745E+04  0.31033974548E+04  0.65000000000E+04  0.15050000000E+03 0. -1.
     100001    1    1    2    0    0 -0.10014162068E+04 -0.56208041745E+04 -0.31033974548E+04  0.65000000000E+04  0.15050000000E+03 0.  1.
</event>
<event>
 4    1  0.4630618E-004  0.6500000E+04  0.7818608E-02  0.7223770E-01
         52   -1    0    0    0    0  0.00000000000E+00  0.00000000000E+00  0.64930732323E+04  0.65000000000E+04  0.30000000000E+03 0. -1.
        -52   -1    0    0    0    0 -0.00000000000E+00 -0.00000000000E+00 -0.64930732323E+04  0.65000000000E+04  0.30000000000E+03 0.  1.
     100001    1    1    2    0    0 -0.16762226228E+04  0.12023801454E+04 -0.61621351377E+04  0.65000000000E+04  0.15050000000E+03 0.  1.
     100001    1    1    2    0    0  0.16762226228E+04 -0.12023801454E+04  0.61621351377E+04  0.65000000000E+04  0.15050000000E+03 0. -1.
</event>
<event>
 4    1  0.4630618E-004  0.6500000E+04  0.7818608E-02  0.7223770E-01
         52   -1    0    0    0    0  0.00000000000E+00  0.00000000000E+00  0.64930732323E+04  0.65000000000E+04  0.30000000000E+03 0. -1.
        -52   -1    0    0    0    0 -0.00000000000E+00 -0.00000000000E+00 -0.64930732323E+04  0.65000000000E+04  0.30000000000E+03 0.  1.
     100001    1    1    2    0    0 -0.57313027993E+03  0.95605884585E+03  0.64019389965E+04  0.65000000000E+04  0.15050000000E+03 0. -1.
     100001    1    1    2    0    0  0.57313027993E+03 -0.95605884585E+03 -0.64019389965E+04  0.65000000000E+04  0.15050000000E+03 0.  1.
</event>
<event>
 4    1  0.4630618E-004  0.6500000E+04  0.7818608E-02  0.7223770E-01
         52   -1    0    0    0    0  0.00000000000E+00  0.00000000000E+00  0.64930732323E+04  0.65000000000E+04  0.30000000000E+03 0. -1.
        -52   -1    0    0    0    0 -0.00000000000E+00 -0.00000000000E+00 -0.64930732323E+04  0.65000000000E+04  0.30000000000E+03 0.  1.
     100001    1    1    2    0    0 -0.88491150925E+03 -0.91107994442E+03 -0.63729282677E+04  0.65000000000E+04  0.15050000000E+03 0.  1.
     100001    1    1    2    0    0  0.88491150925E+03  0.91107994442E+03  0.63729282677E+04  0.65000000000E+04  0.15050000000E+03 0. -1.
</event>
<event>
 4    1  0.4630618E-004  0.6500000E+04  0.7818608E-02  0.7223770E-01
         52   -1    0    0    0    0  0.00000000000E+00  0.00000000000E+00  0.64930732323E+04  0.65000000000E+04  0.30000000000E+03 0. -1.
        -52   -1    0    0    0    0 -0.00000000000E+00 -0.00000000000E+00 -0.64930732323E+04  0.65000000000E+04  0.30000000000E+03 0.  1.
     100001    1    1    2    0    0 -0.19005602571E+02  0.42070696787E+04 -0.49525299853E+04  0.65000000000E+04  0.15050000000E+03 0.  1.
     100001    1    1    2    0    0  0.19005602571E+02 -0.42070696787E+04  0.49525299853E+04  0.65000000000E+04  0.15050000000E+03 0. -1.
</event>
<event>
 4    1  0.4630618E-004  0.6500000E+04  0.7818608E-02  0.7223770E-01
         52   -1    0    0    0    0  0.00000000000E+00  0.00000000000E+00  0.64930732323E+04  0.65000000000E+04  0.30000000000E+03 0. -1.
        -52   -1    0    0    0    0 -0.00000000000E+00 -0.00000000000E+00 -0.64930732323E+04  0.65000000000E+04  0.30000000000E+03 0.  1.
     100001    1    1    2    0    0  0.74193936292E+03  0.23784965812E+04 -0.60016355892E+04  0.65000000000E+04  0.15050000000E+03 0.  1.
     100001    1    1    2    0    0 -0.74193936292E+03 -0.23784965812E+04  0.60016355892E+04  0.65000000000E+04  0.15050000000E+03 0. -1.
</event>
<event>
 4    1  0.4630618E-004  0.6500000E+04  0.7818608E-02  0.7223770E-01
         52   -1    0    0    0    0  0.00000000000E+00  0.00000000000E+00  0.64930732323E+04  0.65000000000E+04  0.30000000000E+03 0.  1.
        -52   -1    0    0    0    0 -0.00000000000E+00 -0.00000000000E+00 -0.64930732323E+04  0.65000000000E+04  0.30000000000E+03 0. -1.
     100001    1    1    2    0    0 -0.36617731847E+02  0.33818919114E+03 -0.64893479613E+04  0.65000000000E+04  0.15050000000E+03 0. -1.
     100001    1    1    2    0    0  0.36617731847E+02 -0.33818919114E+03  0.64893479613E+04  0.65000000000E+04  0.15050000000E+03 0.  1.
</event>
<event>
 4    1  0.4630618E-004  0.6500000E+04  0.7818608E-02  0.7223770E-01
         52   -1    0    0    0    0  0.00000000000E+00  0.00000000000E+00  0.64930732323E+04  0.65000000000E+04  0.30000000000E+03 0.  1.
        -52   -1    0    0    0    0 -0.00000000000E+00 -0.00000000000E+00 -0.64930732323E+04  0.65000000000E+04  0.30000000000E+03 0.  1.
     100001    1    1    2    0    0 -0.11198236715E+04 -0.72204458998E+02  0.64006352193E+04  0.65000000000E+04  0.15050000000E+03 0.  1.
     100001    1    1    2    0    0  0.11198236715E+04  0.72204458998E+02 -0.64006352193E+04  0.65000000000E+04  0.15050000000E+03 0.  1.
</event>
<event>
 4    1  0.4630618E-004  0.6500000E+04  0.7818608E-02  0.7223770E-01
         52   -1    0    0    0    0  0.00000000000E+00  0.00000000000E+00  0.64930732323E+04  0.65000000000E+04  0.30000000000E+03 0.  1.
        -52   -1    0    0    0    0 -0.00000000000E+00 -0.00000000000E+00 -0.64930732323E+04  0.65000000000E+04  0.30000000000E+03 0. -1.
     100001    1    1    2    0    0  0.56805223784E+03 -0.21891108794E+04 -0.60919996687E+04  0.65000000000E+04  0.15050000000E+03 0. -1.
     100001    1    1    2    0    0 -0.56805223784E+03  0.21891108794E+04  0.60919996687E+04  0.65000000000E+04  0.15050000000E+03 0.  1.
</event>
<event>
 4    1  0.4630618E-004  0.6500000E+04  0.7818608E-02  0.7223770E-01
         52   -1    0    0    0    0  0.00000000000E+00  0.00000000000E+00  0.64930732323E+04  0.65000000000E+04  0.30000000000E+03 0.  1.
        -52   -1    0    0    0    0 -0.00000000000E+00 -0.00000000000E+00 -0.64930732323E+04  0.65000000000E+04  0.30000000000E+03 0. -1.
     100001    1    1    2    0    0  0.40826564668E+04  0.17979475846E+04 -0.47251085074E+04  0.65000000000E+04  0.15050000000E+03 0.  1.
     100001    1    1    2    0    0 -0.40826564668E+04 -0.17979475846E+04  0.47251085074E+04  0.65000000000E+04  0.15050000000E+03 0. -1.
</event>
<event>
 4    1  0.4630618E-004  0.6500000E+04  0.7818608E-02  0.7223770E-01
         52   -1    0    0    0    0  0.00000000000E+00  0.00000000000E+00  0.64930732323E+04  0.65000000000E+04  0.30000000000E+03 0. -1.
        -52   -1    0    0    0    0 -0.00000000000E+00 -0.00000000000E+00 -0.64930732323E+04  0.65000000000E+04  0.30000000000E+03 0. -1.
     100001    1    1    2    0    0  0.34585317227E+03  0.11321354673E+03 -0.64880596503E+04  0.65000000000E+04  0.15050000000E+03 0. -1.
     100001    1    1    2    0    0 -0.34585317227E+03 -0.11321354673E+03  0.64880596503E+04  0.65000000000E+04  0.15050000000E+03 0. -1.
</event>
<event>
 4    1  0.4630618E-004  0.6500000E+04  0.7818608E-02  0.7223770E-01
         52   -1    0    0    0    0  0.00000000000E+00  0.00000000000E+00  0.64930732323E+04  0.65000000000E+04  0.30000000000E+03 0. -1.
        -52   -1    0    0    0    0 -0.00000000000E+00 -0.00000000000E+00 -0.64930732323E+04  0.65000000000E+04  0.30000000000E+03 0. -1.
     100001    1    1    2    0    0 -0.18420879044E+03  0.19919839137E+02 -0.64956154498E+04  0.65000000000E+04  0.15050000000E+03 0. -1.
     100001    1    1    2    0    0  0.18420879044E+03 -0.19919839137E+02  0.64956154498E+04  0.65000000000E+04  0.15050000000E+03 0. -1.
</event>
<event>
 4    1  0.4630618E-004  0.6500000E+04  0.7818608E-02  0.7223770E-01
         52   -1    0    0    0    0  0.00000000000E+00  0.00000000000E+00  0.64930732323E+04  0.65000000000E+04  0.30000000000E+03 0.  1.
        -52   -1    0    0    0    0 -0.00000000000E+00 -0.00000000000E+00 -0.64930732323E+04  0.65000000000E+04  0.30000000000E+03 0. -1.
     100001    1    1    2    0    0  0.96573837754E+03 -0.35302875866E+04  0.53695222033E+04  0.65000000000E+04  0.15050000000E+03 0.  1.
     100001    1    1    2    0    0 -0.96573837754E+03  0.35302875866E+04 -0.53695222033E+04  0.65000000000E+04  0.15050000000E+03 0. -1.
</event>
<event>
 4    1  0.5261444E-004  0.6500000E+04  0.7818608E-02  0.7223770E-01
         52   -1    0    0    0    0  0.00000000000E+00  0.00000000000E+00  0.64930732323E+04  0.65000000000E+04  0.30000000000E+03 0. -1.
        -52   -1    0    0    0    0 -0.00000000000E+00 -0.00000000000E+00 -0.64930732323E+04  0.65000000000E+04  0.30000000000E+03 0. -1.
     100001    1    1    2    0    0  0.43962304448E+02 -0.17833745177E+03  0.64956610764E+04  0.65000000000E+04  0.15050000000E+03 0. -1.
     100001    1    1    2    0    0 -0.43962304448E+02  0.17833745177E+03 -0.64956610764E+04  0.65000000000E+04  0.15050000000E+03 0. -1.
</event>
<event>
 4    1  0.4630618E-004  0.6500000E+04  0.7818608E-02  0.7223770E-01
         52   -1    0    0    0    0  0.00000000000E+00  0.00000000000E+00  0.64930732323E+04  0.65000000000E+04  0.30000000000E+03 0. -1.
        -52   -1    0    0    0    0 -0.00000000000E+00 -0.00000000000E+00 -0.64930732323E+04  0.65000000000E+04  0.30000000000E+03 0. -1.
     100001    1    1    2    0    0 -0.19376000183E+03  0.10615342144E+03  0.64945006169E+04  0.65000000000E+04  0.15050000000E+03 0. -1.
     100001    1    1    2    0    0  0.19376000183E+03 -0.10615342144E+03 -0.64945006169E+04  0.65000000000E+04  0.15050000000E+03 0. -1.
</event>
<event>
 4    1  0.4630618E-004  0.6500000E+04  0.7818608E-02  0.7223770E-01
         52   -1    0    0    0    0  0.00000000000E+00  0.00000000000E+00  0.64930732323E+04  0.65000000000E+04  0.30000000000E+03 0. -1.
        -52   -1    0    0    0    0 -0.00000000000E+00 -0.00000000000E+00 -0.64930732323E+04  0.65000000000E+04  0.30000000000E+03 0.  1.
     100001    1    1    2    0    0  0.37790015071E+04  0.43681104020E+03 -0.52683672494E+04  0.65000000000E+04  0.15050000000E+03 0.  1.
     100001    1    1    2    0    0 -0.37790015071E+04 -0.43681104020E+03  0.52683672494E+04  0.65000000000E+04  0.15050000000E+03 0. -1.
</event>
<event>
 4    1  0.4630618E-004  0.6500000E+04  0.7818608E-02  0.7223770E-01
         52   -1    0    0    0    0  0.00000000000E+00  0.00000000000E+00  0.64930732323E+04  0.65000000000E+04  0.30000000000E+03 0.  1.
        -52   -1    0    0    0    0 -0.00000000000E+00 -0.00000000000E+00 -0.64930732323E+04  0.65000000000E+04  0.30000000000E+03 0. -1.
     100001    1    1    2    0    0  0.27475911981E+03  0.26752632481E+02 -0.64923910443E+04  0.65000000000E+04  0.15050000000E+03 0. -1.
     100001    1    1    2    0    0 -0.27475911981E+03 -0.26752632481E+02  0.64923910443E+04  0.65000000000E+04  0.15050000000E+03 0.  1.
</event>
<event>
 4    1  0.4630618E-004  0.6500000E+04  0.7818608E-02  0.7223770E-01
         52   -1    0    0    0    0  0.00000000000E+00  0.00000000000E+00  0.64930732323E+04  0.65000000000E+04  0.30000000000E+03 0.  1.
        -52   -1    0    0    0    0 -0.00000000000E+00 -0.00000000000E+00 -0.64930732323E+04  0.65000000000E+04  0.30000000000E+03 0. -1.
     100001    1    1    2    0    0 -0.32602275053E+03 -0.27227601159E+03  0.64843600062E+04  0.65000000000E+04  0.15050000000E+03 0.  1.
     100001    1    1    2    0    0  0.32602275053E+03  0.27227601159E+03 -0.64843600062E+04  0.65000000000E+04  0.15050000000E+03 0. -1.
</event>
<event>
 4    1  0.4630618E-004  0.6500000E+04  0.7818608E-02  0.7223770E-01
         52   -1    0    0    0    0  0.00000000000E+00  0.00000000000E+00  0.64930732323E+04  0.65000000000E+04  0.30000000000E+03 0.  1.
        -52   -1    0    0    0    0 -0.00000000000E+00 -0.00000000000E+00 -0.64930732323E+04  0.65000000000E+04  0.30000000000E+03 0. -1.
     100001    1    1    2    0    0  0.15413663163E+04  0.15760707659E+04  0.61128995223E+04  0.65000000000E+04  0.15050000000E+03 0.  1.
     100001    1    1    2    0    0 -0.15413663163E+04 -0.15760707659E+04 -0.61128995223E+04  0.65000000000E+04  0.15050000000E+03 0. -1.
</event>
<event>
 4    1  0.4630618E-004  0.6500000E+04  0.7818608E-02  0.7223770E-01
         52   -1    0    0    0    0  0.00000000000E+00  0.00000000000E+00  0.64930732323E+04  0.65000000000E+04  0.30000000000E+03 0.  1.
        -52   -1    0    0    0    0 -0.00000000000E+00 -0.00000000000E+00 -0.64930732323E+04  0.65000000000E+04  0.30000000000E+03 0. -1.
     100001    1    1    2    0    0  0.68706043085E+02  0.12672688422E+04  0.63731200296E+04  0.65000000000E+04  0.15050000000E+03 0.  1.
     100001    1    1    2    0    0 -0.68706043085E+02 -0.12672688422E+04 -0.63731200296E+04  0.65000000000E+04  0.15050000000E+03 0. -1.
</event>
<event>
 4    1  0.5649609E-004  0.6500000E+04  0.7818608E-02  0.7223770E-01
         52   -1    0    0    0    0  0.00000000000E+00  0.00000000000E+00  0.64930732323E+04  0.65000000000E+04  0.30000000000E+03 0.  1.
        -52   -1    0    0    0    0 -0.00000000000E+00 -0.00000000000E+00 -0.64930732323E+04  0.65000000000E+04  0.30000000000E+03 0.  1.
     100001    1    1    2    0    0  0.11453533586E+03  0.81090299581E+02 -0.64967419350E+04  0.65000000000E+04  0.15050000000E+03 0.  1.
     100001    1    1    2    0    0 -0.11453533586E+03 -0.81090299581E+02  0.64967419350E+04  0.65000000000E+04  0.15050000000E+03 0.  1.
</event>
<event>
 4    1  0.4630618E-004  0.6500000E+04  0.7818608E-02  0.7223770E-01
         52   -1    0    0    0    0  0.00000000000E+00  0.00000000000E+00  0.64930732323E+04  0.65000000000E+04  0.30000000000E+03 0. -1.
        -52   -1    0    0    0    0 -0.00000000000E+00 -0.00000000000E+00 -0.64930732323E+04  0.65000000000E+04  0.30000000000E+03 0.  1.
     100001    1    1    2    0    0 -0.17670612397E+04  0.18968344073E+04 -0.59587635929E+04  0.65000000000E+04  0.15050000000E+03 0.  1.
     100001    1    1    2    0    0  0.17670612397E+04 -0.18968344073E+04  0.59587635929E+04  0.65000000000E+04  0.15050000000E+03 0. -1.
</event>
<event>
 4    1  0.4630618E-004  0.6500000E+04  0.7818608E-02  0.7223770E-01
         52   -1    0    0    0    0  0.00000000000E+00  0.00000000000E+00  0.64930732323E+04  0.65000000000E+04  0.30000000000E+03 0.  1.
        -52   -1    0    0    0    0 -0.00000000000E+00 -0.00000000000E+00 -0.64930732323E+04  0.65000000000E+04  0.30000000000E+03 0. -1.
     100001    1    1    2    0    0 -0.66197229400E+02 -0.85896509003E+03 -0.64408964167E+04  0.65000000000E+04  0.15050000000E+03 0. -1.
     100001    1    1    2    0    0  0.66197229400E+02  0.85896509003E+03  0.64408964167E+04  0.65000000000E+04  0.15050000000E+03 0.  1.
</event>
<event>
 4    1  0.4630618E-004  0.6500000E+04  0.7818608E-02  0.7223770E-01
         52   -1    0    0    0    0  0.00000000000E+00  0.00000000000E+00  0.64930732323E+04  0.65000000000E+04  0.30000000000E+03 0.  1.
        -52   -1    0    0    0    0 -0.00000000000E+00 -0.00000000000E+00 -0.64930732323E+04  0.65000000000E+04  0.30000000000E+03 0. -1.
     100001    1    1    2    0    0  0.18323819429E+04 -0.15935734650E+04 -0.60274579863E+04  0.65000000000E+04  0.15050000000E+03 0. -1.
     100001    1    1    2    0    0 -0.18323819429E+04  0.15935734650E+04  0.60274579863E+04  0.65000000000E+04  0.15050000000E+03 0.  1.
</event>
<event>
 4    1  0.4630618E-004  0.6500000E+04  0.7818608E-02  0.7223770E-01
         52   -1    0    0    0    0  0.00000000000E+00  0.00000000000E+00  0.64930732323E+04  0.65000000000E+04  0.30000000000E+03 0. -1.
        -52   -1    0    0    0    0 -0.00000000000E+00 -0.00000000000E+00 -0.64930732323E+04  0.65000000000E+04  0.30000000000E+03 0.  1.
     100001    1    1    2    0    0 -0.57929446138E+02 -0.59350338752E+03 -0.64708382500E+04  0.65000000000E+04  0.15050000000E+03 0.  1.
     100001    1    1    2    0    0  0.57929446138E+02  0.59350338752E+03  0.64708382500E+04  0.65000000000E+04  0.15050000000E+03 0. -1.
</event>
<event>
 4    1  0.4630618E-004  0.6500000E+04  0.7818608E-02  0.7223770E-01
         52   -1    0    0    0    0  0.00000000000E+00  0.00000000000E+00  0.64930732323E+04  0.65000000000E+04  0.30000000000E+03 0. -1.
        -52   -1    0    0    0    0 -0.00000000000E+00 -0.00000000000E+00 -0.64930732323E+04  0.65000000000E+04  0.30000000000E+03 0.  1.
     100001    1    1    2    0    0 -0.21063685959E+03  0.81950542075E+03 -0.64429335499E+04  0.65000000000E+04  0.15050000000E+03 0.  1.
     100001    1    1    2    0    0  0.21063685959E+03 -0.81950542075E+03  0.64429335499E+04  0.65000000000E+04  0.15050000000E+03 0. -1.
</event>
<event>
 4    1  0.4630618E-004  0.6500000E+04  0.7818608E-02  0.7223770E-01
         52   -1    0    0    0    0  0.00000000000E+00  0.00000000000E+00  0.64930732323E+04  0.65000000000E+04  0.30000000000E+03 0. -1.
        -52   -1    0    0    0    0 -0.00000000000E+00 -0.00000000000E+00 -0.64930732323E+04  0.65000000000E+04  0.30000000000E+03 0.  1.
     100001    1    1    2    0    0  0.57490141819E+04 -0.16588845244E+04 -0.25346178847E+04  0.65000000000E+04  0.15050000000E+03 0.  1.
     100001    1    1    2    0    0 -0.57490141819E+04  0.16588845244E+04  0.25346178847E+04  0.65000000000E+04  0.15050000000E+03 0. -1.
</event>
<event>
 4    1  0.4630618E-004  0.6500000E+04  0.7818608E-02  0.7223770E-01
         52   -1    0    0    0    0  0.00000000000E+00  0.00000000000E+00  0.64930732323E+04  0.65000000000E+04  0.30000000000E+03 0.  1.
        -52   -1    0    0    0    0 -0.00000000000E+00 -0.00000000000E+00 -0.64930732323E+04  0.65000000000E+04  0.30000000000E+03 0. -1.
     100001    1    1    2    0    0  0.34068733962E+03  0.23338894607E+03 -0.64851223185E+04  0.65000000000E+04  0.15050000000E+03 0. -1.
     100001    1    1    2    0    0 -0.34068733962E+03 -0.23338894607E+03  0.64851223185E+04  0.65000000000E+04  0.15050000000E+03 0.  1.
</event>
<event>
 4    1  0.4630618E-004  0.6500000E+04  0.7818608E-02  0.7223770E-01
         52   -1    0    0    0    0  0.00000000000E+00  0.00000000000E+00  0.64930732323E+04  0.65000000000E+04  0.30000000000E+03 0.  1.
        -52   -1    0    0    0    0 -0.00000000000E+00 -0.00000000000E+00 -0.64930732323E+04  0.65000000000E+04  0.30000000000E+03 0. -1.
     100001    1    1    2    0    0  0.24115700482E+03  0.13546972049E+04 -0.63509045444E+04  0.65000000000E+04  0.15050000000E+03 0. -1.
     100001    1    1    2    0    0 -0.24115700482E+03 -0.13546972049E+04  0.63509045444E+04  0.65000000000E+04  0.15050000000E+03 0.  1.
</event>
<event>
 4    1  0.4630618E-004  0.6500000E+04  0.7818608E-02  0.7223770E-01
         52   -1    0    0    0    0  0.00000000000E+00  0.00000000000E+00  0.64930732323E+04  0.65000000000E+04  0.30000000000E+03 0.  1.
        -52   -1    0    0    0    0 -0.00000000000E+00 -0.00000000000E+00 -0.64930732323E+04  0.65000000000E+04  0.30000000000E+03 0.  1.
     100001    1    1    2    0    0 -0.12341020423E+03  0.13384686891E+03  0.64957066349E+04  0.65000000000E+04  0.15050000000E+03 0.  1.
     100001    1    1    2    0    0  0.12341020423E+03 -0.13384686891E+03 -0.64957066349E+04  0.65000000000E+04  0.15050000000E+03 0.  1.
</event>
<event>
 4    1  0.4630618E-004  0.6500000E+04  0.7818608E-02  0.7223770E-01
         52   -1    0    0    0    0  0.00000000000E+00  0.00000000000E+00  0.64930732323E+04  0.65000000000E+04  0.30000000000E+03 0.  1.
        -52   -1    0    0    0    0 -0.00000000000E+00 -0.00000000000E+00 -0.64930732323E+04  0.65000000000E+04  0.30000000000E+03 0. -1.
     100001    1    1    2    0    0  0.80500905482E+03 -0.65977170115E+02 -0.64478645445E+04  0.65000000000E+04  0.15050000000E+03 0. -1.
     100001    1    1    2    0    0 -0.80500905482E+03  0.65977170115E+02  0.64478645445E+04  0.65000000000E+04  0.15050000000E+03 0.  1.
</event>
<event>
 4    1  0.4630618E-004  0.6500000E+04  0.7818608E-02  0.7223770E-01
         52   -1    0    0    0    0  0.00000000000E+00  0.00000000000E+00  0.64930732323E+04  0.65000000000E+04  0.30000000000E+03 0.  1.
        -52   -1    0    0    0    0 -0.00000000000E+00 -0.00000000000E+00 -0.64930732323E+04  0.65000000000E+04  0.30000000000E+03 0. -1.
     100001    1    1    2    0    0  0.59052521531E+04 -0.21493940335E+04  0.16539202056E+04  0.65000000000E+04  0.15050000000E+03 0.  1.
     100001    1    1    2    0    0 -0.59052521531E+04  0.21493940335E+04 -0.16539202056E+04  0.65000000000E+04  0.15050000000E+03 0. -1.
</event>
<event>
 4    1  0.4630618E-004  0.6500000E+04  0.7818608E-02  0.7223770E-01
         52   -1    0    0    0    0  0.00000000000E+00  0.00000000000E+00  0.64930732323E+04  0.65000000000E+04  0.30000000000E+03 0.  1.
        -52   -1    0    0    0    0 -0.00000000000E+00 -0.00000000000E+00 -0.64930732323E+04  0.65000000000E+04  0.30000000000E+03 0. -1.
     100001    1    1    2    0    0 -0.51727405389E+04  0.17145327015E+04 -0.35398421833E+04  0.65000000000E+04  0.15050000000E+03 0. -1.
     100001    1    1    2    0    0  0.51727405389E+04 -0.17145327015E+04  0.35398421833E+04  0.65000000000E+04  0.15050000000E+03 0.  1.
</event>
<event>
 4    1  0.4630618E-004  0.6500000E+04  0.7818608E-02  0.7223770E-01
         52   -1    0    0    0    0  0.00000000000E+00  0.00000000000E+00  0.64930732323E+04  0.65000000000E+04  0.30000000000E+03 0. -1.
        -52   -1    0    0    0    0 -0.00000000000E+00 -0.00000000000E+00 -0.64930732323E+04  0.65000000000E+04  0.30000000000E+03 0.  1.
     100001    1    1    2    0    0  0.55021010229E+04  0.11402709910E+03  0.34556087603E+04  0.65000000000E+04  0.15050000000E+03 0.  1.
     100001    1    1    2    0    0 -0.55021010229E+04 -0.11402709910E+03 -0.34556087603E+04  0.65000000000E+04  0.15050000000E+03 0. -1.
</event>
<event>
 4    1  0.4630618E-004  0.6500000E+04  0.7818608E-02  0.7223770E-01
         52   -1    0    0    0    0  0.00000000000E+00  0.00000000000E+00  0.64930732323E+04  0.65000000000E+04  0.30000000000E+03 0. -1.
        -52   -1    0    0    0    0 -0.00000000000E+00 -0.00000000000E+00 -0.64930732323E+04  0.65000000000E+04  0.30000000000E+03 0.  1.
     100001    1    1    2    0    0  0.58581695838E+03  0.12989783582E+04 -0.63400964871E+04  0.65000000000E+04  0.15050000000E+03 0.  1.
     100001    1    1    2    0    0 -0.58581695838E+03 -0.12989783582E+04  0.63400964871E+04  0.65000000000E+04  0.15050000000E+03 0. -1.
</event>
<event>
 4    1  0.4630618E-004  0.6500000E+04  0.7818608E-02  0.7223770E-01
         52   -1    0    0    0    0  0.00000000000E+00  0.00000000000E+00  0.64930732323E+04  0.65000000000E+04  0.30000000000E+03 0.  1.
        -52   -1    0    0    0    0 -0.00000000000E+00 -0.00000000000E+00 -0.64930732323E+04  0.65000000000E+04  0.30000000000E+03 0. -1.
     100001    1    1    2    0    0 -0.97792673406E+03 -0.37374062545E+04  0.52252084687E+04  0.65000000000E+04  0.15050000000E+03 0.  1.
     100001    1    1    2    0    0  0.97792673406E+03  0.37374062545E+04 -0.52252084687E+04  0.65000000000E+04  0.15050000000E+03 0. -1.
</event>
<event>
 4    1  0.4630618E-004  0.6500000E+04  0.7818608E-02  0.7223770E-01
         52   -1    0    0    0    0  0.00000000000E+00  0.00000000000E+00  0.64930732323E+04  0.65000000000E+04  0.30000000000E+03 0. -1.
        -52   -1    0    0    0    0 -0.00000000000E+00 -0.00000000000E+00 -0.64930732323E+04  0.65000000000E+04  0.30000000000E+03 0. -1.
     100001    1    1    2    0    0 -0.34147079177E+02  0.55470218186E+03  0.64744489508E+04  0.65000000000E+04  0.15050000000E+03 0. -1.
     100001    1    1    2    0    0  0.34147079177E+02 -0.55470218186E+03 -0.64744489508E+04  0.65000000000E+04  0.15050000000E+03 0. -1.
</event>
<event>
 4    1  0.4630618E-004  0.6500000E+04  0.7818608E-02  0.7223770E-01
         52   -1    0    0    0    0  0.00000000000E+00  0.00000000000E+00  0.64930732323E+04  0.65000000000E+04  0.30000000000E+03 0. -1.
        -52   -1    0    0    0    0 -0.00000000000E+00 -0.00000000000E+00 -0.64930732323E+04  0.65000000000E+04  0.30000000000E+03 0.  1.
     100001    1    1    2    0    0  0.12547997335E+04 -0.86872678343E+03  0.63164975385E+04  0.65000000000E+04  0.15050000000E+03 0. -1.
     100001    1    1    2    0    0 -0.12547997335E+04  0.86872678343E+03 -0.63164975385E+04  0.65000000000E+04  0.15050000000E+03 0.  1.
</event>
<event>
 4    1  0.4630618E-004  0.6500000E+04  0.7818608E-02  0.7223770E-01
         52   -1    0    0    0    0  0.00000000000E+00  0.00000000000E+00  0.64930732323E+04  0.65000000000E+04  0.30000000000E+03 0.  1.
        -52   -1    0    0    0    0 -0.00000000000E+00 -0.00000000000E+00 -0.64930732323E+04  0.65000000000E+04  0.30000000000E+03 0. -1.
     100001    1    1    2    0    0 -0.91140782287E+03  0.29861543399E+04 -0.56990848203E+04  0.65000000000E+04  0.15050000000E+03 0. -1.
     100001    1    1    2    0    0  0.91140782287E+03 -0.29861543399E+04  0.56990848203E+04  0.65000000000E+04  0.15050000000E+03 0.  1.
</event>
<event>
 4    1  0.4630618E-004  0.6500000E+04  0.7818608E-02  0.7223770E-01
         52   -1    0    0    0    0  0.00000000000E+00  0.00000000000E+00  0.64930732323E+04  0.65000000000E+04  0.30000000000E+03 0. -1.
        -52   -1    0    0    0    0 -0.00000000000E+00 -0.00000000000E+00 -0.64930732323E+04  0.65000000000E+04  0.30000000000E+03 0.  1.
     100001    1    1    2    0    0  0.60250311387E+04  0.14615566558E+03  0.24300181169E+04  0.65000000000E+04  0.15050000000E+03 0. -1.
     100001    1    1    2    0    0 -0.60250311387E+04 -0.14615566558E+03 -0.24300181169E+04  0.65000000000E+04  0.15050000000E+03 0.  1.
</event>
<event>
 4    1  0.4630618E-004  0.6500000E+04  0.7818608E-02  0.7223770E-01
         52   -1    0    0    0    0  0.00000000000E+00  0.00000000000E+00  0.64930732323E+04  0.65000000000E+04  0.30000000000E+03 0. -1.
        -52   -1    0    0    0    0 -0.00000000000E+00 -0.00000000000E+00 -0.64930732323E+04  0.65000000000E+04  0.30000000000E+03 0.  1.
     100001    1    1    2    0    0  0.43092690536E+04  0.11029995914E+04  0.47371871269E+04  0.65000000000E+04  0.15050000000E+03 0. -1.
     100001    1    1    2    0    0 -0.43092690536E+04 -0.11029995914E+04 -0.47371871269E+04  0.65000000000E+04  0.15050000000E+03 0.  1.
</event>
<event>
 4    1  0.4630618E-004  0.6500000E+04  0.7818608E-02  0.7223770E-01
         52   -1    0    0    0    0  0.00000000000E+00  0.00000000000E+00  0.64930732323E+04  0.65000000000E+04  0.30000000000E+03 0.  1.
        -52   -1    0    0    0    0 -0.00000000000E+00 -0.00000000000E+00 -0.64930732323E+04  0.65000000000E+04  0.30000000000E+03 0. -1.
     100001    1    1    2    0    0 -0.60569378987E+04 -0.15835863590E+04  0.17415818342E+04  0.65000000000E+04  0.15050000000E+03 0. -1.
     100001    1    1    2    0    0  0.60569378987E+04  0.15835863590E+04 -0.17415818342E+04  0.65000000000E+04  0.15050000000E+03 0.  1.
</event>
<event>
 4    1  0.4630618E-004  0.6500000E+04  0.7818608E-02  0.7223770E-01
         52   -1    0    0    0    0  0.00000000000E+00  0.00000000000E+00  0.64930732323E+04  0.65000000000E+04  0.30000000000E+03 0. -1.
        -52   -1    0    0    0    0 -0.00000000000E+00 -0.00000000000E+00 -0.64930732323E+04  0.65000000000E+04  0.30000000000E+03 0. -1.
     100001    1    1    2    0    0  0.55463077327E+03 -0.81985422112E+02 -0.64740260152E+04  0.65000000000E+04  0.15050000000E+03 0. -1.
     100001    1    1    2    0    0 -0.55463077327E+03  0.81985422112E+02  0.64740260152E+04  0.65000000000E+04  0.15050000000E+03 0. -1.
</event>
<event>
 4    1  0.4630618E-004  0.6500000E+04  0.7818608E-02  0.7223770E-01
         52   -1    0    0    0    0  0.00000000000E+00  0.00000000000E+00  0.64930732323E+04  0.65000000000E+04  0.30000000000E+03 0.  1.
        -52   -1    0    0    0    0 -0.00000000000E+00 -0.00000000000E+00 -0.64930732323E+04  0.65000000000E+04  0.30000000000E+03 0. -1.
     100001    1    1    2    0    0  0.24088839302E+03 -0.63213431727E+03  0.64629504669E+04  0.65000000000E+04  0.15050000000E+03 0.  1.
     100001    1    1    2    0    0 -0.24088839302E+03  0.63213431727E+03 -0.64629504669E+04  0.65000000000E+04  0.15050000000E+03 0. -1.
</event>
<event>
 4    1  0.4630618E-004  0.6500000E+04  0.7818608E-02  0.7223770E-01
         52   -1    0    0    0    0  0.00000000000E+00  0.00000000000E+00  0.64930732323E+04  0.65000000000E+04  0.30000000000E+03 0.  1.
        -52   -1    0    0    0    0 -0.00000000000E+00 -0.00000000000E+00 -0.64930732323E+04  0.65000000000E+04  0.30000000000E+03 0.  1.
     100001    1    1    2    0    0 -0.11105082226E+03 -0.38003927189E+03  0.64861843650E+04  0.65000000000E+04  0.15050000000E+03 0.  1.
     100001    1    1    2    0    0  0.11105082226E+03  0.38003927189E+03 -0.64861843650E+04  0.65000000000E+04  0.15050000000E+03 0.  1.
</event>
<event>
 4    1  0.4630618E-004  0.6500000E+04  0.7818608E-02  0.7223770E-01
         52   -1    0    0    0    0  0.00000000000E+00  0.00000000000E+00  0.64930732323E+04  0.65000000000E+04  0.30000000000E+03 0.  1.
        -52   -1    0    0    0    0 -0.00000000000E+00 -0.00000000000E+00 -0.64930732323E+04  0.65000000000E+04  0.30000000000E+03 0. -1.
     100001    1    1    2    0    0  0.19064475129E+03 -0.19907825630E+04  0.61828625341E+04  0.65000000000E+04  0.15050000000E+03 0.  1.
     100001    1    1    2    0    0 -0.19064475129E+03  0.19907825630E+04 -0.61828625341E+04  0.65000000000E+04  0.15050000000E+03 0. -1.
</event>
<event>
 4    1  0.4630618E-004  0.6500000E+04  0.7818608E-02  0.7223770E-01
         52   -1    0    0    0    0  0.00000000000E+00  0.00000000000E+00  0.64930732323E+04  0.65000000000E+04  0.30000000000E+03 0. -1.
        -52   -1    0    0    0    0 -0.00000000000E+00 -0.00000000000E+00 -0.64930732323E+04  0.65000000000E+04  0.30000000000E+03 0. -1.
     100001    1    1    2    0    0 -0.64288377848E+02 -0.22480462000E+03  0.64940495561E+04  0.65000000000E+04  0.15050000000E+03 0. -1.
     100001    1    1    2    0    0  0.64288377848E+02  0.22480462000E+03 -0.64940495561E+04  0.65000000000E+04  0.15050000000E+03 0. -1.
</event>
<event>
 4    1  0.4630618E-004  0.6500000E+04  0.7818608E-02  0.7223770E-01
         52   -1    0    0    0    0  0.00000000000E+00  0.00000000000E+00  0.64930732323E+04  0.65000000000E+04  0.30000000000E+03 0. -1.
        -52   -1    0    0    0    0 -0.00000000000E+00 -0.00000000000E+00 -0.64930732323E+04  0.65000000000E+04  0.30000000000E+03 0. -1.
     100001    1    1    2    0    0  0.20194493022E+03 -0.20284501904E+03  0.64919505461E+04  0.65000000000E+04  0.15050000000E+03 0. -1.
     100001    1    1    2    0    0 -0.20194493022E+03  0.20284501904E+03 -0.64919505461E+04  0.65000000000E+04  0.15050000000E+03 0. -1.
</event>
<event>
 4    1  0.4630618E-004  0.6500000E+04  0.7818608E-02  0.7223770E-01
         52   -1    0    0    0    0  0.00000000000E+00  0.00000000000E+00  0.64930732323E+04  0.65000000000E+04  0.30000000000E+03 0.  1.
        -52   -1    0    0    0    0 -0.00000000000E+00 -0.00000000000E+00 -0.64930732323E+04  0.65000000000E+04  0.30000000000E+03 0. -1.
     100001    1    1    2    0    0 -0.60808035145E+03 -0.18430974330E+03  0.64671182110E+04  0.65000000000E+04  0.15050000000E+03 0.  1.
     100001    1    1    2    0    0  0.60808035145E+03  0.18430974330E+03 -0.64671182110E+04  0.65000000000E+04  0.15050000000E+03 0. -1.
</event>
<event>
 4    1  0.4630618E-004  0.6500000E+04  0.7818608E-02  0.7223770E-01
         52   -1    0    0    0    0  0.00000000000E+00  0.00000000000E+00  0.64930732323E+04  0.65000000000E+04  0.30000000000E+03 0. -1.
        -52   -1    0    0    0    0 -0.00000000000E+00 -0.00000000000E+00 -0.64930732323E+04  0.65000000000E+04  0.30000000000E+03 0.  1.
     100001    1    1    2    0    0  0.28510805538E+04  0.58094121889E+04  0.59111711575E+03  0.65000000000E+04  0.15050000000E+03 0.  1.
     100001    1    1    2    0    0 -0.28510805538E+04 -0.58094121889E+04 -0.59111711575E+03  0.65000000000E+04  0.15050000000E+03 0. -1.
</event>
<event>
 4    1  0.4630618E-004  0.6500000E+04  0.7818608E-02  0.7223770E-01
         52   -1    0    0    0    0  0.00000000000E+00  0.00000000000E+00  0.64930732323E+04  0.65000000000E+04  0.30000000000E+03 0.  1.
        -52   -1    0    0    0    0 -0.00000000000E+00 -0.00000000000E+00 -0.64930732323E+04  0.65000000000E+04  0.30000000000E+03 0.  1.
     100001    1    1    2    0    0 -0.15273453873E+04  0.38435268898E+01  0.63162133470E+04  0.65000000000E+04  0.15050000000E+03 0.  1.
     100001    1    1    2    0    0  0.15273453873E+04 -0.38435268898E+01 -0.63162133470E+04  0.65000000000E+04  0.15050000000E+03 0.  1.
</event>
<event>
 4    1  0.4630618E-004  0.6500000E+04  0.7818608E-02  0.7223770E-01
         52   -1    0    0    0    0  0.00000000000E+00  0.00000000000E+00  0.64930732323E+04  0.65000000000E+04  0.30000000000E+03 0.  1.
        -52   -1    0    0    0    0 -0.00000000000E+00 -0.00000000000E+00 -0.64930732323E+04  0.65000000000E+04  0.30000000000E+03 0. -1.
     100001    1    1    2    0    0 -0.37207721753E+04 -0.14720009741E+04 -0.51201969984E+04  0.65000000000E+04  0.15050000000E+03 0. -1.
     100001    1    1    2    0    0  0.37207721753E+04  0.14720009741E+04  0.51201969984E+04  0.65000000000E+04  0.15050000000E+03 0.  1.
</event>
<event>
 4    1  0.4630618E-004  0.6500000E+04  0.7818608E-02  0.7223770E-01
         52   -1    0    0    0    0  0.00000000000E+00  0.00000000000E+00  0.64930732323E+04  0.65000000000E+04  0.30000000000E+03 0. -1.
        -52   -1    0    0    0    0 -0.00000000000E+00 -0.00000000000E+00 -0.64930732323E+04  0.65000000000E+04  0.30000000000E+03 0.  1.
     100001    1    1    2    0    0  0.17879501940E+04  0.26299854742E+04 -0.56669004102E+04  0.65000000000E+04  0.15050000000E+03 0.  1.
     100001    1    1    2    0    0 -0.17879501940E+04 -0.26299854742E+04  0.56669004102E+04  0.65000000000E+04  0.15050000000E+03 0. -1.
</event>
<event>
 4    1  0.4630618E-004  0.6500000E+04  0.7818608E-02  0.7223770E-01
         52   -1    0    0    0    0  0.00000000000E+00  0.00000000000E+00  0.64930732323E+04  0.65000000000E+04  0.30000000000E+03 0. -1.
        -52   -1    0    0    0    0 -0.00000000000E+00 -0.00000000000E+00 -0.64930732323E+04  0.65000000000E+04  0.30000000000E+03 0.  1.
     100001    1    1    2    0    0 -0.35922031115E+04  0.36786570964E+04 -0.39737776137E+04  0.65000000000E+04  0.15050000000E+03 0.  1.
     100001    1    1    2    0    0  0.35922031115E+04 -0.36786570964E+04  0.39737776137E+04  0.65000000000E+04  0.15050000000E+03 0. -1.
</event>
<event>
 4    1  0.4630618E-004  0.6500000E+04  0.7818608E-02  0.7223770E-01
         52   -1    0    0    0    0  0.00000000000E+00  0.00000000000E+00  0.64930732323E+04  0.65000000000E+04  0.30000000000E+03 0. -1.
        -52   -1    0    0    0    0 -0.00000000000E+00 -0.00000000000E+00 -0.64930732323E+04  0.65000000000E+04  0.30000000000E+03 0. -1.
     100001    1    1    2    0    0 -0.41567146592E+03  0.14267135842E+03  0.64833796639E+04  0.65000000000E+04  0.15050000000E+03 0. -1.
     100001    1    1    2    0    0  0.41567146592E+03 -0.14267135842E+03 -0.64833796639E+04  0.65000000000E+04  0.15050000000E+03 0. -1.
</event>
<event>
 4    1  0.4630618E-004  0.6500000E+04  0.7818608E-02  0.7223770E-01
         52   -1    0    0    0    0  0.00000000000E+00  0.00000000000E+00  0.64930732323E+04  0.65000000000E+04  0.30000000000E+03 0.  1.
        -52   -1    0    0    0    0 -0.00000000000E+00 -0.00000000000E+00 -0.64930732323E+04  0.65000000000E+04  0.30000000000E+03 0. -1.
     100001    1    1    2    0    0  0.29496249543E+04 -0.17194013924E+04  0.55290796007E+04  0.65000000000E+04  0.15050000000E+03 0.  1.
     100001    1    1    2    0    0 -0.29496249543E+04  0.17194013924E+04 -0.55290796007E+04  0.65000000000E+04  0.15050000000E+03 0. -1.
</event>
<event>
 4    1  0.4630618E-004  0.6500000E+04  0.7818608E-02  0.7223770E-01
         52   -1    0    0    0    0  0.00000000000E+00  0.00000000000E+00  0.64930732323E+04  0.65000000000E+04  0.30000000000E+03 0.  1.
        -52   -1    0    0    0    0 -0.00000000000E+00 -0.00000000000E+00 -0.64930732323E+04  0.65000000000E+04  0.30000000000E+03 0. -1.
     100001    1    1    2    0    0  0.11404957722E+04 -0.16024682736E+03 -0.63953842807E+04  0.65000000000E+04  0.15050000000E+03 0. -1.
     100001    1    1    2    0    0 -0.11404957722E+04  0.16024682736E+03  0.63953842807E+04  0.65000000000E+04  0.15050000000E+03 0.  1.
</event>
<event>
 4    1  0.4630618E-004  0.6500000E+04  0.7818608E-02  0.7223770E-01
         52   -1    0    0    0    0  0.00000000000E+00  0.00000000000E+00  0.64930732323E+04  0.65000000000E+04  0.30000000000E+03 0.  1.
        -52   -1    0    0    0    0 -0.00000000000E+00 -0.00000000000E+00 -0.64930732323E+04  0.65000000000E+04  0.30000000000E+03 0. -1.
     100001    1    1    2    0    0 -0.32997099826E+04 -0.97238255496E+03  0.55130514189E+04  0.65000000000E+04  0.15050000000E+03 0. -1.
     100001    1    1    2    0    0  0.32997099826E+04  0.97238255496E+03 -0.55130514189E+04  0.65000000000E+04  0.15050000000E+03 0.  1.
</event>
<event>
 4    1  0.4630618E-004  0.6500000E+04  0.7818608E-02  0.7223770E-01
         52   -1    0    0    0    0  0.00000000000E+00  0.00000000000E+00  0.64930732323E+04  0.65000000000E+04  0.30000000000E+03 0.  1.
        -52   -1    0    0    0    0 -0.00000000000E+00 -0.00000000000E+00 -0.64930732323E+04  0.65000000000E+04  0.30000000000E+03 0. -1.
     100001    1    1    2    0    0 -0.30213527574E+04  0.20161074393E+04  0.53883288744E+04  0.65000000000E+04  0.15050000000E+03 0.  1.
     100001    1    1    2    0    0  0.30213527574E+04 -0.20161074393E+04 -0.53883288744E+04  0.65000000000E+04  0.15050000000E+03 0. -1.
</event>
<event>
 4    1  0.4630618E-004  0.6500000E+04  0.7818608E-02  0.7223770E-01
         52   -1    0    0    0    0  0.00000000000E+00  0.00000000000E+00  0.64930732323E+04  0.65000000000E+04  0.30000000000E+03 0.  1.
        -52   -1    0    0    0    0 -0.00000000000E+00 -0.00000000000E+00 -0.64930732323E+04  0.65000000000E+04  0.30000000000E+03 0. -1.
     100001    1    1    2    0    0 -0.33845774565E+03  0.11497241789E+04  0.63867777804E+04  0.65000000000E+04  0.15050000000E+03 0.  1.
     100001    1    1    2    0    0  0.33845774565E+03 -0.11497241789E+04 -0.63867777804E+04  0.65000000000E+04  0.15050000000E+03 0. -1.
</event>
<event>
 4    1  0.4630618E-004  0.6500000E+04  0.7818608E-02  0.7223770E-01
         52   -1    0    0    0    0  0.00000000000E+00  0.00000000000E+00  0.64930732323E+04  0.65000000000E+04  0.30000000000E+03 0.  1.
        -52   -1    0    0    0    0 -0.00000000000E+00 -0.00000000000E+00 -0.64930732323E+04  0.65000000000E+04  0.30000000000E+03 0. -1.
     100001    1    1    2    0    0  0.32812399363E+04 -0.25497828349E+04  0.49959405246E+04  0.65000000000E+04  0.15050000000E+03 0.  1.
     100001    1    1    2    0    0 -0.32812399363E+04  0.25497828349E+04 -0.49959405246E+04  0.65000000000E+04  0.15050000000E+03 0. -1.
</event>
<event>
 4    1  0.4630618E-004  0.6500000E+04  0.7818608E-02  0.7223770E-01
         52   -1    0    0    0    0  0.00000000000E+00  0.00000000000E+00  0.64930732323E+04  0.65000000000E+04  0.30000000000E+03 0.  1.
        -52   -1    0    0    0    0 -0.00000000000E+00 -0.00000000000E+00 -0.64930732323E+04  0.65000000000E+04  0.30000000000E+03 0. -1.
     100001    1    1    2    0    0 -0.87810511742E+03 -0.16983726406E+03 -0.64364148760E+04  0.65000000000E+04  0.15050000000E+03 0. -1.
     100001    1    1    2    0    0  0.87810511742E+03  0.16983726406E+03  0.64364148760E+04  0.65000000000E+04  0.15050000000E+03 0.  1.
</event>
<event>
 4    1  0.4630618E-004  0.6500000E+04  0.7818608E-02  0.7223770E-01
         52   -1    0    0    0    0  0.00000000000E+00  0.00000000000E+00  0.64930732323E+04  0.65000000000E+04  0.30000000000E+03 0.  1.
        -52   -1    0    0    0    0 -0.00000000000E+00 -0.00000000000E+00 -0.64930732323E+04  0.65000000000E+04  0.30000000000E+03 0.  1.
     100001    1    1    2    0    0  0.26974253618E+03  0.45989468804E+03 -0.64763481678E+04  0.65000000000E+04  0.15050000000E+03 0.  1.
     100001    1    1    2    0    0 -0.26974253618E+03 -0.45989468804E+03  0.64763481678E+04  0.65000000000E+04  0.15050000000E+03 0.  1.
</event>
<event>
 4    1  0.6917920E-004  0.6500000E+04  0.7818608E-02  0.7223770E-01
         52   -1    0    0    0    0  0.00000000000E+00  0.00000000000E+00  0.64930732323E+04  0.65000000000E+04  0.30000000000E+03 0. -1.
        -52   -1    0    0    0    0 -0.00000000000E+00 -0.00000000000E+00 -0.64930732323E+04  0.65000000000E+04  0.30000000000E+03 0. -1.
     100001    1    1    2    0    0 -0.87217656820E+02  0.33268548390E+02 -0.64975869393E+04  0.65000000000E+04  0.15050000000E+03 0. -1.
     100001    1    1    2    0    0  0.87217656820E+02 -0.33268548390E+02  0.64975869393E+04  0.65000000000E+04  0.15050000000E+03 0. -1.
</event>
<event>
 4    1  0.4630618E-004  0.6500000E+04  0.7818608E-02  0.7223770E-01
         52   -1    0    0    0    0  0.00000000000E+00  0.00000000000E+00  0.64930732323E+04  0.65000000000E+04  0.30000000000E+03 0.  1.
        -52   -1    0    0    0    0 -0.00000000000E+00 -0.00000000000E+00 -0.64930732323E+04  0.65000000000E+04  0.30000000000E+03 0. -1.
     100001    1    1    2    0    0 -0.10818270552E+03  0.50549443170E+03  0.64776632848E+04  0.65000000000E+04  0.15050000000E+03 0.  1.
     100001    1    1    2    0    0  0.10818270552E+03 -0.50549443170E+03 -0.64776632848E+04  0.65000000000E+04  0.15050000000E+03 0. -1.
</event>
<event>
 4    1  0.4630618E-004  0.6500000E+04  0.7818608E-02  0.7223770E-01
         52   -1    0    0    0    0  0.00000000000E+00  0.00000000000E+00  0.64930732323E+04  0.65000000000E+04  0.30000000000E+03 0. -1.
        -52   -1    0    0    0    0 -0.00000000000E+00 -0.00000000000E+00 -0.64930732323E+04  0.65000000000E+04  0.30000000000E+03 0.  1.
     100001    1    1    2    0    0  0.33460169022E+03  0.32541506428E+03 -0.64814733275E+04  0.65000000000E+04  0.15050000000E+03 0.  1.
     100001    1    1    2    0    0 -0.33460169022E+03 -0.32541506428E+03  0.64814733275E+04  0.65000000000E+04  0.15050000000E+03 0. -1.
</event>
<event>
 4    1  0.4630618E-004  0.6500000E+04  0.7818608E-02  0.7223770E-01
         52   -1    0    0    0    0  0.00000000000E+00  0.00000000000E+00  0.64930732323E+04  0.65000000000E+04  0.30000000000E+03 0. -1.
        -52   -1    0    0    0    0 -0.00000000000E+00 -0.00000000000E+00 -0.64930732323E+04  0.65000000000E+04  0.30000000000E+03 0.  1.
     100001    1    1    2    0    0  0.31995186371E+04  0.24045017824E+04 -0.51194532345E+04  0.65000000000E+04  0.15050000000E+03 0.  1.
     100001    1    1    2    0    0 -0.31995186371E+04 -0.24045017824E+04  0.51194532345E+04  0.65000000000E+04  0.15050000000E+03 0. -1.
</event>
<event>
 4    1  0.6249821E-004  0.6500000E+04  0.7818608E-02  0.7223770E-01
         52   -1    0    0    0    0  0.00000000000E+00  0.00000000000E+00  0.64930732323E+04  0.65000000000E+04  0.30000000000E+03 0.  1.
        -52   -1    0    0    0    0 -0.00000000000E+00 -0.00000000000E+00 -0.64930732323E+04  0.65000000000E+04  0.30000000000E+03 0. -1.
     100001    1    1    2    0    0  0.17105523210E+03 -0.53879917937E+02 -0.64957822325E+04  0.65000000000E+04  0.15050000000E+03 0. -1.
     100001    1    1    2    0    0 -0.17105523210E+03  0.53879917937E+02  0.64957822325E+04  0.65000000000E+04  0.15050000000E+03 0.  1.
</event>
<event>
 4    1  0.4630618E-004  0.6500000E+04  0.7818608E-02  0.7223770E-01
         52   -1    0    0    0    0  0.00000000000E+00  0.00000000000E+00  0.64930732323E+04  0.65000000000E+04  0.30000000000E+03 0. -1.
        -52   -1    0    0    0    0 -0.00000000000E+00 -0.00000000000E+00 -0.64930732323E+04  0.65000000000E+04  0.30000000000E+03 0.  1.
     100001    1    1    2    0    0 -0.14256202955E+04 -0.18788855601E+04  0.60551420772E+04  0.65000000000E+04  0.15050000000E+03 0. -1.
     100001    1    1    2    0    0  0.14256202955E+04  0.18788855601E+04 -0.60551420772E+04  0.65000000000E+04  0.15050000000E+03 0.  1.
</event>
<event>
 4    1  0.4630618E-004  0.6500000E+04  0.7818608E-02  0.7223770E-01
         52   -1    0    0    0    0  0.00000000000E+00  0.00000000000E+00  0.64930732323E+04  0.65000000000E+04  0.30000000000E+03 0.  1.
        -52   -1    0    0    0    0 -0.00000000000E+00 -0.00000000000E+00 -0.64930732323E+04  0.65000000000E+04  0.30000000000E+03 0. -1.
     100001    1    1    2    0    0 -0.11263353625E+04 -0.14532319952E+04 -0.62327229338E+04  0.65000000000E+04  0.15050000000E+03 0. -1.
     100001    1    1    2    0    0  0.11263353625E+04  0.14532319952E+04  0.62327229338E+04  0.65000000000E+04  0.15050000000E+03 0.  1.
</event>
<event>
 4    1  0.4630618E-004  0.6500000E+04  0.7818608E-02  0.7223770E-01
         52   -1    0    0    0    0  0.00000000000E+00  0.00000000000E+00  0.64930732323E+04  0.65000000000E+04  0.30000000000E+03 0. -1.
        -52   -1    0    0    0    0 -0.00000000000E+00 -0.00000000000E+00 -0.64930732323E+04  0.65000000000E+04  0.30000000000E+03 0.  1.
     100001    1    1    2    0    0 -0.49386721854E+04 -0.82962122769E+03 -0.41410862601E+04  0.65000000000E+04  0.15050000000E+03 0.  1.
     100001    1    1    2    0    0  0.49386721854E+04  0.82962122769E+03  0.41410862601E+04  0.65000000000E+04  0.15050000000E+03 0. -1.
</event>
<event>
 4    1  0.4630618E-004  0.6500000E+04  0.7818608E-02  0.7223770E-01
         52   -1    0    0    0    0  0.00000000000E+00  0.00000000000E+00  0.64930732323E+04  0.65000000000E+04  0.30000000000E+03 0.  1.
        -52   -1    0    0    0    0 -0.00000000000E+00 -0.00000000000E+00 -0.64930732323E+04  0.65000000000E+04  0.30000000000E+03 0.  1.
     100001    1    1    2    0    0  0.28282513666E+03  0.17303385795E+03  0.64897934463E+04  0.65000000000E+04  0.15050000000E+03 0.  1.
     100001    1    1    2    0    0 -0.28282513666E+03 -0.17303385795E+03 -0.64897934463E+04  0.65000000000E+04  0.15050000000E+03 0.  1.
</event>
<event>
 4    1  0.4630618E-004  0.6500000E+04  0.7818608E-02  0.7223770E-01
         52   -1    0    0    0    0  0.00000000000E+00  0.00000000000E+00  0.64930732323E+04  0.65000000000E+04  0.30000000000E+03 0.  1.
        -52   -1    0    0    0    0 -0.00000000000E+00 -0.00000000000E+00 -0.64930732323E+04  0.65000000000E+04  0.30000000000E+03 0.  1.
     100001    1    1    2    0    0  0.28778509648E+03 -0.57282119800E+02  0.64916290904E+04  0.65000000000E+04  0.15050000000E+03 0.  1.
     100001    1    1    2    0    0 -0.28778509648E+03  0.57282119800E+02 -0.64916290904E+04  0.65000000000E+04  0.15050000000E+03 0.  1.
</event>
<event>
 4    1  0.4630618E-004  0.6500000E+04  0.7818608E-02  0.7223770E-01
         52   -1    0    0    0    0  0.00000000000E+00  0.00000000000E+00  0.64930732323E+04  0.65000000000E+04  0.30000000000E+03 0.  1.
        -52   -1    0    0    0    0 -0.00000000000E+00 -0.00000000000E+00 -0.64930732323E+04  0.65000000000E+04  0.30000000000E+03 0. -1.
     100001    1    1    2    0    0  0.99339645798E+02  0.22016883640E+04 -0.61131047539E+04  0.65000000000E+04  0.15050000000E+03 0. -1.
     100001    1    1    2    0    0 -0.99339645798E+02 -0.22016883640E+04  0.61131047539E+04  0.65000000000E+04  0.15050000000E+03 0.  1.
</event>
<event>
 4    1  0.4630618E-004  0.6500000E+04  0.7818608E-02  0.7223770E-01
         52   -1    0    0    0    0  0.00000000000E+00  0.00000000000E+00  0.64930732323E+04  0.65000000000E+04  0.30000000000E+03 0.  1.
        -52   -1    0    0    0    0 -0.00000000000E+00 -0.00000000000E+00 -0.64930732323E+04  0.65000000000E+04  0.30000000000E+03 0. -1.
     100001    1    1    2    0    0  0.40083872330E+03  0.11301474246E+04  0.63866614805E+04  0.65000000000E+04  0.15050000000E+03 0.  1.
     100001    1    1    2    0    0 -0.40083872330E+03 -0.11301474246E+04 -0.63866614805E+04  0.65000000000E+04  0.15050000000E+03 0. -1.
</event>
<event>
 4    1  0.4630618E-004  0.6500000E+04  0.7818608E-02  0.7223770E-01
         52   -1    0    0    0    0  0.00000000000E+00  0.00000000000E+00  0.64930732323E+04  0.65000000000E+04  0.30000000000E+03 0.  1.
        -52   -1    0    0    0    0 -0.00000000000E+00 -0.00000000000E+00 -0.64930732323E+04  0.65000000000E+04  0.30000000000E+03 0.  1.
     100001    1    1    2    0    0 -0.23447628472E+03 -0.57689341553E+02 -0.64937695187E+04  0.65000000000E+04  0.15050000000E+03 0.  1.
     100001    1    1    2    0    0  0.23447628472E+03  0.57689341553E+02  0.64937695187E+04  0.65000000000E+04  0.15050000000E+03 0.  1.
</event>
<event>
 4    1  0.4630618E-004  0.6500000E+04  0.7818608E-02  0.7223770E-01
         52   -1    0    0    0    0  0.00000000000E+00  0.00000000000E+00  0.64930732323E+04  0.65000000000E+04  0.30000000000E+03 0. -1.
        -52   -1    0    0    0    0 -0.00000000000E+00 -0.00000000000E+00 -0.64930732323E+04  0.65000000000E+04  0.30000000000E+03 0.  1.
     100001    1    1    2    0    0 -0.43806914669E+03 -0.84487777219E+03 -0.64281900036E+04  0.65000000000E+04  0.15050000000E+03 0.  1.
     100001    1    1    2    0    0  0.43806914669E+03  0.84487777219E+03  0.64281900036E+04  0.65000000000E+04  0.15050000000E+03 0. -1.
</event>
<event>
 4    1  0.4630618E-004  0.6500000E+04  0.7818608E-02  0.7223770E-01
         52   -1    0    0    0    0  0.00000000000E+00  0.00000000000E+00  0.64930732323E+04  0.65000000000E+04  0.30000000000E+03 0.  1.
        -52   -1    0    0    0    0 -0.00000000000E+00 -0.00000000000E+00 -0.64930732323E+04  0.65000000000E+04  0.30000000000E+03 0. -1.
     100001    1    1    2    0    0 -0.39245463477E+04  0.36463424766E+03  0.51664618047E+04  0.65000000000E+04  0.15050000000E+03 0.  1.
     100001    1    1    2    0    0  0.39245463477E+04 -0.36463424766E+03 -0.51664618047E+04  0.65000000000E+04  0.15050000000E+03 0. -1.
</event>
<event>
 4    1  0.4630618E-004  0.6500000E+04  0.7818608E-02  0.7223770E-01
         52   -1    0    0    0    0  0.00000000000E+00  0.00000000000E+00  0.64930732323E+04  0.65000000000E+04  0.30000000000E+03 0.  1.
        -52   -1    0    0    0    0 -0.00000000000E+00 -0.00000000000E+00 -0.64930732323E+04  0.65000000000E+04  0.30000000000E+03 0.  1.
     100001    1    1    2    0    0 -0.58249712712E+03  0.71077249420E+02 -0.64717072610E+04  0.65000000000E+04  0.15050000000E+03 0.  1.
     100001    1    1    2    0    0  0.58249712712E+03 -0.71077249420E+02  0.64717072610E+04  0.65000000000E+04  0.15050000000E+03 0.  1.
</event>
<event>
 4    1  0.4630618E-004  0.6500000E+04  0.7818608E-02  0.7223770E-01
         52   -1    0    0    0    0  0.00000000000E+00  0.00000000000E+00  0.64930732323E+04  0.65000000000E+04  0.30000000000E+03 0.  1.
        -52   -1    0    0    0    0 -0.00000000000E+00 -0.00000000000E+00 -0.64930732323E+04  0.65000000000E+04  0.30000000000E+03 0. -1.
     100001    1    1    2    0    0  0.13923671557E+04 -0.75049479873E+03 -0.63028105644E+04  0.65000000000E+04  0.15050000000E+03 0. -1.
     100001    1    1    2    0    0 -0.13923671557E+04  0.75049479873E+03  0.63028105644E+04  0.65000000000E+04  0.15050000000E+03 0.  1.
</event>
<event>
 4    1  0.4630618E-004  0.6500000E+04  0.7818608E-02  0.7223770E-01
         52   -1    0    0    0    0  0.00000000000E+00  0.00000000000E+00  0.64930732323E+04  0.65000000000E+04  0.30000000000E+03 0. -1.
        -52   -1    0    0    0    0 -0.00000000000E+00 -0.00000000000E+00 -0.64930732323E+04  0.65000000000E+04  0.30000000000E+03 0. -1.
     100001    1    1    2    0    0  0.84612004269E+03 -0.88094313366E+02 -0.64423342055E+04  0.65000000000E+04  0.15050000000E+03 0. -1.
     100001    1    1    2    0    0 -0.84612004269E+03  0.88094313366E+02  0.64423342055E+04  0.65000000000E+04  0.15050000000E+03 0. -1.
</event>
<event>
 4    1  0.6412723E-004  0.6500000E+04  0.7818608E-02  0.7223770E-01
         52   -1    0    0    0    0  0.00000000000E+00  0.00000000000E+00  0.64930732323E+04  0.65000000000E+04  0.30000000000E+03 0.  1.
        -52   -1    0    0    0    0 -0.00000000000E+00 -0.00000000000E+00 -0.64930732323E+04  0.65000000000E+04  0.30000000000E+03 0.  1.
     100001    1    1    2    0    0  0.15635264703E+02  0.40500647329E+02  0.64981124172E+04  0.65000000000E+04  0.15050000000E+03 0.  1.
     100001    1    1    2    0    0 -0.15635264703E+02 -0.40500647329E+02 -0.64981124172E+04  0.65000000000E+04  0.15050000000E+03 0.  1.
</event>
<event>
 4    1  0.4630618E-004  0.6500000E+04  0.7818608E-02  0.7223770E-01
         52   -1    0    0    0    0  0.00000000000E+00  0.00000000000E+00  0.64930732323E+04  0.65000000000E+04  0.30000000000E+03 0. -1.
        -52   -1    0    0    0    0 -0.00000000000E+00 -0.00000000000E+00 -0.64930732323E+04  0.65000000000E+04  0.30000000000E+03 0. -1.
     100001    1    1    2    0    0  0.11708143068E+03  0.65829538227E+03  0.64637673905E+04  0.65000000000E+04  0.15050000000E+03 0. -1.
     100001    1    1    2    0    0 -0.11708143068E+03 -0.65829538227E+03 -0.64637673905E+04  0.65000000000E+04  0.15050000000E+03 0. -1.
</event>
<event>
 4    1  0.4630618E-004  0.6500000E+04  0.7818608E-02  0.7223770E-01
         52   -1    0    0    0    0  0.00000000000E+00  0.00000000000E+00  0.64930732323E+04  0.65000000000E+04  0.30000000000E+03 0. -1.
        -52   -1    0    0    0    0 -0.00000000000E+00 -0.00000000000E+00 -0.64930732323E+04  0.65000000000E+04  0.30000000000E+03 0.  1.
     100001    1    1    2    0    0 -0.37485169943E+02 -0.61657645692E+03  0.64688312766E+04  0.65000000000E+04  0.15050000000E+03 0. -1.
     100001    1    1    2    0    0  0.37485169943E+02  0.61657645692E+03 -0.64688312766E+04  0.65000000000E+04  0.15050000000E+03 0.  1.
</event>
<event>
 4    1  0.4630618E-004  0.6500000E+04  0.7818608E-02  0.7223770E-01
         52   -1    0    0    0    0  0.00000000000E+00  0.00000000000E+00  0.64930732323E+04  0.65000000000E+04  0.30000000000E+03 0.  1.
        -52   -1    0    0    0    0 -0.00000000000E+00 -0.00000000000E+00 -0.64930732323E+04  0.65000000000E+04  0.30000000000E+03 0. -1.
     100001    1    1    2    0    0  0.67866415951E+03 -0.13618187501E+04 -0.63176114474E+04  0.65000000000E+04  0.15050000000E+03 0. -1.
     100001    1    1    2    0    0 -0.67866415951E+03  0.13618187501E+04  0.63176114474E+04  0.65000000000E+04  0.15050000000E+03 0.  1.
</event>
<event>
 4    1  0.4630618E-004  0.6500000E+04  0.7818608E-02  0.7223770E-01
         52   -1    0    0    0    0  0.00000000000E+00  0.00000000000E+00  0.64930732323E+04  0.65000000000E+04  0.30000000000E+03 0. -1.
        -52   -1    0    0    0    0 -0.00000000000E+00 -0.00000000000E+00 -0.64930732323E+04  0.65000000000E+04  0.30000000000E+03 0.  1.
     100001    1    1    2    0    0 -0.41262407764E+03  0.59621087665E+03 -0.64576794370E+04  0.65000000000E+04  0.15050000000E+03 0.  1.
     100001    1    1    2    0    0  0.41262407764E+03 -0.59621087665E+03  0.64576794370E+04  0.65000000000E+04  0.15050000000E+03 0. -1.
</event>
<event>
 4    1  0.4630618E-004  0.6500000E+04  0.7818608E-02  0.7223770E-01
         52   -1    0    0    0    0  0.00000000000E+00  0.00000000000E+00  0.64930732323E+04  0.65000000000E+04  0.30000000000E+03 0. -1.
        -52   -1    0    0    0    0 -0.00000000000E+00 -0.00000000000E+00 -0.64930732323E+04  0.65000000000E+04  0.30000000000E+03 0.  1.
     100001    1    1    2    0    0 -0.39287455214E+03  0.46703283178E+03 -0.64695347337E+04  0.65000000000E+04  0.15050000000E+03 0.  1.
     100001    1    1    2    0    0  0.39287455214E+03 -0.46703283178E+03  0.64695347337E+04  0.65000000000E+04  0.15050000000E+03 0. -1.
</event>
<event>
 4    1  0.4630618E-004  0.6500000E+04  0.7818608E-02  0.7223770E-01
         52   -1    0    0    0    0  0.00000000000E+00  0.00000000000E+00  0.64930732323E+04  0.65000000000E+04  0.30000000000E+03 0.  1.
        -52   -1    0    0    0    0 -0.00000000000E+00 -0.00000000000E+00 -0.64930732323E+04  0.65000000000E+04  0.30000000000E+03 0. -1.
     100001    1    1    2    0    0 -0.13245659076E+04 -0.60794131041E+04  0.18744629139E+04  0.65000000000E+04  0.15050000000E+03 0.  1.
     100001    1    1    2    0    0  0.13245659076E+04  0.60794131041E+04 -0.18744629139E+04  0.65000000000E+04  0.15050000000E+03 0. -1.
</event>
<event>
 4    1  0.4630618E-004  0.6500000E+04  0.7818608E-02  0.7223770E-01
         52   -1    0    0    0    0  0.00000000000E+00  0.00000000000E+00  0.64930732323E+04  0.65000000000E+04  0.30000000000E+03 0.  1.
        -52   -1    0    0    0    0 -0.00000000000E+00 -0.00000000000E+00 -0.64930732323E+04  0.65000000000E+04  0.30000000000E+03 0. -1.
     100001    1    1    2    0    0  0.38366097228E+03 -0.89535186727E+02 -0.64863038364E+04  0.65000000000E+04  0.15050000000E+03 0. -1.
     100001    1    1    2    0    0 -0.38366097228E+03  0.89535186727E+02  0.64863038364E+04  0.65000000000E+04  0.15050000000E+03 0.  1.
</event>
<event>
 4    1  0.4630618E-004  0.6500000E+04  0.7818608E-02  0.7223770E-01
         52   -1    0    0    0    0  0.00000000000E+00  0.00000000000E+00  0.64930732323E+04  0.65000000000E+04  0.30000000000E+03 0.  1.
        -52   -1    0    0    0    0 -0.00000000000E+00 -0.00000000000E+00 -0.64930732323E+04  0.65000000000E+04  0.30000000000E+03 0. -1.
     100001    1    1    2    0    0  0.56894873141E+04  0.11844875022E+04  0.29075888997E+04  0.65000000000E+04  0.15050000000E+03 0.  1.
     100001    1    1    2    0    0 -0.56894873141E+04 -0.11844875022E+04 -0.29075888997E+04  0.65000000000E+04  0.15050000000E+03 0. -1.
</event>
<event>
 4    1  0.4630618E-004  0.6500000E+04  0.7818608E-02  0.7223770E-01
         52   -1    0    0    0    0  0.00000000000E+00  0.00000000000E+00  0.64930732323E+04  0.65000000000E+04  0.30000000000E+03 0. -1.
        -52   -1    0    0    0    0 -0.00000000000E+00 -0.00000000000E+00 -0.64930732323E+04  0.65000000000E+04  0.30000000000E+03 0.  1.
     100001    1    1    2    0    0  0.39222122786E+04  0.48314163185E+04  0.18711004645E+04  0.65000000000E+04  0.15050000000E+03 0. -1.
     100001    1    1    2    0    0 -0.39222122786E+04 -0.48314163185E+04 -0.18711004645E+04  0.65000000000E+04  0.15050000000E+03 0.  1.
</event>
<event>
 4    1  0.4630618E-004  0.6500000E+04  0.7818608E-02  0.7223770E-01
         52   -1    0    0    0    0  0.00000000000E+00  0.00000000000E+00  0.64930732323E+04  0.65000000000E+04  0.30000000000E+03 0.  1.
        -52   -1    0    0    0    0 -0.00000000000E+00 -0.00000000000E+00 -0.64930732323E+04  0.65000000000E+04  0.30000000000E+03 0.  1.
     100001    1    1    2    0    0 -0.52366772433E+03  0.85441048071E+02 -0.64765594023E+04  0.65000000000E+04  0.15050000000E+03 0.  1.
     100001    1    1    2    0    0  0.52366772433E+03 -0.85441048071E+02  0.64765594023E+04  0.65000000000E+04  0.15050000000E+03 0.  1.
</event>
<event>
 4    1  0.4630618E-004  0.6500000E+04  0.7818608E-02  0.7223770E-01
         52   -1    0    0    0    0  0.00000000000E+00  0.00000000000E+00  0.64930732323E+04  0.65000000000E+04  0.30000000000E+03 0.  1.
        -52   -1    0    0    0    0 -0.00000000000E+00 -0.00000000000E+00 -0.64930732323E+04  0.65000000000E+04  0.30000000000E+03 0. -1.
     100001    1    1    2    0    0 -0.82953284022E+03  0.33679203475E+04  0.54951194300E+04  0.65000000000E+04  0.15050000000E+03 0.  1.
     100001    1    1    2    0    0  0.82953284022E+03 -0.33679203475E+04 -0.54951194300E+04  0.65000000000E+04  0.15050000000E+03 0. -1.
</event>
<event>
 4    1  0.4630618E-004  0.6500000E+04  0.7818608E-02  0.7223770E-01
         52   -1    0    0    0    0  0.00000000000E+00  0.00000000000E+00  0.64930732323E+04  0.65000000000E+04  0.30000000000E+03 0.  1.
        -52   -1    0    0    0    0 -0.00000000000E+00 -0.00000000000E+00 -0.64930732323E+04  0.65000000000E+04  0.30000000000E+03 0. -1.
     100001    1    1    2    0    0  0.56260235452E+04 -0.27725089623E+04  0.16995301917E+04  0.65000000000E+04  0.15050000000E+03 0.  1.
     100001    1    1    2    0    0 -0.56260235452E+04  0.27725089623E+04 -0.16995301917E+04  0.65000000000E+04  0.15050000000E+03 0. -1.
</event>
<event>
 4    1  0.4630618E-004  0.6500000E+04  0.7818608E-02  0.7223770E-01
         52   -1    0    0    0    0  0.00000000000E+00  0.00000000000E+00  0.64930732323E+04  0.65000000000E+04  0.30000000000E+03 0. -1.
        -52   -1    0    0    0    0 -0.00000000000E+00 -0.00000000000E+00 -0.64930732323E+04  0.65000000000E+04  0.30000000000E+03 0.  1.
     100001    1    1    2    0    0 -0.91430815197E+02 -0.51676003177E+03  0.64770324398E+04  0.65000000000E+04  0.15050000000E+03 0. -1.
     100001    1    1    2    0    0  0.91430815197E+02  0.51676003177E+03 -0.64770324398E+04  0.65000000000E+04  0.15050000000E+03 0.  1.
</event>
<event>
 4    1  0.4630618E-004  0.6500000E+04  0.7818608E-02  0.7223770E-01
         52   -1    0    0    0    0  0.00000000000E+00  0.00000000000E+00  0.64930732323E+04  0.65000000000E+04  0.30000000000E+03 0.  1.
        -52   -1    0    0    0    0 -0.00000000000E+00 -0.00000000000E+00 -0.64930732323E+04  0.65000000000E+04  0.30000000000E+03 0. -1.
     100001    1    1    2    0    0  0.11185586485E+04 -0.36470323451E+03 -0.63908659703E+04  0.65000000000E+04  0.15050000000E+03 0. -1.
     100001    1    1    2    0    0 -0.11185586485E+04  0.36470323451E+03  0.63908659703E+04  0.65000000000E+04  0.15050000000E+03 0.  1.
</event>
<event>
 4    1  0.4630618E-004  0.6500000E+04  0.7818608E-02  0.7223770E-01
         52   -1    0    0    0    0  0.00000000000E+00  0.00000000000E+00  0.64930732323E+04  0.65000000000E+04  0.30000000000E+03 0. -1.
        -52   -1    0    0    0    0 -0.00000000000E+00 -0.00000000000E+00 -0.64930732323E+04  0.65000000000E+04  0.30000000000E+03 0.  1.
     100001    1    1    2    0    0 -0.16033586228E+04  0.54659208647E+03 -0.62735817495E+04  0.65000000000E+04  0.15050000000E+03 0.  1.
     100001    1    1    2    0    0  0.16033586228E+04 -0.54659208647E+03  0.62735817495E+04  0.65000000000E+04  0.15050000000E+03 0. -1.
</event>
<event>
 4    1  0.4630618E-004  0.6500000E+04  0.7818608E-02  0.7223770E-01
         52   -1    0    0    0    0  0.00000000000E+00  0.00000000000E+00  0.64930732323E+04  0.65000000000E+04  0.30000000000E+03 0.  1.
        -52   -1    0    0    0    0 -0.00000000000E+00 -0.00000000000E+00 -0.64930732323E+04  0.65000000000E+04  0.30000000000E+03 0. -1.
     100001    1    1    2    0    0 -0.20941706337E+04 -0.36295566271E+04  0.49667008968E+04  0.65000000000E+04  0.15050000000E+03 0.  1.
     100001    1    1    2    0    0  0.20941706337E+04  0.36295566271E+04 -0.49667008968E+04  0.65000000000E+04  0.15050000000E+03 0. -1.
</event>
<event>
 4    1  0.4630618E-004  0.6500000E+04  0.7818608E-02  0.7223770E-01
         52   -1    0    0    0    0  0.00000000000E+00  0.00000000000E+00  0.64930732323E+04  0.65000000000E+04  0.30000000000E+03 0. -1.
        -52   -1    0    0    0    0 -0.00000000000E+00 -0.00000000000E+00 -0.64930732323E+04  0.65000000000E+04  0.30000000000E+03 0.  1.
     100001    1    1    2    0    0 -0.43858350376E+04 -0.11847424612E+04  0.46463088655E+04  0.65000000000E+04  0.15050000000E+03 0. -1.
     100001    1    1    2    0    0  0.43858350376E+04  0.11847424612E+04 -0.46463088655E+04  0.65000000000E+04  0.15050000000E+03 0.  1.
</event>
<event>
 4    1  0.4630618E-004  0.6500000E+04  0.7818608E-02  0.7223770E-01
         52   -1    0    0    0    0  0.00000000000E+00  0.00000000000E+00  0.64930732323E+04  0.65000000000E+04  0.30000000000E+03 0.  1.
        -52   -1    0    0    0    0 -0.00000000000E+00 -0.00000000000E+00 -0.64930732323E+04  0.65000000000E+04  0.30000000000E+03 0. -1.
     100001    1    1    2    0    0 -0.29359660088E+04 -0.54634743392E+04  0.19385307555E+04  0.65000000000E+04  0.15050000000E+03 0.  1.
     100001    1    1    2    0    0  0.29359660088E+04  0.54634743392E+04 -0.19385307555E+04  0.65000000000E+04  0.15050000000E+03 0. -1.
</event>
<event>
 4    1  0.4630618E-004  0.6500000E+04  0.7818608E-02  0.7223770E-01
         52   -1    0    0    0    0  0.00000000000E+00  0.00000000000E+00  0.64930732323E+04  0.65000000000E+04  0.30000000000E+03 0.  1.
        -52   -1    0    0    0    0 -0.00000000000E+00 -0.00000000000E+00 -0.64930732323E+04  0.65000000000E+04  0.30000000000E+03 0. -1.
     100001    1    1    2    0    0 -0.73495650384E+03 -0.22320668913E+04  0.60584706057E+04  0.65000000000E+04  0.15050000000E+03 0.  1.
     100001    1    1    2    0    0  0.73495650384E+03  0.22320668913E+04 -0.60584706057E+04  0.65000000000E+04  0.15050000000E+03 0. -1.
</event>
<event>
 4    1  0.4630618E-004  0.6500000E+04  0.7818608E-02  0.7223770E-01
         52   -1    0    0    0    0  0.00000000000E+00  0.00000000000E+00  0.64930732323E+04  0.65000000000E+04  0.30000000000E+03 0. -1.
        -52   -1    0    0    0    0 -0.00000000000E+00 -0.00000000000E+00 -0.64930732323E+04  0.65000000000E+04  0.30000000000E+03 0. -1.
     100001    1    1    2    0    0  0.63884342656E+03  0.51615528159E+03 -0.64461471091E+04  0.65000000000E+04  0.15050000000E+03 0. -1.
     100001    1    1    2    0    0 -0.63884342656E+03 -0.51615528159E+03  0.64461471091E+04  0.65000000000E+04  0.15050000000E+03 0. -1.
</event>
<event>
 4    1  0.4630618E-004  0.6500000E+04  0.7818608E-02  0.7223770E-01
         52   -1    0    0    0    0  0.00000000000E+00  0.00000000000E+00  0.64930732323E+04  0.65000000000E+04  0.30000000000E+03 0.  1.
        -52   -1    0    0    0    0 -0.00000000000E+00 -0.00000000000E+00 -0.64930732323E+04  0.65000000000E+04  0.30000000000E+03 0. -1.
     100001    1    1    2    0    0  0.58291709590E+03 -0.24716698818E+04 -0.59815052792E+04  0.65000000000E+04  0.15050000000E+03 0. -1.
     100001    1    1    2    0    0 -0.58291709590E+03  0.24716698818E+04  0.59815052792E+04  0.65000000000E+04  0.15050000000E+03 0.  1.
</event>
<event>
 4    1  0.6548192E-004  0.6500000E+04  0.7818608E-02  0.7223770E-01
         52   -1    0    0    0    0  0.00000000000E+00  0.00000000000E+00  0.64930732323E+04  0.65000000000E+04  0.30000000000E+03 0.  1.
        -52   -1    0    0    0    0 -0.00000000000E+00 -0.00000000000E+00 -0.64930732323E+04  0.65000000000E+04  0.30000000000E+03 0. -1.
     100001    1    1    2    0    0 -0.25618572873E+02  0.13550915440E+03  0.64967938791E+04  0.65000000000E+04  0.15050000000E+03 0.  1.
     100001    1    1    2    0    0  0.25618572873E+02 -0.13550915440E+03 -0.64967938791E+04  0.65000000000E+04  0.15050000000E+03 0. -1.
</event>
<event>
 4    1  0.4630618E-004  0.6500000E+04  0.7818608E-02  0.7223770E-01
         52   -1    0    0    0    0  0.00000000000E+00  0.00000000000E+00  0.64930732323E+04  0.65000000000E+04  0.30000000000E+03 0. -1.
        -52   -1    0    0    0    0 -0.00000000000E+00 -0.00000000000E+00 -0.64930732323E+04  0.65000000000E+04  0.30000000000E+03 0. -1.
     100001    1    1    2    0    0 -0.15137199247E+03  0.77833087263E+02 -0.64960278848E+04  0.65000000000E+04  0.15050000000E+03 0. -1.
     100001    1    1    2    0    0  0.15137199247E+03 -0.77833087263E+02  0.64960278848E+04  0.65000000000E+04  0.15050000000E+03 0. -1.
</event>
<event>
 4    1  0.4630618E-004  0.6500000E+04  0.7818608E-02  0.7223770E-01
         52   -1    0    0    0    0  0.00000000000E+00  0.00000000000E+00  0.64930732323E+04  0.65000000000E+04  0.30000000000E+03 0.  1.
        -52   -1    0    0    0    0 -0.00000000000E+00 -0.00000000000E+00 -0.64930732323E+04  0.65000000000E+04  0.30000000000E+03 0.  1.
     100001    1    1    2    0    0 -0.14778339700E+03 -0.71686926197E+01  0.64965728217E+04  0.65000000000E+04  0.15050000000E+03 0.  1.
     100001    1    1    2    0    0  0.14778339700E+03  0.71686926197E+01 -0.64965728217E+04  0.65000000000E+04  0.15050000000E+03 0.  1.
</event>
<event>
 4    1  0.4630618E-004  0.6500000E+04  0.7818608E-02  0.7223770E-01
         52   -1    0    0    0    0  0.00000000000E+00  0.00000000000E+00  0.64930732323E+04  0.65000000000E+04  0.30000000000E+03 0. -1.
        -52   -1    0    0    0    0 -0.00000000000E+00 -0.00000000000E+00 -0.64930732323E+04  0.65000000000E+04  0.30000000000E+03 0.  1.
     100001    1    1    2    0    0 -0.72576785366E+03  0.19024928672E+04 -0.61709911410E+04  0.65000000000E+04  0.15050000000E+03 0.  1.
     100001    1    1    2    0    0  0.72576785366E+03 -0.19024928672E+04  0.61709911410E+04  0.65000000000E+04  0.15050000000E+03 0. -1.
</event>
<event>
 4    1  0.4630618E-004  0.6500000E+04  0.7818608E-02  0.7223770E-01
         52   -1    0    0    0    0  0.00000000000E+00  0.00000000000E+00  0.64930732323E+04  0.65000000000E+04  0.30000000000E+03 0.  1.
        -52   -1    0    0    0    0 -0.00000000000E+00 -0.00000000000E+00 -0.64930732323E+04  0.65000000000E+04  0.30000000000E+03 0. -1.
     100001    1    1    2    0    0  0.15553941397E+04 -0.80435973660E+02 -0.63088532139E+04  0.65000000000E+04  0.15050000000E+03 0. -1.
     100001    1    1    2    0    0 -0.15553941397E+04  0.80435973660E+02  0.63088532139E+04  0.65000000000E+04  0.15050000000E+03 0.  1.
</event>
<event>
 4    1  0.4630618E-004  0.6500000E+04  0.7818608E-02  0.7223770E-01
         52   -1    0    0    0    0  0.00000000000E+00  0.00000000000E+00  0.64930732323E+04  0.65000000000E+04  0.30000000000E+03 0. -1.
        -52   -1    0    0    0    0 -0.00000000000E+00 -0.00000000000E+00 -0.64930732323E+04  0.65000000000E+04  0.30000000000E+03 0.  1.
     100001    1    1    2    0    0 -0.89358154979E+03  0.52939159829E+03  0.64147179439E+04  0.65000000000E+04  0.15050000000E+03 0. -1.
     100001    1    1    2    0    0  0.89358154979E+03 -0.52939159829E+03 -0.64147179439E+04  0.65000000000E+04  0.15050000000E+03 0.  1.
</event>
<event>
 4    1  0.4630618E-004  0.6500000E+04  0.7818608E-02  0.7223770E-01
         52   -1    0    0    0    0  0.00000000000E+00  0.00000000000E+00  0.64930732323E+04  0.65000000000E+04  0.30000000000E+03 0. -1.
        -52   -1    0    0    0    0 -0.00000000000E+00 -0.00000000000E+00 -0.64930732323E+04  0.65000000000E+04  0.30000000000E+03 0. -1.
     100001    1    1    2    0    0  0.12546701805E+03 -0.13856662688E+03 -0.64955682636E+04  0.65000000000E+04  0.15050000000E+03 0. -1.
     100001    1    1    2    0    0 -0.12546701805E+03  0.13856662688E+03  0.64955682636E+04  0.65000000000E+04  0.15050000000E+03 0. -1.
</event>
<event>
 4    1  0.4630618E-004  0.6500000E+04  0.7818608E-02  0.7223770E-01
         52   -1    0    0    0    0  0.00000000000E+00  0.00000000000E+00  0.64930732323E+04  0.65000000000E+04  0.30000000000E+03 0. -1.
        -52   -1    0    0    0    0 -0.00000000000E+00 -0.00000000000E+00 -0.64930732323E+04  0.65000000000E+04  0.30000000000E+03 0. -1.
     100001    1    1    2    0    0 -0.43201853680E+04 -0.32537256790E+04  0.36023072248E+04  0.65000000000E+04  0.15050000000E+03 0. -1.
     100001    1    1    2    0    0  0.43201853680E+04  0.32537256790E+04 -0.36023072248E+04  0.65000000000E+04  0.15050000000E+03 0. -1.
</event>
<event>
 4    1  0.4630618E-004  0.6500000E+04  0.7818608E-02  0.7223770E-01
         52   -1    0    0    0    0  0.00000000000E+00  0.00000000000E+00  0.64930732323E+04  0.65000000000E+04  0.30000000000E+03 0.  1.
        -52   -1    0    0    0    0 -0.00000000000E+00 -0.00000000000E+00 -0.64930732323E+04  0.65000000000E+04  0.30000000000E+03 0.  1.
     100001    1    1    2    0    0  0.37647830647E+02  0.55749481537E+03 -0.64741896730E+04  0.65000000000E+04  0.15050000000E+03 0.  1.
     100001    1    1    2    0    0 -0.37647830647E+02 -0.55749481537E+03  0.64741896730E+04  0.65000000000E+04  0.15050000000E+03 0.  1.
</event>
<event>
 4    1  0.4630618E-004  0.6500000E+04  0.7818608E-02  0.7223770E-01
         52   -1    0    0    0    0  0.00000000000E+00  0.00000000000E+00  0.64930732323E+04  0.65000000000E+04  0.30000000000E+03 0.  1.
        -52   -1    0    0    0    0 -0.00000000000E+00 -0.00000000000E+00 -0.64930732323E+04  0.65000000000E+04  0.30000000000E+03 0. -1.
     100001    1    1    2    0    0  0.53189083284E+04  0.29180139784E+04 -0.23284669562E+04  0.65000000000E+04  0.15050000000E+03 0. -1.
     100001    1    1    2    0    0 -0.53189083284E+04 -0.29180139784E+04  0.23284669562E+04  0.65000000000E+04  0.15050000000E+03 0.  1.
</event>
<event>
 4    1  0.4630618E-004  0.6500000E+04  0.7818608E-02  0.7223770E-01
         52   -1    0    0    0    0  0.00000000000E+00  0.00000000000E+00  0.64930732323E+04  0.65000000000E+04  0.30000000000E+03 0.  1.
        -52   -1    0    0    0    0 -0.00000000000E+00 -0.00000000000E+00 -0.64930732323E+04  0.65000000000E+04  0.30000000000E+03 0. -1.
     100001    1    1    2    0    0 -0.99087000088E+03  0.30104435347E+04 -0.56729847625E+04  0.65000000000E+04  0.15050000000E+03 0. -1.
     100001    1    1    2    0    0  0.99087000088E+03 -0.30104435347E+04  0.56729847625E+04  0.65000000000E+04  0.15050000000E+03 0.  1.
</event>
<event>
 4    1  0.4630618E-004  0.6500000E+04  0.7818608E-02  0.7223770E-01
         52   -1    0    0    0    0  0.00000000000E+00  0.00000000000E+00  0.64930732323E+04  0.65000000000E+04  0.30000000000E+03 0. -1.
        -52   -1    0    0    0    0 -0.00000000000E+00 -0.00000000000E+00 -0.64930732323E+04  0.65000000000E+04  0.30000000000E+03 0.  1.
     100001    1    1    2    0    0  0.25177974138E+04  0.15889034656E+04 -0.57761086996E+04  0.65000000000E+04  0.15050000000E+03 0.  1.
     100001    1    1    2    0    0 -0.25177974138E+04 -0.15889034656E+04  0.57761086996E+04  0.65000000000E+04  0.15050000000E+03 0. -1.
</event>
<event>
 4    1  0.4630618E-004  0.6500000E+04  0.7818608E-02  0.7223770E-01
         52   -1    0    0    0    0  0.00000000000E+00  0.00000000000E+00  0.64930732323E+04  0.65000000000E+04  0.30000000000E+03 0. -1.
        -52   -1    0    0    0    0 -0.00000000000E+00 -0.00000000000E+00 -0.64930732323E+04  0.65000000000E+04  0.30000000000E+03 0.  1.
     100001    1    1    2    0    0  0.75736331502E+03  0.23068601632E+03  0.64498476355E+04  0.65000000000E+04  0.15050000000E+03 0. -1.
     100001    1    1    2    0    0 -0.75736331502E+03 -0.23068601632E+03 -0.64498476355E+04  0.65000000000E+04  0.15050000000E+03 0.  1.
</event>
<event>
 4    1  0.4630618E-004  0.6500000E+04  0.7818608E-02  0.7223770E-01
         52   -1    0    0    0    0  0.00000000000E+00  0.00000000000E+00  0.64930732323E+04  0.65000000000E+04  0.30000000000E+03 0. -1.
        -52   -1    0    0    0    0 -0.00000000000E+00 -0.00000000000E+00 -0.64930732323E+04  0.65000000000E+04  0.30000000000E+03 0.  1.
     100001    1    1    2    0    0  0.79063187059E+02  0.76994857803E+03  0.64519979812E+04  0.65000000000E+04  0.15050000000E+03 0. -1.
     100001    1    1    2    0    0 -0.79063187059E+02 -0.76994857803E+03 -0.64519979812E+04  0.65000000000E+04  0.15050000000E+03 0.  1.
</event>
<event>
 4    1  0.4630618E-004  0.6500000E+04  0.7818608E-02  0.7223770E-01
         52   -1    0    0    0    0  0.00000000000E+00  0.00000000000E+00  0.64930732323E+04  0.65000000000E+04  0.30000000000E+03 0.  1.
        -52   -1    0    0    0    0 -0.00000000000E+00 -0.00000000000E+00 -0.64930732323E+04  0.65000000000E+04  0.30000000000E+03 0. -1.
     100001    1    1    2    0    0  0.41169438303E+03 -0.35719849292E+04  0.54128348534E+04  0.65000000000E+04  0.15050000000E+03 0.  1.
     100001    1    1    2    0    0 -0.41169438303E+03  0.35719849292E+04 -0.54128348534E+04  0.65000000000E+04  0.15050000000E+03 0. -1.
</event>
<event>
 4    1  0.4630618E-004  0.6500000E+04  0.7818608E-02  0.7223770E-01
         52   -1    0    0    0    0  0.00000000000E+00  0.00000000000E+00  0.64930732323E+04  0.65000000000E+04  0.30000000000E+03 0.  1.
        -52   -1    0    0    0    0 -0.00000000000E+00 -0.00000000000E+00 -0.64930732323E+04  0.65000000000E+04  0.30000000000E+03 0. -1.
     100001    1    1    2    0    0  0.25432535358E+03  0.47967279779E+03  0.64755372265E+04  0.65000000000E+04  0.15050000000E+03 0.  1.
     100001    1    1    2    0    0 -0.25432535358E+03 -0.47967279779E+03 -0.64755372265E+04  0.65000000000E+04  0.15050000000E+03 0. -1.
</event>
<event>
 4    1  0.4630618E-004  0.6500000E+04  0.7818608E-02  0.7223770E-01
         52   -1    0    0    0    0  0.00000000000E+00  0.00000000000E+00  0.64930732323E+04  0.65000000000E+04  0.30000000000E+03 0. -1.
        -52   -1    0    0    0    0 -0.00000000000E+00 -0.00000000000E+00 -0.64930732323E+04  0.65000000000E+04  0.30000000000E+03 0. -1.
     100001    1    1    2    0    0 -0.47185917828E+03  0.26624988997E+03  0.64756319894E+04  0.65000000000E+04  0.15050000000E+03 0. -1.
     100001    1    1    2    0    0  0.47185917828E+03 -0.26624988997E+03 -0.64756319894E+04  0.65000000000E+04  0.15050000000E+03 0. -1.
</event>
<event>
 4    1  0.4630618E-004  0.6500000E+04  0.7818608E-02  0.7223770E-01
         52   -1    0    0    0    0  0.00000000000E+00  0.00000000000E+00  0.64930732323E+04  0.65000000000E+04  0.30000000000E+03 0. -1.
        -52   -1    0    0    0    0 -0.00000000000E+00 -0.00000000000E+00 -0.64930732323E+04  0.65000000000E+04  0.30000000000E+03 0.  1.
     100001    1    1    2    0    0 -0.38043610575E+04  0.35935284416E+04 -0.38523681073E+04  0.65000000000E+04  0.15050000000E+03 0.  1.
     100001    1    1    2    0    0  0.38043610575E+04 -0.35935284416E+04  0.38523681073E+04  0.65000000000E+04  0.15050000000E+03 0. -1.
</event>
<event>
 4    1  0.4630618E-004  0.6500000E+04  0.7818608E-02  0.7223770E-01
         52   -1    0    0    0    0  0.00000000000E+00  0.00000000000E+00  0.64930732323E+04  0.65000000000E+04  0.30000000000E+03 0.  1.
        -52   -1    0    0    0    0 -0.00000000000E+00 -0.00000000000E+00 -0.64930732323E+04  0.65000000000E+04  0.30000000000E+03 0. -1.
     100001    1    1    2    0    0 -0.98414044040E+03 -0.77709592134E+03 -0.63761225892E+04  0.65000000000E+04  0.15050000000E+03 0. -1.
     100001    1    1    2    0    0  0.98414044040E+03  0.77709592134E+03  0.63761225892E+04  0.65000000000E+04  0.15050000000E+03 0.  1.
</event>
<event>
 4    1  0.4630618E-004  0.6500000E+04  0.7818608E-02  0.7223770E-01
         52   -1    0    0    0    0  0.00000000000E+00  0.00000000000E+00  0.64930732323E+04  0.65000000000E+04  0.30000000000E+03 0. -1.
        -52   -1    0    0    0    0 -0.00000000000E+00 -0.00000000000E+00 -0.64930732323E+04  0.65000000000E+04  0.30000000000E+03 0.  1.
     100001    1    1    2    0    0  0.22491297070E+04  0.64735966285E+03 -0.60621523222E+04  0.65000000000E+04  0.15050000000E+03 0.  1.
     100001    1    1    2    0    0 -0.22491297070E+04 -0.64735966285E+03  0.60621523222E+04  0.65000000000E+04  0.15050000000E+03 0. -1.
</event>
<event>
 4    1  0.4630618E-004  0.6500000E+04  0.7818608E-02  0.7223770E-01
         52   -1    0    0    0    0  0.00000000000E+00  0.00000000000E+00  0.64930732323E+04  0.65000000000E+04  0.30000000000E+03 0.  1.
        -52   -1    0    0    0    0 -0.00000000000E+00 -0.00000000000E+00 -0.64930732323E+04  0.65000000000E+04  0.30000000000E+03 0.  1.
     100001    1    1    2    0    0 -0.17122726360E+03 -0.13557944957E+03 -0.64945861444E+04  0.65000000000E+04  0.15050000000E+03 0.  1.
     100001    1    1    2    0    0  0.17122726360E+03  0.13557944957E+03  0.64945861444E+04  0.65000000000E+04  0.15050000000E+03 0.  1.
</event>
<event>
 4    1  0.4630618E-004  0.6500000E+04  0.7818608E-02  0.7223770E-01
         52   -1    0    0    0    0  0.00000000000E+00  0.00000000000E+00  0.64930732323E+04  0.65000000000E+04  0.30000000000E+03 0. -1.
        -52   -1    0    0    0    0 -0.00000000000E+00 -0.00000000000E+00 -0.64930732323E+04  0.65000000000E+04  0.30000000000E+03 0. -1.
     100001    1    1    2    0    0 -0.11700996647E+04 -0.11480046622E+03  0.63910122342E+04  0.65000000000E+04  0.15050000000E+03 0. -1.
     100001    1    1    2    0    0  0.11700996647E+04  0.11480046622E+03 -0.63910122342E+04  0.65000000000E+04  0.15050000000E+03 0. -1.
</event>
<event>
 4    1  0.4630618E-004  0.6500000E+04  0.7818608E-02  0.7223770E-01
         52   -1    0    0    0    0  0.00000000000E+00  0.00000000000E+00  0.64930732323E+04  0.65000000000E+04  0.30000000000E+03 0. -1.
        -52   -1    0    0    0    0 -0.00000000000E+00 -0.00000000000E+00 -0.64930732323E+04  0.65000000000E+04  0.30000000000E+03 0.  1.
     100001    1    1    2    0    0 -0.27787151102E+04  0.91787685339E+03  0.58020336235E+04  0.65000000000E+04  0.15050000000E+03 0. -1.
     100001    1    1    2    0    0  0.27787151102E+04 -0.91787685339E+03 -0.58020336235E+04  0.65000000000E+04  0.15050000000E+03 0.  1.
</event>
<event>
 4    1  0.4630618E-004  0.6500000E+04  0.7818608E-02  0.7223770E-01
         52   -1    0    0    0    0  0.00000000000E+00  0.00000000000E+00  0.64930732323E+04  0.65000000000E+04  0.30000000000E+03 0.  1.
        -52   -1    0    0    0    0 -0.00000000000E+00 -0.00000000000E+00 -0.64930732323E+04  0.65000000000E+04  0.30000000000E+03 0. -1.
     100001    1    1    2    0    0 -0.22630809324E+04  0.24141690284E+03 -0.60866684091E+04  0.65000000000E+04  0.15050000000E+03 0. -1.
     100001    1    1    2    0    0  0.22630809324E+04 -0.24141690284E+03  0.60866684091E+04  0.65000000000E+04  0.15050000000E+03 0.  1.
</event>
<event>
 4    1  0.4630618E-004  0.6500000E+04  0.7818608E-02  0.7223770E-01
         52   -1    0    0    0    0  0.00000000000E+00  0.00000000000E+00  0.64930732323E+04  0.65000000000E+04  0.30000000000E+03 0. -1.
        -52   -1    0    0    0    0 -0.00000000000E+00 -0.00000000000E+00 -0.64930732323E+04  0.65000000000E+04  0.30000000000E+03 0.  1.
     100001    1    1    2    0    0  0.64670036348E+04  0.23206938284E+03 -0.59275419784E+03  0.65000000000E+04  0.15050000000E+03 0.  1.
     100001    1    1    2    0    0 -0.64670036348E+04 -0.23206938284E+03  0.59275419784E+03  0.65000000000E+04  0.15050000000E+03 0. -1.
</event>
<event>
 4    1  0.4630618E-004  0.6500000E+04  0.7818608E-02  0.7223770E-01
         52   -1    0    0    0    0  0.00000000000E+00  0.00000000000E+00  0.64930732323E+04  0.65000000000E+04  0.30000000000E+03 0. -1.
        -52   -1    0    0    0    0 -0.00000000000E+00 -0.00000000000E+00 -0.64930732323E+04  0.65000000000E+04  0.30000000000E+03 0.  1.
     100001    1    1    2    0    0  0.10004477091E+03 -0.38335703076E+03 -0.64861682202E+04  0.65000000000E+04  0.15050000000E+03 0.  1.
     100001    1    1    2    0    0 -0.10004477091E+03  0.38335703076E+03  0.64861682202E+04  0.65000000000E+04  0.15050000000E+03 0. -1.
</event>
<event>
 4    1  0.4630618E-004  0.6500000E+04  0.7818608E-02  0.7223770E-01
         52   -1    0    0    0    0  0.00000000000E+00  0.00000000000E+00  0.64930732323E+04  0.65000000000E+04  0.30000000000E+03 0. -1.
        -52   -1    0    0    0    0 -0.00000000000E+00 -0.00000000000E+00 -0.64930732323E+04  0.65000000000E+04  0.30000000000E+03 0.  1.
     100001    1    1    2    0    0  0.48346920296E+02  0.19938467137E+04 -0.61846250984E+04  0.65000000000E+04  0.15050000000E+03 0.  1.
     100001    1    1    2    0    0 -0.48346920296E+02 -0.19938467137E+04  0.61846250984E+04  0.65000000000E+04  0.15050000000E+03 0. -1.
</event>
<event>
 4    1  0.4630618E-004  0.6500000E+04  0.7818608E-02  0.7223770E-01
         52   -1    0    0    0    0  0.00000000000E+00  0.00000000000E+00  0.64930732323E+04  0.65000000000E+04  0.30000000000E+03 0. -1.
        -52   -1    0    0    0    0 -0.00000000000E+00 -0.00000000000E+00 -0.64930732323E+04  0.65000000000E+04  0.30000000000E+03 0.  1.
     100001    1    1    2    0    0 -0.26490733252E+04  0.20194510618E+04  0.55795678755E+04  0.65000000000E+04  0.15050000000E+03 0. -1.
     100001    1    1    2    0    0  0.26490733252E+04 -0.20194510618E+04 -0.55795678755E+04  0.65000000000E+04  0.15050000000E+03 0.  1.
</event>
<event>
 4    1  0.4630618E-004  0.6500000E+04  0.7818608E-02  0.7223770E-01
         52   -1    0    0    0    0  0.00000000000E+00  0.00000000000E+00  0.64930732323E+04  0.65000000000E+04  0.30000000000E+03 0. -1.
        -52   -1    0    0    0    0 -0.00000000000E+00 -0.00000000000E+00 -0.64930732323E+04  0.65000000000E+04  0.30000000000E+03 0.  1.
     100001    1    1    2    0    0 -0.48872023090E+03 -0.22514174452E+03  0.64759411270E+04  0.65000000000E+04  0.15050000000E+03 0. -1.
     100001    1    1    2    0    0  0.48872023090E+03  0.22514174452E+03 -0.64759411270E+04  0.65000000000E+04  0.15050000000E+03 0.  1.
</event>
<event>
 4    1  0.4630618E-004  0.6500000E+04  0.7818608E-02  0.7223770E-01
         52   -1    0    0    0    0  0.00000000000E+00  0.00000000000E+00  0.64930732323E+04  0.65000000000E+04  0.30000000000E+03 0.  1.
        -52   -1    0    0    0    0 -0.00000000000E+00 -0.00000000000E+00 -0.64930732323E+04  0.65000000000E+04  0.30000000000E+03 0. -1.
     100001    1    1    2    0    0 -0.31175041127E+04  0.23561045881E+04 -0.51920409308E+04  0.65000000000E+04  0.15050000000E+03 0. -1.
     100001    1    1    2    0    0  0.31175041127E+04 -0.23561045881E+04  0.51920409308E+04  0.65000000000E+04  0.15050000000E+03 0.  1.
</event>
<event>
 4    1  0.4630618E-004  0.6500000E+04  0.7818608E-02  0.7223770E-01
         52   -1    0    0    0    0  0.00000000000E+00  0.00000000000E+00  0.64930732323E+04  0.65000000000E+04  0.30000000000E+03 0.  1.
        -52   -1    0    0    0    0 -0.00000000000E+00 -0.00000000000E+00 -0.64930732323E+04  0.65000000000E+04  0.30000000000E+03 0. -1.
     100001    1    1    2    0    0 -0.91199488369E+03 -0.89781764997E+03 -0.63709919596E+04  0.65000000000E+04  0.15050000000E+03 0. -1.
     100001    1    1    2    0    0  0.91199488369E+03  0.89781764997E+03  0.63709919596E+04  0.65000000000E+04  0.15050000000E+03 0.  1.
</event>
<event>
 4    1  0.4630618E-004  0.6500000E+04  0.7818608E-02  0.7223770E-01
         52   -1    0    0    0    0  0.00000000000E+00  0.00000000000E+00  0.64930732323E+04  0.65000000000E+04  0.30000000000E+03 0. -1.
        -52   -1    0    0    0    0 -0.00000000000E+00 -0.00000000000E+00 -0.64930732323E+04  0.65000000000E+04  0.30000000000E+03 0.  1.
     100001    1    1    2    0    0  0.23830773490E+04 -0.75306199791E+03 -0.59984322724E+04  0.65000000000E+04  0.15050000000E+03 0.  1.
     100001    1    1    2    0    0 -0.23830773490E+04  0.75306199791E+03  0.59984322724E+04  0.65000000000E+04  0.15050000000E+03 0. -1.
</event>
<event>
 4    1  0.4630618E-004  0.6500000E+04  0.7818608E-02  0.7223770E-01
         52   -1    0    0    0    0  0.00000000000E+00  0.00000000000E+00  0.64930732323E+04  0.65000000000E+04  0.30000000000E+03 0. -1.
        -52   -1    0    0    0    0 -0.00000000000E+00 -0.00000000000E+00 -0.64930732323E+04  0.65000000000E+04  0.30000000000E+03 0.  1.
     100001    1    1    2    0    0 -0.75846726265E+03 -0.92012789788E+02 -0.64531860974E+04  0.65000000000E+04  0.15050000000E+03 0.  1.
     100001    1    1    2    0    0  0.75846726265E+03  0.92012789788E+02  0.64531860974E+04  0.65000000000E+04  0.15050000000E+03 0. -1.
</event>
<event>
 4    1  0.4630618E-004  0.6500000E+04  0.7818608E-02  0.7223770E-01
         52   -1    0    0    0    0  0.00000000000E+00  0.00000000000E+00  0.64930732323E+04  0.65000000000E+04  0.30000000000E+03 0. -1.
        -52   -1    0    0    0    0 -0.00000000000E+00 -0.00000000000E+00 -0.64930732323E+04  0.65000000000E+04  0.30000000000E+03 0.  1.
     100001    1    1    2    0    0  0.48315616402E+04  0.62984799976E+03  0.42996108387E+04  0.65000000000E+04  0.15050000000E+03 0. -1.
     100001    1    1    2    0    0 -0.48315616402E+04 -0.62984799976E+03 -0.42996108387E+04  0.65000000000E+04  0.15050000000E+03 0.  1.
</event>
<event>
 4    1  0.4630618E-004  0.6500000E+04  0.7818608E-02  0.7223770E-01
         52   -1    0    0    0    0  0.00000000000E+00  0.00000000000E+00  0.64930732323E+04  0.65000000000E+04  0.30000000000E+03 0. -1.
        -52   -1    0    0    0    0 -0.00000000000E+00 -0.00000000000E+00 -0.64930732323E+04  0.65000000000E+04  0.30000000000E+03 0.  1.
     100001    1    1    2    0    0 -0.37739307553E+04 -0.27319372066E+04  0.45300458611E+04  0.65000000000E+04  0.15050000000E+03 0. -1.
     100001    1    1    2    0    0  0.37739307553E+04  0.27319372066E+04 -0.45300458611E+04  0.65000000000E+04  0.15050000000E+03 0.  1.
</event>
<event>
 4    1  0.4630618E-004  0.6500000E+04  0.7818608E-02  0.7223770E-01
         52   -1    0    0    0    0  0.00000000000E+00  0.00000000000E+00  0.64930732323E+04  0.65000000000E+04  0.30000000000E+03 0.  1.
        -52   -1    0    0    0    0 -0.00000000000E+00 -0.00000000000E+00 -0.64930732323E+04  0.65000000000E+04  0.30000000000E+03 0. -1.
     100001    1    1    2    0    0  0.21393104574E+04  0.43076691253E+04  0.43697468146E+04  0.65000000000E+04  0.15050000000E+03 0.  1.
     100001    1    1    2    0    0 -0.21393104574E+04 -0.43076691253E+04 -0.43697468146E+04  0.65000000000E+04  0.15050000000E+03 0. -1.
</event>
<event>
 4    1  0.5267322E-004  0.6500000E+04  0.7818608E-02  0.7223770E-01
         52   -1    0    0    0    0  0.00000000000E+00  0.00000000000E+00  0.64930732323E+04  0.65000000000E+04  0.30000000000E+03 0. -1.
        -52   -1    0    0    0    0 -0.00000000000E+00 -0.00000000000E+00 -0.64930732323E+04  0.65000000000E+04  0.30000000000E+03 0. -1.
     100001    1    1    2    0    0  0.11047552292E+03  0.19453741664E+03 -0.64944052924E+04  0.65000000000E+04  0.15050000000E+03 0. -1.
     100001    1    1    2    0    0 -0.11047552292E+03 -0.19453741664E+03  0.64944052924E+04  0.65000000000E+04  0.15050000000E+03 0. -1.
</event>
<event>
 4    1  0.4630618E-004  0.6500000E+04  0.7818608E-02  0.7223770E-01
         52   -1    0    0    0    0  0.00000000000E+00  0.00000000000E+00  0.64930732323E+04  0.65000000000E+04  0.30000000000E+03 0.  1.
        -52   -1    0    0    0    0 -0.00000000000E+00 -0.00000000000E+00 -0.64930732323E+04  0.65000000000E+04  0.30000000000E+03 0. -1.
     100001    1    1    2    0    0 -0.40628731507E+03 -0.33944844313E+03 -0.64766546243E+04  0.65000000000E+04  0.15050000000E+03 0. -1.
     100001    1    1    2    0    0  0.40628731507E+03  0.33944844313E+03  0.64766546243E+04  0.65000000000E+04  0.15050000000E+03 0.  1.
</event>
<event>
 4    1  0.4630618E-004  0.6500000E+04  0.7818608E-02  0.7223770E-01
         52   -1    0    0    0    0  0.00000000000E+00  0.00000000000E+00  0.64930732323E+04  0.65000000000E+04  0.30000000000E+03 0.  1.
        -52   -1    0    0    0    0 -0.00000000000E+00 -0.00000000000E+00 -0.64930732323E+04  0.65000000000E+04  0.30000000000E+03 0. -1.
     100001    1    1    2    0    0  0.29860318361E+04  0.42115320090E+04 -0.39463859113E+04  0.65000000000E+04  0.15050000000E+03 0. -1.
     100001    1    1    2    0    0 -0.29860318361E+04 -0.42115320090E+04  0.39463859113E+04  0.65000000000E+04  0.15050000000E+03 0.  1.
</event>
<event>
 4    1  0.4630618E-004  0.6500000E+04  0.7818608E-02  0.7223770E-01
         52   -1    0    0    0    0  0.00000000000E+00  0.00000000000E+00  0.64930732323E+04  0.65000000000E+04  0.30000000000E+03 0.  1.
        -52   -1    0    0    0    0 -0.00000000000E+00 -0.00000000000E+00 -0.64930732323E+04  0.65000000000E+04  0.30000000000E+03 0. -1.
     100001    1    1    2    0    0 -0.30860867141E+04 -0.17318155359E+03  0.57160674150E+04  0.65000000000E+04  0.15050000000E+03 0.  1.
     100001    1    1    2    0    0  0.30860867141E+04  0.17318155359E+03 -0.57160674150E+04  0.65000000000E+04  0.15050000000E+03 0. -1.
</event>
<event>
 4    1  0.4630618E-004  0.6500000E+04  0.7818608E-02  0.7223770E-01
         52   -1    0    0    0    0  0.00000000000E+00  0.00000000000E+00  0.64930732323E+04  0.65000000000E+04  0.30000000000E+03 0. -1.
        -52   -1    0    0    0    0 -0.00000000000E+00 -0.00000000000E+00 -0.64930732323E+04  0.65000000000E+04  0.30000000000E+03 0.  1.
     100001    1    1    2    0    0 -0.64921974224E+04 -0.39412967427E+02  0.27779308319E+03  0.65000000000E+04  0.15050000000E+03 0. -1.
     100001    1    1    2    0    0  0.64921974224E+04  0.39412967427E+02 -0.27779308319E+03  0.65000000000E+04  0.15050000000E+03 0.  1.
</event>
<event>
 4    1  0.4630618E-004  0.6500000E+04  0.7818608E-02  0.7223770E-01
         52   -1    0    0    0    0  0.00000000000E+00  0.00000000000E+00  0.64930732323E+04  0.65000000000E+04  0.30000000000E+03 0.  1.
        -52   -1    0    0    0    0 -0.00000000000E+00 -0.00000000000E+00 -0.64930732323E+04  0.65000000000E+04  0.30000000000E+03 0. -1.
     100001    1    1    2    0    0 -0.57037083687E+03 -0.38375673781E+04  0.52129745325E+04  0.65000000000E+04  0.15050000000E+03 0.  1.
     100001    1    1    2    0    0  0.57037083687E+03  0.38375673781E+04 -0.52129745325E+04  0.65000000000E+04  0.15050000000E+03 0. -1.
</event>
<event>
 4    1  0.4630618E-004  0.6500000E+04  0.7818608E-02  0.7223770E-01
         52   -1    0    0    0    0  0.00000000000E+00  0.00000000000E+00  0.64930732323E+04  0.65000000000E+04  0.30000000000E+03 0. -1.
        -52   -1    0    0    0    0 -0.00000000000E+00 -0.00000000000E+00 -0.64930732323E+04  0.65000000000E+04  0.30000000000E+03 0.  1.
     100001    1    1    2    0    0  0.46386635459E+04 -0.25512353413E+04  0.37684676582E+04  0.65000000000E+04  0.15050000000E+03 0. -1.
     100001    1    1    2    0    0 -0.46386635459E+04  0.25512353413E+04 -0.37684676582E+04  0.65000000000E+04  0.15050000000E+03 0.  1.
</event>
<event>
 4    1  0.4630618E-004  0.6500000E+04  0.7818608E-02  0.7223770E-01
         52   -1    0    0    0    0  0.00000000000E+00  0.00000000000E+00  0.64930732323E+04  0.65000000000E+04  0.30000000000E+03 0. -1.
        -52   -1    0    0    0    0 -0.00000000000E+00 -0.00000000000E+00 -0.64930732323E+04  0.65000000000E+04  0.30000000000E+03 0.  1.
     100001    1    1    2    0    0  0.32172621947E+04  0.85902445726E+03 -0.55802016722E+04  0.65000000000E+04  0.15050000000E+03 0.  1.
     100001    1    1    2    0    0 -0.32172621947E+04 -0.85902445726E+03  0.55802016722E+04  0.65000000000E+04  0.15050000000E+03 0. -1.
</event>
<event>
 4    1  0.4630618E-004  0.6500000E+04  0.7818608E-02  0.7223770E-01
         52   -1    0    0    0    0  0.00000000000E+00  0.00000000000E+00  0.64930732323E+04  0.65000000000E+04  0.30000000000E+03 0. -1.
        -52   -1    0    0    0    0 -0.00000000000E+00 -0.00000000000E+00 -0.64930732323E+04  0.65000000000E+04  0.30000000000E+03 0.  1.
     100001    1    1    2    0    0  0.52850219714E+03  0.19045066868E+03  0.64739295424E+04  0.65000000000E+04  0.15050000000E+03 0. -1.
     100001    1    1    2    0    0 -0.52850219714E+03 -0.19045066868E+03 -0.64739295424E+04  0.65000000000E+04  0.15050000000E+03 0.  1.
</event>
<event>
 4    1  0.4630618E-004  0.6500000E+04  0.7818608E-02  0.7223770E-01
         52   -1    0    0    0    0  0.00000000000E+00  0.00000000000E+00  0.64930732323E+04  0.65000000000E+04  0.30000000000E+03 0. -1.
        -52   -1    0    0    0    0 -0.00000000000E+00 -0.00000000000E+00 -0.64930732323E+04  0.65000000000E+04  0.30000000000E+03 0.  1.
     100001    1    1    2    0    0 -0.39837635840E+03 -0.19741142969E+04 -0.61783103491E+04  0.65000000000E+04  0.15050000000E+03 0.  1.
     100001    1    1    2    0    0  0.39837635840E+03  0.19741142969E+04  0.61783103491E+04  0.65000000000E+04  0.15050000000E+03 0. -1.
</event>
<event>
 4    1  0.4630618E-004  0.6500000E+04  0.7818608E-02  0.7223770E-01
         52   -1    0    0    0    0  0.00000000000E+00  0.00000000000E+00  0.64930732323E+04  0.65000000000E+04  0.30000000000E+03 0. -1.
        -52   -1    0    0    0    0 -0.00000000000E+00 -0.00000000000E+00 -0.64930732323E+04  0.65000000000E+04  0.30000000000E+03 0.  1.
     100001    1    1    2    0    0 -0.42758232482E+03 -0.51407354745E+03 -0.64637644986E+04  0.65000000000E+04  0.15050000000E+03 0.  1.
     100001    1    1    2    0    0  0.42758232482E+03  0.51407354745E+03  0.64637644986E+04  0.65000000000E+04  0.15050000000E+03 0. -1.
</event>
<event>
 4    1  0.4630618E-004  0.6500000E+04  0.7818608E-02  0.7223770E-01
         52   -1    0    0    0    0  0.00000000000E+00  0.00000000000E+00  0.64930732323E+04  0.65000000000E+04  0.30000000000E+03 0.  1.
        -52   -1    0    0    0    0 -0.00000000000E+00 -0.00000000000E+00 -0.64930732323E+04  0.65000000000E+04  0.30000000000E+03 0. -1.
     100001    1    1    2    0    0  0.76148613221E+03  0.45184204704E+03  0.64376492126E+04  0.65000000000E+04  0.15050000000E+03 0.  1.
     100001    1    1    2    0    0 -0.76148613221E+03 -0.45184204704E+03 -0.64376492126E+04  0.65000000000E+04  0.15050000000E+03 0. -1.
</event>
<event>
 4    1  0.4630618E-004  0.6500000E+04  0.7818608E-02  0.7223770E-01
         52   -1    0    0    0    0  0.00000000000E+00  0.00000000000E+00  0.64930732323E+04  0.65000000000E+04  0.30000000000E+03 0. -1.
        -52   -1    0    0    0    0 -0.00000000000E+00 -0.00000000000E+00 -0.64930732323E+04  0.65000000000E+04  0.30000000000E+03 0.  1.
     100001    1    1    2    0    0 -0.47834745433E+03  0.11395135390E+03 -0.64796256491E+04  0.65000000000E+04  0.15050000000E+03 0.  1.
     100001    1    1    2    0    0  0.47834745433E+03 -0.11395135390E+03  0.64796256491E+04  0.65000000000E+04  0.15050000000E+03 0. -1.
</event>
<event>
 4    1  0.4630618E-004  0.6500000E+04  0.7818608E-02  0.7223770E-01
         52   -1    0    0    0    0  0.00000000000E+00  0.00000000000E+00  0.64930732323E+04  0.65000000000E+04  0.30000000000E+03 0.  1.
        -52   -1    0    0    0    0 -0.00000000000E+00 -0.00000000000E+00 -0.64930732323E+04  0.65000000000E+04  0.30000000000E+03 0. -1.
     100001    1    1    2    0    0  0.49008571061E+03 -0.90769118006E+03 -0.64158602282E+04  0.65000000000E+04  0.15050000000E+03 0. -1.
     100001    1    1    2    0    0 -0.49008571061E+03  0.90769118006E+03  0.64158602282E+04  0.65000000000E+04  0.15050000000E+03 0.  1.
</event>
<event>
 4    1  0.4630618E-004  0.6500000E+04  0.7818608E-02  0.7223770E-01
         52   -1    0    0    0    0  0.00000000000E+00  0.00000000000E+00  0.64930732323E+04  0.65000000000E+04  0.30000000000E+03 0. -1.
        -52   -1    0    0    0    0 -0.00000000000E+00 -0.00000000000E+00 -0.64930732323E+04  0.65000000000E+04  0.30000000000E+03 0.  1.
     100001    1    1    2    0    0 -0.27139818508E+04  0.42114341559E+03  0.58893370159E+04  0.65000000000E+04  0.15050000000E+03 0. -1.
     100001    1    1    2    0    0  0.27139818508E+04 -0.42114341559E+03 -0.58893370159E+04  0.65000000000E+04  0.15050000000E+03 0.  1.
</event>
<event>
 4    1  0.4630618E-004  0.6500000E+04  0.7818608E-02  0.7223770E-01
         52   -1    0    0    0    0  0.00000000000E+00  0.00000000000E+00  0.64930732323E+04  0.65000000000E+04  0.30000000000E+03 0.  1.
        -52   -1    0    0    0    0 -0.00000000000E+00 -0.00000000000E+00 -0.64930732323E+04  0.65000000000E+04  0.30000000000E+03 0. -1.
     100001    1    1    2    0    0 -0.27863385557E+03  0.59873006616E+03 -0.64646140822E+04  0.65000000000E+04  0.15050000000E+03 0. -1.
     100001    1    1    2    0    0  0.27863385557E+03 -0.59873006616E+03  0.64646140822E+04  0.65000000000E+04  0.15050000000E+03 0.  1.
</event>
<event>
 4    1  0.4630618E-004  0.6500000E+04  0.7818608E-02  0.7223770E-01
         52   -1    0    0    0    0  0.00000000000E+00  0.00000000000E+00  0.64930732323E+04  0.65000000000E+04  0.30000000000E+03 0.  1.
        -52   -1    0    0    0    0 -0.00000000000E+00 -0.00000000000E+00 -0.64930732323E+04  0.65000000000E+04  0.30000000000E+03 0. -1.
     100001    1    1    2    0    0  0.36558558817E+04 -0.30847927393E+04  0.43984225897E+04  0.65000000000E+04  0.15050000000E+03 0.  1.
     100001    1    1    2    0    0 -0.36558558817E+04  0.30847927393E+04 -0.43984225897E+04  0.65000000000E+04  0.15050000000E+03 0. -1.
</event>
<event>
 4    1  0.4630618E-004  0.6500000E+04  0.7818608E-02  0.7223770E-01
         52   -1    0    0    0    0  0.00000000000E+00  0.00000000000E+00  0.64930732323E+04  0.65000000000E+04  0.30000000000E+03 0. -1.
        -52   -1    0    0    0    0 -0.00000000000E+00 -0.00000000000E+00 -0.64930732323E+04  0.65000000000E+04  0.30000000000E+03 0.  1.
     100001    1    1    2    0    0  0.33559564791E+04 -0.28009454585E+04  0.48082855988E+04  0.65000000000E+04  0.15050000000E+03 0. -1.
     100001    1    1    2    0    0 -0.33559564791E+04  0.28009454585E+04 -0.48082855988E+04  0.65000000000E+04  0.15050000000E+03 0.  1.
</event>
<event>
 4    1  0.4630618E-004  0.6500000E+04  0.7818608E-02  0.7223770E-01
         52   -1    0    0    0    0  0.00000000000E+00  0.00000000000E+00  0.64930732323E+04  0.65000000000E+04  0.30000000000E+03 0. -1.
        -52   -1    0    0    0    0 -0.00000000000E+00 -0.00000000000E+00 -0.64930732323E+04  0.65000000000E+04  0.30000000000E+03 0.  1.
     100001    1    1    2    0    0 -0.18139283055E+04 -0.44216150351E+03 -0.62242675920E+04  0.65000000000E+04  0.15050000000E+03 0.  1.
     100001    1    1    2    0    0  0.18139283055E+04  0.44216150351E+03  0.62242675920E+04  0.65000000000E+04  0.15050000000E+03 0. -1.
</event>
<event>
 4    1  0.4630618E-004  0.6500000E+04  0.7818608E-02  0.7223770E-01
         52   -1    0    0    0    0  0.00000000000E+00  0.00000000000E+00  0.64930732323E+04  0.65000000000E+04  0.30000000000E+03 0. -1.
        -52   -1    0    0    0    0 -0.00000000000E+00 -0.00000000000E+00 -0.64930732323E+04  0.65000000000E+04  0.30000000000E+03 0.  1.
     100001    1    1    2    0    0  0.44012226544E+04 -0.47254388823E+04 -0.72582109827E+03  0.65000000000E+04  0.15050000000E+03 0. -1.
     100001    1    1    2    0    0 -0.44012226544E+04  0.47254388823E+04  0.72582109827E+03  0.65000000000E+04  0.15050000000E+03 0.  1.
</event>
<event>
 4    1  0.4630618E-004  0.6500000E+04  0.7818608E-02  0.7223770E-01
         52   -1    0    0    0    0  0.00000000000E+00  0.00000000000E+00  0.64930732323E+04  0.65000000000E+04  0.30000000000E+03 0. -1.
        -52   -1    0    0    0    0 -0.00000000000E+00 -0.00000000000E+00 -0.64930732323E+04  0.65000000000E+04  0.30000000000E+03 0. -1.
     100001    1    1    2    0    0 -0.24195279748E+03  0.15085543211E+03  0.64919990167E+04  0.65000000000E+04  0.15050000000E+03 0. -1.
     100001    1    1    2    0    0  0.24195279748E+03 -0.15085543211E+03 -0.64919990167E+04  0.65000000000E+04  0.15050000000E+03 0. -1.
</event>
<event>
 4    1  0.4630618E-004  0.6500000E+04  0.7818608E-02  0.7223770E-01
         52   -1    0    0    0    0  0.00000000000E+00  0.00000000000E+00  0.64930732323E+04  0.65000000000E+04  0.30000000000E+03 0.  1.
        -52   -1    0    0    0    0 -0.00000000000E+00 -0.00000000000E+00 -0.64930732323E+04  0.65000000000E+04  0.30000000000E+03 0.  1.
     100001    1    1    2    0    0 -0.13685153999E+03 -0.75161758437E+02 -0.64963814633E+04  0.65000000000E+04  0.15050000000E+03 0.  1.
     100001    1    1    2    0    0  0.13685153999E+03  0.75161758437E+02  0.64963814633E+04  0.65000000000E+04  0.15050000000E+03 0.  1.
</event>
<event>
 4    1  0.4630618E-004  0.6500000E+04  0.7818608E-02  0.7223770E-01
         52   -1    0    0    0    0  0.00000000000E+00  0.00000000000E+00  0.64930732323E+04  0.65000000000E+04  0.30000000000E+03 0. -1.
        -52   -1    0    0    0    0 -0.00000000000E+00 -0.00000000000E+00 -0.64930732323E+04  0.65000000000E+04  0.30000000000E+03 0.  1.
     100001    1    1    2    0    0 -0.37062504465E+04 -0.29475288429E+04  0.44500709093E+04  0.65000000000E+04  0.15050000000E+03 0. -1.
     100001    1    1    2    0    0  0.37062504465E+04  0.29475288429E+04 -0.44500709093E+04  0.65000000000E+04  0.15050000000E+03 0.  1.
</event>
<event>
 4    1  0.4630618E-004  0.6500000E+04  0.7818608E-02  0.7223770E-01
         52   -1    0    0    0    0  0.00000000000E+00  0.00000000000E+00  0.64930732323E+04  0.65000000000E+04  0.30000000000E+03 0.  1.
        -52   -1    0    0    0    0 -0.00000000000E+00 -0.00000000000E+00 -0.64930732323E+04  0.65000000000E+04  0.30000000000E+03 0. -1.
     100001    1    1    2    0    0 -0.31642151422E+03  0.29833386698E+03 -0.64836890795E+04  0.65000000000E+04  0.15050000000E+03 0. -1.
     100001    1    1    2    0    0  0.31642151422E+03 -0.29833386698E+03  0.64836890795E+04  0.65000000000E+04  0.15050000000E+03 0.  1.
</event>
<event>
 4    1  0.4630618E-004  0.6500000E+04  0.7818608E-02  0.7223770E-01
         52   -1    0    0    0    0  0.00000000000E+00  0.00000000000E+00  0.64930732323E+04  0.65000000000E+04  0.30000000000E+03 0.  1.
        -52   -1    0    0    0    0 -0.00000000000E+00 -0.00000000000E+00 -0.64930732323E+04  0.65000000000E+04  0.30000000000E+03 0. -1.
     100001    1    1    2    0    0 -0.12639884919E+04  0.34581123877E+04  0.53545440101E+04  0.65000000000E+04  0.15050000000E+03 0.  1.
     100001    1    1    2    0    0  0.12639884919E+04 -0.34581123877E+04 -0.53545440101E+04  0.65000000000E+04  0.15050000000E+03 0. -1.
</event>
<event>
 4    1  0.4630618E-004  0.6500000E+04  0.7818608E-02  0.7223770E-01
         52   -1    0    0    0    0  0.00000000000E+00  0.00000000000E+00  0.64930732323E+04  0.65000000000E+04  0.30000000000E+03 0. -1.
        -52   -1    0    0    0    0 -0.00000000000E+00 -0.00000000000E+00 -0.64930732323E+04  0.65000000000E+04  0.30000000000E+03 0.  1.
     100001    1    1    2    0    0  0.18241974867E+04  0.23873770624E+04 -0.57619514091E+04  0.65000000000E+04  0.15050000000E+03 0.  1.
     100001    1    1    2    0    0 -0.18241974867E+04 -0.23873770624E+04  0.57619514091E+04  0.65000000000E+04  0.15050000000E+03 0. -1.
</event>
<event>
 4    1  0.4630618E-004  0.6500000E+04  0.7818608E-02  0.7223770E-01
         52   -1    0    0    0    0  0.00000000000E+00  0.00000000000E+00  0.64930732323E+04  0.65000000000E+04  0.30000000000E+03 0.  1.
        -52   -1    0    0    0    0 -0.00000000000E+00 -0.00000000000E+00 -0.64930732323E+04  0.65000000000E+04  0.30000000000E+03 0. -1.
     100001    1    1    2    0    0  0.99545641493E+03 -0.68833001689E+03  0.63845609139E+04  0.65000000000E+04  0.15050000000E+03 0.  1.
     100001    1    1    2    0    0 -0.99545641493E+03  0.68833001689E+03 -0.63845609139E+04  0.65000000000E+04  0.15050000000E+03 0. -1.
</event>
<event>
 4    1  0.4630618E-004  0.6500000E+04  0.7818608E-02  0.7223770E-01
         52   -1    0    0    0    0  0.00000000000E+00  0.00000000000E+00  0.64930732323E+04  0.65000000000E+04  0.30000000000E+03 0. -1.
        -52   -1    0    0    0    0 -0.00000000000E+00 -0.00000000000E+00 -0.64930732323E+04  0.65000000000E+04  0.30000000000E+03 0.  1.
     100001    1    1    2    0    0  0.37388604077E+03  0.55163475965E+04 -0.34143034682E+04  0.65000000000E+04  0.15050000000E+03 0. -1.
     100001    1    1    2    0    0 -0.37388604077E+03 -0.55163475965E+04  0.34143034682E+04  0.65000000000E+04  0.15050000000E+03 0.  1.
</event>
<event>
 4    1  0.4630618E-004  0.6500000E+04  0.7818608E-02  0.7223770E-01
         52   -1    0    0    0    0  0.00000000000E+00  0.00000000000E+00  0.64930732323E+04  0.65000000000E+04  0.30000000000E+03 0.  1.
        -52   -1    0    0    0    0 -0.00000000000E+00 -0.00000000000E+00 -0.64930732323E+04  0.65000000000E+04  0.30000000000E+03 0. -1.
     100001    1    1    2    0    0  0.17811048876E+04  0.47664635245E+03 -0.62311975883E+04  0.65000000000E+04  0.15050000000E+03 0. -1.
     100001    1    1    2    0    0 -0.17811048876E+04 -0.47664635245E+03  0.62311975883E+04  0.65000000000E+04  0.15050000000E+03 0.  1.
</event>
<event>
 4    1  0.4630618E-004  0.6500000E+04  0.7818608E-02  0.7223770E-01
         52   -1    0    0    0    0  0.00000000000E+00  0.00000000000E+00  0.64930732323E+04  0.65000000000E+04  0.30000000000E+03 0.  1.
        -52   -1    0    0    0    0 -0.00000000000E+00 -0.00000000000E+00 -0.64930732323E+04  0.65000000000E+04  0.30000000000E+03 0. -1.
     100001    1    1    2    0    0 -0.42397056340E+03 -0.44511395990E+03  0.64691168079E+04  0.65000000000E+04  0.15050000000E+03 0.  1.
     100001    1    1    2    0    0  0.42397056340E+03  0.44511395990E+03 -0.64691168079E+04  0.65000000000E+04  0.15050000000E+03 0. -1.
</event>
<event>
 4    1  0.4630618E-004  0.6500000E+04  0.7818608E-02  0.7223770E-01
         52   -1    0    0    0    0  0.00000000000E+00  0.00000000000E+00  0.64930732323E+04  0.65000000000E+04  0.30000000000E+03 0. -1.
        -52   -1    0    0    0    0 -0.00000000000E+00 -0.00000000000E+00 -0.64930732323E+04  0.65000000000E+04  0.30000000000E+03 0.  1.
     100001    1    1    2    0    0  0.70624451626E+02 -0.43960906324E+03  0.64829858714E+04  0.65000000000E+04  0.15050000000E+03 0. -1.
     100001    1    1    2    0    0 -0.70624451626E+02  0.43960906324E+03 -0.64829858714E+04  0.65000000000E+04  0.15050000000E+03 0.  1.
</event>
<event>
 4    1  0.4630618E-004  0.6500000E+04  0.7818608E-02  0.7223770E-01
         52   -1    0    0    0    0  0.00000000000E+00  0.00000000000E+00  0.64930732323E+04  0.65000000000E+04  0.30000000000E+03 0.  1.
        -52   -1    0    0    0    0 -0.00000000000E+00 -0.00000000000E+00 -0.64930732323E+04  0.65000000000E+04  0.30000000000E+03 0. -1.
     100001    1    1    2    0    0  0.33081789802E+03  0.16786858653E+04 -0.62689650688E+04  0.65000000000E+04  0.15050000000E+03 0. -1.
     100001    1    1    2    0    0 -0.33081789802E+03 -0.16786858653E+04  0.62689650688E+04  0.65000000000E+04  0.15050000000E+03 0.  1.
</event>
<event>
 4    1  0.4630618E-004  0.6500000E+04  0.7818608E-02  0.7223770E-01
         52   -1    0    0    0    0  0.00000000000E+00  0.00000000000E+00  0.64930732323E+04  0.65000000000E+04  0.30000000000E+03 0. -1.
        -52   -1    0    0    0    0 -0.00000000000E+00 -0.00000000000E+00 -0.64930732323E+04  0.65000000000E+04  0.30000000000E+03 0. -1.
     100001    1    1    2    0    0  0.21662201422E+03  0.23702194745E+02 -0.64946025944E+04  0.65000000000E+04  0.15050000000E+03 0. -1.
     100001    1    1    2    0    0 -0.21662201422E+03 -0.23702194745E+02  0.64946025944E+04  0.65000000000E+04  0.15050000000E+03 0. -1.
</event>
<event>
 4    1  0.4630618E-004  0.6500000E+04  0.7818608E-02  0.7223770E-01
         52   -1    0    0    0    0  0.00000000000E+00  0.00000000000E+00  0.64930732323E+04  0.65000000000E+04  0.30000000000E+03 0.  1.
        -52   -1    0    0    0    0 -0.00000000000E+00 -0.00000000000E+00 -0.64930732323E+04  0.65000000000E+04  0.30000000000E+03 0. -1.
     100001    1    1    2    0    0 -0.10235746699E+04  0.28265599578E+04  0.57610939456E+04  0.65000000000E+04  0.15050000000E+03 0.  1.
     100001    1    1    2    0    0  0.10235746699E+04 -0.28265599578E+04 -0.57610939456E+04  0.65000000000E+04  0.15050000000E+03 0. -1.
</event>
<event>
 4    1  0.4630618E-004  0.6500000E+04  0.7818608E-02  0.7223770E-01
         52   -1    0    0    0    0  0.00000000000E+00  0.00000000000E+00  0.64930732323E+04  0.65000000000E+04  0.30000000000E+03 0.  1.
        -52   -1    0    0    0    0 -0.00000000000E+00 -0.00000000000E+00 -0.64930732323E+04  0.65000000000E+04  0.30000000000E+03 0. -1.
     100001    1    1    2    0    0  0.45357347734E+04  0.23014213904E+04  0.40444924773E+04  0.65000000000E+04  0.15050000000E+03 0.  1.
     100001    1    1    2    0    0 -0.45357347734E+04 -0.23014213904E+04 -0.40444924773E+04  0.65000000000E+04  0.15050000000E+03 0. -1.
</event>
<event>
 4    1  0.4630618E-004  0.6500000E+04  0.7818608E-02  0.7223770E-01
         52   -1    0    0    0    0  0.00000000000E+00  0.00000000000E+00  0.64930732323E+04  0.65000000000E+04  0.30000000000E+03 0. -1.
        -52   -1    0    0    0    0 -0.00000000000E+00 -0.00000000000E+00 -0.64930732323E+04  0.65000000000E+04  0.30000000000E+03 0.  1.
     100001    1    1    2    0    0 -0.10884684065E+03  0.44303695710E+03 -0.64822234125E+04  0.65000000000E+04  0.15050000000E+03 0.  1.
     100001    1    1    2    0    0  0.10884684065E+03 -0.44303695710E+03  0.64822234125E+04  0.65000000000E+04  0.15050000000E+03 0. -1.
</event>
<event>
 4    1  0.4630618E-004  0.6500000E+04  0.7818608E-02  0.7223770E-01
         52   -1    0    0    0    0  0.00000000000E+00  0.00000000000E+00  0.64930732323E+04  0.65000000000E+04  0.30000000000E+03 0.  1.
        -52   -1    0    0    0    0 -0.00000000000E+00 -0.00000000000E+00 -0.64930732323E+04  0.65000000000E+04  0.30000000000E+03 0.  1.
     100001    1    1    2    0    0  0.16408394890E+03  0.28510147358E+03  0.64899262983E+04  0.65000000000E+04  0.15050000000E+03 0.  1.
     100001    1    1    2    0    0 -0.16408394890E+03 -0.28510147358E+03 -0.64899262983E+04  0.65000000000E+04  0.15050000000E+03 0.  1.
</event>
<event>
 4    1  0.4630618E-004  0.6500000E+04  0.7818608E-02  0.7223770E-01
         52   -1    0    0    0    0  0.00000000000E+00  0.00000000000E+00  0.64930732323E+04  0.65000000000E+04  0.30000000000E+03 0.  1.
        -52   -1    0    0    0    0 -0.00000000000E+00 -0.00000000000E+00 -0.64930732323E+04  0.65000000000E+04  0.30000000000E+03 0. -1.
     100001    1    1    2    0    0 -0.10152529127E+04 -0.64908830088E+02  0.64181304223E+04  0.65000000000E+04  0.15050000000E+03 0.  1.
     100001    1    1    2    0    0  0.10152529127E+04  0.64908830088E+02 -0.64181304223E+04  0.65000000000E+04  0.15050000000E+03 0. -1.
</event>
<event>
 4    1  0.4630618E-004  0.6500000E+04  0.7818608E-02  0.7223770E-01
         52   -1    0    0    0    0  0.00000000000E+00  0.00000000000E+00  0.64930732323E+04  0.65000000000E+04  0.30000000000E+03 0. -1.
        -52   -1    0    0    0    0 -0.00000000000E+00 -0.00000000000E+00 -0.64930732323E+04  0.65000000000E+04  0.30000000000E+03 0.  1.
     100001    1    1    2    0    0 -0.13912690013E+04 -0.23713337330E+03  0.63431449675E+04  0.65000000000E+04  0.15050000000E+03 0. -1.
     100001    1    1    2    0    0  0.13912690013E+04  0.23713337330E+03 -0.63431449675E+04  0.65000000000E+04  0.15050000000E+03 0.  1.
</event>
<event>
 4    1  0.4630618E-004  0.6500000E+04  0.7818608E-02  0.7223770E-01
         52   -1    0    0    0    0  0.00000000000E+00  0.00000000000E+00  0.64930732323E+04  0.65000000000E+04  0.30000000000E+03 0.  1.
        -52   -1    0    0    0    0 -0.00000000000E+00 -0.00000000000E+00 -0.64930732323E+04  0.65000000000E+04  0.30000000000E+03 0. -1.
     100001    1    1    2    0    0 -0.38490021747E+03  0.16812882970E+04 -0.62651792660E+04  0.65000000000E+04  0.15050000000E+03 0. -1.
     100001    1    1    2    0    0  0.38490021747E+03 -0.16812882970E+04  0.62651792660E+04  0.65000000000E+04  0.15050000000E+03 0.  1.
</event>
<event>
 4    1  0.4630618E-004  0.6500000E+04  0.7818608E-02  0.7223770E-01
         52   -1    0    0    0    0  0.00000000000E+00  0.00000000000E+00  0.64930732323E+04  0.65000000000E+04  0.30000000000E+03 0.  1.
        -52   -1    0    0    0    0 -0.00000000000E+00 -0.00000000000E+00 -0.64930732323E+04  0.65000000000E+04  0.30000000000E+03 0. -1.
     100001    1    1    2    0    0 -0.98125053964E+03 -0.12153664359E+04  0.63077239599E+04  0.65000000000E+04  0.15050000000E+03 0.  1.
     100001    1    1    2    0    0  0.98125053964E+03  0.12153664359E+04 -0.63077239599E+04  0.65000000000E+04  0.15050000000E+03 0. -1.
</event>
<event>
 4    1  0.4630618E-004  0.6500000E+04  0.7818608E-02  0.7223770E-01
         52   -1    0    0    0    0  0.00000000000E+00  0.00000000000E+00  0.64930732323E+04  0.65000000000E+04  0.30000000000E+03 0. -1.
        -52   -1    0    0    0    0 -0.00000000000E+00 -0.00000000000E+00 -0.64930732323E+04  0.65000000000E+04  0.30000000000E+03 0.  1.
     100001    1    1    2    0    0  0.23122504012E+04 -0.36788698426E+03 -0.60618072387E+04  0.65000000000E+04  0.15050000000E+03 0.  1.
     100001    1    1    2    0    0 -0.23122504012E+04  0.36788698426E+03  0.60618072387E+04  0.65000000000E+04  0.15050000000E+03 0. -1.
</event>
<event>
 4    1  0.4630618E-004  0.6500000E+04  0.7818608E-02  0.7223770E-01
         52   -1    0    0    0    0  0.00000000000E+00  0.00000000000E+00  0.64930732323E+04  0.65000000000E+04  0.30000000000E+03 0. -1.
        -52   -1    0    0    0    0 -0.00000000000E+00 -0.00000000000E+00 -0.64930732323E+04  0.65000000000E+04  0.30000000000E+03 0.  1.
     100001    1    1    2    0    0  0.80130197441E+03  0.10370388508E+04 -0.63647321482E+04  0.65000000000E+04  0.15050000000E+03 0.  1.
     100001    1    1    2    0    0 -0.80130197441E+03 -0.10370388508E+04  0.63647321482E+04  0.65000000000E+04  0.15050000000E+03 0. -1.
</event>
<event>
 4    1  0.4630618E-004  0.6500000E+04  0.7818608E-02  0.7223770E-01
         52   -1    0    0    0    0  0.00000000000E+00  0.00000000000E+00  0.64930732323E+04  0.65000000000E+04  0.30000000000E+03 0. -1.
        -52   -1    0    0    0    0 -0.00000000000E+00 -0.00000000000E+00 -0.64930732323E+04  0.65000000000E+04  0.30000000000E+03 0. -1.
     100001    1    1    2    0    0  0.28267122289E+02  0.36778338877E+03  0.64877797511E+04  0.65000000000E+04  0.15050000000E+03 0. -1.
     100001    1    1    2    0    0 -0.28267122289E+02 -0.36778338877E+03 -0.64877797511E+04  0.65000000000E+04  0.15050000000E+03 0. -1.
</event>
<event>
 4    1  0.4630618E-004  0.6500000E+04  0.7818608E-02  0.7223770E-01
         52   -1    0    0    0    0  0.00000000000E+00  0.00000000000E+00  0.64930732323E+04  0.65000000000E+04  0.30000000000E+03 0.  1.
        -52   -1    0    0    0    0 -0.00000000000E+00 -0.00000000000E+00 -0.64930732323E+04  0.65000000000E+04  0.30000000000E+03 0. -1.
     100001    1    1    2    0    0 -0.52887186671E+04 -0.35551635530E+04  0.12718556214E+04  0.65000000000E+04  0.15050000000E+03 0.  1.
     100001    1    1    2    0    0  0.52887186671E+04  0.35551635530E+04 -0.12718556214E+04  0.65000000000E+04  0.15050000000E+03 0. -1.
</event>
<event>
 4    1  0.4630618E-004  0.6500000E+04  0.7818608E-02  0.7223770E-01
         52   -1    0    0    0    0  0.00000000000E+00  0.00000000000E+00  0.64930732323E+04  0.65000000000E+04  0.30000000000E+03 0.  1.
        -52   -1    0    0    0    0 -0.00000000000E+00 -0.00000000000E+00 -0.64930732323E+04  0.65000000000E+04  0.30000000000E+03 0. -1.
     100001    1    1    2    0    0  0.48135611667E+04 -0.42796187427E+04  0.86130253788E+03  0.65000000000E+04  0.15050000000E+03 0. -1.
     100001    1    1    2    0    0 -0.48135611667E+04  0.42796187427E+04 -0.86130253788E+03  0.65000000000E+04  0.15050000000E+03 0.  1.
</event>
<event>
 4    1  0.4630618E-004  0.6500000E+04  0.7818608E-02  0.7223770E-01
         52   -1    0    0    0    0  0.00000000000E+00  0.00000000000E+00  0.64930732323E+04  0.65000000000E+04  0.30000000000E+03 0.  1.
        -52   -1    0    0    0    0 -0.00000000000E+00 -0.00000000000E+00 -0.64930732323E+04  0.65000000000E+04  0.30000000000E+03 0. -1.
     100001    1    1    2    0    0 -0.73114500940E+03 -0.93715753050E+03  0.63886236772E+04  0.65000000000E+04  0.15050000000E+03 0.  1.
     100001    1    1    2    0    0  0.73114500940E+03  0.93715753050E+03 -0.63886236772E+04  0.65000000000E+04  0.15050000000E+03 0. -1.
</event>
<event>
 4    1  0.4630618E-004  0.6500000E+04  0.7818608E-02  0.7223770E-01
         52   -1    0    0    0    0  0.00000000000E+00  0.00000000000E+00  0.64930732323E+04  0.65000000000E+04  0.30000000000E+03 0. -1.
        -52   -1    0    0    0    0 -0.00000000000E+00 -0.00000000000E+00 -0.64930732323E+04  0.65000000000E+04  0.30000000000E+03 0. -1.
     100001    1    1    2    0    0  0.57836030892E+03  0.65920591111E+02 -0.64721328462E+04  0.65000000000E+04  0.15050000000E+03 0. -1.
     100001    1    1    2    0    0 -0.57836030892E+03 -0.65920591111E+02  0.64721328462E+04  0.65000000000E+04  0.15050000000E+03 0. -1.
</event>
<event>
 4    1  0.4630618E-004  0.6500000E+04  0.7818608E-02  0.7223770E-01
         52   -1    0    0    0    0  0.00000000000E+00  0.00000000000E+00  0.64930732323E+04  0.65000000000E+04  0.30000000000E+03 0. -1.
        -52   -1    0    0    0    0 -0.00000000000E+00 -0.00000000000E+00 -0.64930732323E+04  0.65000000000E+04  0.30000000000E+03 0.  1.
     100001    1    1    2    0    0  0.18775390692E+04 -0.13889335897E+04  0.60640795078E+04  0.65000000000E+04  0.15050000000E+03 0. -1.
     100001    1    1    2    0    0 -0.18775390692E+04  0.13889335897E+04 -0.60640795078E+04  0.65000000000E+04  0.15050000000E+03 0.  1.
</event>
<event>
 4    1  0.4630618E-004  0.6500000E+04  0.7818608E-02  0.7223770E-01
         52   -1    0    0    0    0  0.00000000000E+00  0.00000000000E+00  0.64930732323E+04  0.65000000000E+04  0.30000000000E+03 0. -1.
        -52   -1    0    0    0    0 -0.00000000000E+00 -0.00000000000E+00 -0.64930732323E+04  0.65000000000E+04  0.30000000000E+03 0.  1.
     100001    1    1    2    0    0  0.19877432977E+04  0.43190510302E+04 -0.44296754431E+04  0.65000000000E+04  0.15050000000E+03 0.  1.
     100001    1    1    2    0    0 -0.19877432977E+04 -0.43190510302E+04  0.44296754431E+04  0.65000000000E+04  0.15050000000E+03 0. -1.
</event>
<event>
 4    1  0.4630618E-004  0.6500000E+04  0.7818608E-02  0.7223770E-01
         52   -1    0    0    0    0  0.00000000000E+00  0.00000000000E+00  0.64930732323E+04  0.65000000000E+04  0.30000000000E+03 0.  1.
        -52   -1    0    0    0    0 -0.00000000000E+00 -0.00000000000E+00 -0.64930732323E+04  0.65000000000E+04  0.30000000000E+03 0. -1.
     100001    1    1    2    0    0  0.23117976423E+03  0.84861751858E+03  0.64384589751E+04  0.65000000000E+04  0.15050000000E+03 0.  1.
     100001    1    1    2    0    0 -0.23117976423E+03 -0.84861751858E+03 -0.64384589751E+04  0.65000000000E+04  0.15050000000E+03 0. -1.
</event>
<event>
 4    1  0.4630618E-004  0.6500000E+04  0.7818608E-02  0.7223770E-01
         52   -1    0    0    0    0  0.00000000000E+00  0.00000000000E+00  0.64930732323E+04  0.65000000000E+04  0.30000000000E+03 0. -1.
        -52   -1    0    0    0    0 -0.00000000000E+00 -0.00000000000E+00 -0.64930732323E+04  0.65000000000E+04  0.30000000000E+03 0. -1.
     100001    1    1    2    0    0 -0.39434192260E+02 -0.18058662211E+03  0.64956280040E+04  0.65000000000E+04  0.15050000000E+03 0. -1.
     100001    1    1    2    0    0  0.39434192260E+02  0.18058662211E+03 -0.64956280040E+04  0.65000000000E+04  0.15050000000E+03 0. -1.
</event>
<event>
 4    1  0.4630618E-004  0.6500000E+04  0.7818608E-02  0.7223770E-01
         52   -1    0    0    0    0  0.00000000000E+00  0.00000000000E+00  0.64930732323E+04  0.65000000000E+04  0.30000000000E+03 0. -1.
        -52   -1    0    0    0    0 -0.00000000000E+00 -0.00000000000E+00 -0.64930732323E+04  0.65000000000E+04  0.30000000000E+03 0.  1.
     100001    1    1    2    0    0 -0.52508294895E+04 -0.17522357000E+04  0.34037933948E+04  0.65000000000E+04  0.15050000000E+03 0. -1.
     100001    1    1    2    0    0  0.52508294895E+04  0.17522357000E+04 -0.34037933948E+04  0.65000000000E+04  0.15050000000E+03 0.  1.
</event>
<event>
 4    1  0.4630618E-004  0.6500000E+04  0.7818608E-02  0.7223770E-01
         52   -1    0    0    0    0  0.00000000000E+00  0.00000000000E+00  0.64930732323E+04  0.65000000000E+04  0.30000000000E+03 0.  1.
        -52   -1    0    0    0    0 -0.00000000000E+00 -0.00000000000E+00 -0.64930732323E+04  0.65000000000E+04  0.30000000000E+03 0. -1.
     100001    1    1    2    0    0  0.20885792591E+04  0.35229734313E+04  0.50451803368E+04  0.65000000000E+04  0.15050000000E+03 0.  1.
     100001    1    1    2    0    0 -0.20885792591E+04 -0.35229734313E+04 -0.50451803368E+04  0.65000000000E+04  0.15050000000E+03 0. -1.
</event>
<event>
 4    1  0.4630618E-004  0.6500000E+04  0.7818608E-02  0.7223770E-01
         52   -1    0    0    0    0  0.00000000000E+00  0.00000000000E+00  0.64930732323E+04  0.65000000000E+04  0.30000000000E+03 0. -1.
        -52   -1    0    0    0    0 -0.00000000000E+00 -0.00000000000E+00 -0.64930732323E+04  0.65000000000E+04  0.30000000000E+03 0.  1.
     100001    1    1    2    0    0  0.10735766461E+04  0.81369189038E+03 -0.63570974857E+04  0.65000000000E+04  0.15050000000E+03 0.  1.
     100001    1    1    2    0    0 -0.10735766461E+04 -0.81369189038E+03  0.63570974857E+04  0.65000000000E+04  0.15050000000E+03 0. -1.
</event>
<event>
 4    1  0.4630618E-004  0.6500000E+04  0.7818608E-02  0.7223770E-01
         52   -1    0    0    0    0  0.00000000000E+00  0.00000000000E+00  0.64930732323E+04  0.65000000000E+04  0.30000000000E+03 0.  1.
        -52   -1    0    0    0    0 -0.00000000000E+00 -0.00000000000E+00 -0.64930732323E+04  0.65000000000E+04  0.30000000000E+03 0. -1.
     100001    1    1    2    0    0 -0.47743479866E+04  0.12157608520E+04  0.42373195069E+04  0.65000000000E+04  0.15050000000E+03 0. -1.
     100001    1    1    2    0    0  0.47743479866E+04 -0.12157608520E+04 -0.42373195069E+04  0.65000000000E+04  0.15050000000E+03 0.  1.
</event>
<event>
 4    1  0.4630618E-004  0.6500000E+04  0.7818608E-02  0.7223770E-01
         52   -1    0    0    0    0  0.00000000000E+00  0.00000000000E+00  0.64930732323E+04  0.65000000000E+04  0.30000000000E+03 0.  1.
        -52   -1    0    0    0    0 -0.00000000000E+00 -0.00000000000E+00 -0.64930732323E+04  0.65000000000E+04  0.30000000000E+03 0. -1.
     100001    1    1    2    0    0  0.14736287147E+04  0.25459838846E+04 -0.57942846168E+04  0.65000000000E+04  0.15050000000E+03 0. -1.
     100001    1    1    2    0    0 -0.14736287147E+04 -0.25459838846E+04  0.57942846168E+04  0.65000000000E+04  0.15050000000E+03 0.  1.
</event>
<event>
 4    1  0.4630618E-004  0.6500000E+04  0.7818608E-02  0.7223770E-01
         52   -1    0    0    0    0  0.00000000000E+00  0.00000000000E+00  0.64930732323E+04  0.65000000000E+04  0.30000000000E+03 0. -1.
        -52   -1    0    0    0    0 -0.00000000000E+00 -0.00000000000E+00 -0.64930732323E+04  0.65000000000E+04  0.30000000000E+03 0. -1.
     100001    1    1    2    0    0  0.18076161385E+03  0.34829588080E+03 -0.64863984590E+04  0.65000000000E+04  0.15050000000E+03 0. -1.
     100001    1    1    2    0    0 -0.18076161385E+03 -0.34829588080E+03  0.64863984590E+04  0.65000000000E+04  0.15050000000E+03 0. -1.
</event>
<event>
 4    1  0.4630618E-004  0.6500000E+04  0.7818608E-02  0.7223770E-01
         52   -1    0    0    0    0  0.00000000000E+00  0.00000000000E+00  0.64930732323E+04  0.65000000000E+04  0.30000000000E+03 0.  1.
        -52   -1    0    0    0    0 -0.00000000000E+00 -0.00000000000E+00 -0.64930732323E+04  0.65000000000E+04  0.30000000000E+03 0. -1.
     100001    1    1    2    0    0  0.15921001313E+04  0.57899616460E+04  0.24837292646E+04  0.65000000000E+04  0.15050000000E+03 0.  1.
     100001    1    1    2    0    0 -0.15921001313E+04 -0.57899616460E+04 -0.24837292646E+04  0.65000000000E+04  0.15050000000E+03 0. -1.
</event>
<event>
 4    1  0.4630618E-004  0.6500000E+04  0.7818608E-02  0.7223770E-01
         52   -1    0    0    0    0  0.00000000000E+00  0.00000000000E+00  0.64930732323E+04  0.65000000000E+04  0.30000000000E+03 0.  1.
        -52   -1    0    0    0    0 -0.00000000000E+00 -0.00000000000E+00 -0.64930732323E+04  0.65000000000E+04  0.30000000000E+03 0. -1.
     100001    1    1    2    0    0  0.27409114829E+04  0.18379830618E+04  0.55979078465E+04  0.65000000000E+04  0.15050000000E+03 0.  1.
     100001    1    1    2    0    0 -0.27409114829E+04 -0.18379830618E+04 -0.55979078465E+04  0.65000000000E+04  0.15050000000E+03 0. -1.
</event>
<event>
 4    1  0.4630618E-004  0.6500000E+04  0.7818608E-02  0.7223770E-01
         52   -1    0    0    0    0  0.00000000000E+00  0.00000000000E+00  0.64930732323E+04  0.65000000000E+04  0.30000000000E+03 0.  1.
        -52   -1    0    0    0    0 -0.00000000000E+00 -0.00000000000E+00 -0.64930732323E+04  0.65000000000E+04  0.30000000000E+03 0. -1.
     100001    1    1    2    0    0 -0.70065983190E+03  0.22769618579E+04  0.60458142750E+04  0.65000000000E+04  0.15050000000E+03 0.  1.
     100001    1    1    2    0    0  0.70065983190E+03 -0.22769618579E+04 -0.60458142750E+04  0.65000000000E+04  0.15050000000E+03 0. -1.
</event>
<event>
 4    1  0.4630618E-004  0.6500000E+04  0.7818608E-02  0.7223770E-01
         52   -1    0    0    0    0  0.00000000000E+00  0.00000000000E+00  0.64930732323E+04  0.65000000000E+04  0.30000000000E+03 0.  1.
        -52   -1    0    0    0    0 -0.00000000000E+00 -0.00000000000E+00 -0.64930732323E+04  0.65000000000E+04  0.30000000000E+03 0. -1.
     100001    1    1    2    0    0  0.71047518834E+03  0.32578803766E+04 -0.55775254557E+04  0.65000000000E+04  0.15050000000E+03 0. -1.
     100001    1    1    2    0    0 -0.71047518834E+03 -0.32578803766E+04  0.55775254557E+04  0.65000000000E+04  0.15050000000E+03 0.  1.
</event>
<event>
 4    1  0.4630618E-004  0.6500000E+04  0.7818608E-02  0.7223770E-01
         52   -1    0    0    0    0  0.00000000000E+00  0.00000000000E+00  0.64930732323E+04  0.65000000000E+04  0.30000000000E+03 0. -1.
        -52   -1    0    0    0    0 -0.00000000000E+00 -0.00000000000E+00 -0.64930732323E+04  0.65000000000E+04  0.30000000000E+03 0.  1.
     100001    1    1    2    0    0  0.23917951018E+04 -0.34352289725E+03  0.60323012160E+04  0.65000000000E+04  0.15050000000E+03 0. -1.
     100001    1    1    2    0    0 -0.23917951018E+04  0.34352289725E+03 -0.60323012160E+04  0.65000000000E+04  0.15050000000E+03 0.  1.
</event>
<event>
 4    1  0.4630618E-004  0.6500000E+04  0.7818608E-02  0.7223770E-01
         52   -1    0    0    0    0  0.00000000000E+00  0.00000000000E+00  0.64930732323E+04  0.65000000000E+04  0.30000000000E+03 0.  1.
        -52   -1    0    0    0    0 -0.00000000000E+00 -0.00000000000E+00 -0.64930732323E+04  0.65000000000E+04  0.30000000000E+03 0. -1.
     100001    1    1    2    0    0 -0.81225337442E+02 -0.25220704235E+03 -0.64928532867E+04  0.65000000000E+04  0.15050000000E+03 0. -1.
     100001    1    1    2    0    0  0.81225337442E+02  0.25220704235E+03  0.64928532867E+04  0.65000000000E+04  0.15050000000E+03 0.  1.
</event>
<event>
 4    1  0.4630618E-004  0.6500000E+04  0.7818608E-02  0.7223770E-01
         52   -1    0    0    0    0  0.00000000000E+00  0.00000000000E+00  0.64930732323E+04  0.65000000000E+04  0.30000000000E+03 0.  1.
        -52   -1    0    0    0    0 -0.00000000000E+00 -0.00000000000E+00 -0.64930732323E+04  0.65000000000E+04  0.30000000000E+03 0. -1.
     100001    1    1    2    0    0  0.16351996833E+04  0.31152823479E+04 -0.54633769446E+04  0.65000000000E+04  0.15050000000E+03 0. -1.
     100001    1    1    2    0    0 -0.16351996833E+04 -0.31152823479E+04  0.54633769446E+04  0.65000000000E+04  0.15050000000E+03 0.  1.
</event>
<event>
 4    1  0.4630618E-004  0.6500000E+04  0.7818608E-02  0.7223770E-01
         52   -1    0    0    0    0  0.00000000000E+00  0.00000000000E+00  0.64930732323E+04  0.65000000000E+04  0.30000000000E+03 0.  1.
        -52   -1    0    0    0    0 -0.00000000000E+00 -0.00000000000E+00 -0.64930732323E+04  0.65000000000E+04  0.30000000000E+03 0. -1.
     100001    1    1    2    0    0 -0.25437368728E+04  0.40111628323E+04 -0.44347858128E+04  0.65000000000E+04  0.15050000000E+03 0. -1.
     100001    1    1    2    0    0  0.25437368728E+04 -0.40111628323E+04  0.44347858128E+04  0.65000000000E+04  0.15050000000E+03 0.  1.
</event>
<event>
 4    1  0.4630618E-004  0.6500000E+04  0.7818608E-02  0.7223770E-01
         52   -1    0    0    0    0  0.00000000000E+00  0.00000000000E+00  0.64930732323E+04  0.65000000000E+04  0.30000000000E+03 0.  1.
        -52   -1    0    0    0    0 -0.00000000000E+00 -0.00000000000E+00 -0.64930732323E+04  0.65000000000E+04  0.30000000000E+03 0. -1.
     100001    1    1    2    0    0  0.58355246393E+04  0.72162017066E+02 -0.28581103158E+04  0.65000000000E+04  0.15050000000E+03 0. -1.
     100001    1    1    2    0    0 -0.58355246393E+04 -0.72162017066E+02  0.28581103158E+04  0.65000000000E+04  0.15050000000E+03 0.  1.
</event>
<event>
 4    1  0.4630618E-004  0.6500000E+04  0.7818608E-02  0.7223770E-01
         52   -1    0    0    0    0  0.00000000000E+00  0.00000000000E+00  0.64930732323E+04  0.65000000000E+04  0.30000000000E+03 0.  1.
        -52   -1    0    0    0    0 -0.00000000000E+00 -0.00000000000E+00 -0.64930732323E+04  0.65000000000E+04  0.30000000000E+03 0. -1.
     100001    1    1    2    0    0 -0.17068178459E+03  0.11561762708E+04 -0.63922980147E+04  0.65000000000E+04  0.15050000000E+03 0. -1.
     100001    1    1    2    0    0  0.17068178459E+03 -0.11561762708E+04  0.63922980147E+04  0.65000000000E+04  0.15050000000E+03 0.  1.
</event>
<event>
 4    1  0.4630618E-004  0.6500000E+04  0.7818608E-02  0.7223770E-01
         52   -1    0    0    0    0  0.00000000000E+00  0.00000000000E+00  0.64930732323E+04  0.65000000000E+04  0.30000000000E+03 0.  1.
        -52   -1    0    0    0    0 -0.00000000000E+00 -0.00000000000E+00 -0.64930732323E+04  0.65000000000E+04  0.30000000000E+03 0. -1.
     100001    1    1    2    0    0  0.21480695240E+04 -0.83910759217E+03  0.60752815176E+04  0.65000000000E+04  0.15050000000E+03 0.  1.
     100001    1    1    2    0    0 -0.21480695240E+04  0.83910759217E+03 -0.60752815176E+04  0.65000000000E+04  0.15050000000E+03 0. -1.
</event>
<event>
 4    1  0.4630618E-004  0.6500000E+04  0.7818608E-02  0.7223770E-01
         52   -1    0    0    0    0  0.00000000000E+00  0.00000000000E+00  0.64930732323E+04  0.65000000000E+04  0.30000000000E+03 0. -1.
        -52   -1    0    0    0    0 -0.00000000000E+00 -0.00000000000E+00 -0.64930732323E+04  0.65000000000E+04  0.30000000000E+03 0.  1.
     100001    1    1    2    0    0 -0.39369505963E+03  0.46898466174E+03  0.64693436558E+04  0.65000000000E+04  0.15050000000E+03 0. -1.
     100001    1    1    2    0    0  0.39369505963E+03 -0.46898466174E+03 -0.64693436558E+04  0.65000000000E+04  0.15050000000E+03 0.  1.
</event>
<event>
 4    1  0.4630618E-004  0.6500000E+04  0.7818608E-02  0.7223770E-01
         52   -1    0    0    0    0  0.00000000000E+00  0.00000000000E+00  0.64930732323E+04  0.65000000000E+04  0.30000000000E+03 0.  1.
        -52   -1    0    0    0    0 -0.00000000000E+00 -0.00000000000E+00 -0.64930732323E+04  0.65000000000E+04  0.30000000000E+03 0. -1.
     100001    1    1    2    0    0  0.26210563834E+03 -0.17308449426E+03 -0.64906619186E+04  0.65000000000E+04  0.15050000000E+03 0. -1.
     100001    1    1    2    0    0 -0.26210563834E+03  0.17308449426E+03  0.64906619186E+04  0.65000000000E+04  0.15050000000E+03 0.  1.
</event>
<event>
 4    1  0.4630618E-004  0.6500000E+04  0.7818608E-02  0.7223770E-01
         52   -1    0    0    0    0  0.00000000000E+00  0.00000000000E+00  0.64930732323E+04  0.65000000000E+04  0.30000000000E+03 0. -1.
        -52   -1    0    0    0    0 -0.00000000000E+00 -0.00000000000E+00 -0.64930732323E+04  0.65000000000E+04  0.30000000000E+03 0. -1.
     100001    1    1    2    0    0  0.17694402801E+03 -0.22308428870E+03  0.64920161707E+04  0.65000000000E+04  0.15050000000E+03 0. -1.
     100001    1    1    2    0    0 -0.17694402801E+03  0.22308428870E+03 -0.64920161707E+04  0.65000000000E+04  0.15050000000E+03 0. -1.
</event>
<event>
 4    1  0.4630618E-004  0.6500000E+04  0.7818608E-02  0.7223770E-01
         52   -1    0    0    0    0  0.00000000000E+00  0.00000000000E+00  0.64930732323E+04  0.65000000000E+04  0.30000000000E+03 0.  1.
        -52   -1    0    0    0    0 -0.00000000000E+00 -0.00000000000E+00 -0.64930732323E+04  0.65000000000E+04  0.30000000000E+03 0. -1.
     100001    1    1    2    0    0 -0.15755631006E+03  0.14075110121E+04 -0.63420374100E+04  0.65000000000E+04  0.15050000000E+03 0. -1.
     100001    1    1    2    0    0  0.15755631006E+03 -0.14075110121E+04  0.63420374100E+04  0.65000000000E+04  0.15050000000E+03 0.  1.
</event>
<event>
 4    1  0.4630618E-004  0.6500000E+04  0.7818608E-02  0.7223770E-01
         52   -1    0    0    0    0  0.00000000000E+00  0.00000000000E+00  0.64930732323E+04  0.65000000000E+04  0.30000000000E+03 0.  1.
        -52   -1    0    0    0    0 -0.00000000000E+00 -0.00000000000E+00 -0.64930732323E+04  0.65000000000E+04  0.30000000000E+03 0.  1.
     100001    1    1    2    0    0  0.12739032286E+03 -0.25475060332E+03 -0.64920122909E+04  0.65000000000E+04  0.15050000000E+03 0.  1.
     100001    1    1    2    0    0 -0.12739032286E+03  0.25475060332E+03  0.64920122909E+04  0.65000000000E+04  0.15050000000E+03 0.  1.
</event>
<event>
 4    1  0.4630618E-004  0.6500000E+04  0.7818608E-02  0.7223770E-01
         52   -1    0    0    0    0  0.00000000000E+00  0.00000000000E+00  0.64930732323E+04  0.65000000000E+04  0.30000000000E+03 0.  1.
        -52   -1    0    0    0    0 -0.00000000000E+00 -0.00000000000E+00 -0.64930732323E+04  0.65000000000E+04  0.30000000000E+03 0. -1.
     100001    1    1    2    0    0 -0.94677164007E+02 -0.56765023315E+03 -0.64727242485E+04  0.65000000000E+04  0.15050000000E+03 0. -1.
     100001    1    1    2    0    0  0.94677164007E+02  0.56765023315E+03  0.64727242485E+04  0.65000000000E+04  0.15050000000E+03 0.  1.
</event>
<event>
 4    1  0.4630618E-004  0.6500000E+04  0.7818608E-02  0.7223770E-01
         52   -1    0    0    0    0  0.00000000000E+00  0.00000000000E+00  0.64930732323E+04  0.65000000000E+04  0.30000000000E+03 0. -1.
        -52   -1    0    0    0    0 -0.00000000000E+00 -0.00000000000E+00 -0.64930732323E+04  0.65000000000E+04  0.30000000000E+03 0.  1.
     100001    1    1    2    0    0 -0.35342524760E+04  0.33993284150E+04 -0.42639155143E+04  0.65000000000E+04  0.15050000000E+03 0.  1.
     100001    1    1    2    0    0  0.35342524760E+04 -0.33993284150E+04  0.42639155143E+04  0.65000000000E+04  0.15050000000E+03 0. -1.
</event>
<event>
 4    1  0.4630618E-004  0.6500000E+04  0.7818608E-02  0.7223770E-01
         52   -1    0    0    0    0  0.00000000000E+00  0.00000000000E+00  0.64930732323E+04  0.65000000000E+04  0.30000000000E+03 0.  1.
        -52   -1    0    0    0    0 -0.00000000000E+00 -0.00000000000E+00 -0.64930732323E+04  0.65000000000E+04  0.30000000000E+03 0. -1.
     100001    1    1    2    0    0 -0.24087698627E+04 -0.58025879854E+04 -0.16598645034E+04  0.65000000000E+04  0.15050000000E+03 0.  1.
     100001    1    1    2    0    0  0.24087698627E+04  0.58025879854E+04  0.16598645034E+04  0.65000000000E+04  0.15050000000E+03 0. -1.
</event>
<event>
 4    1  0.4630618E-004  0.6500000E+04  0.7818608E-02  0.7223770E-01
         52   -1    0    0    0    0  0.00000000000E+00  0.00000000000E+00  0.64930732323E+04  0.65000000000E+04  0.30000000000E+03 0.  1.
        -52   -1    0    0    0    0 -0.00000000000E+00 -0.00000000000E+00 -0.64930732323E+04  0.65000000000E+04  0.30000000000E+03 0. -1.
     100001    1    1    2    0    0  0.84265881131E+02 -0.29729374041E+03  0.64909063653E+04  0.65000000000E+04  0.15050000000E+03 0.  1.
     100001    1    1    2    0    0 -0.84265881131E+02  0.29729374041E+03 -0.64909063653E+04  0.65000000000E+04  0.15050000000E+03 0. -1.
</event>
<event>
 4    1  0.4630618E-004  0.6500000E+04  0.7818608E-02  0.7223770E-01
         52   -1    0    0    0    0  0.00000000000E+00  0.00000000000E+00  0.64930732323E+04  0.65000000000E+04  0.30000000000E+03 0. -1.
        -52   -1    0    0    0    0 -0.00000000000E+00 -0.00000000000E+00 -0.64930732323E+04  0.65000000000E+04  0.30000000000E+03 0. -1.
     100001    1    1    2    0    0  0.14032008860E+01  0.17812526860E+03  0.64958155123E+04  0.65000000000E+04  0.15050000000E+03 0. -1.
     100001    1    1    2    0    0 -0.14032008860E+01 -0.17812526860E+03 -0.64958155123E+04  0.65000000000E+04  0.15050000000E+03 0. -1.
</event>
<event>
 4    1  0.4630618E-004  0.6500000E+04  0.7818608E-02  0.7223770E-01
         52   -1    0    0    0    0  0.00000000000E+00  0.00000000000E+00  0.64930732323E+04  0.65000000000E+04  0.30000000000E+03 0.  1.
        -52   -1    0    0    0    0 -0.00000000000E+00 -0.00000000000E+00 -0.64930732323E+04  0.65000000000E+04  0.30000000000E+03 0. -1.
     100001    1    1    2    0    0  0.12903929369E+04  0.76033580324E+03 -0.63233001894E+04  0.65000000000E+04  0.15050000000E+03 0. -1.
     100001    1    1    2    0    0 -0.12903929369E+04 -0.76033580324E+03  0.63233001894E+04  0.65000000000E+04  0.15050000000E+03 0.  1.
</event>
<event>
 4    1  0.4630618E-004  0.6500000E+04  0.7818608E-02  0.7223770E-01
         52   -1    0    0    0    0  0.00000000000E+00  0.00000000000E+00  0.64930732323E+04  0.65000000000E+04  0.30000000000E+03 0.  1.
        -52   -1    0    0    0    0 -0.00000000000E+00 -0.00000000000E+00 -0.64930732323E+04  0.65000000000E+04  0.30000000000E+03 0. -1.
     100001    1    1    2    0    0 -0.13336260596E+04 -0.14051245312E+04 -0.62027748899E+04  0.65000000000E+04  0.15050000000E+03 0. -1.
     100001    1    1    2    0    0  0.13336260596E+04  0.14051245312E+04  0.62027748899E+04  0.65000000000E+04  0.15050000000E+03 0.  1.
</event>
<event>
 4    1  0.4630618E-004  0.6500000E+04  0.7818608E-02  0.7223770E-01
         52   -1    0    0    0    0  0.00000000000E+00  0.00000000000E+00  0.64930732323E+04  0.65000000000E+04  0.30000000000E+03 0.  1.
        -52   -1    0    0    0    0 -0.00000000000E+00 -0.00000000000E+00 -0.64930732323E+04  0.65000000000E+04  0.30000000000E+03 0. -1.
     100001    1    1    2    0    0 -0.26613762973E+04 -0.11492012151E+04  0.58158200214E+04  0.65000000000E+04  0.15050000000E+03 0.  1.
     100001    1    1    2    0    0  0.26613762973E+04  0.11492012151E+04 -0.58158200214E+04  0.65000000000E+04  0.15050000000E+03 0. -1.
</event>
<event>
 4    1  0.4630618E-004  0.6500000E+04  0.7818608E-02  0.7223770E-01
         52   -1    0    0    0    0  0.00000000000E+00  0.00000000000E+00  0.64930732323E+04  0.65000000000E+04  0.30000000000E+03 0. -1.
        -52   -1    0    0    0    0 -0.00000000000E+00 -0.00000000000E+00 -0.64930732323E+04  0.65000000000E+04  0.30000000000E+03 0. -1.
     100001    1    1    2    0    0  0.32696624437E+03  0.17420367892E+02 -0.64900030320E+04  0.65000000000E+04  0.15050000000E+03 0. -1.
     100001    1    1    2    0    0 -0.32696624437E+03 -0.17420367892E+02  0.64900030320E+04  0.65000000000E+04  0.15050000000E+03 0. -1.
</event>
<event>
 4    1  0.4630618E-004  0.6500000E+04  0.7818608E-02  0.7223770E-01
         52   -1    0    0    0    0  0.00000000000E+00  0.00000000000E+00  0.64930732323E+04  0.65000000000E+04  0.30000000000E+03 0. -1.
        -52   -1    0    0    0    0 -0.00000000000E+00 -0.00000000000E+00 -0.64930732323E+04  0.65000000000E+04  0.30000000000E+03 0.  1.
     100001    1    1    2    0    0  0.44221351349E+04 -0.68066465325E+02  0.47610332445E+04  0.65000000000E+04  0.15050000000E+03 0. -1.
     100001    1    1    2    0    0 -0.44221351349E+04  0.68066465325E+02 -0.47610332445E+04  0.65000000000E+04  0.15050000000E+03 0.  1.
</event>
<event>
 4    1  0.4630618E-004  0.6500000E+04  0.7818608E-02  0.7223770E-01
         52   -1    0    0    0    0  0.00000000000E+00  0.00000000000E+00  0.64930732323E+04  0.65000000000E+04  0.30000000000E+03 0. -1.
        -52   -1    0    0    0    0 -0.00000000000E+00 -0.00000000000E+00 -0.64930732323E+04  0.65000000000E+04  0.30000000000E+03 0.  1.
     100001    1    1    2    0    0  0.13521080457E+03  0.28002802559E+03 -0.64908128993E+04  0.65000000000E+04  0.15050000000E+03 0.  1.
     100001    1    1    2    0    0 -0.13521080457E+03 -0.28002802559E+03  0.64908128993E+04  0.65000000000E+04  0.15050000000E+03 0. -1.
</event>
<event>
 4    1  0.4630618E-004  0.6500000E+04  0.7818608E-02  0.7223770E-01
         52   -1    0    0    0    0  0.00000000000E+00  0.00000000000E+00  0.64930732323E+04  0.65000000000E+04  0.30000000000E+03 0.  1.
        -52   -1    0    0    0    0 -0.00000000000E+00 -0.00000000000E+00 -0.64930732323E+04  0.65000000000E+04  0.30000000000E+03 0. -1.
     100001    1    1    2    0    0 -0.77022565764E+03 -0.65703759656E+02 -0.64521147853E+04  0.65000000000E+04  0.15050000000E+03 0. -1.
     100001    1    1    2    0    0  0.77022565764E+03  0.65703759656E+02  0.64521147853E+04  0.65000000000E+04  0.15050000000E+03 0.  1.
</event>
<event>
 4    1  0.4630618E-004  0.6500000E+04  0.7818608E-02  0.7223770E-01
         52   -1    0    0    0    0  0.00000000000E+00  0.00000000000E+00  0.64930732323E+04  0.65000000000E+04  0.30000000000E+03 0.  1.
        -52   -1    0    0    0    0 -0.00000000000E+00 -0.00000000000E+00 -0.64930732323E+04  0.65000000000E+04  0.30000000000E+03 0. -1.
     100001    1    1    2    0    0 -0.15012132844E+03 -0.71692370647E+03 -0.64568439454E+04  0.65000000000E+04  0.15050000000E+03 0. -1.
     100001    1    1    2    0    0  0.15012132844E+03  0.71692370647E+03  0.64568439454E+04  0.65000000000E+04  0.15050000000E+03 0.  1.
</event>
<event>
 4    1  0.4630618E-004  0.6500000E+04  0.7818608E-02  0.7223770E-01
         52   -1    0    0    0    0  0.00000000000E+00  0.00000000000E+00  0.64930732323E+04  0.65000000000E+04  0.30000000000E+03 0. -1.
        -52   -1    0    0    0    0 -0.00000000000E+00 -0.00000000000E+00 -0.64930732323E+04  0.65000000000E+04  0.30000000000E+03 0.  1.
     100001    1    1    2    0    0 -0.12156798057E+04 -0.36724872642E+03 -0.63729585542E+04  0.65000000000E+04  0.15050000000E+03 0.  1.
     100001    1    1    2    0    0  0.12156798057E+04  0.36724872642E+03  0.63729585542E+04  0.65000000000E+04  0.15050000000E+03 0. -1.
</event>
<event>
 4    1  0.4630618E-004  0.6500000E+04  0.7818608E-02  0.7223770E-01
         52   -1    0    0    0    0  0.00000000000E+00  0.00000000000E+00  0.64930732323E+04  0.65000000000E+04  0.30000000000E+03 0.  1.
        -52   -1    0    0    0    0 -0.00000000000E+00 -0.00000000000E+00 -0.64930732323E+04  0.65000000000E+04  0.30000000000E+03 0. -1.
     100001    1    1    2    0    0 -0.56218604684E+04 -0.31446013478E+04  0.85645606240E+03  0.65000000000E+04  0.15050000000E+03 0.  1.
     100001    1    1    2    0    0  0.56218604684E+04  0.31446013478E+04 -0.85645606240E+03  0.65000000000E+04  0.15050000000E+03 0. -1.
</event>
<event>
 4    1  0.4630618E-004  0.6500000E+04  0.7818608E-02  0.7223770E-01
         52   -1    0    0    0    0  0.00000000000E+00  0.00000000000E+00  0.64930732323E+04  0.65000000000E+04  0.30000000000E+03 0.  1.
        -52   -1    0    0    0    0 -0.00000000000E+00 -0.00000000000E+00 -0.64930732323E+04  0.65000000000E+04  0.30000000000E+03 0. -1.
     100001    1    1    2    0    0  0.24796394634E+03 -0.12837585937E+04  0.63653615376E+04  0.65000000000E+04  0.15050000000E+03 0.  1.
     100001    1    1    2    0    0 -0.24796394634E+03  0.12837585937E+04 -0.63653615376E+04  0.65000000000E+04  0.15050000000E+03 0. -1.
</event>
<event>
 4    1  0.4630618E-004  0.6500000E+04  0.7818608E-02  0.7223770E-01
         52   -1    0    0    0    0  0.00000000000E+00  0.00000000000E+00  0.64930732323E+04  0.65000000000E+04  0.30000000000E+03 0.  1.
        -52   -1    0    0    0    0 -0.00000000000E+00 -0.00000000000E+00 -0.64930732323E+04  0.65000000000E+04  0.30000000000E+03 0. -1.
     100001    1    1    2    0    0  0.22469362179E+04 -0.12310983865E+04  0.59718526561E+04  0.65000000000E+04  0.15050000000E+03 0.  1.
     100001    1    1    2    0    0 -0.22469362179E+04  0.12310983865E+04 -0.59718526561E+04  0.65000000000E+04  0.15050000000E+03 0. -1.
</event>
<event>
 4    1  0.4630618E-004  0.6500000E+04  0.7818608E-02  0.7223770E-01
         52   -1    0    0    0    0  0.00000000000E+00  0.00000000000E+00  0.64930732323E+04  0.65000000000E+04  0.30000000000E+03 0. -1.
        -52   -1    0    0    0    0 -0.00000000000E+00 -0.00000000000E+00 -0.64930732323E+04  0.65000000000E+04  0.30000000000E+03 0.  1.
     100001    1    1    2    0    0  0.58731839008E+03 -0.17529869644E+03 -0.64692872270E+04  0.65000000000E+04  0.15050000000E+03 0.  1.
     100001    1    1    2    0    0 -0.58731839008E+03  0.17529869644E+03  0.64692872270E+04  0.65000000000E+04  0.15050000000E+03 0. -1.
</event>
<event>
 4    1  0.4630618E-004  0.6500000E+04  0.7818608E-02  0.7223770E-01
         52   -1    0    0    0    0  0.00000000000E+00  0.00000000000E+00  0.64930732323E+04  0.65000000000E+04  0.30000000000E+03 0.  1.
        -52   -1    0    0    0    0 -0.00000000000E+00 -0.00000000000E+00 -0.64930732323E+04  0.65000000000E+04  0.30000000000E+03 0. -1.
     100001    1    1    2    0    0 -0.10776124696E+04 -0.13652903549E+02 -0.64082692448E+04  0.65000000000E+04  0.15050000000E+03 0. -1.
     100001    1    1    2    0    0  0.10776124696E+04  0.13652903549E+02  0.64082692448E+04  0.65000000000E+04  0.15050000000E+03 0.  1.
</event>
<event>
 4    1  0.4630618E-004  0.6500000E+04  0.7818608E-02  0.7223770E-01
         52   -1    0    0    0    0  0.00000000000E+00  0.00000000000E+00  0.64930732323E+04  0.65000000000E+04  0.30000000000E+03 0. -1.
        -52   -1    0    0    0    0 -0.00000000000E+00 -0.00000000000E+00 -0.64930732323E+04  0.65000000000E+04  0.30000000000E+03 0.  1.
     100001    1    1    2    0    0 -0.11667515921E+04  0.17132908817E+04  0.61587884220E+04  0.65000000000E+04  0.15050000000E+03 0. -1.
     100001    1    1    2    0    0  0.11667515921E+04 -0.17132908817E+04 -0.61587884220E+04  0.65000000000E+04  0.15050000000E+03 0.  1.
</event>
<event>
 4    1  0.4630618E-004  0.6500000E+04  0.7818608E-02  0.7223770E-01
         52   -1    0    0    0    0  0.00000000000E+00  0.00000000000E+00  0.64930732323E+04  0.65000000000E+04  0.30000000000E+03 0.  1.
        -52   -1    0    0    0    0 -0.00000000000E+00 -0.00000000000E+00 -0.64930732323E+04  0.65000000000E+04  0.30000000000E+03 0. -1.
     100001    1    1    2    0    0  0.10451314618E+04  0.18236011040E+04  0.61489453560E+04  0.65000000000E+04  0.15050000000E+03 0.  1.
     100001    1    1    2    0    0 -0.10451314618E+04 -0.18236011040E+04 -0.61489453560E+04  0.65000000000E+04  0.15050000000E+03 0. -1.
</event>
<event>
 4    1  0.4630618E-004  0.6500000E+04  0.7818608E-02  0.7223770E-01
         52   -1    0    0    0    0  0.00000000000E+00  0.00000000000E+00  0.64930732323E+04  0.65000000000E+04  0.30000000000E+03 0.  1.
        -52   -1    0    0    0    0 -0.00000000000E+00 -0.00000000000E+00 -0.64930732323E+04  0.65000000000E+04  0.30000000000E+03 0. -1.
     100001    1    1    2    0    0  0.20689509260E+04  0.92598330330E+03 -0.60901023586E+04  0.65000000000E+04  0.15050000000E+03 0. -1.
     100001    1    1    2    0    0 -0.20689509260E+04 -0.92598330330E+03  0.60901023586E+04  0.65000000000E+04  0.15050000000E+03 0.  1.
</event>
<event>
 4    1  0.4630618E-004  0.6500000E+04  0.7818608E-02  0.7223770E-01
         52   -1    0    0    0    0  0.00000000000E+00  0.00000000000E+00  0.64930732323E+04  0.65000000000E+04  0.30000000000E+03 0. -1.
        -52   -1    0    0    0    0 -0.00000000000E+00 -0.00000000000E+00 -0.64930732323E+04  0.65000000000E+04  0.30000000000E+03 0.  1.
     100001    1    1    2    0    0  0.15621685643E+04 -0.48368540910E+04  0.40486814680E+04  0.65000000000E+04  0.15050000000E+03 0. -1.
     100001    1    1    2    0    0 -0.15621685643E+04  0.48368540910E+04 -0.40486814680E+04  0.65000000000E+04  0.15050000000E+03 0.  1.
</event>
<event>
 4    1  0.4630618E-004  0.6500000E+04  0.7818608E-02  0.7223770E-01
         52   -1    0    0    0    0  0.00000000000E+00  0.00000000000E+00  0.64930732323E+04  0.65000000000E+04  0.30000000000E+03 0.  1.
        -52   -1    0    0    0    0 -0.00000000000E+00 -0.00000000000E+00 -0.64930732323E+04  0.65000000000E+04  0.30000000000E+03 0. -1.
     100001    1    1    2    0    0 -0.14435374089E+04 -0.55471446405E+04  0.30614924199E+04  0.65000000000E+04  0.15050000000E+03 0.  1.
     100001    1    1    2    0    0  0.14435374089E+04  0.55471446405E+04 -0.30614924199E+04  0.65000000000E+04  0.15050000000E+03 0. -1.
</event>
<event>
 4    1  0.4630618E-004  0.6500000E+04  0.7818608E-02  0.7223770E-01
         52   -1    0    0    0    0  0.00000000000E+00  0.00000000000E+00  0.64930732323E+04  0.65000000000E+04  0.30000000000E+03 0.  1.
        -52   -1    0    0    0    0 -0.00000000000E+00 -0.00000000000E+00 -0.64930732323E+04  0.65000000000E+04  0.30000000000E+03 0. -1.
     100001    1    1    2    0    0 -0.86574564896E+03  0.13885602650E+03 -0.64388316662E+04  0.65000000000E+04  0.15050000000E+03 0. -1.
     100001    1    1    2    0    0  0.86574564896E+03 -0.13885602650E+03  0.64388316662E+04  0.65000000000E+04  0.15050000000E+03 0.  1.
</event>
<event>
 4    1  0.4630618E-004  0.6500000E+04  0.7818608E-02  0.7223770E-01
         52   -1    0    0    0    0  0.00000000000E+00  0.00000000000E+00  0.64930732323E+04  0.65000000000E+04  0.30000000000E+03 0.  1.
        -52   -1    0    0    0    0 -0.00000000000E+00 -0.00000000000E+00 -0.64930732323E+04  0.65000000000E+04  0.30000000000E+03 0. -1.
     100001    1    1    2    0    0 -0.18811384677E+04 -0.18077021914E+04  0.59515443880E+04  0.65000000000E+04  0.15050000000E+03 0.  1.
     100001    1    1    2    0    0  0.18811384677E+04  0.18077021914E+04 -0.59515443880E+04  0.65000000000E+04  0.15050000000E+03 0. -1.
</event>
<event>
 4    1  0.4630618E-004  0.6500000E+04  0.7818608E-02  0.7223770E-01
         52   -1    0    0    0    0  0.00000000000E+00  0.00000000000E+00  0.64930732323E+04  0.65000000000E+04  0.30000000000E+03 0.  1.
        -52   -1    0    0    0    0 -0.00000000000E+00 -0.00000000000E+00 -0.64930732323E+04  0.65000000000E+04  0.30000000000E+03 0. -1.
     100001    1    1    2    0    0  0.11578143159E+04 -0.22000352319E+04 -0.60038871357E+04  0.65000000000E+04  0.15050000000E+03 0. -1.
     100001    1    1    2    0    0 -0.11578143159E+04  0.22000352319E+04  0.60038871357E+04  0.65000000000E+04  0.15050000000E+03 0.  1.
</event>
<event>
 4    1  0.4630618E-004  0.6500000E+04  0.7818608E-02  0.7223770E-01
         52   -1    0    0    0    0  0.00000000000E+00  0.00000000000E+00  0.64930732323E+04  0.65000000000E+04  0.30000000000E+03 0.  1.
        -52   -1    0    0    0    0 -0.00000000000E+00 -0.00000000000E+00 -0.64930732323E+04  0.65000000000E+04  0.30000000000E+03 0. -1.
     100001    1    1    2    0    0 -0.25838756385E+04 -0.48543922968E+04 -0.34620531284E+04  0.65000000000E+04  0.15050000000E+03 0. -1.
     100001    1    1    2    0    0  0.25838756385E+04  0.48543922968E+04  0.34620531284E+04  0.65000000000E+04  0.15050000000E+03 0.  1.
</event>
<event>
 4    1  0.4630618E-004  0.6500000E+04  0.7818608E-02  0.7223770E-01
         52   -1    0    0    0    0  0.00000000000E+00  0.00000000000E+00  0.64930732323E+04  0.65000000000E+04  0.30000000000E+03 0. -1.
        -52   -1    0    0    0    0 -0.00000000000E+00 -0.00000000000E+00 -0.64930732323E+04  0.65000000000E+04  0.30000000000E+03 0.  1.
     100001    1    1    2    0    0 -0.27591959076E+04 -0.20789475956E+04  0.55038318096E+04  0.65000000000E+04  0.15050000000E+03 0. -1.
     100001    1    1    2    0    0  0.27591959076E+04  0.20789475956E+04 -0.55038318096E+04  0.65000000000E+04  0.15050000000E+03 0.  1.
</event>
<event>
 4    1  0.4630618E-004  0.6500000E+04  0.7818608E-02  0.7223770E-01
         52   -1    0    0    0    0  0.00000000000E+00  0.00000000000E+00  0.64930732323E+04  0.65000000000E+04  0.30000000000E+03 0.  1.
        -52   -1    0    0    0    0 -0.00000000000E+00 -0.00000000000E+00 -0.64930732323E+04  0.65000000000E+04  0.30000000000E+03 0. -1.
     100001    1    1    2    0    0 -0.25616132636E+04 -0.38158738048E+04 -0.45939736986E+04  0.65000000000E+04  0.15050000000E+03 0. -1.
     100001    1    1    2    0    0  0.25616132636E+04  0.38158738048E+04  0.45939736986E+04  0.65000000000E+04  0.15050000000E+03 0.  1.
</event>
<event>
 4    1  0.4630618E-004  0.6500000E+04  0.7818608E-02  0.7223770E-01
         52   -1    0    0    0    0  0.00000000000E+00  0.00000000000E+00  0.64930732323E+04  0.65000000000E+04  0.30000000000E+03 0. -1.
        -52   -1    0    0    0    0 -0.00000000000E+00 -0.00000000000E+00 -0.64930732323E+04  0.65000000000E+04  0.30000000000E+03 0.  1.
     100001    1    1    2    0    0  0.28413617724E+04  0.26747472085E+04  0.51961274426E+04  0.65000000000E+04  0.15050000000E+03 0. -1.
     100001    1    1    2    0    0 -0.28413617724E+04 -0.26747472085E+04 -0.51961274426E+04  0.65000000000E+04  0.15050000000E+03 0.  1.
</event>
<event>
 4    1  0.4630618E-004  0.6500000E+04  0.7818608E-02  0.7223770E-01
         52   -1    0    0    0    0  0.00000000000E+00  0.00000000000E+00  0.64930732323E+04  0.65000000000E+04  0.30000000000E+03 0. -1.
        -52   -1    0    0    0    0 -0.00000000000E+00 -0.00000000000E+00 -0.64930732323E+04  0.65000000000E+04  0.30000000000E+03 0.  1.
     100001    1    1    2    0    0 -0.11011736377E+04  0.10196282155E+04 -0.63225884471E+04  0.65000000000E+04  0.15050000000E+03 0.  1.
     100001    1    1    2    0    0  0.11011736377E+04 -0.10196282155E+04  0.63225884471E+04  0.65000000000E+04  0.15050000000E+03 0. -1.
</event>
<event>
 4    1  0.4630618E-004  0.6500000E+04  0.7818608E-02  0.7223770E-01
         52   -1    0    0    0    0  0.00000000000E+00  0.00000000000E+00  0.64930732323E+04  0.65000000000E+04  0.30000000000E+03 0.  1.
        -52   -1    0    0    0    0 -0.00000000000E+00 -0.00000000000E+00 -0.64930732323E+04  0.65000000000E+04  0.30000000000E+03 0. -1.
     100001    1    1    2    0    0 -0.37861184480E+03 -0.66401480097E+03 -0.64531455249E+04  0.65000000000E+04  0.15050000000E+03 0. -1.
     100001    1    1    2    0    0  0.37861184480E+03  0.66401480097E+03  0.64531455249E+04  0.65000000000E+04  0.15050000000E+03 0.  1.
</event>
<event>
 4    1  0.4630618E-004  0.6500000E+04  0.7818608E-02  0.7223770E-01
         52   -1    0    0    0    0  0.00000000000E+00  0.00000000000E+00  0.64930732323E+04  0.65000000000E+04  0.30000000000E+03 0. -1.
        -52   -1    0    0    0    0 -0.00000000000E+00 -0.00000000000E+00 -0.64930732323E+04  0.65000000000E+04  0.30000000000E+03 0.  1.
     100001    1    1    2    0    0  0.28514585385E+03 -0.10495472713E+04  0.64065975461E+04  0.65000000000E+04  0.15050000000E+03 0. -1.
     100001    1    1    2    0    0 -0.28514585385E+03  0.10495472713E+04 -0.64065975461E+04  0.65000000000E+04  0.15050000000E+03 0.  1.
</event>
<event>
 4    1  0.4630618E-004  0.6500000E+04  0.7818608E-02  0.7223770E-01
         52   -1    0    0    0    0  0.00000000000E+00  0.00000000000E+00  0.64930732323E+04  0.65000000000E+04  0.30000000000E+03 0.  1.
        -52   -1    0    0    0    0 -0.00000000000E+00 -0.00000000000E+00 -0.64930732323E+04  0.65000000000E+04  0.30000000000E+03 0. -1.
     100001    1    1    2    0    0  0.74156401415E+03 -0.11656228131E+04 -0.63497051916E+04  0.65000000000E+04  0.15050000000E+03 0. -1.
     100001    1    1    2    0    0 -0.74156401415E+03  0.11656228131E+04  0.63497051916E+04  0.65000000000E+04  0.15050000000E+03 0.  1.
</event>
<event>
 4    1  0.4630618E-004  0.6500000E+04  0.7818608E-02  0.7223770E-01
         52   -1    0    0    0    0  0.00000000000E+00  0.00000000000E+00  0.64930732323E+04  0.65000000000E+04  0.30000000000E+03 0.  1.
        -52   -1    0    0    0    0 -0.00000000000E+00 -0.00000000000E+00 -0.64930732323E+04  0.65000000000E+04  0.30000000000E+03 0.  1.
     100001    1    1    2    0    0  0.80541203525E+02  0.32397699994E+03  0.64896765534E+04  0.65000000000E+04  0.15050000000E+03 0.  1.
     100001    1    1    2    0    0 -0.80541203525E+02 -0.32397699994E+03 -0.64896765534E+04  0.65000000000E+04  0.15050000000E+03 0.  1.
</event>
<event>
 4    1  0.4630618E-004  0.6500000E+04  0.7818608E-02  0.7223770E-01
         52   -1    0    0    0    0  0.00000000000E+00  0.00000000000E+00  0.64930732323E+04  0.65000000000E+04  0.30000000000E+03 0. -1.
        -52   -1    0    0    0    0 -0.00000000000E+00 -0.00000000000E+00 -0.64930732323E+04  0.65000000000E+04  0.30000000000E+03 0. -1.
     100001    1    1    2    0    0  0.42481472019E+03 -0.14634723034E+04 -0.63170508167E+04  0.65000000000E+04  0.15050000000E+03 0. -1.
     100001    1    1    2    0    0 -0.42481472019E+03  0.14634723034E+04  0.63170508167E+04  0.65000000000E+04  0.15050000000E+03 0. -1.
</event>
<event>
 4    1  0.4630618E-004  0.6500000E+04  0.7818608E-02  0.7223770E-01
         52   -1    0    0    0    0  0.00000000000E+00  0.00000000000E+00  0.64930732323E+04  0.65000000000E+04  0.30000000000E+03 0. -1.
        -52   -1    0    0    0    0 -0.00000000000E+00 -0.00000000000E+00 -0.64930732323E+04  0.65000000000E+04  0.30000000000E+03 0.  1.
     100001    1    1    2    0    0 -0.78790254305E+03 -0.56348898291E+02 -0.64500685372E+04  0.65000000000E+04  0.15050000000E+03 0.  1.
     100001    1    1    2    0    0  0.78790254305E+03  0.56348898291E+02  0.64500685372E+04  0.65000000000E+04  0.15050000000E+03 0. -1.
</event>
<event>
 4    1  0.4630618E-004  0.6500000E+04  0.7818608E-02  0.7223770E-01
         52   -1    0    0    0    0  0.00000000000E+00  0.00000000000E+00  0.64930732323E+04  0.65000000000E+04  0.30000000000E+03 0.  1.
        -52   -1    0    0    0    0 -0.00000000000E+00 -0.00000000000E+00 -0.64930732323E+04  0.65000000000E+04  0.30000000000E+03 0. -1.
     100001    1    1    2    0    0 -0.34157963876E+03  0.27662799662E+03  0.64833748968E+04  0.65000000000E+04  0.15050000000E+03 0.  1.
     100001    1    1    2    0    0  0.34157963876E+03 -0.27662799662E+03 -0.64833748968E+04  0.65000000000E+04  0.15050000000E+03 0. -1.
</event>
<event>
 4    1  0.4630618E-004  0.6500000E+04  0.7818608E-02  0.7223770E-01
         52   -1    0    0    0    0  0.00000000000E+00  0.00000000000E+00  0.64930732323E+04  0.65000000000E+04  0.30000000000E+03 0.  1.
        -52   -1    0    0    0    0 -0.00000000000E+00 -0.00000000000E+00 -0.64930732323E+04  0.65000000000E+04  0.30000000000E+03 0.  1.
     100001    1    1    2    0    0 -0.48559880184E+03  0.21002206688E+03  0.64766838957E+04  0.65000000000E+04  0.15050000000E+03 0.  1.
     100001    1    1    2    0    0  0.48559880184E+03 -0.21002206688E+03 -0.64766838957E+04  0.65000000000E+04  0.15050000000E+03 0.  1.
</event>
<event>
 4    1  0.4630618E-004  0.6500000E+04  0.7818608E-02  0.7223770E-01
         52   -1    0    0    0    0  0.00000000000E+00  0.00000000000E+00  0.64930732323E+04  0.65000000000E+04  0.30000000000E+03 0.  1.
        -52   -1    0    0    0    0 -0.00000000000E+00 -0.00000000000E+00 -0.64930732323E+04  0.65000000000E+04  0.30000000000E+03 0.  1.
     100001    1    1    2    0    0 -0.25366161889E+03  0.40453391037E+03  0.64806911552E+04  0.65000000000E+04  0.15050000000E+03 0.  1.
     100001    1    1    2    0    0  0.25366161889E+03 -0.40453391037E+03 -0.64806911552E+04  0.65000000000E+04  0.15050000000E+03 0.  1.
</event>
<event>
 4    1  0.4630618E-004  0.6500000E+04  0.7818608E-02  0.7223770E-01
         52   -1    0    0    0    0  0.00000000000E+00  0.00000000000E+00  0.64930732323E+04  0.65000000000E+04  0.30000000000E+03 0. -1.
        -52   -1    0    0    0    0 -0.00000000000E+00 -0.00000000000E+00 -0.64930732323E+04  0.65000000000E+04  0.30000000000E+03 0.  1.
     100001    1    1    2    0    0 -0.14605110354E+04  0.16428005187E+04 -0.61151830489E+04  0.65000000000E+04  0.15050000000E+03 0.  1.
     100001    1    1    2    0    0  0.14605110354E+04 -0.16428005187E+04  0.61151830489E+04  0.65000000000E+04  0.15050000000E+03 0. -1.
</event>
<event>
 4    1  0.4630618E-004  0.6500000E+04  0.7818608E-02  0.7223770E-01
         52   -1    0    0    0    0  0.00000000000E+00  0.00000000000E+00  0.64930732323E+04  0.65000000000E+04  0.30000000000E+03 0. -1.
        -52   -1    0    0    0    0 -0.00000000000E+00 -0.00000000000E+00 -0.64930732323E+04  0.65000000000E+04  0.30000000000E+03 0.  1.
     100001    1    1    2    0    0  0.10786018639E+04 -0.11349057946E+04 -0.63068182633E+04  0.65000000000E+04  0.15050000000E+03 0.  1.
     100001    1    1    2    0    0 -0.10786018639E+04  0.11349057946E+04  0.63068182633E+04  0.65000000000E+04  0.15050000000E+03 0. -1.
</event>
<event>
 4    1  0.4630618E-004  0.6500000E+04  0.7818608E-02  0.7223770E-01
         52   -1    0    0    0    0  0.00000000000E+00  0.00000000000E+00  0.64930732323E+04  0.65000000000E+04  0.30000000000E+03 0.  1.
        -52   -1    0    0    0    0 -0.00000000000E+00 -0.00000000000E+00 -0.64930732323E+04  0.65000000000E+04  0.30000000000E+03 0. -1.
     100001    1    1    2    0    0 -0.39877674257E+03 -0.11778763951E+04 -0.63781607112E+04  0.65000000000E+04  0.15050000000E+03 0. -1.
     100001    1    1    2    0    0  0.39877674257E+03  0.11778763951E+04  0.63781607112E+04  0.65000000000E+04  0.15050000000E+03 0.  1.
</event>
<event>
 4    1  0.4630618E-004  0.6500000E+04  0.7818608E-02  0.7223770E-01
         52   -1    0    0    0    0  0.00000000000E+00  0.00000000000E+00  0.64930732323E+04  0.65000000000E+04  0.30000000000E+03 0.  1.
        -52   -1    0    0    0    0 -0.00000000000E+00 -0.00000000000E+00 -0.64930732323E+04  0.65000000000E+04  0.30000000000E+03 0. -1.
     100001    1    1    2    0    0 -0.35603247103E+04  0.17454362389E+04  0.51482900116E+04  0.65000000000E+04  0.15050000000E+03 0.  1.
     100001    1    1    2    0    0  0.35603247103E+04 -0.17454362389E+04 -0.51482900116E+04  0.65000000000E+04  0.15050000000E+03 0. -1.
</event>
<event>
 4    1  0.4630618E-004  0.6500000E+04  0.7818608E-02  0.7223770E-01
         52   -1    0    0    0    0  0.00000000000E+00  0.00000000000E+00  0.64930732323E+04  0.65000000000E+04  0.30000000000E+03 0.  1.
        -52   -1    0    0    0    0 -0.00000000000E+00 -0.00000000000E+00 -0.64930732323E+04  0.65000000000E+04  0.30000000000E+03 0.  1.
     100001    1    1    2    0    0  0.30022135691E+02  0.18692982757E+02 -0.64981612010E+04  0.65000000000E+04  0.15050000000E+03 0.  1.
     100001    1    1    2    0    0 -0.30022135691E+02 -0.18692982757E+02  0.64981612010E+04  0.65000000000E+04  0.15050000000E+03 0.  1.
</event>
<event>
 4    1  0.4630618E-004  0.6500000E+04  0.7818608E-02  0.7223770E-01
         52   -1    0    0    0    0  0.00000000000E+00  0.00000000000E+00  0.64930732323E+04  0.65000000000E+04  0.30000000000E+03 0. -1.
        -52   -1    0    0    0    0 -0.00000000000E+00 -0.00000000000E+00 -0.64930732323E+04  0.65000000000E+04  0.30000000000E+03 0.  1.
     100001    1    1    2    0    0  0.20364771095E+04 -0.57840500608E+04  0.21505524003E+04  0.65000000000E+04  0.15050000000E+03 0.  1.
     100001    1    1    2    0    0 -0.20364771095E+04  0.57840500608E+04 -0.21505524003E+04  0.65000000000E+04  0.15050000000E+03 0. -1.
</event>
<event>
 4    1  0.4630618E-004  0.6500000E+04  0.7818608E-02  0.7223770E-01
         52   -1    0    0    0    0  0.00000000000E+00  0.00000000000E+00  0.64930732323E+04  0.65000000000E+04  0.30000000000E+03 0.  1.
        -52   -1    0    0    0    0 -0.00000000000E+00 -0.00000000000E+00 -0.64930732323E+04  0.65000000000E+04  0.30000000000E+03 0. -1.
     100001    1    1    2    0    0  0.76192337801E+03  0.11736418294E+04  0.63458165253E+04  0.65000000000E+04  0.15050000000E+03 0.  1.
     100001    1    1    2    0    0 -0.76192337801E+03 -0.11736418294E+04 -0.63458165253E+04  0.65000000000E+04  0.15050000000E+03 0. -1.
</event>
<event>
 4    1  0.4630618E-004  0.6500000E+04  0.7818608E-02  0.7223770E-01
         52   -1    0    0    0    0  0.00000000000E+00  0.00000000000E+00  0.64930732323E+04  0.65000000000E+04  0.30000000000E+03 0.  1.
        -52   -1    0    0    0    0 -0.00000000000E+00 -0.00000000000E+00 -0.64930732323E+04  0.65000000000E+04  0.30000000000E+03 0. -1.
     100001    1    1    2    0    0 -0.11046094928E+04 -0.10918239572E+04 -0.63099213993E+04  0.65000000000E+04  0.15050000000E+03 0. -1.
     100001    1    1    2    0    0  0.11046094928E+04  0.10918239572E+04  0.63099213993E+04  0.65000000000E+04  0.15050000000E+03 0.  1.
</event>
<event>
 4    1  0.4630618E-004  0.6500000E+04  0.7818608E-02  0.7223770E-01
         52   -1    0    0    0    0  0.00000000000E+00  0.00000000000E+00  0.64930732323E+04  0.65000000000E+04  0.30000000000E+03 0.  1.
        -52   -1    0    0    0    0 -0.00000000000E+00 -0.00000000000E+00 -0.64930732323E+04  0.65000000000E+04  0.30000000000E+03 0. -1.
     100001    1    1    2    0    0 -0.34377063011E+04 -0.22816343900E+04 -0.50203256516E+04  0.65000000000E+04  0.15050000000E+03 0. -1.
     100001    1    1    2    0    0  0.34377063011E+04  0.22816343900E+04  0.50203256516E+04  0.65000000000E+04  0.15050000000E+03 0.  1.
</event>
<event>
 4    1  0.4630618E-004  0.6500000E+04  0.7818608E-02  0.7223770E-01
         52   -1    0    0    0    0  0.00000000000E+00  0.00000000000E+00  0.64930732323E+04  0.65000000000E+04  0.30000000000E+03 0.  1.
        -52   -1    0    0    0    0 -0.00000000000E+00 -0.00000000000E+00 -0.64930732323E+04  0.65000000000E+04  0.30000000000E+03 0. -1.
     100001    1    1    2    0    0  0.13817322066E+03  0.32627478107E+03 -0.64885901919E+04  0.65000000000E+04  0.15050000000E+03 0. -1.
     100001    1    1    2    0    0 -0.13817322066E+03 -0.32627478107E+03  0.64885901919E+04  0.65000000000E+04  0.15050000000E+03 0.  1.
</event>
<event>
 4    1  0.4630618E-004  0.6500000E+04  0.7818608E-02  0.7223770E-01
         52   -1    0    0    0    0  0.00000000000E+00  0.00000000000E+00  0.64930732323E+04  0.65000000000E+04  0.30000000000E+03 0. -1.
        -52   -1    0    0    0    0 -0.00000000000E+00 -0.00000000000E+00 -0.64930732323E+04  0.65000000000E+04  0.30000000000E+03 0. -1.
     100001    1    1    2    0    0  0.40108237816E+03 -0.15701568513E+03 -0.64839670535E+04  0.65000000000E+04  0.15050000000E+03 0. -1.
     100001    1    1    2    0    0 -0.40108237816E+03  0.15701568513E+03  0.64839670535E+04  0.65000000000E+04  0.15050000000E+03 0. -1.
</event>
<event>
 4    1  0.4630618E-004  0.6500000E+04  0.7818608E-02  0.7223770E-01
         52   -1    0    0    0    0  0.00000000000E+00  0.00000000000E+00  0.64930732323E+04  0.65000000000E+04  0.30000000000E+03 0.  1.
        -52   -1    0    0    0    0 -0.00000000000E+00 -0.00000000000E+00 -0.64930732323E+04  0.65000000000E+04  0.30000000000E+03 0. -1.
     100001    1    1    2    0    0 -0.28103744544E+04 -0.33832987327E+03  0.58493314210E+04  0.65000000000E+04  0.15050000000E+03 0.  1.
     100001    1    1    2    0    0  0.28103744544E+04  0.33832987327E+03 -0.58493314210E+04  0.65000000000E+04  0.15050000000E+03 0. -1.
</event>
<event>
 4    1  0.4630618E-004  0.6500000E+04  0.7818608E-02  0.7223770E-01
         52   -1    0    0    0    0  0.00000000000E+00  0.00000000000E+00  0.64930732323E+04  0.65000000000E+04  0.30000000000E+03 0.  1.
        -52   -1    0    0    0    0 -0.00000000000E+00 -0.00000000000E+00 -0.64930732323E+04  0.65000000000E+04  0.30000000000E+03 0. -1.
     100001    1    1    2    0    0  0.23065844886E+04 -0.40685493129E+04  0.45115323600E+04  0.65000000000E+04  0.15050000000E+03 0.  1.
     100001    1    1    2    0    0 -0.23065844886E+04  0.40685493129E+04 -0.45115323600E+04  0.65000000000E+04  0.15050000000E+03 0. -1.
</event>
<event>
 4    1  0.4630618E-004  0.6500000E+04  0.7818608E-02  0.7223770E-01
         52   -1    0    0    0    0  0.00000000000E+00  0.00000000000E+00  0.64930732323E+04  0.65000000000E+04  0.30000000000E+03 0. -1.
        -52   -1    0    0    0    0 -0.00000000000E+00 -0.00000000000E+00 -0.64930732323E+04  0.65000000000E+04  0.30000000000E+03 0.  1.
     100001    1    1    2    0    0  0.26081661136E+03 -0.86138599057E+03  0.64356303981E+04  0.65000000000E+04  0.15050000000E+03 0. -1.
     100001    1    1    2    0    0 -0.26081661136E+03  0.86138599057E+03 -0.64356303981E+04  0.65000000000E+04  0.15050000000E+03 0.  1.
</event>
<event>
 4    1  0.4630618E-004  0.6500000E+04  0.7818608E-02  0.7223770E-01
         52   -1    0    0    0    0  0.00000000000E+00  0.00000000000E+00  0.64930732323E+04  0.65000000000E+04  0.30000000000E+03 0. -1.
        -52   -1    0    0    0    0 -0.00000000000E+00 -0.00000000000E+00 -0.64930732323E+04  0.65000000000E+04  0.30000000000E+03 0.  1.
     100001    1    1    2    0    0  0.34601107631E+04 -0.49639672556E+04 -0.23693907112E+04  0.65000000000E+04  0.15050000000E+03 0.  1.
     100001    1    1    2    0    0 -0.34601107631E+04  0.49639672556E+04  0.23693907112E+04  0.65000000000E+04  0.15050000000E+03 0. -1.
</event>
<event>
 4    1  0.4630618E-004  0.6500000E+04  0.7818608E-02  0.7223770E-01
         52   -1    0    0    0    0  0.00000000000E+00  0.00000000000E+00  0.64930732323E+04  0.65000000000E+04  0.30000000000E+03 0. -1.
        -52   -1    0    0    0    0 -0.00000000000E+00 -0.00000000000E+00 -0.64930732323E+04  0.65000000000E+04  0.30000000000E+03 0.  1.
     100001    1    1    2    0    0 -0.12084049490E+03 -0.26566748015E+04  0.59291505567E+04  0.65000000000E+04  0.15050000000E+03 0. -1.
     100001    1    1    2    0    0  0.12084049490E+03  0.26566748015E+04 -0.59291505567E+04  0.65000000000E+04  0.15050000000E+03 0.  1.
</event>
<event>
 4    1  0.4630618E-004  0.6500000E+04  0.7818608E-02  0.7223770E-01
         52   -1    0    0    0    0  0.00000000000E+00  0.00000000000E+00  0.64930732323E+04  0.65000000000E+04  0.30000000000E+03 0. -1.
        -52   -1    0    0    0    0 -0.00000000000E+00 -0.00000000000E+00 -0.64930732323E+04  0.65000000000E+04  0.30000000000E+03 0.  1.
     100001    1    1    2    0    0  0.36656833000E+03  0.78929767574E+03  0.64397194495E+04  0.65000000000E+04  0.15050000000E+03 0. -1.
     100001    1    1    2    0    0 -0.36656833000E+03 -0.78929767574E+03 -0.64397194495E+04  0.65000000000E+04  0.15050000000E+03 0.  1.
</event>
<event>
 4    1  0.4630618E-004  0.6500000E+04  0.7818608E-02  0.7223770E-01
         52   -1    0    0    0    0  0.00000000000E+00  0.00000000000E+00  0.64930732323E+04  0.65000000000E+04  0.30000000000E+03 0.  1.
        -52   -1    0    0    0    0 -0.00000000000E+00 -0.00000000000E+00 -0.64930732323E+04  0.65000000000E+04  0.30000000000E+03 0.  1.
     100001    1    1    2    0    0  0.15158624768E+03  0.69717919149E+01  0.64964854155E+04  0.65000000000E+04  0.15050000000E+03 0.  1.
     100001    1    1    2    0    0 -0.15158624768E+03 -0.69717919149E+01 -0.64964854155E+04  0.65000000000E+04  0.15050000000E+03 0.  1.
</event>
<event>
 4    1  0.4630618E-004  0.6500000E+04  0.7818608E-02  0.7223770E-01
         52   -1    0    0    0    0  0.00000000000E+00  0.00000000000E+00  0.64930732323E+04  0.65000000000E+04  0.30000000000E+03 0. -1.
        -52   -1    0    0    0    0 -0.00000000000E+00 -0.00000000000E+00 -0.64930732323E+04  0.65000000000E+04  0.30000000000E+03 0.  1.
     100001    1    1    2    0    0  0.41700666223E+03  0.10351945875E+04  0.64017050354E+04  0.65000000000E+04  0.15050000000E+03 0. -1.
     100001    1    1    2    0    0 -0.41700666223E+03 -0.10351945875E+04 -0.64017050354E+04  0.65000000000E+04  0.15050000000E+03 0.  1.
</event>
<event>
 4    1  0.4630618E-004  0.6500000E+04  0.7818608E-02  0.7223770E-01
         52   -1    0    0    0    0  0.00000000000E+00  0.00000000000E+00  0.64930732323E+04  0.65000000000E+04  0.30000000000E+03 0. -1.
        -52   -1    0    0    0    0 -0.00000000000E+00 -0.00000000000E+00 -0.64930732323E+04  0.65000000000E+04  0.30000000000E+03 0.  1.
     100001    1    1    2    0    0  0.66292967211E+02 -0.56377392852E+03 -0.64734159414E+04  0.65000000000E+04  0.15050000000E+03 0.  1.
     100001    1    1    2    0    0 -0.66292967211E+02  0.56377392852E+03  0.64734159414E+04  0.65000000000E+04  0.15050000000E+03 0. -1.
</event>
<event>
 4    1  0.4630618E-004  0.6500000E+04  0.7818608E-02  0.7223770E-01
         52   -1    0    0    0    0  0.00000000000E+00  0.00000000000E+00  0.64930732323E+04  0.65000000000E+04  0.30000000000E+03 0. -1.
        -52   -1    0    0    0    0 -0.00000000000E+00 -0.00000000000E+00 -0.64930732323E+04  0.65000000000E+04  0.30000000000E+03 0.  1.
     100001    1    1    2    0    0  0.41498433651E+03  0.10435154425E+02 -0.64849848772E+04  0.65000000000E+04  0.15050000000E+03 0.  1.
     100001    1    1    2    0    0 -0.41498433651E+03 -0.10435154425E+02  0.64849848772E+04  0.65000000000E+04  0.15050000000E+03 0. -1.
</event>
<event>
 4    1  0.4630618E-004  0.6500000E+04  0.7818608E-02  0.7223770E-01
         52   -1    0    0    0    0  0.00000000000E+00  0.00000000000E+00  0.64930732323E+04  0.65000000000E+04  0.30000000000E+03 0.  1.
        -52   -1    0    0    0    0 -0.00000000000E+00 -0.00000000000E+00 -0.64930732323E+04  0.65000000000E+04  0.30000000000E+03 0. -1.
     100001    1    1    2    0    0 -0.54796632325E+02 -0.29391791880E+04  0.57953060989E+04  0.65000000000E+04  0.15050000000E+03 0.  1.
     100001    1    1    2    0    0  0.54796632325E+02  0.29391791880E+04 -0.57953060989E+04  0.65000000000E+04  0.15050000000E+03 0. -1.
</event>
<event>
 4    1  0.4630618E-004  0.6500000E+04  0.7818608E-02  0.7223770E-01
         52   -1    0    0    0    0  0.00000000000E+00  0.00000000000E+00  0.64930732323E+04  0.65000000000E+04  0.30000000000E+03 0.  1.
        -52   -1    0    0    0    0 -0.00000000000E+00 -0.00000000000E+00 -0.64930732323E+04  0.65000000000E+04  0.30000000000E+03 0. -1.
     100001    1    1    2    0    0 -0.16443834304E+04 -0.31454578953E+03 -0.62788863527E+04  0.65000000000E+04  0.15050000000E+03 0. -1.
     100001    1    1    2    0    0  0.16443834304E+04  0.31454578953E+03  0.62788863527E+04  0.65000000000E+04  0.15050000000E+03 0.  1.
</event>
<event>
 4    1  0.4630618E-004  0.6500000E+04  0.7818608E-02  0.7223770E-01
         52   -1    0    0    0    0  0.00000000000E+00  0.00000000000E+00  0.64930732323E+04  0.65000000000E+04  0.30000000000E+03 0. -1.
        -52   -1    0    0    0    0 -0.00000000000E+00 -0.00000000000E+00 -0.64930732323E+04  0.65000000000E+04  0.30000000000E+03 0.  1.
     100001    1    1    2    0    0  0.19438146567E+03  0.57616761201E+03 -0.64697446997E+04  0.65000000000E+04  0.15050000000E+03 0.  1.
     100001    1    1    2    0    0 -0.19438146567E+03 -0.57616761201E+03  0.64697446997E+04  0.65000000000E+04  0.15050000000E+03 0. -1.
</event>
<event>
 4    1  0.4630618E-004  0.6500000E+04  0.7818608E-02  0.7223770E-01
         52   -1    0    0    0    0  0.00000000000E+00  0.00000000000E+00  0.64930732323E+04  0.65000000000E+04  0.30000000000E+03 0.  1.
        -52   -1    0    0    0    0 -0.00000000000E+00 -0.00000000000E+00 -0.64930732323E+04  0.65000000000E+04  0.30000000000E+03 0.  1.
     100001    1    1    2    0    0  0.29173375618E+03 -0.30839444084E+03 -0.64843761484E+04  0.65000000000E+04  0.15050000000E+03 0.  1.
     100001    1    1    2    0    0 -0.29173375618E+03  0.30839444084E+03  0.64843761484E+04  0.65000000000E+04  0.15050000000E+03 0.  1.
</event>
<event>
 4    1  0.4630618E-004  0.6500000E+04  0.7818608E-02  0.7223770E-01
         52   -1    0    0    0    0  0.00000000000E+00  0.00000000000E+00  0.64930732323E+04  0.65000000000E+04  0.30000000000E+03 0. -1.
        -52   -1    0    0    0    0 -0.00000000000E+00 -0.00000000000E+00 -0.64930732323E+04  0.65000000000E+04  0.30000000000E+03 0.  1.
     100001    1    1    2    0    0 -0.20089038476E+03  0.52167578272E+03 -0.64741676825E+04  0.65000000000E+04  0.15050000000E+03 0.  1.
     100001    1    1    2    0    0  0.20089038476E+03 -0.52167578272E+03  0.64741676825E+04  0.65000000000E+04  0.15050000000E+03 0. -1.
</event>
<event>
 4    1  0.4630618E-004  0.6500000E+04  0.7818608E-02  0.7223770E-01
         52   -1    0    0    0    0  0.00000000000E+00  0.00000000000E+00  0.64930732323E+04  0.65000000000E+04  0.30000000000E+03 0. -1.
        -52   -1    0    0    0    0 -0.00000000000E+00 -0.00000000000E+00 -0.64930732323E+04  0.65000000000E+04  0.30000000000E+03 0.  1.
     100001    1    1    2    0    0  0.25776527074E+04 -0.53241315716E+04 -0.26901076703E+04  0.65000000000E+04  0.15050000000E+03 0.  1.
     100001    1    1    2    0    0 -0.25776527074E+04  0.53241315716E+04  0.26901076703E+04  0.65000000000E+04  0.15050000000E+03 0. -1.
</event>
<event>
 4    1  0.4630618E-004  0.6500000E+04  0.7818608E-02  0.7223770E-01
         52   -1    0    0    0    0  0.00000000000E+00  0.00000000000E+00  0.64930732323E+04  0.65000000000E+04  0.30000000000E+03 0. -1.
        -52   -1    0    0    0    0 -0.00000000000E+00 -0.00000000000E+00 -0.64930732323E+04  0.65000000000E+04  0.30000000000E+03 0.  1.
     100001    1    1    2    0    0 -0.30420224731E+04 -0.14833914582E+04 -0.55473415980E+04  0.65000000000E+04  0.15050000000E+03 0.  1.
     100001    1    1    2    0    0  0.30420224731E+04  0.14833914582E+04  0.55473415980E+04  0.65000000000E+04  0.15050000000E+03 0. -1.
</event>
<event>
 4    1  0.4630618E-004  0.6500000E+04  0.7818608E-02  0.7223770E-01
         52   -1    0    0    0    0  0.00000000000E+00  0.00000000000E+00  0.64930732323E+04  0.65000000000E+04  0.30000000000E+03 0.  1.
        -52   -1    0    0    0    0 -0.00000000000E+00 -0.00000000000E+00 -0.64930732323E+04  0.65000000000E+04  0.30000000000E+03 0. -1.
     100001    1    1    2    0    0  0.36138644907E+03  0.31250810458E+04 -0.56860019382E+04  0.65000000000E+04  0.15050000000E+03 0. -1.
     100001    1    1    2    0    0 -0.36138644907E+03 -0.31250810458E+04  0.56860019382E+04  0.65000000000E+04  0.15050000000E+03 0.  1.
</event>
<event>
 4    1  0.4630618E-004  0.6500000E+04  0.7818608E-02  0.7223770E-01
         52   -1    0    0    0    0  0.00000000000E+00  0.00000000000E+00  0.64930732323E+04  0.65000000000E+04  0.30000000000E+03 0.  1.
        -52   -1    0    0    0    0 -0.00000000000E+00 -0.00000000000E+00 -0.64930732323E+04  0.65000000000E+04  0.30000000000E+03 0. -1.
     100001    1    1    2    0    0 -0.11418209481E+04 -0.10593033771E+04 -0.63088407039E+04  0.65000000000E+04  0.15050000000E+03 0. -1.
     100001    1    1    2    0    0  0.11418209481E+04  0.10593033771E+04  0.63088407039E+04  0.65000000000E+04  0.15050000000E+03 0.  1.
</event>
<event>
 4    1  0.4630618E-004  0.6500000E+04  0.7818608E-02  0.7223770E-01
         52   -1    0    0    0    0  0.00000000000E+00  0.00000000000E+00  0.64930732323E+04  0.65000000000E+04  0.30000000000E+03 0.  1.
        -52   -1    0    0    0    0 -0.00000000000E+00 -0.00000000000E+00 -0.64930732323E+04  0.65000000000E+04  0.30000000000E+03 0. -1.
     100001    1    1    2    0    0  0.22334100438E+03  0.16672820197E+03  0.64922777399E+04  0.65000000000E+04  0.15050000000E+03 0.  1.
     100001    1    1    2    0    0 -0.22334100438E+03 -0.16672820197E+03 -0.64922777399E+04  0.65000000000E+04  0.15050000000E+03 0. -1.
</event>
<event>
 4    1  0.4630618E-004  0.6500000E+04  0.7818608E-02  0.7223770E-01
         52   -1    0    0    0    0  0.00000000000E+00  0.00000000000E+00  0.64930732323E+04  0.65000000000E+04  0.30000000000E+03 0.  1.
        -52   -1    0    0    0    0 -0.00000000000E+00 -0.00000000000E+00 -0.64930732323E+04  0.65000000000E+04  0.30000000000E+03 0.  1.
     100001    1    1    2    0    0 -0.52727829581E+03 -0.23381671940E+03 -0.64726082139E+04  0.65000000000E+04  0.15050000000E+03 0.  1.
     100001    1    1    2    0    0  0.52727829581E+03  0.23381671940E+03  0.64726082139E+04  0.65000000000E+04  0.15050000000E+03 0.  1.
</event>
<event>
 4    1  0.4630618E-004  0.6500000E+04  0.7818608E-02  0.7223770E-01
         52   -1    0    0    0    0  0.00000000000E+00  0.00000000000E+00  0.64930732323E+04  0.65000000000E+04  0.30000000000E+03 0. -1.
        -52   -1    0    0    0    0 -0.00000000000E+00 -0.00000000000E+00 -0.64930732323E+04  0.65000000000E+04  0.30000000000E+03 0.  1.
     100001    1    1    2    0    0 -0.93859472461E+03 -0.69056903344E+03 -0.63929260987E+04  0.65000000000E+04  0.15050000000E+03 0.  1.
     100001    1    1    2    0    0  0.93859472461E+03  0.69056903344E+03  0.63929260987E+04  0.65000000000E+04  0.15050000000E+03 0. -1.
</event>
<event>
 4    1  0.4630618E-004  0.6500000E+04  0.7818608E-02  0.7223770E-01
         52   -1    0    0    0    0  0.00000000000E+00  0.00000000000E+00  0.64930732323E+04  0.65000000000E+04  0.30000000000E+03 0. -1.
        -52   -1    0    0    0    0 -0.00000000000E+00 -0.00000000000E+00 -0.64930732323E+04  0.65000000000E+04  0.30000000000E+03 0. -1.
     100001    1    1    2    0    0 -0.37569070349E+02 -0.16221195251E+03  0.64961238902E+04  0.65000000000E+04  0.15050000000E+03 0. -1.
     100001    1    1    2    0    0  0.37569070349E+02  0.16221195251E+03 -0.64961238902E+04  0.65000000000E+04  0.15050000000E+03 0. -1.
</event>
<event>
 4    1  0.4630618E-004  0.6500000E+04  0.7818608E-02  0.7223770E-01
         52   -1    0    0    0    0  0.00000000000E+00  0.00000000000E+00  0.64930732323E+04  0.65000000000E+04  0.30000000000E+03 0. -1.
        -52   -1    0    0    0    0 -0.00000000000E+00 -0.00000000000E+00 -0.64930732323E+04  0.65000000000E+04  0.30000000000E+03 0.  1.
     100001    1    1    2    0    0 -0.64755050447E+04  0.50642288221E+03  0.19677405864E+03  0.65000000000E+04  0.15050000000E+03 0.  1.
     100001    1    1    2    0    0  0.64755050447E+04 -0.50642288221E+03 -0.19677405864E+03  0.65000000000E+04  0.15050000000E+03 0. -1.
</event>
<event>
 4    1  0.4630618E-004  0.6500000E+04  0.7818608E-02  0.7223770E-01
         52   -1    0    0    0    0  0.00000000000E+00  0.00000000000E+00  0.64930732323E+04  0.65000000000E+04  0.30000000000E+03 0.  1.
        -52   -1    0    0    0    0 -0.00000000000E+00 -0.00000000000E+00 -0.64930732323E+04  0.65000000000E+04  0.30000000000E+03 0. -1.
     100001    1    1    2    0    0  0.32063831899E+03 -0.43082623225E+02 -0.64901991268E+04  0.65000000000E+04  0.15050000000E+03 0. -1.
     100001    1    1    2    0    0 -0.32063831899E+03  0.43082623225E+02  0.64901991268E+04  0.65000000000E+04  0.15050000000E+03 0.  1.
</event>
<event>
 4    1  0.4630618E-004  0.6500000E+04  0.7818608E-02  0.7223770E-01
         52   -1    0    0    0    0  0.00000000000E+00  0.00000000000E+00  0.64930732323E+04  0.65000000000E+04  0.30000000000E+03 0.  1.
        -52   -1    0    0    0    0 -0.00000000000E+00 -0.00000000000E+00 -0.64930732323E+04  0.65000000000E+04  0.30000000000E+03 0.  1.
     100001    1    1    2    0    0  0.13223861655E+04 -0.72341720361E+03  0.63210214466E+04  0.65000000000E+04  0.15050000000E+03 0.  1.
     100001    1    1    2    0    0 -0.13223861655E+04  0.72341720361E+03 -0.63210214466E+04  0.65000000000E+04  0.15050000000E+03 0.  1.
</event>
<event>
 4    1  0.4630618E-004  0.6500000E+04  0.7818608E-02  0.7223770E-01
         52   -1    0    0    0    0  0.00000000000E+00  0.00000000000E+00  0.64930732323E+04  0.65000000000E+04  0.30000000000E+03 0.  1.
        -52   -1    0    0    0    0 -0.00000000000E+00 -0.00000000000E+00 -0.64930732323E+04  0.65000000000E+04  0.30000000000E+03 0. -1.
     100001    1    1    2    0    0  0.65562552479E+03 -0.25579910870E+02 -0.64650483826E+04  0.65000000000E+04  0.15050000000E+03 0. -1.
     100001    1    1    2    0    0 -0.65562552479E+03  0.25579910870E+02  0.64650483826E+04  0.65000000000E+04  0.15050000000E+03 0.  1.
</event>
<event>
 4    1  0.4630618E-004  0.6500000E+04  0.7818608E-02  0.7223770E-01
         52   -1    0    0    0    0  0.00000000000E+00  0.00000000000E+00  0.64930732323E+04  0.65000000000E+04  0.30000000000E+03 0.  1.
        -52   -1    0    0    0    0 -0.00000000000E+00 -0.00000000000E+00 -0.64930732323E+04  0.65000000000E+04  0.30000000000E+03 0. -1.
     100001    1    1    2    0    0  0.33291710034E+03 -0.26815878213E+03 -0.64841812761E+04  0.65000000000E+04  0.15050000000E+03 0. -1.
     100001    1    1    2    0    0 -0.33291710034E+03  0.26815878213E+03  0.64841812761E+04  0.65000000000E+04  0.15050000000E+03 0.  1.
</event>
<event>
 4    1  0.4630618E-004  0.6500000E+04  0.7818608E-02  0.7223770E-01
         52   -1    0    0    0    0  0.00000000000E+00  0.00000000000E+00  0.64930732323E+04  0.65000000000E+04  0.30000000000E+03 0.  1.
        -52   -1    0    0    0    0 -0.00000000000E+00 -0.00000000000E+00 -0.64930732323E+04  0.65000000000E+04  0.30000000000E+03 0. -1.
     100001    1    1    2    0    0 -0.50655183425E+03 -0.81990405886E+03  0.64263918588E+04  0.65000000000E+04  0.15050000000E+03 0.  1.
     100001    1    1    2    0    0  0.50655183425E+03  0.81990405886E+03 -0.64263918588E+04  0.65000000000E+04  0.15050000000E+03 0. -1.
</event>
<event>
 4    1  0.4630618E-004  0.6500000E+04  0.7818608E-02  0.7223770E-01
         52   -1    0    0    0    0  0.00000000000E+00  0.00000000000E+00  0.64930732323E+04  0.65000000000E+04  0.30000000000E+03 0. -1.
        -52   -1    0    0    0    0 -0.00000000000E+00 -0.00000000000E+00 -0.64930732323E+04  0.65000000000E+04  0.30000000000E+03 0.  1.
     100001    1    1    2    0    0  0.27910869828E+03  0.14843943870E+04  0.63202864958E+04  0.65000000000E+04  0.15050000000E+03 0. -1.
     100001    1    1    2    0    0 -0.27910869828E+03 -0.14843943870E+04 -0.63202864958E+04  0.65000000000E+04  0.15050000000E+03 0.  1.
</event>
<event>
 4    1  0.4630618E-004  0.6500000E+04  0.7818608E-02  0.7223770E-01
         52   -1    0    0    0    0  0.00000000000E+00  0.00000000000E+00  0.64930732323E+04  0.65000000000E+04  0.30000000000E+03 0.  1.
        -52   -1    0    0    0    0 -0.00000000000E+00 -0.00000000000E+00 -0.64930732323E+04  0.65000000000E+04  0.30000000000E+03 0. -1.
     100001    1    1    2    0    0 -0.34047282313E+03 -0.17613849637E+03  0.64869409768E+04  0.65000000000E+04  0.15050000000E+03 0.  1.
     100001    1    1    2    0    0  0.34047282313E+03  0.17613849637E+03 -0.64869409768E+04  0.65000000000E+04  0.15050000000E+03 0. -1.
</event>
<event>
 4    1  0.4630618E-004  0.6500000E+04  0.7818608E-02  0.7223770E-01
         52   -1    0    0    0    0  0.00000000000E+00  0.00000000000E+00  0.64930732323E+04  0.65000000000E+04  0.30000000000E+03 0. -1.
        -52   -1    0    0    0    0 -0.00000000000E+00 -0.00000000000E+00 -0.64930732323E+04  0.65000000000E+04  0.30000000000E+03 0.  1.
     100001    1    1    2    0    0  0.44964132916E+03  0.59719727560E+03 -0.64551164079E+04  0.65000000000E+04  0.15050000000E+03 0.  1.
     100001    1    1    2    0    0 -0.44964132916E+03 -0.59719727560E+03  0.64551164079E+04  0.65000000000E+04  0.15050000000E+03 0. -1.
</event>
<event>
 4    1  0.4630618E-004  0.6500000E+04  0.7818608E-02  0.7223770E-01
         52   -1    0    0    0    0  0.00000000000E+00  0.00000000000E+00  0.64930732323E+04  0.65000000000E+04  0.30000000000E+03 0. -1.
        -52   -1    0    0    0    0 -0.00000000000E+00 -0.00000000000E+00 -0.64930732323E+04  0.65000000000E+04  0.30000000000E+03 0.  1.
     100001    1    1    2    0    0  0.41692141633E+03 -0.56784340549E+03  0.64599597638E+04  0.65000000000E+04  0.15050000000E+03 0. -1.
     100001    1    1    2    0    0 -0.41692141633E+03  0.56784340549E+03 -0.64599597638E+04  0.65000000000E+04  0.15050000000E+03 0.  1.
</event>
<event>
 4    1  0.4630618E-004  0.6500000E+04  0.7818608E-02  0.7223770E-01
         52   -1    0    0    0    0  0.00000000000E+00  0.00000000000E+00  0.64930732323E+04  0.65000000000E+04  0.30000000000E+03 0.  1.
        -52   -1    0    0    0    0 -0.00000000000E+00 -0.00000000000E+00 -0.64930732323E+04  0.65000000000E+04  0.30000000000E+03 0. -1.
     100001    1    1    2    0    0  0.16325134010E+03  0.98131957110E+03  0.64216594934E+04  0.65000000000E+04  0.15050000000E+03 0.  1.
     100001    1    1    2    0    0 -0.16325134010E+03 -0.98131957110E+03 -0.64216594934E+04  0.65000000000E+04  0.15050000000E+03 0. -1.
</event>
<event>
 4    1  0.4630618E-004  0.6500000E+04  0.7818608E-02  0.7223770E-01
         52   -1    0    0    0    0  0.00000000000E+00  0.00000000000E+00  0.64930732323E+04  0.65000000000E+04  0.30000000000E+03 0.  1.
        -52   -1    0    0    0    0 -0.00000000000E+00 -0.00000000000E+00 -0.64930732323E+04  0.65000000000E+04  0.30000000000E+03 0. -1.
     100001    1    1    2    0    0 -0.51258740224E+03 -0.40753212463E+03  0.64651776056E+04  0.65000000000E+04  0.15050000000E+03 0.  1.
     100001    1    1    2    0    0  0.51258740224E+03  0.40753212463E+03 -0.64651776056E+04  0.65000000000E+04  0.15050000000E+03 0. -1.
</event>
<event>
 4    1  0.4630618E-004  0.6500000E+04  0.7818608E-02  0.7223770E-01
         52   -1    0    0    0    0  0.00000000000E+00  0.00000000000E+00  0.64930732323E+04  0.65000000000E+04  0.30000000000E+03 0.  1.
        -52   -1    0    0    0    0 -0.00000000000E+00 -0.00000000000E+00 -0.64930732323E+04  0.65000000000E+04  0.30000000000E+03 0. -1.
     100001    1    1    2    0    0 -0.18613738826E+04  0.15588984283E+04 -0.60276423840E+04  0.65000000000E+04  0.15050000000E+03 0. -1.
     100001    1    1    2    0    0  0.18613738826E+04 -0.15588984283E+04  0.60276423840E+04  0.65000000000E+04  0.15050000000E+03 0.  1.
</event>
<event>
 4    1  0.4630618E-004  0.6500000E+04  0.7818608E-02  0.7223770E-01
         52   -1    0    0    0    0  0.00000000000E+00  0.00000000000E+00  0.64930732323E+04  0.65000000000E+04  0.30000000000E+03 0. -1.
        -52   -1    0    0    0    0 -0.00000000000E+00 -0.00000000000E+00 -0.64930732323E+04  0.65000000000E+04  0.30000000000E+03 0.  1.
     100001    1    1    2    0    0 -0.39821424450E+04  0.88375245715E+02  0.51344017289E+04  0.65000000000E+04  0.15050000000E+03 0. -1.
     100001    1    1    2    0    0  0.39821424450E+04 -0.88375245715E+02 -0.51344017289E+04  0.65000000000E+04  0.15050000000E+03 0.  1.
</event>
<event>
 4    1  0.4630618E-004  0.6500000E+04  0.7818608E-02  0.7223770E-01
         52   -1    0    0    0    0  0.00000000000E+00  0.00000000000E+00  0.64930732323E+04  0.65000000000E+04  0.30000000000E+03 0.  1.
        -52   -1    0    0    0    0 -0.00000000000E+00 -0.00000000000E+00 -0.64930732323E+04  0.65000000000E+04  0.30000000000E+03 0. -1.
     100001    1    1    2    0    0  0.49333783895E+04  0.38207040290E+04  0.18142073032E+04  0.65000000000E+04  0.15050000000E+03 0. -1.
     100001    1    1    2    0    0 -0.49333783895E+04 -0.38207040290E+04 -0.18142073032E+04  0.65000000000E+04  0.15050000000E+03 0.  1.
</event>
<event>
 4    1  0.4630618E-004  0.6500000E+04  0.7818608E-02  0.7223770E-01
         52   -1    0    0    0    0  0.00000000000E+00  0.00000000000E+00  0.64930732323E+04  0.65000000000E+04  0.30000000000E+03 0.  1.
        -52   -1    0    0    0    0 -0.00000000000E+00 -0.00000000000E+00 -0.64930732323E+04  0.65000000000E+04  0.30000000000E+03 0. -1.
     100001    1    1    2    0    0  0.22696754046E+04 -0.21734262779E+04  0.56878942960E+04  0.65000000000E+04  0.15050000000E+03 0.  1.
     100001    1    1    2    0    0 -0.22696754046E+04  0.21734262779E+04 -0.56878942960E+04  0.65000000000E+04  0.15050000000E+03 0. -1.
</event>
<event>
 4    1  0.4630618E-004  0.6500000E+04  0.7818608E-02  0.7223770E-01
         52   -1    0    0    0    0  0.00000000000E+00  0.00000000000E+00  0.64930732323E+04  0.65000000000E+04  0.30000000000E+03 0.  1.
        -52   -1    0    0    0    0 -0.00000000000E+00 -0.00000000000E+00 -0.64930732323E+04  0.65000000000E+04  0.30000000000E+03 0. -1.
     100001    1    1    2    0    0 -0.69774824724E+03 -0.45523540726E+03  0.64446301568E+04  0.65000000000E+04  0.15050000000E+03 0.  1.
     100001    1    1    2    0    0  0.69774824724E+03  0.45523540726E+03 -0.64446301568E+04  0.65000000000E+04  0.15050000000E+03 0. -1.
</event>
<event>
 4    1  0.4630618E-004  0.6500000E+04  0.7818608E-02  0.7223770E-01
         52   -1    0    0    0    0  0.00000000000E+00  0.00000000000E+00  0.64930732323E+04  0.65000000000E+04  0.30000000000E+03 0. -1.
        -52   -1    0    0    0    0 -0.00000000000E+00 -0.00000000000E+00 -0.64930732323E+04  0.65000000000E+04  0.30000000000E+03 0.  1.
     100001    1    1    2    0    0  0.58682095729E+03 -0.31275287092E+03 -0.64641454621E+04  0.65000000000E+04  0.15050000000E+03 0.  1.
     100001    1    1    2    0    0 -0.58682095729E+03  0.31275287092E+03  0.64641454621E+04  0.65000000000E+04  0.15050000000E+03 0. -1.
</event>
<event>
 4    1  0.4630618E-004  0.6500000E+04  0.7818608E-02  0.7223770E-01
         52   -1    0    0    0    0  0.00000000000E+00  0.00000000000E+00  0.64930732323E+04  0.65000000000E+04  0.30000000000E+03 0. -1.
        -52   -1    0    0    0    0 -0.00000000000E+00 -0.00000000000E+00 -0.64930732323E+04  0.65000000000E+04  0.30000000000E+03 0.  1.
     100001    1    1    2    0    0  0.65949857531E+03  0.59229325460E+03 -0.64375150547E+04  0.65000000000E+04  0.15050000000E+03 0.  1.
     100001    1    1    2    0    0 -0.65949857531E+03 -0.59229325460E+03  0.64375150547E+04  0.65000000000E+04  0.15050000000E+03 0. -1.
</event>
<event>
 4    1  0.4630618E-004  0.6500000E+04  0.7818608E-02  0.7223770E-01
         52   -1    0    0    0    0  0.00000000000E+00  0.00000000000E+00  0.64930732323E+04  0.65000000000E+04  0.30000000000E+03 0.  1.
        -52   -1    0    0    0    0 -0.00000000000E+00 -0.00000000000E+00 -0.64930732323E+04  0.65000000000E+04  0.30000000000E+03 0. -1.
     100001    1    1    2    0    0  0.11143428612E+04 -0.23614915351E+04 -0.59505417793E+04  0.65000000000E+04  0.15050000000E+03 0. -1.
     100001    1    1    2    0    0 -0.11143428612E+04  0.23614915351E+04  0.59505417793E+04  0.65000000000E+04  0.15050000000E+03 0.  1.
</event>
<event>
 4    1  0.4630618E-004  0.6500000E+04  0.7818608E-02  0.7223770E-01
         52   -1    0    0    0    0  0.00000000000E+00  0.00000000000E+00  0.64930732323E+04  0.65000000000E+04  0.30000000000E+03 0. -1.
        -52   -1    0    0    0    0 -0.00000000000E+00 -0.00000000000E+00 -0.64930732323E+04  0.65000000000E+04  0.30000000000E+03 0.  1.
     100001    1    1    2    0    0  0.48711248378E+03 -0.45065043987E+04 -0.46563386134E+04  0.65000000000E+04  0.15050000000E+03 0.  1.
     100001    1    1    2    0    0 -0.48711248378E+03  0.45065043987E+04  0.46563386134E+04  0.65000000000E+04  0.15050000000E+03 0. -1.
</event>
<event>
 4    1  0.4630618E-004  0.6500000E+04  0.7818608E-02  0.7223770E-01
         52   -1    0    0    0    0  0.00000000000E+00  0.00000000000E+00  0.64930732323E+04  0.65000000000E+04  0.30000000000E+03 0.  1.
        -52   -1    0    0    0    0 -0.00000000000E+00 -0.00000000000E+00 -0.64930732323E+04  0.65000000000E+04  0.30000000000E+03 0. -1.
     100001    1    1    2    0    0 -0.25710647361E+03  0.20386599603E+03 -0.64899680020E+04  0.65000000000E+04  0.15050000000E+03 0. -1.
     100001    1    1    2    0    0  0.25710647361E+03 -0.20386599603E+03  0.64899680020E+04  0.65000000000E+04  0.15050000000E+03 0.  1.
</event>
<event>
 4    1  0.4630618E-004  0.6500000E+04  0.7818608E-02  0.7223770E-01
         52   -1    0    0    0    0  0.00000000000E+00  0.00000000000E+00  0.64930732323E+04  0.65000000000E+04  0.30000000000E+03 0.  1.
        -52   -1    0    0    0    0 -0.00000000000E+00 -0.00000000000E+00 -0.64930732323E+04  0.65000000000E+04  0.30000000000E+03 0. -1.
     100001    1    1    2    0    0  0.21678773322E+04 -0.57339882042E+04  0.21561625395E+04  0.65000000000E+04  0.15050000000E+03 0.  1.
     100001    1    1    2    0    0 -0.21678773322E+04  0.57339882042E+04 -0.21561625395E+04  0.65000000000E+04  0.15050000000E+03 0. -1.
</event>
<event>
 4    1  0.4630618E-004  0.6500000E+04  0.7818608E-02  0.7223770E-01
         52   -1    0    0    0    0  0.00000000000E+00  0.00000000000E+00  0.64930732323E+04  0.65000000000E+04  0.30000000000E+03 0. -1.
        -52   -1    0    0    0    0 -0.00000000000E+00 -0.00000000000E+00 -0.64930732323E+04  0.65000000000E+04  0.30000000000E+03 0. -1.
     100001    1    1    2    0    0  0.12348878597E+03 -0.40813909221E+03 -0.64842519037E+04  0.65000000000E+04  0.15050000000E+03 0. -1.
     100001    1    1    2    0    0 -0.12348878597E+03  0.40813909221E+03  0.64842519037E+04  0.65000000000E+04  0.15050000000E+03 0. -1.
</event>
<event>
 4    1  0.4630618E-004  0.6500000E+04  0.7818608E-02  0.7223770E-01
         52   -1    0    0    0    0  0.00000000000E+00  0.00000000000E+00  0.64930732323E+04  0.65000000000E+04  0.30000000000E+03 0.  1.
        -52   -1    0    0    0    0 -0.00000000000E+00 -0.00000000000E+00 -0.64930732323E+04  0.65000000000E+04  0.30000000000E+03 0. -1.
     100001    1    1    2    0    0  0.19147410596E+04  0.31434934584E+04  0.53553305502E+04  0.65000000000E+04  0.15050000000E+03 0.  1.
     100001    1    1    2    0    0 -0.19147410596E+04 -0.31434934584E+04 -0.53553305502E+04  0.65000000000E+04  0.15050000000E+03 0. -1.
</event>
<event>
 4    1  0.4630618E-004  0.6500000E+04  0.7818608E-02  0.7223770E-01
         52   -1    0    0    0    0  0.00000000000E+00  0.00000000000E+00  0.64930732323E+04  0.65000000000E+04  0.30000000000E+03 0.  1.
        -52   -1    0    0    0    0 -0.00000000000E+00 -0.00000000000E+00 -0.64930732323E+04  0.65000000000E+04  0.30000000000E+03 0.  1.
     100001    1    1    2    0    0  0.27808052828E+03 -0.56325015088E+03  0.64678257736E+04  0.65000000000E+04  0.15050000000E+03 0.  1.
     100001    1    1    2    0    0 -0.27808052828E+03  0.56325015088E+03 -0.64678257736E+04  0.65000000000E+04  0.15050000000E+03 0.  1.
</event>
<event>
 4    1  0.4630618E-004  0.6500000E+04  0.7818608E-02  0.7223770E-01
         52   -1    0    0    0    0  0.00000000000E+00  0.00000000000E+00  0.64930732323E+04  0.65000000000E+04  0.30000000000E+03 0. -1.
        -52   -1    0    0    0    0 -0.00000000000E+00 -0.00000000000E+00 -0.64930732323E+04  0.65000000000E+04  0.30000000000E+03 0.  1.
     100001    1    1    2    0    0  0.11786851955E+03  0.20156326191E+04 -0.61766238275E+04  0.65000000000E+04  0.15050000000E+03 0.  1.
     100001    1    1    2    0    0 -0.11786851955E+03 -0.20156326191E+04  0.61766238275E+04  0.65000000000E+04  0.15050000000E+03 0. -1.
</event>
<event>
 4    1  0.4630618E-004  0.6500000E+04  0.7818608E-02  0.7223770E-01
         52   -1    0    0    0    0  0.00000000000E+00  0.00000000000E+00  0.64930732323E+04  0.65000000000E+04  0.30000000000E+03 0. -1.
        -52   -1    0    0    0    0 -0.00000000000E+00 -0.00000000000E+00 -0.64930732323E+04  0.65000000000E+04  0.30000000000E+03 0. -1.
     100001    1    1    2    0    0 -0.84509691354E+02  0.12163656516E+04 -0.63828412532E+04  0.65000000000E+04  0.15050000000E+03 0. -1.
     100001    1    1    2    0    0  0.84509691354E+02 -0.12163656516E+04  0.63828412532E+04  0.65000000000E+04  0.15050000000E+03 0. -1.
</event>
<event>
 4    1  0.4630618E-004  0.6500000E+04  0.7818608E-02  0.7223770E-01
         52   -1    0    0    0    0  0.00000000000E+00  0.00000000000E+00  0.64930732323E+04  0.65000000000E+04  0.30000000000E+03 0.  1.
        -52   -1    0    0    0    0 -0.00000000000E+00 -0.00000000000E+00 -0.64930732323E+04  0.65000000000E+04  0.30000000000E+03 0. -1.
     100001    1    1    2    0    0  0.15752440416E+03 -0.21240804972E+03  0.64928744507E+04  0.65000000000E+04  0.15050000000E+03 0.  1.
     100001    1    1    2    0    0 -0.15752440416E+03  0.21240804972E+03 -0.64928744507E+04  0.65000000000E+04  0.15050000000E+03 0. -1.
</event>
<event>
 4    1  0.4630618E-004  0.6500000E+04  0.7818608E-02  0.7223770E-01
         52   -1    0    0    0    0  0.00000000000E+00  0.00000000000E+00  0.64930732323E+04  0.65000000000E+04  0.30000000000E+03 0. -1.
        -52   -1    0    0    0    0 -0.00000000000E+00 -0.00000000000E+00 -0.64930732323E+04  0.65000000000E+04  0.30000000000E+03 0.  1.
     100001    1    1    2    0    0  0.19213320274E+04  0.61260662300E+04 -0.10035664082E+04  0.65000000000E+04  0.15050000000E+03 0.  1.
     100001    1    1    2    0    0 -0.19213320274E+04 -0.61260662300E+04  0.10035664082E+04  0.65000000000E+04  0.15050000000E+03 0. -1.
</event>
<event>
 4    1  0.4630618E-004  0.6500000E+04  0.7818608E-02  0.7223770E-01
         52   -1    0    0    0    0  0.00000000000E+00  0.00000000000E+00  0.64930732323E+04  0.65000000000E+04  0.30000000000E+03 0.  1.
        -52   -1    0    0    0    0 -0.00000000000E+00 -0.00000000000E+00 -0.64930732323E+04  0.65000000000E+04  0.30000000000E+03 0. -1.
     100001    1    1    2    0    0 -0.92679837437E+03 -0.32665442588E+04  0.55405850890E+04  0.65000000000E+04  0.15050000000E+03 0.  1.
     100001    1    1    2    0    0  0.92679837437E+03  0.32665442588E+04 -0.55405850890E+04  0.65000000000E+04  0.15050000000E+03 0. -1.
</event>
<event>
 4    1  0.4904560E-004  0.6500000E+04  0.7818608E-02  0.7223770E-01
         52   -1    0    0    0    0  0.00000000000E+00  0.00000000000E+00  0.64930732323E+04  0.65000000000E+04  0.30000000000E+03 0.  1.
        -52   -1    0    0    0    0 -0.00000000000E+00 -0.00000000000E+00 -0.64930732323E+04  0.65000000000E+04  0.30000000000E+03 0.  1.
     100001    1    1    2    0    0  0.21003804176E+03 -0.91943991306E+02  0.64942112742E+04  0.65000000000E+04  0.15050000000E+03 0.  1.
     100001    1    1    2    0    0 -0.21003804176E+03  0.91943991306E+02 -0.64942112742E+04  0.65000000000E+04  0.15050000000E+03 0.  1.
</event>
<event>
 4    1  0.4630618E-004  0.6500000E+04  0.7818608E-02  0.7223770E-01
         52   -1    0    0    0    0  0.00000000000E+00  0.00000000000E+00  0.64930732323E+04  0.65000000000E+04  0.30000000000E+03 0. -1.
        -52   -1    0    0    0    0 -0.00000000000E+00 -0.00000000000E+00 -0.64930732323E+04  0.65000000000E+04  0.30000000000E+03 0.  1.
     100001    1    1    2    0    0 -0.51978245354E+04  0.37689908528E+04  0.10023361716E+04  0.65000000000E+04  0.15050000000E+03 0. -1.
     100001    1    1    2    0    0  0.51978245354E+04 -0.37689908528E+04 -0.10023361716E+04  0.65000000000E+04  0.15050000000E+03 0.  1.
</event>
<event>
 4    1  0.4630618E-004  0.6500000E+04  0.7818608E-02  0.7223770E-01
         52   -1    0    0    0    0  0.00000000000E+00  0.00000000000E+00  0.64930732323E+04  0.65000000000E+04  0.30000000000E+03 0.  1.
        -52   -1    0    0    0    0 -0.00000000000E+00 -0.00000000000E+00 -0.64930732323E+04  0.65000000000E+04  0.30000000000E+03 0. -1.
     100001    1    1    2    0    0  0.14033839216E+04  0.11675404003E+04 -0.62365625734E+04  0.65000000000E+04  0.15050000000E+03 0. -1.
     100001    1    1    2    0    0 -0.14033839216E+04 -0.11675404003E+04  0.62365625734E+04  0.65000000000E+04  0.15050000000E+03 0.  1.
</event>
<event>
 4    1  0.4630618E-004  0.6500000E+04  0.7818608E-02  0.7223770E-01
         52   -1    0    0    0    0  0.00000000000E+00  0.00000000000E+00  0.64930732323E+04  0.65000000000E+04  0.30000000000E+03 0.  1.
        -52   -1    0    0    0    0 -0.00000000000E+00 -0.00000000000E+00 -0.64930732323E+04  0.65000000000E+04  0.30000000000E+03 0.  1.
     100001    1    1    2    0    0 -0.16180685406E+03  0.43908452417E+02  0.64960942373E+04  0.65000000000E+04  0.15050000000E+03 0.  1.
     100001    1    1    2    0    0  0.16180685406E+03 -0.43908452417E+02 -0.64960942373E+04  0.65000000000E+04  0.15050000000E+03 0.  1.
</event>
<event>
 4    1  0.4630618E-004  0.6500000E+04  0.7818608E-02  0.7223770E-01
         52   -1    0    0    0    0  0.00000000000E+00  0.00000000000E+00  0.64930732323E+04  0.65000000000E+04  0.30000000000E+03 0.  1.
        -52   -1    0    0    0    0 -0.00000000000E+00 -0.00000000000E+00 -0.64930732323E+04  0.65000000000E+04  0.30000000000E+03 0. -1.
     100001    1    1    2    0    0  0.41506056999E+04  0.13554408919E+04  0.48127541037E+04  0.65000000000E+04  0.15050000000E+03 0.  1.
     100001    1    1    2    0    0 -0.41506056999E+04 -0.13554408919E+04 -0.48127541037E+04  0.65000000000E+04  0.15050000000E+03 0. -1.
</event>
<event>
 4    1  0.4630618E-004  0.6500000E+04  0.7818608E-02  0.7223770E-01
         52   -1    0    0    0    0  0.00000000000E+00  0.00000000000E+00  0.64930732323E+04  0.65000000000E+04  0.30000000000E+03 0.  1.
        -52   -1    0    0    0    0 -0.00000000000E+00 -0.00000000000E+00 -0.64930732323E+04  0.65000000000E+04  0.30000000000E+03 0. -1.
     100001    1    1    2    0    0 -0.34534159511E+04 -0.15374864887E+04 -0.52855844820E+04  0.65000000000E+04  0.15050000000E+03 0. -1.
     100001    1    1    2    0    0  0.34534159511E+04  0.15374864887E+04  0.52855844820E+04  0.65000000000E+04  0.15050000000E+03 0.  1.
</event>
<event>
 4    1  0.4630618E-004  0.6500000E+04  0.7818608E-02  0.7223770E-01
         52   -1    0    0    0    0  0.00000000000E+00  0.00000000000E+00  0.64930732323E+04  0.65000000000E+04  0.30000000000E+03 0. -1.
        -52   -1    0    0    0    0 -0.00000000000E+00 -0.00000000000E+00 -0.64930732323E+04  0.65000000000E+04  0.30000000000E+03 0.  1.
     100001    1    1    2    0    0  0.12785001646E+04 -0.41770167041E+04  0.48109581720E+04  0.65000000000E+04  0.15050000000E+03 0. -1.
     100001    1    1    2    0    0 -0.12785001646E+04  0.41770167041E+04 -0.48109581720E+04  0.65000000000E+04  0.15050000000E+03 0.  1.
</event>
<event>
 4    1  0.4630618E-004  0.6500000E+04  0.7818608E-02  0.7223770E-01
         52   -1    0    0    0    0  0.00000000000E+00  0.00000000000E+00  0.64930732323E+04  0.65000000000E+04  0.30000000000E+03 0. -1.
        -52   -1    0    0    0    0 -0.00000000000E+00 -0.00000000000E+00 -0.64930732323E+04  0.65000000000E+04  0.30000000000E+03 0.  1.
     100001    1    1    2    0    0  0.25022078721E+04  0.39503121729E+03  0.59841670976E+04  0.65000000000E+04  0.15050000000E+03 0. -1.
     100001    1    1    2    0    0 -0.25022078721E+04 -0.39503121729E+03 -0.59841670976E+04  0.65000000000E+04  0.15050000000E+03 0.  1.
</event>
<event>
 4    1  0.4630618E-004  0.6500000E+04  0.7818608E-02  0.7223770E-01
         52   -1    0    0    0    0  0.00000000000E+00  0.00000000000E+00  0.64930732323E+04  0.65000000000E+04  0.30000000000E+03 0. -1.
        -52   -1    0    0    0    0 -0.00000000000E+00 -0.00000000000E+00 -0.64930732323E+04  0.65000000000E+04  0.30000000000E+03 0.  1.
     100001    1    1    2    0    0  0.19399405253E+04 -0.15953569466E+04  0.59932309084E+04  0.65000000000E+04  0.15050000000E+03 0. -1.
     100001    1    1    2    0    0 -0.19399405253E+04  0.15953569466E+04 -0.59932309084E+04  0.65000000000E+04  0.15050000000E+03 0.  1.
</event>
<event>
 4    1  0.4630618E-004  0.6500000E+04  0.7818608E-02  0.7223770E-01
         52   -1    0    0    0    0  0.00000000000E+00  0.00000000000E+00  0.64930732323E+04  0.65000000000E+04  0.30000000000E+03 0. -1.
        -52   -1    0    0    0    0 -0.00000000000E+00 -0.00000000000E+00 -0.64930732323E+04  0.65000000000E+04  0.30000000000E+03 0.  1.
     100001    1    1    2    0    0 -0.23858342730E+04  0.10209679450E+04 -0.59575808032E+04  0.65000000000E+04  0.15050000000E+03 0.  1.
     100001    1    1    2    0    0  0.23858342730E+04 -0.10209679450E+04  0.59575808032E+04  0.65000000000E+04  0.15050000000E+03 0. -1.
</event>
<event>
 4    1  0.4630618E-004  0.6500000E+04  0.7818608E-02  0.7223770E-01
         52   -1    0    0    0    0  0.00000000000E+00  0.00000000000E+00  0.64930732323E+04  0.65000000000E+04  0.30000000000E+03 0. -1.
        -52   -1    0    0    0    0 -0.00000000000E+00 -0.00000000000E+00 -0.64930732323E+04  0.65000000000E+04  0.30000000000E+03 0.  1.
     100001    1    1    2    0    0 -0.38624449884E+04  0.36775177321E+02 -0.52256593888E+04  0.65000000000E+04  0.15050000000E+03 0.  1.
     100001    1    1    2    0    0  0.38624449884E+04 -0.36775177321E+02  0.52256593888E+04  0.65000000000E+04  0.15050000000E+03 0. -1.
</event>
<event>
 4    1  0.4630618E-004  0.6500000E+04  0.7818608E-02  0.7223770E-01
         52   -1    0    0    0    0  0.00000000000E+00  0.00000000000E+00  0.64930732323E+04  0.65000000000E+04  0.30000000000E+03 0.  1.
        -52   -1    0    0    0    0 -0.00000000000E+00 -0.00000000000E+00 -0.64930732323E+04  0.65000000000E+04  0.30000000000E+03 0. -1.
     100001    1    1    2    0    0 -0.85447584745E+03 -0.16685012220E+03 -0.64396724927E+04  0.65000000000E+04  0.15050000000E+03 0. -1.
     100001    1    1    2    0    0  0.85447584745E+03  0.16685012220E+03  0.64396724927E+04  0.65000000000E+04  0.15050000000E+03 0.  1.
</event>
<event>
 4    1  0.4630618E-004  0.6500000E+04  0.7818608E-02  0.7223770E-01
         52   -1    0    0    0    0  0.00000000000E+00  0.00000000000E+00  0.64930732323E+04  0.65000000000E+04  0.30000000000E+03 0.  1.
        -52   -1    0    0    0    0 -0.00000000000E+00 -0.00000000000E+00 -0.64930732323E+04  0.65000000000E+04  0.30000000000E+03 0. -1.
     100001    1    1    2    0    0 -0.37020766728E+04  0.44646127751E+04 -0.29307355438E+04  0.65000000000E+04  0.15050000000E+03 0. -1.
     100001    1    1    2    0    0  0.37020766728E+04 -0.44646127751E+04  0.29307355438E+04  0.65000000000E+04  0.15050000000E+03 0.  1.
</event>
<event>
 4    1  0.4630618E-004  0.6500000E+04  0.7818608E-02  0.7223770E-01
         52   -1    0    0    0    0  0.00000000000E+00  0.00000000000E+00  0.64930732323E+04  0.65000000000E+04  0.30000000000E+03 0. -1.
        -52   -1    0    0    0    0 -0.00000000000E+00 -0.00000000000E+00 -0.64930732323E+04  0.65000000000E+04  0.30000000000E+03 0.  1.
     100001    1    1    2    0    0  0.29620866368E+04 -0.15982865305E+04 -0.55586754423E+04  0.65000000000E+04  0.15050000000E+03 0.  1.
     100001    1    1    2    0    0 -0.29620866368E+04  0.15982865305E+04  0.55586754423E+04  0.65000000000E+04  0.15050000000E+03 0. -1.
</event>
<event>
 4    1  0.4630618E-004  0.6500000E+04  0.7818608E-02  0.7223770E-01
         52   -1    0    0    0    0  0.00000000000E+00  0.00000000000E+00  0.64930732323E+04  0.65000000000E+04  0.30000000000E+03 0.  1.
        -52   -1    0    0    0    0 -0.00000000000E+00 -0.00000000000E+00 -0.64930732323E+04  0.65000000000E+04  0.30000000000E+03 0. -1.
     100001    1    1    2    0    0 -0.20485981685E+04  0.52022408644E+04  0.33116891888E+04  0.65000000000E+04  0.15050000000E+03 0.  1.
     100001    1    1    2    0    0  0.20485981685E+04 -0.52022408644E+04 -0.33116891888E+04  0.65000000000E+04  0.15050000000E+03 0. -1.
</event>
<event>
 4    1  0.4630618E-004  0.6500000E+04  0.7818608E-02  0.7223770E-01
         52   -1    0    0    0    0  0.00000000000E+00  0.00000000000E+00  0.64930732323E+04  0.65000000000E+04  0.30000000000E+03 0.  1.
        -52   -1    0    0    0    0 -0.00000000000E+00 -0.00000000000E+00 -0.64930732323E+04  0.65000000000E+04  0.30000000000E+03 0.  1.
     100001    1    1    2    0    0 -0.35701212331E+03 -0.55922097030E+03 -0.64642991886E+04  0.65000000000E+04  0.15050000000E+03 0.  1.
     100001    1    1    2    0    0  0.35701212331E+03  0.55922097030E+03  0.64642991886E+04  0.65000000000E+04  0.15050000000E+03 0.  1.
</event>
<event>
 4    1  0.4630618E-004  0.6500000E+04  0.7818608E-02  0.7223770E-01
         52   -1    0    0    0    0  0.00000000000E+00  0.00000000000E+00  0.64930732323E+04  0.65000000000E+04  0.30000000000E+03 0.  1.
        -52   -1    0    0    0    0 -0.00000000000E+00 -0.00000000000E+00 -0.64930732323E+04  0.65000000000E+04  0.30000000000E+03 0. -1.
     100001    1    1    2    0    0  0.15471592248E+04 -0.13269282529E+04  0.61703249100E+04  0.65000000000E+04  0.15050000000E+03 0.  1.
     100001    1    1    2    0    0 -0.15471592248E+04  0.13269282529E+04 -0.61703249100E+04  0.65000000000E+04  0.15050000000E+03 0. -1.
</event>
<event>
 4    1  0.4630618E-004  0.6500000E+04  0.7818608E-02  0.7223770E-01
         52   -1    0    0    0    0  0.00000000000E+00  0.00000000000E+00  0.64930732323E+04  0.65000000000E+04  0.30000000000E+03 0.  1.
        -52   -1    0    0    0    0 -0.00000000000E+00 -0.00000000000E+00 -0.64930732323E+04  0.65000000000E+04  0.30000000000E+03 0. -1.
     100001    1    1    2    0    0  0.13504365179E+04  0.38395949332E+03 -0.63447810103E+04  0.65000000000E+04  0.15050000000E+03 0. -1.
     100001    1    1    2    0    0 -0.13504365179E+04 -0.38395949332E+03  0.63447810103E+04  0.65000000000E+04  0.15050000000E+03 0.  1.
</event>
<event>
 4    1  0.4630618E-004  0.6500000E+04  0.7818608E-02  0.7223770E-01
         52   -1    0    0    0    0  0.00000000000E+00  0.00000000000E+00  0.64930732323E+04  0.65000000000E+04  0.30000000000E+03 0. -1.
        -52   -1    0    0    0    0 -0.00000000000E+00 -0.00000000000E+00 -0.64930732323E+04  0.65000000000E+04  0.30000000000E+03 0.  1.
     100001    1    1    2    0    0  0.10524117777E+04  0.50854530959E+04 -0.39061420877E+04  0.65000000000E+04  0.15050000000E+03 0.  1.
     100001    1    1    2    0    0 -0.10524117777E+04 -0.50854530959E+04  0.39061420877E+04  0.65000000000E+04  0.15050000000E+03 0. -1.
</event>
<event>
 4    1  0.4812606E-004  0.6500000E+04  0.7818608E-02  0.7223770E-01
         52   -1    0    0    0    0  0.00000000000E+00  0.00000000000E+00  0.64930732323E+04  0.65000000000E+04  0.30000000000E+03 0. -1.
        -52   -1    0    0    0    0 -0.00000000000E+00 -0.00000000000E+00 -0.64930732323E+04  0.65000000000E+04  0.30000000000E+03 0. -1.
     100001    1    1    2    0    0 -0.15798450178E+03 -0.16892412170E+01 -0.64963364902E+04  0.65000000000E+04  0.15050000000E+03 0. -1.
     100001    1    1    2    0    0  0.15798450178E+03  0.16892412170E+01  0.64963364902E+04  0.65000000000E+04  0.15050000000E+03 0. -1.
</event>
<event>
 4    1  0.4630618E-004  0.6500000E+04  0.7818608E-02  0.7223770E-01
         52   -1    0    0    0    0  0.00000000000E+00  0.00000000000E+00  0.64930732323E+04  0.65000000000E+04  0.30000000000E+03 0. -1.
        -52   -1    0    0    0    0 -0.00000000000E+00 -0.00000000000E+00 -0.64930732323E+04  0.65000000000E+04  0.30000000000E+03 0.  1.
     100001    1    1    2    0    0  0.71430535035E+03  0.25033235867E+03 -0.64540259782E+04  0.65000000000E+04  0.15050000000E+03 0.  1.
     100001    1    1    2    0    0 -0.71430535035E+03 -0.25033235867E+03  0.64540259782E+04  0.65000000000E+04  0.15050000000E+03 0. -1.
</event>
<event>
 4    1  0.5997997E-004  0.6500000E+04  0.7818608E-02  0.7223770E-01
         52   -1    0    0    0    0  0.00000000000E+00  0.00000000000E+00  0.64930732323E+04  0.65000000000E+04  0.30000000000E+03 0.  1.
        -52   -1    0    0    0    0 -0.00000000000E+00 -0.00000000000E+00 -0.64930732323E+04  0.65000000000E+04  0.30000000000E+03 0.  1.
     100001    1    1    2    0    0  0.14905251455E+03 -0.95240849499E+02  0.64958496194E+04  0.65000000000E+04  0.15050000000E+03 0.  1.
     100001    1    1    2    0    0 -0.14905251455E+03  0.95240849499E+02 -0.64958496194E+04  0.65000000000E+04  0.15050000000E+03 0.  1.
</event>
<event>
 4    1  0.4630618E-004  0.6500000E+04  0.7818608E-02  0.7223770E-01
         52   -1    0    0    0    0  0.00000000000E+00  0.00000000000E+00  0.64930732323E+04  0.65000000000E+04  0.30000000000E+03 0. -1.
        -52   -1    0    0    0    0 -0.00000000000E+00 -0.00000000000E+00 -0.64930732323E+04  0.65000000000E+04  0.30000000000E+03 0.  1.
     100001    1    1    2    0    0 -0.20600688477E+04 -0.60146166274E+03 -0.61336538834E+04  0.65000000000E+04  0.15050000000E+03 0.  1.
     100001    1    1    2    0    0  0.20600688477E+04  0.60146166274E+03  0.61336538834E+04  0.65000000000E+04  0.15050000000E+03 0. -1.
</event>
<event>
 4    1  0.4630618E-004  0.6500000E+04  0.7818608E-02  0.7223770E-01
         52   -1    0    0    0    0  0.00000000000E+00  0.00000000000E+00  0.64930732323E+04  0.65000000000E+04  0.30000000000E+03 0. -1.
        -52   -1    0    0    0    0 -0.00000000000E+00 -0.00000000000E+00 -0.64930732323E+04  0.65000000000E+04  0.30000000000E+03 0.  1.
     100001    1    1    2    0    0  0.77026512343E+03 -0.46658072164E+03 -0.64355531091E+04  0.65000000000E+04  0.15050000000E+03 0.  1.
     100001    1    1    2    0    0 -0.77026512343E+03  0.46658072164E+03  0.64355531091E+04  0.65000000000E+04  0.15050000000E+03 0. -1.
</event>
<event>
 4    1  0.4630618E-004  0.6500000E+04  0.7818608E-02  0.7223770E-01
         52   -1    0    0    0    0  0.00000000000E+00  0.00000000000E+00  0.64930732323E+04  0.65000000000E+04  0.30000000000E+03 0.  1.
        -52   -1    0    0    0    0 -0.00000000000E+00 -0.00000000000E+00 -0.64930732323E+04  0.65000000000E+04  0.30000000000E+03 0. -1.
     100001    1    1    2    0    0  0.44025233760E+03  0.80176653869E+03  0.64335602932E+04  0.65000000000E+04  0.15050000000E+03 0.  1.
     100001    1    1    2    0    0 -0.44025233760E+03 -0.80176653869E+03 -0.64335602932E+04  0.65000000000E+04  0.15050000000E+03 0. -1.
</event>
<event>
 4    1  0.6160274E-004  0.6500000E+04  0.7818608E-02  0.7223770E-01
         52   -1    0    0    0    0  0.00000000000E+00  0.00000000000E+00  0.64930732323E+04  0.65000000000E+04  0.30000000000E+03 0.  1.
        -52   -1    0    0    0    0 -0.00000000000E+00 -0.00000000000E+00 -0.64930732323E+04  0.65000000000E+04  0.30000000000E+03 0.  1.
     100001    1    1    2    0    0  0.23184969660E+02  0.12686788540E+03  0.64969775086E+04  0.65000000000E+04  0.15050000000E+03 0.  1.
     100001    1    1    2    0    0 -0.23184969660E+02 -0.12686788540E+03 -0.64969775086E+04  0.65000000000E+04  0.15050000000E+03 0.  1.
</event>
<event>
 4    1  0.4630618E-004  0.6500000E+04  0.7818608E-02  0.7223770E-01
         52   -1    0    0    0    0  0.00000000000E+00  0.00000000000E+00  0.64930732323E+04  0.65000000000E+04  0.30000000000E+03 0.  1.
        -52   -1    0    0    0    0 -0.00000000000E+00 -0.00000000000E+00 -0.64930732323E+04  0.65000000000E+04  0.30000000000E+03 0. -1.
     100001    1    1    2    0    0 -0.11909039829E+04  0.14582799386E+04 -0.62195270780E+04  0.65000000000E+04  0.15050000000E+03 0. -1.
     100001    1    1    2    0    0  0.11909039829E+04 -0.14582799386E+04  0.62195270780E+04  0.65000000000E+04  0.15050000000E+03 0.  1.
</event>
<event>
 4    1  0.4630618E-004  0.6500000E+04  0.7818608E-02  0.7223770E-01
         52   -1    0    0    0    0  0.00000000000E+00  0.00000000000E+00  0.64930732323E+04  0.65000000000E+04  0.30000000000E+03 0.  1.
        -52   -1    0    0    0    0 -0.00000000000E+00 -0.00000000000E+00 -0.64930732323E+04  0.65000000000E+04  0.30000000000E+03 0. -1.
     100001    1    1    2    0    0 -0.12992254764E+04  0.14115023651E+04 -0.62086249673E+04  0.65000000000E+04  0.15050000000E+03 0. -1.
     100001    1    1    2    0    0  0.12992254764E+04 -0.14115023651E+04  0.62086249673E+04  0.65000000000E+04  0.15050000000E+03 0.  1.
</event>
<event>
 4    1  0.4630618E-004  0.6500000E+04  0.7818608E-02  0.7223770E-01
         52   -1    0    0    0    0  0.00000000000E+00  0.00000000000E+00  0.64930732323E+04  0.65000000000E+04  0.30000000000E+03 0.  1.
        -52   -1    0    0    0    0 -0.00000000000E+00 -0.00000000000E+00 -0.64930732323E+04  0.65000000000E+04  0.30000000000E+03 0. -1.
     100001    1    1    2    0    0  0.96647632070E+03 -0.40620122819E+03  0.64131329188E+04  0.65000000000E+04  0.15050000000E+03 0.  1.
     100001    1    1    2    0    0 -0.96647632070E+03  0.40620122819E+03 -0.64131329188E+04  0.65000000000E+04  0.15050000000E+03 0. -1.
</event>
<event>
 4    1  0.4630618E-004  0.6500000E+04  0.7818608E-02  0.7223770E-01
         52   -1    0    0    0    0  0.00000000000E+00  0.00000000000E+00  0.64930732323E+04  0.65000000000E+04  0.30000000000E+03 0.  1.
        -52   -1    0    0    0    0 -0.00000000000E+00 -0.00000000000E+00 -0.64930732323E+04  0.65000000000E+04  0.30000000000E+03 0. -1.
     100001    1    1    2    0    0  0.53967977496E+04 -0.34321502395E+04 -0.11498993577E+04  0.65000000000E+04  0.15050000000E+03 0.  1.
     100001    1    1    2    0    0 -0.53967977496E+04  0.34321502395E+04  0.11498993577E+04  0.65000000000E+04  0.15050000000E+03 0. -1.
</event>
<event>
 4    1  0.4630618E-004  0.6500000E+04  0.7818608E-02  0.7223770E-01
         52   -1    0    0    0    0  0.00000000000E+00  0.00000000000E+00  0.64930732323E+04  0.65000000000E+04  0.30000000000E+03 0. -1.
        -52   -1    0    0    0    0 -0.00000000000E+00 -0.00000000000E+00 -0.64930732323E+04  0.65000000000E+04  0.30000000000E+03 0. -1.
     100001    1    1    2    0    0  0.27634995206E+03  0.67197032494E+02 -0.64920308851E+04  0.65000000000E+04  0.15050000000E+03 0. -1.
     100001    1    1    2    0    0 -0.27634995206E+03 -0.67197032494E+02  0.64920308851E+04  0.65000000000E+04  0.15050000000E+03 0. -1.
</event>
<event>
 4    1  0.4630618E-004  0.6500000E+04  0.7818608E-02  0.7223770E-01
         52   -1    0    0    0    0  0.00000000000E+00  0.00000000000E+00  0.64930732323E+04  0.65000000000E+04  0.30000000000E+03 0. -1.
        -52   -1    0    0    0    0 -0.00000000000E+00 -0.00000000000E+00 -0.64930732323E+04  0.65000000000E+04  0.30000000000E+03 0.  1.
     100001    1    1    2    0    0 -0.29133436174E+04  0.28202448518E+04  0.50779915019E+04  0.65000000000E+04  0.15050000000E+03 0. -1.
     100001    1    1    2    0    0  0.29133436174E+04 -0.28202448518E+04 -0.50779915019E+04  0.65000000000E+04  0.15050000000E+03 0.  1.
</event>
<event>
 4    1  0.4630618E-004  0.6500000E+04  0.7818608E-02  0.7223770E-01
         52   -1    0    0    0    0  0.00000000000E+00  0.00000000000E+00  0.64930732323E+04  0.65000000000E+04  0.30000000000E+03 0.  1.
        -52   -1    0    0    0    0 -0.00000000000E+00 -0.00000000000E+00 -0.64930732323E+04  0.65000000000E+04  0.30000000000E+03 0. -1.
     100001    1    1    2    0    0  0.52420349839E+03  0.57310311554E+02 -0.64768260723E+04  0.65000000000E+04  0.15050000000E+03 0. -1.
     100001    1    1    2    0    0 -0.52420349839E+03 -0.57310311554E+02  0.64768260723E+04  0.65000000000E+04  0.15050000000E+03 0.  1.
</event>
<event>
 4    1  0.4630618E-004  0.6500000E+04  0.7818608E-02  0.7223770E-01
         52   -1    0    0    0    0  0.00000000000E+00  0.00000000000E+00  0.64930732323E+04  0.65000000000E+04  0.30000000000E+03 0.  1.
        -52   -1    0    0    0    0 -0.00000000000E+00 -0.00000000000E+00 -0.64930732323E+04  0.65000000000E+04  0.30000000000E+03 0. -1.
     100001    1    1    2    0    0  0.25426691973E+04 -0.21800185549E+04  0.55686355782E+04  0.65000000000E+04  0.15050000000E+03 0.  1.
     100001    1    1    2    0    0 -0.25426691973E+04  0.21800185549E+04 -0.55686355782E+04  0.65000000000E+04  0.15050000000E+03 0. -1.
</event>
<event>
 4    1  0.4630618E-004  0.6500000E+04  0.7818608E-02  0.7223770E-01
         52   -1    0    0    0    0  0.00000000000E+00  0.00000000000E+00  0.64930732323E+04  0.65000000000E+04  0.30000000000E+03 0. -1.
        -52   -1    0    0    0    0 -0.00000000000E+00 -0.00000000000E+00 -0.64930732323E+04  0.65000000000E+04  0.30000000000E+03 0.  1.
     100001    1    1    2    0    0 -0.11208729099E+03 -0.32538558190E+03  0.64891378790E+04  0.65000000000E+04  0.15050000000E+03 0. -1.
     100001    1    1    2    0    0  0.11208729099E+03  0.32538558190E+03 -0.64891378790E+04  0.65000000000E+04  0.15050000000E+03 0.  1.
</event>
<event>
 4    1  0.4630618E-004  0.6500000E+04  0.7818608E-02  0.7223770E-01
         52   -1    0    0    0    0  0.00000000000E+00  0.00000000000E+00  0.64930732323E+04  0.65000000000E+04  0.30000000000E+03 0.  1.
        -52   -1    0    0    0    0 -0.00000000000E+00 -0.00000000000E+00 -0.64930732323E+04  0.65000000000E+04  0.30000000000E+03 0. -1.
     100001    1    1    2    0    0  0.21565129715E+03  0.54318233717E+03  0.64719237647E+04  0.65000000000E+04  0.15050000000E+03 0.  1.
     100001    1    1    2    0    0 -0.21565129715E+03 -0.54318233717E+03 -0.64719237647E+04  0.65000000000E+04  0.15050000000E+03 0. -1.
</event>
<event>
 4    1  0.4630618E-004  0.6500000E+04  0.7818608E-02  0.7223770E-01
         52   -1    0    0    0    0  0.00000000000E+00  0.00000000000E+00  0.64930732323E+04  0.65000000000E+04  0.30000000000E+03 0.  1.
        -52   -1    0    0    0    0 -0.00000000000E+00 -0.00000000000E+00 -0.64930732323E+04  0.65000000000E+04  0.30000000000E+03 0. -1.
     100001    1    1    2    0    0  0.54384649893E+03 -0.46944434748E+02 -0.64752897198E+04  0.65000000000E+04  0.15050000000E+03 0. -1.
     100001    1    1    2    0    0 -0.54384649893E+03  0.46944434748E+02  0.64752897198E+04  0.65000000000E+04  0.15050000000E+03 0.  1.
</event>
<event>
 4    1  0.4630618E-004  0.6500000E+04  0.7818608E-02  0.7223770E-01
         52   -1    0    0    0    0  0.00000000000E+00  0.00000000000E+00  0.64930732323E+04  0.65000000000E+04  0.30000000000E+03 0. -1.
        -52   -1    0    0    0    0 -0.00000000000E+00 -0.00000000000E+00 -0.64930732323E+04  0.65000000000E+04  0.30000000000E+03 0.  1.
     100001    1    1    2    0    0  0.14456453901E+04  0.15920528697E+04  0.61321143838E+04  0.65000000000E+04  0.15050000000E+03 0. -1.
     100001    1    1    2    0    0 -0.14456453901E+04 -0.15920528697E+04 -0.61321143838E+04  0.65000000000E+04  0.15050000000E+03 0.  1.
</event>
<event>
 4    1  0.4630618E-004  0.6500000E+04  0.7818608E-02  0.7223770E-01
         52   -1    0    0    0    0  0.00000000000E+00  0.00000000000E+00  0.64930732323E+04  0.65000000000E+04  0.30000000000E+03 0.  1.
        -52   -1    0    0    0    0 -0.00000000000E+00 -0.00000000000E+00 -0.64930732323E+04  0.65000000000E+04  0.30000000000E+03 0. -1.
     100001    1    1    2    0    0  0.30169790582E+03 -0.46481373242E+03  0.64745869612E+04  0.65000000000E+04  0.15050000000E+03 0.  1.
     100001    1    1    2    0    0 -0.30169790582E+03  0.46481373242E+03 -0.64745869612E+04  0.65000000000E+04  0.15050000000E+03 0. -1.
</event>
<event>
 4    1  0.4630618E-004  0.6500000E+04  0.7818608E-02  0.7223770E-01
         52   -1    0    0    0    0  0.00000000000E+00  0.00000000000E+00  0.64930732323E+04  0.65000000000E+04  0.30000000000E+03 0. -1.
        -52   -1    0    0    0    0 -0.00000000000E+00 -0.00000000000E+00 -0.64930732323E+04  0.65000000000E+04  0.30000000000E+03 0.  1.
     100001    1    1    2    0    0 -0.54648569313E+04 -0.31774474378E+04 -0.15054953503E+04  0.65000000000E+04  0.15050000000E+03 0.  1.
     100001    1    1    2    0    0  0.54648569313E+04  0.31774474378E+04  0.15054953503E+04  0.65000000000E+04  0.15050000000E+03 0. -1.
</event>
<event>
 4    1  0.4630618E-004  0.6500000E+04  0.7818608E-02  0.7223770E-01
         52   -1    0    0    0    0  0.00000000000E+00  0.00000000000E+00  0.64930732323E+04  0.65000000000E+04  0.30000000000E+03 0. -1.
        -52   -1    0    0    0    0 -0.00000000000E+00 -0.00000000000E+00 -0.64930732323E+04  0.65000000000E+04  0.30000000000E+03 0. -1.
     100001    1    1    2    0    0  0.12775729778E+03  0.15593877760E+02 -0.64969827346E+04  0.65000000000E+04  0.15050000000E+03 0. -1.
     100001    1    1    2    0    0 -0.12775729778E+03 -0.15593877760E+02  0.64969827346E+04  0.65000000000E+04  0.15050000000E+03 0. -1.
</event>
<event>
 4    1  0.4630618E-004  0.6500000E+04  0.7818608E-02  0.7223770E-01
         52   -1    0    0    0    0  0.00000000000E+00  0.00000000000E+00  0.64930732323E+04  0.65000000000E+04  0.30000000000E+03 0.  1.
        -52   -1    0    0    0    0 -0.00000000000E+00 -0.00000000000E+00 -0.64930732323E+04  0.65000000000E+04  0.30000000000E+03 0. -1.
     100001    1    1    2    0    0  0.21234476710E+03  0.43646068618E+03 -0.64801050547E+04  0.65000000000E+04  0.15050000000E+03 0. -1.
     100001    1    1    2    0    0 -0.21234476710E+03 -0.43646068618E+03  0.64801050547E+04  0.65000000000E+04  0.15050000000E+03 0.  1.
</event>
<event>
 4    1  0.4630618E-004  0.6500000E+04  0.7818608E-02  0.7223770E-01
         52   -1    0    0    0    0  0.00000000000E+00  0.00000000000E+00  0.64930732323E+04  0.65000000000E+04  0.30000000000E+03 0.  1.
        -52   -1    0    0    0    0 -0.00000000000E+00 -0.00000000000E+00 -0.64930732323E+04  0.65000000000E+04  0.30000000000E+03 0. -1.
     100001    1    1    2    0    0  0.42589442985E+03 -0.20248026185E+02 -0.64842542904E+04  0.65000000000E+04  0.15050000000E+03 0. -1.
     100001    1    1    2    0    0 -0.42589442985E+03  0.20248026185E+02  0.64842542904E+04  0.65000000000E+04  0.15050000000E+03 0.  1.
</event>
<event>
 4    1  0.4630618E-004  0.6500000E+04  0.7818608E-02  0.7223770E-01
         52   -1    0    0    0    0  0.00000000000E+00  0.00000000000E+00  0.64930732323E+04  0.65000000000E+04  0.30000000000E+03 0.  1.
        -52   -1    0    0    0    0 -0.00000000000E+00 -0.00000000000E+00 -0.64930732323E+04  0.65000000000E+04  0.30000000000E+03 0. -1.
     100001    1    1    2    0    0 -0.25836672387E+02  0.63322155534E+03  0.64672801608E+04  0.65000000000E+04  0.15050000000E+03 0.  1.
     100001    1    1    2    0    0  0.25836672387E+02 -0.63322155534E+03 -0.64672801608E+04  0.65000000000E+04  0.15050000000E+03 0. -1.
</event>
<event>
 4    1  0.4630618E-004  0.6500000E+04  0.7818608E-02  0.7223770E-01
         52   -1    0    0    0    0  0.00000000000E+00  0.00000000000E+00  0.64930732323E+04  0.65000000000E+04  0.30000000000E+03 0. -1.
        -52   -1    0    0    0    0 -0.00000000000E+00 -0.00000000000E+00 -0.64930732323E+04  0.65000000000E+04  0.30000000000E+03 0.  1.
     100001    1    1    2    0    0 -0.42757367648E+04  0.85462058465E+03 -0.48181997182E+04  0.65000000000E+04  0.15050000000E+03 0.  1.
     100001    1    1    2    0    0  0.42757367648E+04 -0.85462058465E+03  0.48181997182E+04  0.65000000000E+04  0.15050000000E+03 0. -1.
</event>
<event>
 4    1  0.4630618E-004  0.6500000E+04  0.7818608E-02  0.7223770E-01
         52   -1    0    0    0    0  0.00000000000E+00  0.00000000000E+00  0.64930732323E+04  0.65000000000E+04  0.30000000000E+03 0. -1.
        -52   -1    0    0    0    0 -0.00000000000E+00 -0.00000000000E+00 -0.64930732323E+04  0.65000000000E+04  0.30000000000E+03 0.  1.
     100001    1    1    2    0    0  0.13966121368E+03 -0.32327633489E+04  0.56353425473E+04  0.65000000000E+04  0.15050000000E+03 0. -1.
     100001    1    1    2    0    0 -0.13966121368E+03  0.32327633489E+04 -0.56353425473E+04  0.65000000000E+04  0.15050000000E+03 0.  1.
</event>
<event>
 4    1  0.4630618E-004  0.6500000E+04  0.7818608E-02  0.7223770E-01
         52   -1    0    0    0    0  0.00000000000E+00  0.00000000000E+00  0.64930732323E+04  0.65000000000E+04  0.30000000000E+03 0.  1.
        -52   -1    0    0    0    0 -0.00000000000E+00 -0.00000000000E+00 -0.64930732323E+04  0.65000000000E+04  0.30000000000E+03 0. -1.
     100001    1    1    2    0    0  0.13509010929E+04 -0.12612359902E+04  0.62299036721E+04  0.65000000000E+04  0.15050000000E+03 0.  1.
     100001    1    1    2    0    0 -0.13509010929E+04  0.12612359902E+04 -0.62299036721E+04  0.65000000000E+04  0.15050000000E+03 0. -1.
</event>
<event>
 4    1  0.4630618E-004  0.6500000E+04  0.7818608E-02  0.7223770E-01
         52   -1    0    0    0    0  0.00000000000E+00  0.00000000000E+00  0.64930732323E+04  0.65000000000E+04  0.30000000000E+03 0.  1.
        -52   -1    0    0    0    0 -0.00000000000E+00 -0.00000000000E+00 -0.64930732323E+04  0.65000000000E+04  0.30000000000E+03 0. -1.
     100001    1    1    2    0    0  0.10435845728E+04  0.88024558662E+02 -0.64133090263E+04  0.65000000000E+04  0.15050000000E+03 0. -1.
     100001    1    1    2    0    0 -0.10435845728E+04 -0.88024558662E+02  0.64133090263E+04  0.65000000000E+04  0.15050000000E+03 0.  1.
</event>
<event>
 4    1  0.4630618E-004  0.6500000E+04  0.7818608E-02  0.7223770E-01
         52   -1    0    0    0    0  0.00000000000E+00  0.00000000000E+00  0.64930732323E+04  0.65000000000E+04  0.30000000000E+03 0. -1.
        -52   -1    0    0    0    0 -0.00000000000E+00 -0.00000000000E+00 -0.64930732323E+04  0.65000000000E+04  0.30000000000E+03 0.  1.
     100001    1    1    2    0    0 -0.21061192686E+04 -0.27302499147E+04  0.55079348925E+04  0.65000000000E+04  0.15050000000E+03 0. -1.
     100001    1    1    2    0    0  0.21061192686E+04  0.27302499147E+04 -0.55079348925E+04  0.65000000000E+04  0.15050000000E+03 0.  1.
</event>
<event>
 4    1  0.4630618E-004  0.6500000E+04  0.7818608E-02  0.7223770E-01
         52   -1    0    0    0    0  0.00000000000E+00  0.00000000000E+00  0.64930732323E+04  0.65000000000E+04  0.30000000000E+03 0. -1.
        -52   -1    0    0    0    0 -0.00000000000E+00 -0.00000000000E+00 -0.64930732323E+04  0.65000000000E+04  0.30000000000E+03 0.  1.
     100001    1    1    2    0    0  0.76466501842E+02  0.25946336305E+03  0.64926251538E+04  0.65000000000E+04  0.15050000000E+03 0. -1.
     100001    1    1    2    0    0 -0.76466501842E+02 -0.25946336305E+03 -0.64926251538E+04  0.65000000000E+04  0.15050000000E+03 0.  1.
</event>
<event>
 4    1  0.4630618E-004  0.6500000E+04  0.7818608E-02  0.7223770E-01
         52   -1    0    0    0    0  0.00000000000E+00  0.00000000000E+00  0.64930732323E+04  0.65000000000E+04  0.30000000000E+03 0.  1.
        -52   -1    0    0    0    0 -0.00000000000E+00 -0.00000000000E+00 -0.64930732323E+04  0.65000000000E+04  0.30000000000E+03 0. -1.
     100001    1    1    2    0    0  0.78928876644E+01  0.83584723353E+03  0.64442724069E+04  0.65000000000E+04  0.15050000000E+03 0.  1.
     100001    1    1    2    0    0 -0.78928876644E+01 -0.83584723353E+03 -0.64442724069E+04  0.65000000000E+04  0.15050000000E+03 0. -1.
</event>
<event>
 4    1  0.4630618E-004  0.6500000E+04  0.7818608E-02  0.7223770E-01
         52   -1    0    0    0    0  0.00000000000E+00  0.00000000000E+00  0.64930732323E+04  0.65000000000E+04  0.30000000000E+03 0.  1.
        -52   -1    0    0    0    0 -0.00000000000E+00 -0.00000000000E+00 -0.64930732323E+04  0.65000000000E+04  0.30000000000E+03 0. -1.
     100001    1    1    2    0    0 -0.55754271053E+03  0.24698260403E+03 -0.64695823257E+04  0.65000000000E+04  0.15050000000E+03 0. -1.
     100001    1    1    2    0    0  0.55754271053E+03 -0.24698260403E+03  0.64695823257E+04  0.65000000000E+04  0.15050000000E+03 0.  1.
</event>
<event>
 4    1  0.4630618E-004  0.6500000E+04  0.7818608E-02  0.7223770E-01
         52   -1    0    0    0    0  0.00000000000E+00  0.00000000000E+00  0.64930732323E+04  0.65000000000E+04  0.30000000000E+03 0. -1.
        -52   -1    0    0    0    0 -0.00000000000E+00 -0.00000000000E+00 -0.64930732323E+04  0.65000000000E+04  0.30000000000E+03 0.  1.
     100001    1    1    2    0    0  0.53119886923E+04 -0.34774709939E+04 -0.13846737411E+04  0.65000000000E+04  0.15050000000E+03 0. -1.
     100001    1    1    2    0    0 -0.53119886923E+04  0.34774709939E+04  0.13846737411E+04  0.65000000000E+04  0.15050000000E+03 0.  1.
</event>
<event>
 4    1  0.4630618E-004  0.6500000E+04  0.7818608E-02  0.7223770E-01
         52   -1    0    0    0    0  0.00000000000E+00  0.00000000000E+00  0.64930732323E+04  0.65000000000E+04  0.30000000000E+03 0.  1.
        -52   -1    0    0    0    0 -0.00000000000E+00 -0.00000000000E+00 -0.64930732323E+04  0.65000000000E+04  0.30000000000E+03 0. -1.
     100001    1    1    2    0    0  0.53772587390E+04  0.36486168064E+04 -0.57968613528E+01  0.65000000000E+04  0.15050000000E+03 0.  1.
     100001    1    1    2    0    0 -0.53772587390E+04 -0.36486168064E+04  0.57968613528E+01  0.65000000000E+04  0.15050000000E+03 0. -1.
</event>
<event>
 4    1  0.4630618E-004  0.6500000E+04  0.7818608E-02  0.7223770E-01
         52   -1    0    0    0    0  0.00000000000E+00  0.00000000000E+00  0.64930732323E+04  0.65000000000E+04  0.30000000000E+03 0.  1.
        -52   -1    0    0    0    0 -0.00000000000E+00 -0.00000000000E+00 -0.64930732323E+04  0.65000000000E+04  0.30000000000E+03 0.  1.
     100001    1    1    2    0    0  0.39471367882E+02 -0.88172950710E+02 -0.64975393259E+04  0.65000000000E+04  0.15050000000E+03 0.  1.
     100001    1    1    2    0    0 -0.39471367882E+02  0.88172950710E+02  0.64975393259E+04  0.65000000000E+04  0.15050000000E+03 0.  1.
</event>
<event>
 4    1  0.4630618E-004  0.6500000E+04  0.7818608E-02  0.7223770E-01
         52   -1    0    0    0    0  0.00000000000E+00  0.00000000000E+00  0.64930732323E+04  0.65000000000E+04  0.30000000000E+03 0.  1.
        -52   -1    0    0    0    0 -0.00000000000E+00 -0.00000000000E+00 -0.64930732323E+04  0.65000000000E+04  0.30000000000E+03 0. -1.
     100001    1    1    2    0    0 -0.32264492372E+04 -0.55708833407E+04  0.88466596733E+03  0.65000000000E+04  0.15050000000E+03 0.  1.
     100001    1    1    2    0    0  0.32264492372E+04  0.55708833407E+04 -0.88466596733E+03  0.65000000000E+04  0.15050000000E+03 0. -1.
</event>
<event>
 4    1  0.4630618E-004  0.6500000E+04  0.7818608E-02  0.7223770E-01
         52   -1    0    0    0    0  0.00000000000E+00  0.00000000000E+00  0.64930732323E+04  0.65000000000E+04  0.30000000000E+03 0.  1.
        -52   -1    0    0    0    0 -0.00000000000E+00 -0.00000000000E+00 -0.64930732323E+04  0.65000000000E+04  0.30000000000E+03 0. -1.
     100001    1    1    2    0    0 -0.61034477761E+04  0.21980983249E+04  0.37899702988E+03  0.65000000000E+04  0.15050000000E+03 0.  1.
     100001    1    1    2    0    0  0.61034477761E+04 -0.21980983249E+04 -0.37899702988E+03  0.65000000000E+04  0.15050000000E+03 0. -1.
</event>
<event>
 4    1  0.4630618E-004  0.6500000E+04  0.7818608E-02  0.7223770E-01
         52   -1    0    0    0    0  0.00000000000E+00  0.00000000000E+00  0.64930732323E+04  0.65000000000E+04  0.30000000000E+03 0.  1.
        -52   -1    0    0    0    0 -0.00000000000E+00 -0.00000000000E+00 -0.64930732323E+04  0.65000000000E+04  0.30000000000E+03 0. -1.
     100001    1    1    2    0    0  0.27326863939E+04 -0.11650633926E+04 -0.57794811284E+04  0.65000000000E+04  0.15050000000E+03 0. -1.
     100001    1    1    2    0    0 -0.27326863939E+04  0.11650633926E+04  0.57794811284E+04  0.65000000000E+04  0.15050000000E+03 0.  1.
</event>
<event>
 4    1  0.4630618E-004  0.6500000E+04  0.7818608E-02  0.7223770E-01
         52   -1    0    0    0    0  0.00000000000E+00  0.00000000000E+00  0.64930732323E+04  0.65000000000E+04  0.30000000000E+03 0. -1.
        -52   -1    0    0    0    0 -0.00000000000E+00 -0.00000000000E+00 -0.64930732323E+04  0.65000000000E+04  0.30000000000E+03 0.  1.
     100001    1    1    2    0    0  0.54406529185E+04  0.11801718818E+04  0.33516920950E+04  0.65000000000E+04  0.15050000000E+03 0. -1.
     100001    1    1    2    0    0 -0.54406529185E+04 -0.11801718818E+04 -0.33516920950E+04  0.65000000000E+04  0.15050000000E+03 0.  1.
</event>
<event>
 4    1  0.4630618E-004  0.6500000E+04  0.7818608E-02  0.7223770E-01
         52   -1    0    0    0    0  0.00000000000E+00  0.00000000000E+00  0.64930732323E+04  0.65000000000E+04  0.30000000000E+03 0. -1.
        -52   -1    0    0    0    0 -0.00000000000E+00 -0.00000000000E+00 -0.64930732323E+04  0.65000000000E+04  0.30000000000E+03 0. -1.
     100001    1    1    2    0    0 -0.26716175337E+03  0.80937238798E+02 -0.64922587372E+04  0.65000000000E+04  0.15050000000E+03 0. -1.
     100001    1    1    2    0    0  0.26716175337E+03 -0.80937238798E+02  0.64922587372E+04  0.65000000000E+04  0.15050000000E+03 0. -1.
</event>
<event>
 4    1  0.4630618E-004  0.6500000E+04  0.7818608E-02  0.7223770E-01
         52   -1    0    0    0    0  0.00000000000E+00  0.00000000000E+00  0.64930732323E+04  0.65000000000E+04  0.30000000000E+03 0. -1.
        -52   -1    0    0    0    0 -0.00000000000E+00 -0.00000000000E+00 -0.64930732323E+04  0.65000000000E+04  0.30000000000E+03 0.  1.
     100001    1    1    2    0    0 -0.95561759065E+03  0.11240067722E+04 -0.63285664685E+04  0.65000000000E+04  0.15050000000E+03 0.  1.
     100001    1    1    2    0    0  0.95561759065E+03 -0.11240067722E+04  0.63285664685E+04  0.65000000000E+04  0.15050000000E+03 0. -1.
</event>
<event>
 4    1  0.4630618E-004  0.6500000E+04  0.7818608E-02  0.7223770E-01
         52   -1    0    0    0    0  0.00000000000E+00  0.00000000000E+00  0.64930732323E+04  0.65000000000E+04  0.30000000000E+03 0. -1.
        -52   -1    0    0    0    0 -0.00000000000E+00 -0.00000000000E+00 -0.64930732323E+04  0.65000000000E+04  0.30000000000E+03 0.  1.
     100001    1    1    2    0    0 -0.41925233424E+03 -0.49627048112E+04 -0.41741032794E+04  0.65000000000E+04  0.15050000000E+03 0.  1.
     100001    1    1    2    0    0  0.41925233424E+03  0.49627048112E+04  0.41741032794E+04  0.65000000000E+04  0.15050000000E+03 0. -1.
</event>
<event>
 4    1  0.4630618E-004  0.6500000E+04  0.7818608E-02  0.7223770E-01
         52   -1    0    0    0    0  0.00000000000E+00  0.00000000000E+00  0.64930732323E+04  0.65000000000E+04  0.30000000000E+03 0. -1.
        -52   -1    0    0    0    0 -0.00000000000E+00 -0.00000000000E+00 -0.64930732323E+04  0.65000000000E+04  0.30000000000E+03 0.  1.
     100001    1    1    2    0    0  0.12323576525E+04  0.26561340304E+04 -0.58011719832E+04  0.65000000000E+04  0.15050000000E+03 0.  1.
     100001    1    1    2    0    0 -0.12323576525E+04 -0.26561340304E+04  0.58011719832E+04  0.65000000000E+04  0.15050000000E+03 0. -1.
</event>
<event>
 4    1  0.4630618E-004  0.6500000E+04  0.7818608E-02  0.7223770E-01
         52   -1    0    0    0    0  0.00000000000E+00  0.00000000000E+00  0.64930732323E+04  0.65000000000E+04  0.30000000000E+03 0. -1.
        -52   -1    0    0    0    0 -0.00000000000E+00 -0.00000000000E+00 -0.64930732323E+04  0.65000000000E+04  0.30000000000E+03 0.  1.
     100001    1    1    2    0    0 -0.40210658711E+03  0.15554286557E+03 -0.64839391160E+04  0.65000000000E+04  0.15050000000E+03 0.  1.
     100001    1    1    2    0    0  0.40210658711E+03 -0.15554286557E+03  0.64839391160E+04  0.65000000000E+04  0.15050000000E+03 0. -1.
</event>
<event>
 4    1  0.4630618E-004  0.6500000E+04  0.7818608E-02  0.7223770E-01
         52   -1    0    0    0    0  0.00000000000E+00  0.00000000000E+00  0.64930732323E+04  0.65000000000E+04  0.30000000000E+03 0. -1.
        -52   -1    0    0    0    0 -0.00000000000E+00 -0.00000000000E+00 -0.64930732323E+04  0.65000000000E+04  0.30000000000E+03 0.  1.
     100001    1    1    2    0    0  0.12570922843E+04  0.22764227331E+04 -0.59552471216E+04  0.65000000000E+04  0.15050000000E+03 0.  1.
     100001    1    1    2    0    0 -0.12570922843E+04 -0.22764227331E+04  0.59552471216E+04  0.65000000000E+04  0.15050000000E+03 0. -1.
</event>
<event>
 4    1  0.4630618E-004  0.6500000E+04  0.7818608E-02  0.7223770E-01
         52   -1    0    0    0    0  0.00000000000E+00  0.00000000000E+00  0.64930732323E+04  0.65000000000E+04  0.30000000000E+03 0. -1.
        -52   -1    0    0    0    0 -0.00000000000E+00 -0.00000000000E+00 -0.64930732323E+04  0.65000000000E+04  0.30000000000E+03 0.  1.
     100001    1    1    2    0    0  0.18143158438E+04 -0.53236554145E+04 -0.32548887534E+04  0.65000000000E+04  0.15050000000E+03 0. -1.
     100001    1    1    2    0    0 -0.18143158438E+04  0.53236554145E+04  0.32548887534E+04  0.65000000000E+04  0.15050000000E+03 0.  1.
</event>
<event>
 4    1  0.4630618E-004  0.6500000E+04  0.7818608E-02  0.7223770E-01
         52   -1    0    0    0    0  0.00000000000E+00  0.00000000000E+00  0.64930732323E+04  0.65000000000E+04  0.30000000000E+03 0.  1.
        -52   -1    0    0    0    0 -0.00000000000E+00 -0.00000000000E+00 -0.64930732323E+04  0.65000000000E+04  0.30000000000E+03 0. -1.
     100001    1    1    2    0    0 -0.78379723444E+03  0.28327844093E+04 -0.57955451975E+04  0.65000000000E+04  0.15050000000E+03 0. -1.
     100001    1    1    2    0    0  0.78379723444E+03 -0.28327844093E+04  0.57955451975E+04  0.65000000000E+04  0.15050000000E+03 0.  1.
</event>
<event>
 4    1  0.4630618E-004  0.6500000E+04  0.7818608E-02  0.7223770E-01
         52   -1    0    0    0    0  0.00000000000E+00  0.00000000000E+00  0.64930732323E+04  0.65000000000E+04  0.30000000000E+03 0. -1.
        -52   -1    0    0    0    0 -0.00000000000E+00 -0.00000000000E+00 -0.64930732323E+04  0.65000000000E+04  0.30000000000E+03 0.  1.
     100001    1    1    2    0    0  0.12689073455E+04  0.26070727456E+03  0.63678297414E+04  0.65000000000E+04  0.15050000000E+03 0. -1.
     100001    1    1    2    0    0 -0.12689073455E+04 -0.26070727456E+03 -0.63678297414E+04  0.65000000000E+04  0.15050000000E+03 0.  1.
</event>
<event>
 4    1  0.4630618E-004  0.6500000E+04  0.7818608E-02  0.7223770E-01
         52   -1    0    0    0    0  0.00000000000E+00  0.00000000000E+00  0.64930732323E+04  0.65000000000E+04  0.30000000000E+03 0. -1.
        -52   -1    0    0    0    0 -0.00000000000E+00 -0.00000000000E+00 -0.64930732323E+04  0.65000000000E+04  0.30000000000E+03 0.  1.
     100001    1    1    2    0    0 -0.56553340912E+03 -0.79253290103E+03 -0.64249057047E+04  0.65000000000E+04  0.15050000000E+03 0.  1.
     100001    1    1    2    0    0  0.56553340912E+03  0.79253290103E+03  0.64249057047E+04  0.65000000000E+04  0.15050000000E+03 0. -1.
</event>
<event>
 4    1  0.4630618E-004  0.6500000E+04  0.7818608E-02  0.7223770E-01
         52   -1    0    0    0    0  0.00000000000E+00  0.00000000000E+00  0.64930732323E+04  0.65000000000E+04  0.30000000000E+03 0. -1.
        -52   -1    0    0    0    0 -0.00000000000E+00 -0.00000000000E+00 -0.64930732323E+04  0.65000000000E+04  0.30000000000E+03 0.  1.
     100001    1    1    2    0    0  0.58640085883E+03 -0.19946145699E+04 -0.61567033793E+04  0.65000000000E+04  0.15050000000E+03 0.  1.
     100001    1    1    2    0    0 -0.58640085883E+03  0.19946145699E+04  0.61567033793E+04  0.65000000000E+04  0.15050000000E+03 0. -1.
</event>
<event>
 4    1  0.4630618E-004  0.6500000E+04  0.7818608E-02  0.7223770E-01
         52   -1    0    0    0    0  0.00000000000E+00  0.00000000000E+00  0.64930732323E+04  0.65000000000E+04  0.30000000000E+03 0.  1.
        -52   -1    0    0    0    0 -0.00000000000E+00 -0.00000000000E+00 -0.64930732323E+04  0.65000000000E+04  0.30000000000E+03 0. -1.
     100001    1    1    2    0    0 -0.52059376196E+03 -0.14576187349E+04 -0.63112343887E+04  0.65000000000E+04  0.15050000000E+03 0. -1.
     100001    1    1    2    0    0  0.52059376196E+03  0.14576187349E+04  0.63112343887E+04  0.65000000000E+04  0.15050000000E+03 0.  1.
</event>
<event>
 4    1  0.4630618E-004  0.6500000E+04  0.7818608E-02  0.7223770E-01
         52   -1    0    0    0    0  0.00000000000E+00  0.00000000000E+00  0.64930732323E+04  0.65000000000E+04  0.30000000000E+03 0.  1.
        -52   -1    0    0    0    0 -0.00000000000E+00 -0.00000000000E+00 -0.64930732323E+04  0.65000000000E+04  0.30000000000E+03 0. -1.
     100001    1    1    2    0    0 -0.75076946796E+03 -0.48110033542E+04  0.43032478063E+04  0.65000000000E+04  0.15050000000E+03 0.  1.
     100001    1    1    2    0    0  0.75076946796E+03  0.48110033542E+04 -0.43032478063E+04  0.65000000000E+04  0.15050000000E+03 0. -1.
</event>
<event>
 4    1  0.4630618E-004  0.6500000E+04  0.7818608E-02  0.7223770E-01
         52   -1    0    0    0    0  0.00000000000E+00  0.00000000000E+00  0.64930732323E+04  0.65000000000E+04  0.30000000000E+03 0.  1.
        -52   -1    0    0    0    0 -0.00000000000E+00 -0.00000000000E+00 -0.64930732323E+04  0.65000000000E+04  0.30000000000E+03 0. -1.
     100001    1    1    2    0    0 -0.16244968508E+04 -0.17888270472E+04  0.60322846026E+04  0.65000000000E+04  0.15050000000E+03 0.  1.
     100001    1    1    2    0    0  0.16244968508E+04  0.17888270472E+04 -0.60322846026E+04  0.65000000000E+04  0.15050000000E+03 0. -1.
</event>
<event>
 4    1  0.5058985E-004  0.6500000E+04  0.7818608E-02  0.7223770E-01
         52   -1    0    0    0    0  0.00000000000E+00  0.00000000000E+00  0.64930732323E+04  0.65000000000E+04  0.30000000000E+03 0. -1.
        -52   -1    0    0    0    0 -0.00000000000E+00 -0.00000000000E+00 -0.64930732323E+04  0.65000000000E+04  0.30000000000E+03 0. -1.
     100001    1    1    2    0    0 -0.98598186089E+02 -0.22105063109E+03  0.64937481293E+04  0.65000000000E+04  0.15050000000E+03 0. -1.
     100001    1    1    2    0    0  0.98598186089E+02  0.22105063109E+03 -0.64937481293E+04  0.65000000000E+04  0.15050000000E+03 0. -1.
</event>
<event>
 4    1  0.4630618E-004  0.6500000E+04  0.7818608E-02  0.7223770E-01
         52   -1    0    0    0    0  0.00000000000E+00  0.00000000000E+00  0.64930732323E+04  0.65000000000E+04  0.30000000000E+03 0. -1.
        -52   -1    0    0    0    0 -0.00000000000E+00 -0.00000000000E+00 -0.64930732323E+04  0.65000000000E+04  0.30000000000E+03 0.  1.
     100001    1    1    2    0    0  0.53110953763E+04 -0.91368590398E+03  0.36310871268E+04  0.65000000000E+04  0.15050000000E+03 0. -1.
     100001    1    1    2    0    0 -0.53110953763E+04  0.91368590398E+03 -0.36310871268E+04  0.65000000000E+04  0.15050000000E+03 0.  1.
</event>
<event>
 4    1  0.4630618E-004  0.6500000E+04  0.7818608E-02  0.7223770E-01
         52   -1    0    0    0    0  0.00000000000E+00  0.00000000000E+00  0.64930732323E+04  0.65000000000E+04  0.30000000000E+03 0.  1.
        -52   -1    0    0    0    0 -0.00000000000E+00 -0.00000000000E+00 -0.64930732323E+04  0.65000000000E+04  0.30000000000E+03 0. -1.
     100001    1    1    2    0    0  0.12129803987E+04 -0.32547601171E+03 -0.63757425974E+04  0.65000000000E+04  0.15050000000E+03 0. -1.
     100001    1    1    2    0    0 -0.12129803987E+04  0.32547601171E+03  0.63757425974E+04  0.65000000000E+04  0.15050000000E+03 0.  1.
</event>
<event>
 4    1  0.4630618E-004  0.6500000E+04  0.7818608E-02  0.7223770E-01
         52   -1    0    0    0    0  0.00000000000E+00  0.00000000000E+00  0.64930732323E+04  0.65000000000E+04  0.30000000000E+03 0.  1.
        -52   -1    0    0    0    0 -0.00000000000E+00 -0.00000000000E+00 -0.64930732323E+04  0.65000000000E+04  0.30000000000E+03 0. -1.
     100001    1    1    2    0    0 -0.14676493836E+04 -0.69725471011E+03  0.62918352574E+04  0.65000000000E+04  0.15050000000E+03 0.  1.
     100001    1    1    2    0    0  0.14676493836E+04  0.69725471011E+03 -0.62918352574E+04  0.65000000000E+04  0.15050000000E+03 0. -1.
</event>
<event>
 4    1  0.7293241E-004  0.6500000E+04  0.7818608E-02  0.7223770E-01
         52   -1    0    0    0    0  0.00000000000E+00  0.00000000000E+00  0.64930732323E+04  0.65000000000E+04  0.30000000000E+03 0. -1.
        -52   -1    0    0    0    0 -0.00000000000E+00 -0.00000000000E+00 -0.64930732323E+04  0.65000000000E+04  0.30000000000E+03 0. -1.
     100001    1    1    2    0    0 -0.24581440841E+01  0.24302080701E+02  0.64982115321E+04  0.65000000000E+04  0.15050000000E+03 0. -1.
     100001    1    1    2    0    0  0.24581440841E+01 -0.24302080701E+02 -0.64982115321E+04  0.65000000000E+04  0.15050000000E+03 0. -1.
</event>
<event>
 4    1  0.4630618E-004  0.6500000E+04  0.7818608E-02  0.7223770E-01
         52   -1    0    0    0    0  0.00000000000E+00  0.00000000000E+00  0.64930732323E+04  0.65000000000E+04  0.30000000000E+03 0. -1.
        -52   -1    0    0    0    0 -0.00000000000E+00 -0.00000000000E+00 -0.64930732323E+04  0.65000000000E+04  0.30000000000E+03 0.  1.
     100001    1    1    2    0    0  0.84979938953E+02  0.61496192626E+04  0.20981685072E+04  0.65000000000E+04  0.15050000000E+03 0. -1.
     100001    1    1    2    0    0 -0.84979938953E+02 -0.61496192626E+04 -0.20981685072E+04  0.65000000000E+04  0.15050000000E+03 0.  1.
</event>
<event>
 4    1  0.4630618E-004  0.6500000E+04  0.7818608E-02  0.7223770E-01
         52   -1    0    0    0    0  0.00000000000E+00  0.00000000000E+00  0.64930732323E+04  0.65000000000E+04  0.30000000000E+03 0.  1.
        -52   -1    0    0    0    0 -0.00000000000E+00 -0.00000000000E+00 -0.64930732323E+04  0.65000000000E+04  0.30000000000E+03 0. -1.
     100001    1    1    2    0    0 -0.60474455562E+03  0.13838697897E+04  0.63203273790E+04  0.65000000000E+04  0.15050000000E+03 0.  1.
     100001    1    1    2    0    0  0.60474455562E+03 -0.13838697897E+04 -0.63203273790E+04  0.65000000000E+04  0.15050000000E+03 0. -1.
</event>
<event>
 4    1  0.4630618E-004  0.6500000E+04  0.7818608E-02  0.7223770E-01
         52   -1    0    0    0    0  0.00000000000E+00  0.00000000000E+00  0.64930732323E+04  0.65000000000E+04  0.30000000000E+03 0.  1.
        -52   -1    0    0    0    0 -0.00000000000E+00 -0.00000000000E+00 -0.64930732323E+04  0.65000000000E+04  0.30000000000E+03 0. -1.
     100001    1    1    2    0    0 -0.17065525415E+03  0.39090281230E+03 -0.64842440982E+04  0.65000000000E+04  0.15050000000E+03 0. -1.
     100001    1    1    2    0    0  0.17065525415E+03 -0.39090281230E+03  0.64842440982E+04  0.65000000000E+04  0.15050000000E+03 0.  1.
</event>
<event>
 4    1  0.4630618E-004  0.6500000E+04  0.7818608E-02  0.7223770E-01
         52   -1    0    0    0    0  0.00000000000E+00  0.00000000000E+00  0.64930732323E+04  0.65000000000E+04  0.30000000000E+03 0.  1.
        -52   -1    0    0    0    0 -0.00000000000E+00 -0.00000000000E+00 -0.64930732323E+04  0.65000000000E+04  0.30000000000E+03 0. -1.
     100001    1    1    2    0    0 -0.25515272065E+04  0.11870387541E+04 -0.58573029340E+04  0.65000000000E+04  0.15050000000E+03 0. -1.
     100001    1    1    2    0    0  0.25515272065E+04 -0.11870387541E+04  0.58573029340E+04  0.65000000000E+04  0.15050000000E+03 0.  1.
</event>
<event>
 4    1  0.4630618E-004  0.6500000E+04  0.7818608E-02  0.7223770E-01
         52   -1    0    0    0    0  0.00000000000E+00  0.00000000000E+00  0.64930732323E+04  0.65000000000E+04  0.30000000000E+03 0. -1.
        -52   -1    0    0    0    0 -0.00000000000E+00 -0.00000000000E+00 -0.64930732323E+04  0.65000000000E+04  0.30000000000E+03 0. -1.
     100001    1    1    2    0    0 -0.14951378461E+03  0.38848323316E+03  0.64849114224E+04  0.65000000000E+04  0.15050000000E+03 0. -1.
     100001    1    1    2    0    0  0.14951378461E+03 -0.38848323316E+03 -0.64849114224E+04  0.65000000000E+04  0.15050000000E+03 0. -1.
</event>
<event>
 4    1  0.4630618E-004  0.6500000E+04  0.7818608E-02  0.7223770E-01
         52   -1    0    0    0    0  0.00000000000E+00  0.00000000000E+00  0.64930732323E+04  0.65000000000E+04  0.30000000000E+03 0.  1.
        -52   -1    0    0    0    0 -0.00000000000E+00 -0.00000000000E+00 -0.64930732323E+04  0.65000000000E+04  0.30000000000E+03 0.  1.
     100001    1    1    2    0    0 -0.20252468553E+03  0.29407453351E+03 -0.64884400028E+04  0.65000000000E+04  0.15050000000E+03 0.  1.
     100001    1    1    2    0    0  0.20252468553E+03 -0.29407453351E+03  0.64884400028E+04  0.65000000000E+04  0.15050000000E+03 0.  1.
</event>
<event>
 4    1  0.4630618E-004  0.6500000E+04  0.7818608E-02  0.7223770E-01
         52   -1    0    0    0    0  0.00000000000E+00  0.00000000000E+00  0.64930732323E+04  0.65000000000E+04  0.30000000000E+03 0. -1.
        -52   -1    0    0    0    0 -0.00000000000E+00 -0.00000000000E+00 -0.64930732323E+04  0.65000000000E+04  0.30000000000E+03 0.  1.
     100001    1    1    2    0    0 -0.12751755000E+04 -0.85328770821E+03 -0.63145211443E+04  0.65000000000E+04  0.15050000000E+03 0.  1.
     100001    1    1    2    0    0  0.12751755000E+04  0.85328770821E+03  0.63145211443E+04  0.65000000000E+04  0.15050000000E+03 0. -1.
</event>
<event>
 4    1  0.4630618E-004  0.6500000E+04  0.7818608E-02  0.7223770E-01
         52   -1    0    0    0    0  0.00000000000E+00  0.00000000000E+00  0.64930732323E+04  0.65000000000E+04  0.30000000000E+03 0.  1.
        -52   -1    0    0    0    0 -0.00000000000E+00 -0.00000000000E+00 -0.64930732323E+04  0.65000000000E+04  0.30000000000E+03 0. -1.
     100001    1    1    2    0    0 -0.51725938538E+04  0.30722166915E+04 -0.24562384196E+04  0.65000000000E+04  0.15050000000E+03 0. -1.
     100001    1    1    2    0    0  0.51725938538E+04 -0.30722166915E+04  0.24562384196E+04  0.65000000000E+04  0.15050000000E+03 0.  1.
</event>
<event>
 4    1  0.4630618E-004  0.6500000E+04  0.7818608E-02  0.7223770E-01
         52   -1    0    0    0    0  0.00000000000E+00  0.00000000000E+00  0.64930732323E+04  0.65000000000E+04  0.30000000000E+03 0. -1.
        -52   -1    0    0    0    0 -0.00000000000E+00 -0.00000000000E+00 -0.64930732323E+04  0.65000000000E+04  0.30000000000E+03 0.  1.
     100001    1    1    2    0    0 -0.22029760185E+02 -0.12482247804E+04 -0.63772093691E+04  0.65000000000E+04  0.15050000000E+03 0.  1.
     100001    1    1    2    0    0  0.22029760185E+02  0.12482247804E+04  0.63772093691E+04  0.65000000000E+04  0.15050000000E+03 0. -1.
</event>
<event>
 4    1  0.4630618E-004  0.6500000E+04  0.7818608E-02  0.7223770E-01
         52   -1    0    0    0    0  0.00000000000E+00  0.00000000000E+00  0.64930732323E+04  0.65000000000E+04  0.30000000000E+03 0. -1.
        -52   -1    0    0    0    0 -0.00000000000E+00 -0.00000000000E+00 -0.64930732323E+04  0.65000000000E+04  0.30000000000E+03 0.  1.
     100001    1    1    2    0    0  0.22171628632E+03 -0.85024280956E+03 -0.64385773897E+04  0.65000000000E+04  0.15050000000E+03 0.  1.
     100001    1    1    2    0    0 -0.22171628632E+03  0.85024280956E+03  0.64385773897E+04  0.65000000000E+04  0.15050000000E+03 0. -1.
</event>
<event>
 4    1  0.4630618E-004  0.6500000E+04  0.7818608E-02  0.7223770E-01
         52   -1    0    0    0    0  0.00000000000E+00  0.00000000000E+00  0.64930732323E+04  0.65000000000E+04  0.30000000000E+03 0. -1.
        -52   -1    0    0    0    0 -0.00000000000E+00 -0.00000000000E+00 -0.64930732323E+04  0.65000000000E+04  0.30000000000E+03 0.  1.
     100001    1    1    2    0    0 -0.27630207563E+04 -0.10573952257E+04 -0.57857567687E+04  0.65000000000E+04  0.15050000000E+03 0.  1.
     100001    1    1    2    0    0  0.27630207563E+04  0.10573952257E+04  0.57857567687E+04  0.65000000000E+04  0.15050000000E+03 0. -1.
</event>
<event>
 4    1  0.4630618E-004  0.6500000E+04  0.7818608E-02  0.7223770E-01
         52   -1    0    0    0    0  0.00000000000E+00  0.00000000000E+00  0.64930732323E+04  0.65000000000E+04  0.30000000000E+03 0.  1.
        -52   -1    0    0    0    0 -0.00000000000E+00 -0.00000000000E+00 -0.64930732323E+04  0.65000000000E+04  0.30000000000E+03 0. -1.
     100001    1    1    2    0    0  0.28396138073E+03  0.77133385089E+03 -0.64460654492E+04  0.65000000000E+04  0.15050000000E+03 0. -1.
     100001    1    1    2    0    0 -0.28396138073E+03 -0.77133385089E+03  0.64460654492E+04  0.65000000000E+04  0.15050000000E+03 0.  1.
</event>
<event>
 4    1  0.4630618E-004  0.6500000E+04  0.7818608E-02  0.7223770E-01
         52   -1    0    0    0    0  0.00000000000E+00  0.00000000000E+00  0.64930732323E+04  0.65000000000E+04  0.30000000000E+03 0.  1.
        -52   -1    0    0    0    0 -0.00000000000E+00 -0.00000000000E+00 -0.64930732323E+04  0.65000000000E+04  0.30000000000E+03 0. -1.
     100001    1    1    2    0    0 -0.14127170991E+04 -0.52730232972E+03 -0.63208806666E+04  0.65000000000E+04  0.15050000000E+03 0. -1.
     100001    1    1    2    0    0  0.14127170991E+04  0.52730232972E+03  0.63208806666E+04  0.65000000000E+04  0.15050000000E+03 0.  1.
</event>
<event>
 4    1  0.4630618E-004  0.6500000E+04  0.7818608E-02  0.7223770E-01
         52   -1    0    0    0    0  0.00000000000E+00  0.00000000000E+00  0.64930732323E+04  0.65000000000E+04  0.30000000000E+03 0.  1.
        -52   -1    0    0    0    0 -0.00000000000E+00 -0.00000000000E+00 -0.64930732323E+04  0.65000000000E+04  0.30000000000E+03 0.  1.
     100001    1    1    2    0    0 -0.25107338936E+03  0.10938547767E+03 -0.64924838637E+04  0.65000000000E+04  0.15050000000E+03 0.  1.
     100001    1    1    2    0    0  0.25107338936E+03 -0.10938547767E+03  0.64924838637E+04  0.65000000000E+04  0.15050000000E+03 0.  1.
</event>
<event>
 4    1  0.4630618E-004  0.6500000E+04  0.7818608E-02  0.7223770E-01
         52   -1    0    0    0    0  0.00000000000E+00  0.00000000000E+00  0.64930732323E+04  0.65000000000E+04  0.30000000000E+03 0.  1.
        -52   -1    0    0    0    0 -0.00000000000E+00 -0.00000000000E+00 -0.64930732323E+04  0.65000000000E+04  0.30000000000E+03 0. -1.
     100001    1    1    2    0    0 -0.86282858692E+03 -0.18257107927E+04 -0.61765408346E+04  0.65000000000E+04  0.15050000000E+03 0. -1.
     100001    1    1    2    0    0  0.86282858692E+03  0.18257107927E+04  0.61765408346E+04  0.65000000000E+04  0.15050000000E+03 0.  1.
</event>
<event>
 4    1  0.4630618E-004  0.6500000E+04  0.7818608E-02  0.7223770E-01
         52   -1    0    0    0    0  0.00000000000E+00  0.00000000000E+00  0.64930732323E+04  0.65000000000E+04  0.30000000000E+03 0. -1.
        -52   -1    0    0    0    0 -0.00000000000E+00 -0.00000000000E+00 -0.64930732323E+04  0.65000000000E+04  0.30000000000E+03 0.  1.
     100001    1    1    2    0    0 -0.21559528271E+03 -0.11387435361E+04  0.63940700327E+04  0.65000000000E+04  0.15050000000E+03 0. -1.
     100001    1    1    2    0    0  0.21559528271E+03  0.11387435361E+04 -0.63940700327E+04  0.65000000000E+04  0.15050000000E+03 0.  1.
</event>
<event>
 4    1  0.4630618E-004  0.6500000E+04  0.7818608E-02  0.7223770E-01
         52   -1    0    0    0    0  0.00000000000E+00  0.00000000000E+00  0.64930732323E+04  0.65000000000E+04  0.30000000000E+03 0.  1.
        -52   -1    0    0    0    0 -0.00000000000E+00 -0.00000000000E+00 -0.64930732323E+04  0.65000000000E+04  0.30000000000E+03 0. -1.
     100001    1    1    2    0    0  0.23891822221E+04  0.74418165986E+03 -0.59971119480E+04  0.65000000000E+04  0.15050000000E+03 0. -1.
     100001    1    1    2    0    0 -0.23891822221E+04 -0.74418165986E+03  0.59971119480E+04  0.65000000000E+04  0.15050000000E+03 0.  1.
</event>
<event>
 4    1  0.4630618E-004  0.6500000E+04  0.7818608E-02  0.7223770E-01
         52   -1    0    0    0    0  0.00000000000E+00  0.00000000000E+00  0.64930732323E+04  0.65000000000E+04  0.30000000000E+03 0. -1.
        -52   -1    0    0    0    0 -0.00000000000E+00 -0.00000000000E+00 -0.64930732323E+04  0.65000000000E+04  0.30000000000E+03 0.  1.
     100001    1    1    2    0    0  0.35397698299E+04  0.24198075585E+03  0.54441550874E+04  0.65000000000E+04  0.15050000000E+03 0. -1.
     100001    1    1    2    0    0 -0.35397698299E+04 -0.24198075585E+03 -0.54441550874E+04  0.65000000000E+04  0.15050000000E+03 0.  1.
</event>
<event>
 4    1  0.4630618E-004  0.6500000E+04  0.7818608E-02  0.7223770E-01
         52   -1    0    0    0    0  0.00000000000E+00  0.00000000000E+00  0.64930732323E+04  0.65000000000E+04  0.30000000000E+03 0. -1.
        -52   -1    0    0    0    0 -0.00000000000E+00 -0.00000000000E+00 -0.64930732323E+04  0.65000000000E+04  0.30000000000E+03 0.  1.
     100001    1    1    2    0    0  0.45042827754E+04  0.31850719852E+04 -0.34342543409E+04  0.65000000000E+04  0.15050000000E+03 0.  1.
     100001    1    1    2    0    0 -0.45042827754E+04 -0.31850719852E+04  0.34342543409E+04  0.65000000000E+04  0.15050000000E+03 0. -1.
</event>
<event>
 4    1  0.4630618E-004  0.6500000E+04  0.7818608E-02  0.7223770E-01
         52   -1    0    0    0    0  0.00000000000E+00  0.00000000000E+00  0.64930732323E+04  0.65000000000E+04  0.30000000000E+03 0. -1.
        -52   -1    0    0    0    0 -0.00000000000E+00 -0.00000000000E+00 -0.64930732323E+04  0.65000000000E+04  0.30000000000E+03 0.  1.
     100001    1    1    2    0    0  0.45494872598E+01 -0.12812442137E+04 -0.63706940216E+04  0.65000000000E+04  0.15050000000E+03 0.  1.
     100001    1    1    2    0    0 -0.45494872598E+01  0.12812442137E+04  0.63706940216E+04  0.65000000000E+04  0.15050000000E+03 0. -1.
</event>
<event>
 4    1  0.4630618E-004  0.6500000E+04  0.7818608E-02  0.7223770E-01
         52   -1    0    0    0    0  0.00000000000E+00  0.00000000000E+00  0.64930732323E+04  0.65000000000E+04  0.30000000000E+03 0. -1.
        -52   -1    0    0    0    0 -0.00000000000E+00 -0.00000000000E+00 -0.64930732323E+04  0.65000000000E+04  0.30000000000E+03 0.  1.
     100001    1    1    2    0    0  0.26111852419E+04  0.41529317151E+04 -0.42617155645E+04  0.65000000000E+04  0.15050000000E+03 0.  1.
     100001    1    1    2    0    0 -0.26111852419E+04 -0.41529317151E+04  0.42617155645E+04  0.65000000000E+04  0.15050000000E+03 0. -1.
</event>
<event>
 4    1  0.4630618E-004  0.6500000E+04  0.7818608E-02  0.7223770E-01
         52   -1    0    0    0    0  0.00000000000E+00  0.00000000000E+00  0.64930732323E+04  0.65000000000E+04  0.30000000000E+03 0.  1.
        -52   -1    0    0    0    0 -0.00000000000E+00 -0.00000000000E+00 -0.64930732323E+04  0.65000000000E+04  0.30000000000E+03 0. -1.
     100001    1    1    2    0    0 -0.92823598698E+03  0.12999406296E+04  0.62988794291E+04  0.65000000000E+04  0.15050000000E+03 0.  1.
     100001    1    1    2    0    0  0.92823598698E+03 -0.12999406296E+04 -0.62988794291E+04  0.65000000000E+04  0.15050000000E+03 0. -1.
</event>
<event>
 4    1  0.4630618E-004  0.6500000E+04  0.7818608E-02  0.7223770E-01
         52   -1    0    0    0    0  0.00000000000E+00  0.00000000000E+00  0.64930732323E+04  0.65000000000E+04  0.30000000000E+03 0.  1.
        -52   -1    0    0    0    0 -0.00000000000E+00 -0.00000000000E+00 -0.64930732323E+04  0.65000000000E+04  0.30000000000E+03 0. -1.
     100001    1    1    2    0    0 -0.24109786303E+03  0.14676299730E+04  0.63257634980E+04  0.65000000000E+04  0.15050000000E+03 0.  1.
     100001    1    1    2    0    0  0.24109786303E+03 -0.14676299730E+04 -0.63257634980E+04  0.65000000000E+04  0.15050000000E+03 0. -1.
</event>
<event>
 4    1  0.4630618E-004  0.6500000E+04  0.7818608E-02  0.7223770E-01
         52   -1    0    0    0    0  0.00000000000E+00  0.00000000000E+00  0.64930732323E+04  0.65000000000E+04  0.30000000000E+03 0. -1.
        -52   -1    0    0    0    0 -0.00000000000E+00 -0.00000000000E+00 -0.64930732323E+04  0.65000000000E+04  0.30000000000E+03 0.  1.
     100001    1    1    2    0    0 -0.78751257441E+03  0.19399407708E+04 -0.61517317481E+04  0.65000000000E+04  0.15050000000E+03 0.  1.
     100001    1    1    2    0    0  0.78751257441E+03 -0.19399407708E+04  0.61517317481E+04  0.65000000000E+04  0.15050000000E+03 0. -1.
</event>
<event>
 4    1  0.4630618E-004  0.6500000E+04  0.7818608E-02  0.7223770E-01
         52   -1    0    0    0    0  0.00000000000E+00  0.00000000000E+00  0.64930732323E+04  0.65000000000E+04  0.30000000000E+03 0.  1.
        -52   -1    0    0    0    0 -0.00000000000E+00 -0.00000000000E+00 -0.64930732323E+04  0.65000000000E+04  0.30000000000E+03 0. -1.
     100001    1    1    2    0    0  0.19915085617E+03 -0.26077318148E+03  0.64899681073E+04  0.65000000000E+04  0.15050000000E+03 0.  1.
     100001    1    1    2    0    0 -0.19915085617E+03  0.26077318148E+03 -0.64899681073E+04  0.65000000000E+04  0.15050000000E+03 0. -1.
</event>
<event>
 4    1  0.4630618E-004  0.6500000E+04  0.7818608E-02  0.7223770E-01
         52   -1    0    0    0    0  0.00000000000E+00  0.00000000000E+00  0.64930732323E+04  0.65000000000E+04  0.30000000000E+03 0. -1.
        -52   -1    0    0    0    0 -0.00000000000E+00 -0.00000000000E+00 -0.64930732323E+04  0.65000000000E+04  0.30000000000E+03 0.  1.
     100001    1    1    2    0    0  0.53024132669E+04  0.79701740311E+03  0.36710388933E+04  0.65000000000E+04  0.15050000000E+03 0. -1.
     100001    1    1    2    0    0 -0.53024132669E+04 -0.79701740311E+03 -0.36710388933E+04  0.65000000000E+04  0.15050000000E+03 0.  1.
</event>
<event>
 4    1  0.5876255E-004  0.6500000E+04  0.7818608E-02  0.7223770E-01
         52   -1    0    0    0    0  0.00000000000E+00  0.00000000000E+00  0.64930732323E+04  0.65000000000E+04  0.30000000000E+03 0. -1.
        -52   -1    0    0    0    0 -0.00000000000E+00 -0.00000000000E+00 -0.64930732323E+04  0.65000000000E+04  0.30000000000E+03 0.  1.
     100001    1    1    2    0    0  0.69226196644E+02  0.16742979776E+03 -0.64957312711E+04  0.65000000000E+04  0.15050000000E+03 0.  1.
     100001    1    1    2    0    0 -0.69226196644E+02 -0.16742979776E+03  0.64957312711E+04  0.65000000000E+04  0.15050000000E+03 0. -1.
</event>
<event>
 4    1  0.4630618E-004  0.6500000E+04  0.7818608E-02  0.7223770E-01
         52   -1    0    0    0    0  0.00000000000E+00  0.00000000000E+00  0.64930732323E+04  0.65000000000E+04  0.30000000000E+03 0. -1.
        -52   -1    0    0    0    0 -0.00000000000E+00 -0.00000000000E+00 -0.64930732323E+04  0.65000000000E+04  0.30000000000E+03 0.  1.
     100001    1    1    2    0    0 -0.60712522129E+04  0.23164579244E+04  0.35623056637E+02  0.65000000000E+04  0.15050000000E+03 0.  1.
     100001    1    1    2    0    0  0.60712522129E+04 -0.23164579244E+04 -0.35623056637E+02  0.65000000000E+04  0.15050000000E+03 0. -1.
</event>
<event>
 4    1  0.4630618E-004  0.6500000E+04  0.7818608E-02  0.7223770E-01
         52   -1    0    0    0    0  0.00000000000E+00  0.00000000000E+00  0.64930732323E+04  0.65000000000E+04  0.30000000000E+03 0. -1.
        -52   -1    0    0    0    0 -0.00000000000E+00 -0.00000000000E+00 -0.64930732323E+04  0.65000000000E+04  0.30000000000E+03 0.  1.
     100001    1    1    2    0    0 -0.24491356380E+04  0.27974204834E+04 -0.53294955686E+04  0.65000000000E+04  0.15050000000E+03 0.  1.
     100001    1    1    2    0    0  0.24491356380E+04 -0.27974204834E+04  0.53294955686E+04  0.65000000000E+04  0.15050000000E+03 0. -1.
</event>
<event>
 4    1  0.4630618E-004  0.6500000E+04  0.7818608E-02  0.7223770E-01
         52   -1    0    0    0    0  0.00000000000E+00  0.00000000000E+00  0.64930732323E+04  0.65000000000E+04  0.30000000000E+03 0.  1.
        -52   -1    0    0    0    0 -0.00000000000E+00 -0.00000000000E+00 -0.64930732323E+04  0.65000000000E+04  0.30000000000E+03 0. -1.
     100001    1    1    2    0    0 -0.13373664976E+04 -0.15457139567E+03 -0.63572720789E+04  0.65000000000E+04  0.15050000000E+03 0. -1.
     100001    1    1    2    0    0  0.13373664976E+04  0.15457139567E+03  0.63572720789E+04  0.65000000000E+04  0.15050000000E+03 0.  1.
</event>
<event>
 4    1  0.4630618E-004  0.6500000E+04  0.7818608E-02  0.7223770E-01
         52   -1    0    0    0    0  0.00000000000E+00  0.00000000000E+00  0.64930732323E+04  0.65000000000E+04  0.30000000000E+03 0. -1.
        -52   -1    0    0    0    0 -0.00000000000E+00 -0.00000000000E+00 -0.64930732323E+04  0.65000000000E+04  0.30000000000E+03 0. -1.
     100001    1    1    2    0    0  0.27582978213E+03 -0.20057200804E+03 -0.64893018539E+04  0.65000000000E+04  0.15050000000E+03 0. -1.
     100001    1    1    2    0    0 -0.27582978213E+03  0.20057200804E+03  0.64893018539E+04  0.65000000000E+04  0.15050000000E+03 0. -1.
</event>
<event>
 4    1  0.4630618E-004  0.6500000E+04  0.7818608E-02  0.7223770E-01
         52   -1    0    0    0    0  0.00000000000E+00  0.00000000000E+00  0.64930732323E+04  0.65000000000E+04  0.30000000000E+03 0. -1.
        -52   -1    0    0    0    0 -0.00000000000E+00 -0.00000000000E+00 -0.64930732323E+04  0.65000000000E+04  0.30000000000E+03 0.  1.
     100001    1    1    2    0    0  0.74899554428E+03  0.10900575295E+04  0.63622425297E+04  0.65000000000E+04  0.15050000000E+03 0. -1.
     100001    1    1    2    0    0 -0.74899554428E+03 -0.10900575295E+04 -0.63622425297E+04  0.65000000000E+04  0.15050000000E+03 0.  1.
</event>
<event>
 4    1  0.4630618E-004  0.6500000E+04  0.7818608E-02  0.7223770E-01
         52   -1    0    0    0    0  0.00000000000E+00  0.00000000000E+00  0.64930732323E+04  0.65000000000E+04  0.30000000000E+03 0. -1.
        -52   -1    0    0    0    0 -0.00000000000E+00 -0.00000000000E+00 -0.64930732323E+04  0.65000000000E+04  0.30000000000E+03 0.  1.
     100001    1    1    2    0    0 -0.56965422055E+04 -0.24523685436E+04 -0.19397538961E+04  0.65000000000E+04  0.15050000000E+03 0.  1.
     100001    1    1    2    0    0  0.56965422055E+04  0.24523685436E+04  0.19397538961E+04  0.65000000000E+04  0.15050000000E+03 0. -1.
</event>
<event>
 4    1  0.4630618E-004  0.6500000E+04  0.7818608E-02  0.7223770E-01
         52   -1    0    0    0    0  0.00000000000E+00  0.00000000000E+00  0.64930732323E+04  0.65000000000E+04  0.30000000000E+03 0.  1.
        -52   -1    0    0    0    0 -0.00000000000E+00 -0.00000000000E+00 -0.64930732323E+04  0.65000000000E+04  0.30000000000E+03 0. -1.
     100001    1    1    2    0    0 -0.80268324866E+03 -0.68224966841E+03 -0.64122994894E+04  0.65000000000E+04  0.15050000000E+03 0. -1.
     100001    1    1    2    0    0  0.80268324866E+03  0.68224966841E+03  0.64122994894E+04  0.65000000000E+04  0.15050000000E+03 0.  1.
</event>
<event>
 4    1  0.4630618E-004  0.6500000E+04  0.7818608E-02  0.7223770E-01
         52   -1    0    0    0    0  0.00000000000E+00  0.00000000000E+00  0.64930732323E+04  0.65000000000E+04  0.30000000000E+03 0. -1.
        -52   -1    0    0    0    0 -0.00000000000E+00 -0.00000000000E+00 -0.64930732323E+04  0.65000000000E+04  0.30000000000E+03 0. -1.
     100001    1    1    2    0    0 -0.30744890503E+03  0.32306183939E+03 -0.64829357523E+04  0.65000000000E+04  0.15050000000E+03 0. -1.
     100001    1    1    2    0    0  0.30744890503E+03 -0.32306183939E+03  0.64829357523E+04  0.65000000000E+04  0.15050000000E+03 0. -1.
</event>
<event>
 4    1  0.4630618E-004  0.6500000E+04  0.7818608E-02  0.7223770E-01
         52   -1    0    0    0    0  0.00000000000E+00  0.00000000000E+00  0.64930732323E+04  0.65000000000E+04  0.30000000000E+03 0.  1.
        -52   -1    0    0    0    0 -0.00000000000E+00 -0.00000000000E+00 -0.64930732323E+04  0.65000000000E+04  0.30000000000E+03 0. -1.
     100001    1    1    2    0    0 -0.29116758814E+04 -0.30135420528E+04  0.49666948374E+04  0.65000000000E+04  0.15050000000E+03 0.  1.
     100001    1    1    2    0    0  0.29116758814E+04  0.30135420528E+04 -0.49666948374E+04  0.65000000000E+04  0.15050000000E+03 0. -1.
</event>
<event>
 4    1  0.4630618E-004  0.6500000E+04  0.7818608E-02  0.7223770E-01
         52   -1    0    0    0    0  0.00000000000E+00  0.00000000000E+00  0.64930732323E+04  0.65000000000E+04  0.30000000000E+03 0.  1.
        -52   -1    0    0    0    0 -0.00000000000E+00 -0.00000000000E+00 -0.64930732323E+04  0.65000000000E+04  0.30000000000E+03 0. -1.
     100001    1    1    2    0    0 -0.44369244205E+03  0.46022575475E+03 -0.64667363501E+04  0.65000000000E+04  0.15050000000E+03 0. -1.
     100001    1    1    2    0    0  0.44369244205E+03 -0.46022575475E+03  0.64667363501E+04  0.65000000000E+04  0.15050000000E+03 0.  1.
</event>
<event>
 4    1  0.4630618E-004  0.6500000E+04  0.7818608E-02  0.7223770E-01
         52   -1    0    0    0    0  0.00000000000E+00  0.00000000000E+00  0.64930732323E+04  0.65000000000E+04  0.30000000000E+03 0.  1.
        -52   -1    0    0    0    0 -0.00000000000E+00 -0.00000000000E+00 -0.64930732323E+04  0.65000000000E+04  0.30000000000E+03 0. -1.
     100001    1    1    2    0    0  0.13986270657E+04  0.10528625839E+04  0.62580086658E+04  0.65000000000E+04  0.15050000000E+03 0.  1.
     100001    1    1    2    0    0 -0.13986270657E+04 -0.10528625839E+04 -0.62580086658E+04  0.65000000000E+04  0.15050000000E+03 0. -1.
</event>
<event>
 4    1  0.4630618E-004  0.6500000E+04  0.7818608E-02  0.7223770E-01
         52   -1    0    0    0    0  0.00000000000E+00  0.00000000000E+00  0.64930732323E+04  0.65000000000E+04  0.30000000000E+03 0.  1.
        -52   -1    0    0    0    0 -0.00000000000E+00 -0.00000000000E+00 -0.64930732323E+04  0.65000000000E+04  0.30000000000E+03 0. -1.
     100001    1    1    2    0    0 -0.29635641881E+04  0.54951838085E+04  0.18021076450E+04  0.65000000000E+04  0.15050000000E+03 0. -1.
     100001    1    1    2    0    0  0.29635641881E+04 -0.54951838085E+04 -0.18021076450E+04  0.65000000000E+04  0.15050000000E+03 0.  1.
</event>
<event>
 4    1  0.4630618E-004  0.6500000E+04  0.7818608E-02  0.7223770E-01
         52   -1    0    0    0    0  0.00000000000E+00  0.00000000000E+00  0.64930732323E+04  0.65000000000E+04  0.30000000000E+03 0. -1.
        -52   -1    0    0    0    0 -0.00000000000E+00 -0.00000000000E+00 -0.64930732323E+04  0.65000000000E+04  0.30000000000E+03 0.  1.
     100001    1    1    2    0    0  0.39563266445E+03  0.22662124457E+03 -0.64822424636E+04  0.65000000000E+04  0.15050000000E+03 0.  1.
     100001    1    1    2    0    0 -0.39563266445E+03 -0.22662124457E+03  0.64822424636E+04  0.65000000000E+04  0.15050000000E+03 0. -1.
</event>
<event>
 4    1  0.4630618E-004  0.6500000E+04  0.7818608E-02  0.7223770E-01
         52   -1    0    0    0    0  0.00000000000E+00  0.00000000000E+00  0.64930732323E+04  0.65000000000E+04  0.30000000000E+03 0.  1.
        -52   -1    0    0    0    0 -0.00000000000E+00 -0.00000000000E+00 -0.64930732323E+04  0.65000000000E+04  0.30000000000E+03 0. -1.
     100001    1    1    2    0    0  0.41771641741E+04  0.92220224115E+03  0.48916451464E+04  0.65000000000E+04  0.15050000000E+03 0.  1.
     100001    1    1    2    0    0 -0.41771641741E+04 -0.92220224115E+03 -0.48916451464E+04  0.65000000000E+04  0.15050000000E+03 0. -1.
</event>
<event>
 4    1  0.4630618E-004  0.6500000E+04  0.7818608E-02  0.7223770E-01
         52   -1    0    0    0    0  0.00000000000E+00  0.00000000000E+00  0.64930732323E+04  0.65000000000E+04  0.30000000000E+03 0.  1.
        -52   -1    0    0    0    0 -0.00000000000E+00 -0.00000000000E+00 -0.64930732323E+04  0.65000000000E+04  0.30000000000E+03 0. -1.
     100001    1    1    2    0    0 -0.45022455060E+04 -0.25084758542E+04  0.39578635705E+04  0.65000000000E+04  0.15050000000E+03 0.  1.
     100001    1    1    2    0    0  0.45022455060E+04  0.25084758542E+04 -0.39578635705E+04  0.65000000000E+04  0.15050000000E+03 0. -1.
</event>
<event>
 4    1  0.4630618E-004  0.6500000E+04  0.7818608E-02  0.7223770E-01
         52   -1    0    0    0    0  0.00000000000E+00  0.00000000000E+00  0.64930732323E+04  0.65000000000E+04  0.30000000000E+03 0. -1.
        -52   -1    0    0    0    0 -0.00000000000E+00 -0.00000000000E+00 -0.64930732323E+04  0.65000000000E+04  0.30000000000E+03 0. -1.
     100001    1    1    2    0    0 -0.25596005290E+03 -0.13613130362E+03  0.64917873093E+04  0.65000000000E+04  0.15050000000E+03 0. -1.
     100001    1    1    2    0    0  0.25596005290E+03  0.13613130362E+03 -0.64917873093E+04  0.65000000000E+04  0.15050000000E+03 0. -1.
</event>
<event>
 4    1  0.4630618E-004  0.6500000E+04  0.7818608E-02  0.7223770E-01
         52   -1    0    0    0    0  0.00000000000E+00  0.00000000000E+00  0.64930732323E+04  0.65000000000E+04  0.30000000000E+03 0.  1.
        -52   -1    0    0    0    0 -0.00000000000E+00 -0.00000000000E+00 -0.64930732323E+04  0.65000000000E+04  0.30000000000E+03 0. -1.
     100001    1    1    2    0    0  0.83948995103E+03  0.46179660324E+04  0.44941068185E+04  0.65000000000E+04  0.15050000000E+03 0.  1.
     100001    1    1    2    0    0 -0.83948995103E+03 -0.46179660324E+04 -0.44941068185E+04  0.65000000000E+04  0.15050000000E+03 0. -1.
</event>
<event>
 4    1  0.4630618E-004  0.6500000E+04  0.7818608E-02  0.7223770E-01
         52   -1    0    0    0    0  0.00000000000E+00  0.00000000000E+00  0.64930732323E+04  0.65000000000E+04  0.30000000000E+03 0. -1.
        -52   -1    0    0    0    0 -0.00000000000E+00 -0.00000000000E+00 -0.64930732323E+04  0.65000000000E+04  0.30000000000E+03 0.  1.
     100001    1    1    2    0    0  0.38685725250E+03 -0.41944430386E+04 -0.49481651965E+04  0.65000000000E+04  0.15050000000E+03 0.  1.
     100001    1    1    2    0    0 -0.38685725250E+03  0.41944430386E+04  0.49481651965E+04  0.65000000000E+04  0.15050000000E+03 0. -1.
</event>
<event>
 4    1  0.4630618E-004  0.6500000E+04  0.7818608E-02  0.7223770E-01
         52   -1    0    0    0    0  0.00000000000E+00  0.00000000000E+00  0.64930732323E+04  0.65000000000E+04  0.30000000000E+03 0.  1.
        -52   -1    0    0    0    0 -0.00000000000E+00 -0.00000000000E+00 -0.64930732323E+04  0.65000000000E+04  0.30000000000E+03 0. -1.
     100001    1    1    2    0    0 -0.13999880098E+04 -0.62310609808E+04  0.12005258748E+04  0.65000000000E+04  0.15050000000E+03 0. -1.
     100001    1    1    2    0    0  0.13999880098E+04  0.62310609808E+04 -0.12005258748E+04  0.65000000000E+04  0.15050000000E+03 0.  1.
</event>
<event>
 4    1  0.4630618E-004  0.6500000E+04  0.7818608E-02  0.7223770E-01
         52   -1    0    0    0    0  0.00000000000E+00  0.00000000000E+00  0.64930732323E+04  0.65000000000E+04  0.30000000000E+03 0. -1.
        -52   -1    0    0    0    0 -0.00000000000E+00 -0.00000000000E+00 -0.64930732323E+04  0.65000000000E+04  0.30000000000E+03 0.  1.
     100001    1    1    2    0    0 -0.44965835819E+04  0.12609376180E+04  0.45186416282E+04  0.65000000000E+04  0.15050000000E+03 0. -1.
     100001    1    1    2    0    0  0.44965835819E+04 -0.12609376180E+04 -0.45186416282E+04  0.65000000000E+04  0.15050000000E+03 0.  1.
</event>
<event>
 4    1  0.4630618E-004  0.6500000E+04  0.7818608E-02  0.7223770E-01
         52   -1    0    0    0    0  0.00000000000E+00  0.00000000000E+00  0.64930732323E+04  0.65000000000E+04  0.30000000000E+03 0.  1.
        -52   -1    0    0    0    0 -0.00000000000E+00 -0.00000000000E+00 -0.64930732323E+04  0.65000000000E+04  0.30000000000E+03 0.  1.
     100001    1    1    2    0    0  0.12473513997E+04 -0.25498121455E+03  0.63723189512E+04  0.65000000000E+04  0.15050000000E+03 0.  1.
     100001    1    1    2    0    0 -0.12473513997E+04  0.25498121455E+03 -0.63723189512E+04  0.65000000000E+04  0.15050000000E+03 0.  1.
</event>
<event>
 4    1  0.4630618E-004  0.6500000E+04  0.7818608E-02  0.7223770E-01
         52   -1    0    0    0    0  0.00000000000E+00  0.00000000000E+00  0.64930732323E+04  0.65000000000E+04  0.30000000000E+03 0.  1.
        -52   -1    0    0    0    0 -0.00000000000E+00 -0.00000000000E+00 -0.64930732323E+04  0.65000000000E+04  0.30000000000E+03 0. -1.
     100001    1    1    2    0    0  0.30797019440E+04 -0.56599423467E+04  0.84133127770E+03  0.65000000000E+04  0.15050000000E+03 0.  1.
     100001    1    1    2    0    0 -0.30797019440E+04  0.56599423467E+04 -0.84133127770E+03  0.65000000000E+04  0.15050000000E+03 0. -1.
</event>
<event>
 4    1  0.4630618E-004  0.6500000E+04  0.7818608E-02  0.7223770E-01
         52   -1    0    0    0    0  0.00000000000E+00  0.00000000000E+00  0.64930732323E+04  0.65000000000E+04  0.30000000000E+03 0. -1.
        -52   -1    0    0    0    0 -0.00000000000E+00 -0.00000000000E+00 -0.64930732323E+04  0.65000000000E+04  0.30000000000E+03 0.  1.
     100001    1    1    2    0    0 -0.14650259830E+04 -0.13403878903E+04  0.61874396096E+04  0.65000000000E+04  0.15050000000E+03 0. -1.
     100001    1    1    2    0    0  0.14650259830E+04  0.13403878903E+04 -0.61874396096E+04  0.65000000000E+04  0.15050000000E+03 0.  1.
</event>
<event>
 4    1  0.4630618E-004  0.6500000E+04  0.7818608E-02  0.7223770E-01
         52   -1    0    0    0    0  0.00000000000E+00  0.00000000000E+00  0.64930732323E+04  0.65000000000E+04  0.30000000000E+03 0. -1.
        -52   -1    0    0    0    0 -0.00000000000E+00 -0.00000000000E+00 -0.64930732323E+04  0.65000000000E+04  0.30000000000E+03 0.  1.
     100001    1    1    2    0    0  0.11279153759E+04 -0.37152376126E+04  0.52107740439E+04  0.65000000000E+04  0.15050000000E+03 0. -1.
     100001    1    1    2    0    0 -0.11279153759E+04  0.37152376126E+04 -0.52107740439E+04  0.65000000000E+04  0.15050000000E+03 0.  1.
</event>
<event>
 4    1  0.4630618E-004  0.6500000E+04  0.7818608E-02  0.7223770E-01
         52   -1    0    0    0    0  0.00000000000E+00  0.00000000000E+00  0.64930732323E+04  0.65000000000E+04  0.30000000000E+03 0.  1.
        -52   -1    0    0    0    0 -0.00000000000E+00 -0.00000000000E+00 -0.64930732323E+04  0.65000000000E+04  0.30000000000E+03 0.  1.
     100001    1    1    2    0    0 -0.81686251008E+02 -0.13724941739E+03 -0.64962943055E+04  0.65000000000E+04  0.15050000000E+03 0.  1.
     100001    1    1    2    0    0  0.81686251008E+02  0.13724941739E+03  0.64962943055E+04  0.65000000000E+04  0.15050000000E+03 0.  1.
</event>
<event>
 4    1  0.4630618E-004  0.6500000E+04  0.7818608E-02  0.7223770E-01
         52   -1    0    0    0    0  0.00000000000E+00  0.00000000000E+00  0.64930732323E+04  0.65000000000E+04  0.30000000000E+03 0. -1.
        -52   -1    0    0    0    0 -0.00000000000E+00 -0.00000000000E+00 -0.64930732323E+04  0.65000000000E+04  0.30000000000E+03 0.  1.
     100001    1    1    2    0    0  0.19470056672E+04 -0.19681081296E+04  0.58790364068E+04  0.65000000000E+04  0.15050000000E+03 0. -1.
     100001    1    1    2    0    0 -0.19470056672E+04  0.19681081296E+04 -0.58790364068E+04  0.65000000000E+04  0.15050000000E+03 0.  1.
</event>
<event>
 4    1  0.4630618E-004  0.6500000E+04  0.7818608E-02  0.7223770E-01
         52   -1    0    0    0    0  0.00000000000E+00  0.00000000000E+00  0.64930732323E+04  0.65000000000E+04  0.30000000000E+03 0.  1.
        -52   -1    0    0    0    0 -0.00000000000E+00 -0.00000000000E+00 -0.64930732323E+04  0.65000000000E+04  0.30000000000E+03 0. -1.
     100001    1    1    2    0    0  0.11645769423E+03  0.81948875919E+03  0.64453258668E+04  0.65000000000E+04  0.15050000000E+03 0.  1.
     100001    1    1    2    0    0 -0.11645769423E+03 -0.81948875919E+03 -0.64453258668E+04  0.65000000000E+04  0.15050000000E+03 0. -1.
</event>
<event>
 4    1  0.4630618E-004  0.6500000E+04  0.7818608E-02  0.7223770E-01
         52   -1    0    0    0    0  0.00000000000E+00  0.00000000000E+00  0.64930732323E+04  0.65000000000E+04  0.30000000000E+03 0.  1.
        -52   -1    0    0    0    0 -0.00000000000E+00 -0.00000000000E+00 -0.64930732323E+04  0.65000000000E+04  0.30000000000E+03 0. -1.
     100001    1    1    2    0    0  0.22030296045E+03  0.16292212842E+03  0.64924781660E+04  0.65000000000E+04  0.15050000000E+03 0.  1.
     100001    1    1    2    0    0 -0.22030296045E+03 -0.16292212842E+03 -0.64924781660E+04  0.65000000000E+04  0.15050000000E+03 0. -1.
</event>
<event>
 4    1  0.4630618E-004  0.6500000E+04  0.7818608E-02  0.7223770E-01
         52   -1    0    0    0    0  0.00000000000E+00  0.00000000000E+00  0.64930732323E+04  0.65000000000E+04  0.30000000000E+03 0. -1.
        -52   -1    0    0    0    0 -0.00000000000E+00 -0.00000000000E+00 -0.64930732323E+04  0.65000000000E+04  0.30000000000E+03 0.  1.
     100001    1    1    2    0    0 -0.10061952352E+04 -0.11232910511E+03  0.64189020144E+04  0.65000000000E+04  0.15050000000E+03 0. -1.
     100001    1    1    2    0    0  0.10061952352E+04  0.11232910511E+03 -0.64189020144E+04  0.65000000000E+04  0.15050000000E+03 0.  1.
</event>
<event>
 4    1  0.4630618E-004  0.6500000E+04  0.7818608E-02  0.7223770E-01
         52   -1    0    0    0    0  0.00000000000E+00  0.00000000000E+00  0.64930732323E+04  0.65000000000E+04  0.30000000000E+03 0. -1.
        -52   -1    0    0    0    0 -0.00000000000E+00 -0.00000000000E+00 -0.64930732323E+04  0.65000000000E+04  0.30000000000E+03 0.  1.
     100001    1    1    2    0    0  0.64028872266E+03 -0.15821308680E+04  0.62701070181E+04  0.65000000000E+04  0.15050000000E+03 0. -1.
     100001    1    1    2    0    0 -0.64028872266E+03  0.15821308680E+04 -0.62701070181E+04  0.65000000000E+04  0.15050000000E+03 0.  1.
</event>
<event>
 4    1  0.4630618E-004  0.6500000E+04  0.7818608E-02  0.7223770E-01
         52   -1    0    0    0    0  0.00000000000E+00  0.00000000000E+00  0.64930732323E+04  0.65000000000E+04  0.30000000000E+03 0.  1.
        -52   -1    0    0    0    0 -0.00000000000E+00 -0.00000000000E+00 -0.64930732323E+04  0.65000000000E+04  0.30000000000E+03 0. -1.
     100001    1    1    2    0    0 -0.61096312246E+02 -0.47560934339E+03 -0.64805410841E+04  0.65000000000E+04  0.15050000000E+03 0. -1.
     100001    1    1    2    0    0  0.61096312246E+02  0.47560934339E+03  0.64805410841E+04  0.65000000000E+04  0.15050000000E+03 0.  1.
</event>
<event>
 4    1  0.4630618E-004  0.6500000E+04  0.7818608E-02  0.7223770E-01
         52   -1    0    0    0    0  0.00000000000E+00  0.00000000000E+00  0.64930732323E+04  0.65000000000E+04  0.30000000000E+03 0.  1.
        -52   -1    0    0    0    0 -0.00000000000E+00 -0.00000000000E+00 -0.64930732323E+04  0.65000000000E+04  0.30000000000E+03 0. -1.
     100001    1    1    2    0    0  0.92010060710E+03 -0.28148529135E+04 -0.57842344090E+04  0.65000000000E+04  0.15050000000E+03 0. -1.
     100001    1    1    2    0    0 -0.92010060710E+03  0.28148529135E+04  0.57842344090E+04  0.65000000000E+04  0.15050000000E+03 0.  1.
</event>
<event>
 4    1  0.4630618E-004  0.6500000E+04  0.7818608E-02  0.7223770E-01
         52   -1    0    0    0    0  0.00000000000E+00  0.00000000000E+00  0.64930732323E+04  0.65000000000E+04  0.30000000000E+03 0.  1.
        -52   -1    0    0    0    0 -0.00000000000E+00 -0.00000000000E+00 -0.64930732323E+04  0.65000000000E+04  0.30000000000E+03 0. -1.
     100001    1    1    2    0    0 -0.18186108797E+04  0.16192580469E+04  0.60247827841E+04  0.65000000000E+04  0.15050000000E+03 0.  1.
     100001    1    1    2    0    0  0.18186108797E+04 -0.16192580469E+04 -0.60247827841E+04  0.65000000000E+04  0.15050000000E+03 0. -1.
</event>
<event>
 4    1  0.4630618E-004  0.6500000E+04  0.7818608E-02  0.7223770E-01
         52   -1    0    0    0    0  0.00000000000E+00  0.00000000000E+00  0.64930732323E+04  0.65000000000E+04  0.30000000000E+03 0.  1.
        -52   -1    0    0    0    0 -0.00000000000E+00 -0.00000000000E+00 -0.64930732323E+04  0.65000000000E+04  0.30000000000E+03 0. -1.
     100001    1    1    2    0    0  0.43746837514E+04 -0.10831806831E+04  0.46814753479E+04  0.65000000000E+04  0.15050000000E+03 0.  1.
     100001    1    1    2    0    0 -0.43746837514E+04  0.10831806831E+04 -0.46814753479E+04  0.65000000000E+04  0.15050000000E+03 0. -1.
</event>
<event>
 4    1  0.4630618E-004  0.6500000E+04  0.7818608E-02  0.7223770E-01
         52   -1    0    0    0    0  0.00000000000E+00  0.00000000000E+00  0.64930732323E+04  0.65000000000E+04  0.30000000000E+03 0. -1.
        -52   -1    0    0    0    0 -0.00000000000E+00 -0.00000000000E+00 -0.64930732323E+04  0.65000000000E+04  0.30000000000E+03 0.  1.
     100001    1    1    2    0    0  0.22728429846E+04 -0.73447241624E+02  0.60873754624E+04  0.65000000000E+04  0.15050000000E+03 0. -1.
     100001    1    1    2    0    0 -0.22728429846E+04  0.73447241624E+02 -0.60873754624E+04  0.65000000000E+04  0.15050000000E+03 0.  1.
</event>
<event>
 4    1  0.4630618E-004  0.6500000E+04  0.7818608E-02  0.7223770E-01
         52   -1    0    0    0    0  0.00000000000E+00  0.00000000000E+00  0.64930732323E+04  0.65000000000E+04  0.30000000000E+03 0.  1.
        -52   -1    0    0    0    0 -0.00000000000E+00 -0.00000000000E+00 -0.64930732323E+04  0.65000000000E+04  0.30000000000E+03 0. -1.
     100001    1    1    2    0    0  0.51297549578E+03  0.24698187414E+04  0.59886727474E+04  0.65000000000E+04  0.15050000000E+03 0.  1.
     100001    1    1    2    0    0 -0.51297549578E+03 -0.24698187414E+04 -0.59886727474E+04  0.65000000000E+04  0.15050000000E+03 0. -1.
</event>
<event>
 4    1  0.4630618E-004  0.6500000E+04  0.7818608E-02  0.7223770E-01
         52   -1    0    0    0    0  0.00000000000E+00  0.00000000000E+00  0.64930732323E+04  0.65000000000E+04  0.30000000000E+03 0. -1.
        -52   -1    0    0    0    0 -0.00000000000E+00 -0.00000000000E+00 -0.64930732323E+04  0.65000000000E+04  0.30000000000E+03 0.  1.
     100001    1    1    2    0    0  0.36085779048E+03 -0.78929205304E+03  0.64400426598E+04  0.65000000000E+04  0.15050000000E+03 0. -1.
     100001    1    1    2    0    0 -0.36085779048E+03  0.78929205304E+03 -0.64400426598E+04  0.65000000000E+04  0.15050000000E+03 0.  1.
</event>
<event>
 4    1  0.4630618E-004  0.6500000E+04  0.7818608E-02  0.7223770E-01
         52   -1    0    0    0    0  0.00000000000E+00  0.00000000000E+00  0.64930732323E+04  0.65000000000E+04  0.30000000000E+03 0.  1.
        -52   -1    0    0    0    0 -0.00000000000E+00 -0.00000000000E+00 -0.64930732323E+04  0.65000000000E+04  0.30000000000E+03 0. -1.
     100001    1    1    2    0    0 -0.21384090006E+04  0.23694237466E+03  0.61317546434E+04  0.65000000000E+04  0.15050000000E+03 0.  1.
     100001    1    1    2    0    0  0.21384090006E+04 -0.23694237466E+03 -0.61317546434E+04  0.65000000000E+04  0.15050000000E+03 0. -1.
</event>
<event>
 4    1  0.4630618E-004  0.6500000E+04  0.7818608E-02  0.7223770E-01
         52   -1    0    0    0    0  0.00000000000E+00  0.00000000000E+00  0.64930732323E+04  0.65000000000E+04  0.30000000000E+03 0. -1.
        -52   -1    0    0    0    0 -0.00000000000E+00 -0.00000000000E+00 -0.64930732323E+04  0.65000000000E+04  0.30000000000E+03 0.  1.
     100001    1    1    2    0    0 -0.15524277882E+04  0.31956103105E+03 -0.63019995605E+04  0.65000000000E+04  0.15050000000E+03 0.  1.
     100001    1    1    2    0    0  0.15524277882E+04 -0.31956103105E+03  0.63019995605E+04  0.65000000000E+04  0.15050000000E+03 0. -1.
</event>
<event>
 4    1  0.4630618E-004  0.6500000E+04  0.7818608E-02  0.7223770E-01
         52   -1    0    0    0    0  0.00000000000E+00  0.00000000000E+00  0.64930732323E+04  0.65000000000E+04  0.30000000000E+03 0. -1.
        -52   -1    0    0    0    0 -0.00000000000E+00 -0.00000000000E+00 -0.64930732323E+04  0.65000000000E+04  0.30000000000E+03 0. -1.
     100001    1    1    2    0    0  0.82738394721E+02  0.18215288159E+03  0.64951770134E+04  0.65000000000E+04  0.15050000000E+03 0. -1.
     100001    1    1    2    0    0 -0.82738394721E+02 -0.18215288159E+03 -0.64951770134E+04  0.65000000000E+04  0.15050000000E+03 0. -1.
</event>
<event>
 4    1  0.4630618E-004  0.6500000E+04  0.7818608E-02  0.7223770E-01
         52   -1    0    0    0    0  0.00000000000E+00  0.00000000000E+00  0.64930732323E+04  0.65000000000E+04  0.30000000000E+03 0. -1.
        -52   -1    0    0    0    0 -0.00000000000E+00 -0.00000000000E+00 -0.64930732323E+04  0.65000000000E+04  0.30000000000E+03 0.  1.
     100001    1    1    2    0    0  0.45694048288E+04 -0.63482321065E+03 -0.45765586145E+04  0.65000000000E+04  0.15050000000E+03 0.  1.
     100001    1    1    2    0    0 -0.45694048288E+04  0.63482321065E+03  0.45765586145E+04  0.65000000000E+04  0.15050000000E+03 0. -1.
</event>
<event>
 4    1  0.4630618E-004  0.6500000E+04  0.7818608E-02  0.7223770E-01
         52   -1    0    0    0    0  0.00000000000E+00  0.00000000000E+00  0.64930732323E+04  0.65000000000E+04  0.30000000000E+03 0.  1.
        -52   -1    0    0    0    0 -0.00000000000E+00 -0.00000000000E+00 -0.64930732323E+04  0.65000000000E+04  0.30000000000E+03 0. -1.
     100001    1    1    2    0    0 -0.17931755381E+03  0.81448286207E+03 -0.64445180295E+04  0.65000000000E+04  0.15050000000E+03 0. -1.
     100001    1    1    2    0    0  0.17931755381E+03 -0.81448286207E+03  0.64445180295E+04  0.65000000000E+04  0.15050000000E+03 0.  1.
</event>
<event>
 4    1  0.4630618E-004  0.6500000E+04  0.7818608E-02  0.7223770E-01
         52   -1    0    0    0    0  0.00000000000E+00  0.00000000000E+00  0.64930732323E+04  0.65000000000E+04  0.30000000000E+03 0.  1.
        -52   -1    0    0    0    0 -0.00000000000E+00 -0.00000000000E+00 -0.64930732323E+04  0.65000000000E+04  0.30000000000E+03 0. -1.
     100001    1    1    2    0    0 -0.59172049696E+03 -0.99352959585E+03 -0.63945379462E+04  0.65000000000E+04  0.15050000000E+03 0. -1.
     100001    1    1    2    0    0  0.59172049696E+03  0.99352959585E+03  0.63945379462E+04  0.65000000000E+04  0.15050000000E+03 0.  1.
</event>
<event>
 4    1  0.4630618E-004  0.6500000E+04  0.7818608E-02  0.7223770E-01
         52   -1    0    0    0    0  0.00000000000E+00  0.00000000000E+00  0.64930732323E+04  0.65000000000E+04  0.30000000000E+03 0. -1.
        -52   -1    0    0    0    0 -0.00000000000E+00 -0.00000000000E+00 -0.64930732323E+04  0.65000000000E+04  0.30000000000E+03 0. -1.
     100001    1    1    2    0    0 -0.62908554793E+01 -0.43696184065E+03 -0.64835464466E+04  0.65000000000E+04  0.15050000000E+03 0. -1.
     100001    1    1    2    0    0  0.62908554793E+01  0.43696184065E+03  0.64835464466E+04  0.65000000000E+04  0.15050000000E+03 0. -1.
</event>
<event>
 4    1  0.4630618E-004  0.6500000E+04  0.7818608E-02  0.7223770E-01
         52   -1    0    0    0    0  0.00000000000E+00  0.00000000000E+00  0.64930732323E+04  0.65000000000E+04  0.30000000000E+03 0. -1.
        -52   -1    0    0    0    0 -0.00000000000E+00 -0.00000000000E+00 -0.64930732323E+04  0.65000000000E+04  0.30000000000E+03 0.  1.
     100001    1    1    2    0    0 -0.17796985294E+04 -0.36655331510E+04 -0.50620045055E+04  0.65000000000E+04  0.15050000000E+03 0.  1.
     100001    1    1    2    0    0  0.17796985294E+04  0.36655331510E+04  0.50620045055E+04  0.65000000000E+04  0.15050000000E+03 0. -1.
</event>
<event>
 4    1  0.4630618E-004  0.6500000E+04  0.7818608E-02  0.7223770E-01
         52   -1    0    0    0    0  0.00000000000E+00  0.00000000000E+00  0.64930732323E+04  0.65000000000E+04  0.30000000000E+03 0. -1.
        -52   -1    0    0    0    0 -0.00000000000E+00 -0.00000000000E+00 -0.64930732323E+04  0.65000000000E+04  0.30000000000E+03 0.  1.
     100001    1    1    2    0    0  0.38299547323E+03  0.63052795910E+03  0.64562449388E+04  0.65000000000E+04  0.15050000000E+03 0. -1.
     100001    1    1    2    0    0 -0.38299547323E+03 -0.63052795910E+03 -0.64562449388E+04  0.65000000000E+04  0.15050000000E+03 0.  1.
</event>
<event>
 4    1  0.4630618E-004  0.6500000E+04  0.7818608E-02  0.7223770E-01
         52   -1    0    0    0    0  0.00000000000E+00  0.00000000000E+00  0.64930732323E+04  0.65000000000E+04  0.30000000000E+03 0. -1.
        -52   -1    0    0    0    0 -0.00000000000E+00 -0.00000000000E+00 -0.64930732323E+04  0.65000000000E+04  0.30000000000E+03 0.  1.
     100001    1    1    2    0    0 -0.21121318114E+04  0.43271178227E+04 -0.43637484242E+04  0.65000000000E+04  0.15050000000E+03 0.  1.
     100001    1    1    2    0    0  0.21121318114E+04 -0.43271178227E+04  0.43637484242E+04  0.65000000000E+04  0.15050000000E+03 0. -1.
</event>
<event>
 4    1  0.4630618E-004  0.6500000E+04  0.7818608E-02  0.7223770E-01
         52   -1    0    0    0    0  0.00000000000E+00  0.00000000000E+00  0.64930732323E+04  0.65000000000E+04  0.30000000000E+03 0.  1.
        -52   -1    0    0    0    0 -0.00000000000E+00 -0.00000000000E+00 -0.64930732323E+04  0.65000000000E+04  0.30000000000E+03 0. -1.
     100001    1    1    2    0    0  0.45312447528E+04  0.46339630865E+03 -0.46346989763E+04  0.65000000000E+04  0.15050000000E+03 0. -1.
     100001    1    1    2    0    0 -0.45312447528E+04 -0.46339630865E+03  0.46346989763E+04  0.65000000000E+04  0.15050000000E+03 0.  1.
</event>
<event>
 4    1  0.4630618E-004  0.6500000E+04  0.7818608E-02  0.7223770E-01
         52   -1    0    0    0    0  0.00000000000E+00  0.00000000000E+00  0.64930732323E+04  0.65000000000E+04  0.30000000000E+03 0. -1.
        -52   -1    0    0    0    0 -0.00000000000E+00 -0.00000000000E+00 -0.64930732323E+04  0.65000000000E+04  0.30000000000E+03 0.  1.
     100001    1    1    2    0    0 -0.85454380228E+03 -0.13346358451E+04 -0.63020513963E+04  0.65000000000E+04  0.15050000000E+03 0.  1.
     100001    1    1    2    0    0  0.85454380228E+03  0.13346358451E+04  0.63020513963E+04  0.65000000000E+04  0.15050000000E+03 0. -1.
</event>
<event>
 4    1  0.4630618E-004  0.6500000E+04  0.7818608E-02  0.7223770E-01
         52   -1    0    0    0    0  0.00000000000E+00  0.00000000000E+00  0.64930732323E+04  0.65000000000E+04  0.30000000000E+03 0.  1.
        -52   -1    0    0    0    0 -0.00000000000E+00 -0.00000000000E+00 -0.64930732323E+04  0.65000000000E+04  0.30000000000E+03 0. -1.
     100001    1    1    2    0    0  0.47669757613E+04  0.42249876721E+04  0.12856014203E+04  0.65000000000E+04  0.15050000000E+03 0. -1.
     100001    1    1    2    0    0 -0.47669757613E+04 -0.42249876721E+04 -0.12856014203E+04  0.65000000000E+04  0.15050000000E+03 0.  1.
</event>
<event>
 4    1  0.4630618E-004  0.6500000E+04  0.7818608E-02  0.7223770E-01
         52   -1    0    0    0    0  0.00000000000E+00  0.00000000000E+00  0.64930732323E+04  0.65000000000E+04  0.30000000000E+03 0. -1.
        -52   -1    0    0    0    0 -0.00000000000E+00 -0.00000000000E+00 -0.64930732323E+04  0.65000000000E+04  0.30000000000E+03 0.  1.
     100001    1    1    2    0    0 -0.10178962470E+04  0.10950466524E+04  0.63239315152E+04  0.65000000000E+04  0.15050000000E+03 0. -1.
     100001    1    1    2    0    0  0.10178962470E+04 -0.10950466524E+04 -0.63239315152E+04  0.65000000000E+04  0.15050000000E+03 0.  1.
</event>
<event>
 4    1  0.4630618E-004  0.6500000E+04  0.7818608E-02  0.7223770E-01
         52   -1    0    0    0    0  0.00000000000E+00  0.00000000000E+00  0.64930732323E+04  0.65000000000E+04  0.30000000000E+03 0. -1.
        -52   -1    0    0    0    0 -0.00000000000E+00 -0.00000000000E+00 -0.64930732323E+04  0.65000000000E+04  0.30000000000E+03 0.  1.
     100001    1    1    2    0    0 -0.67001052563E+03  0.30824230687E+03 -0.64562700010E+04  0.65000000000E+04  0.15050000000E+03 0.  1.
     100001    1    1    2    0    0  0.67001052563E+03 -0.30824230687E+03  0.64562700010E+04  0.65000000000E+04  0.15050000000E+03 0. -1.
</event>
<event>
 4    1  0.4630618E-004  0.6500000E+04  0.7818608E-02  0.7223770E-01
         52   -1    0    0    0    0  0.00000000000E+00  0.00000000000E+00  0.64930732323E+04  0.65000000000E+04  0.30000000000E+03 0.  1.
        -52   -1    0    0    0    0 -0.00000000000E+00 -0.00000000000E+00 -0.64930732323E+04  0.65000000000E+04  0.30000000000E+03 0. -1.
     100001    1    1    2    0    0  0.20360177822E+03 -0.49480020601E+03  0.64761924633E+04  0.65000000000E+04  0.15050000000E+03 0.  1.
     100001    1    1    2    0    0 -0.20360177822E+03  0.49480020601E+03 -0.64761924633E+04  0.65000000000E+04  0.15050000000E+03 0. -1.
</event>
<event>
 4    1  0.4630618E-004  0.6500000E+04  0.7818608E-02  0.7223770E-01
         52   -1    0    0    0    0  0.00000000000E+00  0.00000000000E+00  0.64930732323E+04  0.65000000000E+04  0.30000000000E+03 0.  1.
        -52   -1    0    0    0    0 -0.00000000000E+00 -0.00000000000E+00 -0.64930732323E+04  0.65000000000E+04  0.30000000000E+03 0. -1.
     100001    1    1    2    0    0 -0.32017268888E+03  0.28995121881E+03  0.64838852157E+04  0.65000000000E+04  0.15050000000E+03 0.  1.
     100001    1    1    2    0    0  0.32017268888E+03 -0.28995121881E+03 -0.64838852157E+04  0.65000000000E+04  0.15050000000E+03 0. -1.
</event>
<event>
 4    1  0.4630618E-004  0.6500000E+04  0.7818608E-02  0.7223770E-01
         52   -1    0    0    0    0  0.00000000000E+00  0.00000000000E+00  0.64930732323E+04  0.65000000000E+04  0.30000000000E+03 0.  1.
        -52   -1    0    0    0    0 -0.00000000000E+00 -0.00000000000E+00 -0.64930732323E+04  0.65000000000E+04  0.30000000000E+03 0. -1.
     100001    1    1    2    0    0 -0.13441538554E+04 -0.51627816027E+04  0.37102946360E+04  0.65000000000E+04  0.15050000000E+03 0.  1.
     100001    1    1    2    0    0  0.13441538554E+04  0.51627816027E+04 -0.37102946360E+04  0.65000000000E+04  0.15050000000E+03 0. -1.
</event>
<event>
 4    1  0.4630618E-004  0.6500000E+04  0.7818608E-02  0.7223770E-01
         52   -1    0    0    0    0  0.00000000000E+00  0.00000000000E+00  0.64930732323E+04  0.65000000000E+04  0.30000000000E+03 0.  1.
        -52   -1    0    0    0    0 -0.00000000000E+00 -0.00000000000E+00 -0.64930732323E+04  0.65000000000E+04  0.30000000000E+03 0. -1.
     100001    1    1    2    0    0  0.19371269663E+04  0.44646934513E+04 -0.43059727417E+04  0.65000000000E+04  0.15050000000E+03 0.  1.
     100001    1    1    2    0    0 -0.19371269663E+04 -0.44646934513E+04  0.43059727417E+04  0.65000000000E+04  0.15050000000E+03 0. -1.
</event>
<event>
 4    1  0.4630618E-004  0.6500000E+04  0.7818608E-02  0.7223770E-01
         52   -1    0    0    0    0  0.00000000000E+00  0.00000000000E+00  0.64930732323E+04  0.65000000000E+04  0.30000000000E+03 0.  1.
        -52   -1    0    0    0    0 -0.00000000000E+00 -0.00000000000E+00 -0.64930732323E+04  0.65000000000E+04  0.30000000000E+03 0. -1.
     100001    1    1    2    0    0 -0.17267259657E+04  0.12576711058E+04  0.61371027838E+04  0.65000000000E+04  0.15050000000E+03 0.  1.
     100001    1    1    2    0    0  0.17267259657E+04 -0.12576711058E+04 -0.61371027838E+04  0.65000000000E+04  0.15050000000E+03 0. -1.
</event>
<event>
 4    1  0.4630618E-004  0.6500000E+04  0.7818608E-02  0.7223770E-01
         52   -1    0    0    0    0  0.00000000000E+00  0.00000000000E+00  0.64930732323E+04  0.65000000000E+04  0.30000000000E+03 0.  1.
        -52   -1    0    0    0    0 -0.00000000000E+00 -0.00000000000E+00 -0.64930732323E+04  0.65000000000E+04  0.30000000000E+03 0. -1.
     100001    1    1    2    0    0 -0.13014767020E+04  0.11961503179E+04  0.62532177766E+04  0.65000000000E+04  0.15050000000E+03 0.  1.
     100001    1    1    2    0    0  0.13014767020E+04 -0.11961503179E+04 -0.62532177766E+04  0.65000000000E+04  0.15050000000E+03 0. -1.
</event>
<event>
 4    1  0.4630618E-004  0.6500000E+04  0.7818608E-02  0.7223770E-01
         52   -1    0    0    0    0  0.00000000000E+00  0.00000000000E+00  0.64930732323E+04  0.65000000000E+04  0.30000000000E+03 0.  1.
        -52   -1    0    0    0    0 -0.00000000000E+00 -0.00000000000E+00 -0.64930732323E+04  0.65000000000E+04  0.30000000000E+03 0.  1.
     100001    1    1    2    0    0  0.22904661416E+03 -0.35245541447E+03  0.64846482233E+04  0.65000000000E+04  0.15050000000E+03 0.  1.
     100001    1    1    2    0    0 -0.22904661416E+03  0.35245541447E+03 -0.64846482233E+04  0.65000000000E+04  0.15050000000E+03 0.  1.
</event>
<event>
 4    1  0.4630618E-004  0.6500000E+04  0.7818608E-02  0.7223770E-01
         52   -1    0    0    0    0  0.00000000000E+00  0.00000000000E+00  0.64930732323E+04  0.65000000000E+04  0.30000000000E+03 0. -1.
        -52   -1    0    0    0    0 -0.00000000000E+00 -0.00000000000E+00 -0.64930732323E+04  0.65000000000E+04  0.30000000000E+03 0.  1.
     100001    1    1    2    0    0  0.31827496331E+04  0.76967655285E+03 -0.56129361770E+04  0.65000000000E+04  0.15050000000E+03 0.  1.
     100001    1    1    2    0    0 -0.31827496331E+04 -0.76967655285E+03  0.56129361770E+04  0.65000000000E+04  0.15050000000E+03 0. -1.
</event>
<event>
 4    1  0.4630618E-004  0.6500000E+04  0.7818608E-02  0.7223770E-01
         52   -1    0    0    0    0  0.00000000000E+00  0.00000000000E+00  0.64930732323E+04  0.65000000000E+04  0.30000000000E+03 0.  1.
        -52   -1    0    0    0    0 -0.00000000000E+00 -0.00000000000E+00 -0.64930732323E+04  0.65000000000E+04  0.30000000000E+03 0. -1.
     100001    1    1    2    0    0 -0.54452650718E+04  0.78225705414E+03 -0.34589755636E+04  0.65000000000E+04  0.15050000000E+03 0. -1.
     100001    1    1    2    0    0  0.54452650718E+04 -0.78225705414E+03  0.34589755636E+04  0.65000000000E+04  0.15050000000E+03 0.  1.
</event>
<event>
 4    1  0.4630618E-004  0.6500000E+04  0.7818608E-02  0.7223770E-01
         52   -1    0    0    0    0  0.00000000000E+00  0.00000000000E+00  0.64930732323E+04  0.65000000000E+04  0.30000000000E+03 0. -1.
        -52   -1    0    0    0    0 -0.00000000000E+00 -0.00000000000E+00 -0.64930732323E+04  0.65000000000E+04  0.30000000000E+03 0.  1.
     100001    1    1    2    0    0 -0.11488396341E+04 -0.14930661168E+03 -0.63941555174E+04  0.65000000000E+04  0.15050000000E+03 0.  1.
     100001    1    1    2    0    0  0.11488396341E+04  0.14930661168E+03  0.63941555174E+04  0.65000000000E+04  0.15050000000E+03 0. -1.
</event>
<event>
 4    1  0.4630618E-004  0.6500000E+04  0.7818608E-02  0.7223770E-01
         52   -1    0    0    0    0  0.00000000000E+00  0.00000000000E+00  0.64930732323E+04  0.65000000000E+04  0.30000000000E+03 0. -1.
        -52   -1    0    0    0    0 -0.00000000000E+00 -0.00000000000E+00 -0.64930732323E+04  0.65000000000E+04  0.30000000000E+03 0.  1.
     100001    1    1    2    0    0  0.13116161010E+03 -0.14123197609E+04  0.63415691493E+04  0.65000000000E+04  0.15050000000E+03 0. -1.
     100001    1    1    2    0    0 -0.13116161010E+03  0.14123197609E+04 -0.63415691493E+04  0.65000000000E+04  0.15050000000E+03 0.  1.
</event>
<event>
 4    1  0.4630618E-004  0.6500000E+04  0.7818608E-02  0.7223770E-01
         52   -1    0    0    0    0  0.00000000000E+00  0.00000000000E+00  0.64930732323E+04  0.65000000000E+04  0.30000000000E+03 0.  1.
        -52   -1    0    0    0    0 -0.00000000000E+00 -0.00000000000E+00 -0.64930732323E+04  0.65000000000E+04  0.30000000000E+03 0. -1.
     100001    1    1    2    0    0  0.64063420998E+03 -0.20582652635E+03  0.64633252278E+04  0.65000000000E+04  0.15050000000E+03 0.  1.
     100001    1    1    2    0    0 -0.64063420998E+03  0.20582652635E+03 -0.64633252278E+04  0.65000000000E+04  0.15050000000E+03 0. -1.
</event>
<event>
 4    1  0.4630618E-004  0.6500000E+04  0.7818608E-02  0.7223770E-01
         52   -1    0    0    0    0  0.00000000000E+00  0.00000000000E+00  0.64930732323E+04  0.65000000000E+04  0.30000000000E+03 0.  1.
        -52   -1    0    0    0    0 -0.00000000000E+00 -0.00000000000E+00 -0.64930732323E+04  0.65000000000E+04  0.30000000000E+03 0. -1.
     100001    1    1    2    0    0  0.20056746264E+04  0.57807814971E+04 -0.21879635111E+04  0.65000000000E+04  0.15050000000E+03 0. -1.
     100001    1    1    2    0    0 -0.20056746264E+04 -0.57807814971E+04  0.21879635111E+04  0.65000000000E+04  0.15050000000E+03 0.  1.
</event>
<event>
 4    1  0.4630618E-004  0.6500000E+04  0.7818608E-02  0.7223770E-01
         52   -1    0    0    0    0  0.00000000000E+00  0.00000000000E+00  0.64930732323E+04  0.65000000000E+04  0.30000000000E+03 0. -1.
        -52   -1    0    0    0    0 -0.00000000000E+00 -0.00000000000E+00 -0.64930732323E+04  0.65000000000E+04  0.30000000000E+03 0.  1.
     100001    1    1    2    0    0  0.31278289746E+04 -0.37430278975E+04  0.42934575594E+04  0.65000000000E+04  0.15050000000E+03 0. -1.
     100001    1    1    2    0    0 -0.31278289746E+04  0.37430278975E+04 -0.42934575594E+04  0.65000000000E+04  0.15050000000E+03 0.  1.
</event>
<event>
 4    1  0.4630618E-004  0.6500000E+04  0.7818608E-02  0.7223770E-01
         52   -1    0    0    0    0  0.00000000000E+00  0.00000000000E+00  0.64930732323E+04  0.65000000000E+04  0.30000000000E+03 0. -1.
        -52   -1    0    0    0    0 -0.00000000000E+00 -0.00000000000E+00 -0.64930732323E+04  0.65000000000E+04  0.30000000000E+03 0.  1.
     100001    1    1    2    0    0 -0.43746801561E+03  0.33689983907E+04 -0.55394784347E+04  0.65000000000E+04  0.15050000000E+03 0.  1.
     100001    1    1    2    0    0  0.43746801561E+03 -0.33689983907E+04  0.55394784347E+04  0.65000000000E+04  0.15050000000E+03 0. -1.
</event>
<event>
 4    1  0.4630618E-004  0.6500000E+04  0.7818608E-02  0.7223770E-01
         52   -1    0    0    0    0  0.00000000000E+00  0.00000000000E+00  0.64930732323E+04  0.65000000000E+04  0.30000000000E+03 0. -1.
        -52   -1    0    0    0    0 -0.00000000000E+00 -0.00000000000E+00 -0.64930732323E+04  0.65000000000E+04  0.30000000000E+03 0.  1.
     100001    1    1    2    0    0  0.60557558720E+04 -0.18418233989E+04 -0.14706655418E+04  0.65000000000E+04  0.15050000000E+03 0.  1.
     100001    1    1    2    0    0 -0.60557558720E+04  0.18418233989E+04  0.14706655418E+04  0.65000000000E+04  0.15050000000E+03 0. -1.
</event>
<event>
 4    1  0.4630618E-004  0.6500000E+04  0.7818608E-02  0.7223770E-01
         52   -1    0    0    0    0  0.00000000000E+00  0.00000000000E+00  0.64930732323E+04  0.65000000000E+04  0.30000000000E+03 0. -1.
        -52   -1    0    0    0    0 -0.00000000000E+00 -0.00000000000E+00 -0.64930732323E+04  0.65000000000E+04  0.30000000000E+03 0.  1.
     100001    1    1    2    0    0  0.55905498153E+04 -0.28621774966E+04 -0.16676457930E+04  0.65000000000E+04  0.15050000000E+03 0. -1.
     100001    1    1    2    0    0 -0.55905498153E+04  0.28621774966E+04  0.16676457930E+04  0.65000000000E+04  0.15050000000E+03 0.  1.
</event>
<event>
 4    1  0.4630618E-004  0.6500000E+04  0.7818608E-02  0.7223770E-01
         52   -1    0    0    0    0  0.00000000000E+00  0.00000000000E+00  0.64930732323E+04  0.65000000000E+04  0.30000000000E+03 0. -1.
        -52   -1    0    0    0    0 -0.00000000000E+00 -0.00000000000E+00 -0.64930732323E+04  0.65000000000E+04  0.30000000000E+03 0.  1.
     100001    1    1    2    0    0 -0.27293103854E+04  0.23067206605E+03 -0.58927926290E+04  0.65000000000E+04  0.15050000000E+03 0.  1.
     100001    1    1    2    0    0  0.27293103854E+04 -0.23067206605E+03  0.58927926290E+04  0.65000000000E+04  0.15050000000E+03 0. -1.
</event>
<event>
 4    1  0.4630618E-004  0.6500000E+04  0.7818608E-02  0.7223770E-01
         52   -1    0    0    0    0  0.00000000000E+00  0.00000000000E+00  0.64930732323E+04  0.65000000000E+04  0.30000000000E+03 0. -1.
        -52   -1    0    0    0    0 -0.00000000000E+00 -0.00000000000E+00 -0.64930732323E+04  0.65000000000E+04  0.30000000000E+03 0. -1.
     100001    1    1    2    0    0 -0.22838142345E+03  0.84773983652E+02  0.64936896328E+04  0.65000000000E+04  0.15050000000E+03 0. -1.
     100001    1    1    2    0    0  0.22838142345E+03 -0.84773983652E+02 -0.64936896328E+04  0.65000000000E+04  0.15050000000E+03 0. -1.
</event>
<event>
 4    1  0.4630618E-004  0.6500000E+04  0.7818608E-02  0.7223770E-01
         52   -1    0    0    0    0  0.00000000000E+00  0.00000000000E+00  0.64930732323E+04  0.65000000000E+04  0.30000000000E+03 0. -1.
        -52   -1    0    0    0    0 -0.00000000000E+00 -0.00000000000E+00 -0.64930732323E+04  0.65000000000E+04  0.30000000000E+03 0.  1.
     100001    1    1    2    0    0 -0.24846002511E+04 -0.14944245821E+03 -0.60026476070E+04  0.65000000000E+04  0.15050000000E+03 0.  1.
     100001    1    1    2    0    0  0.24846002511E+04  0.14944245821E+03  0.60026476070E+04  0.65000000000E+04  0.15050000000E+03 0. -1.
</event>
<event>
 4    1  0.4630618E-004  0.6500000E+04  0.7818608E-02  0.7223770E-01
         52   -1    0    0    0    0  0.00000000000E+00  0.00000000000E+00  0.64930732323E+04  0.65000000000E+04  0.30000000000E+03 0. -1.
        -52   -1    0    0    0    0 -0.00000000000E+00 -0.00000000000E+00 -0.64930732323E+04  0.65000000000E+04  0.30000000000E+03 0. -1.
     100001    1    1    2    0    0 -0.10774036793E+03 -0.21201615178E+03  0.64939041350E+04  0.65000000000E+04  0.15050000000E+03 0. -1.
     100001    1    1    2    0    0  0.10774036793E+03  0.21201615178E+03 -0.64939041350E+04  0.65000000000E+04  0.15050000000E+03 0. -1.
</event>
<event>
 4    1  0.4630618E-004  0.6500000E+04  0.7818608E-02  0.7223770E-01
         52   -1    0    0    0    0  0.00000000000E+00  0.00000000000E+00  0.64930732323E+04  0.65000000000E+04  0.30000000000E+03 0. -1.
        -52   -1    0    0    0    0 -0.00000000000E+00 -0.00000000000E+00 -0.64930732323E+04  0.65000000000E+04  0.30000000000E+03 0. -1.
     100001    1    1    2    0    0  0.11533537225E+03  0.27903211818E+03 -0.64912393716E+04  0.65000000000E+04  0.15050000000E+03 0. -1.
     100001    1    1    2    0    0 -0.11533537225E+03 -0.27903211818E+03  0.64912393716E+04  0.65000000000E+04  0.15050000000E+03 0. -1.
</event>
<event>
 4    1  0.4630618E-004  0.6500000E+04  0.7818608E-02  0.7223770E-01
         52   -1    0    0    0    0  0.00000000000E+00  0.00000000000E+00  0.64930732323E+04  0.65000000000E+04  0.30000000000E+03 0.  1.
        -52   -1    0    0    0    0 -0.00000000000E+00 -0.00000000000E+00 -0.64930732323E+04  0.65000000000E+04  0.30000000000E+03 0. -1.
     100001    1    1    2    0    0 -0.12764480669E+04  0.51818035774E+03 -0.63505526688E+04  0.65000000000E+04  0.15050000000E+03 0. -1.
     100001    1    1    2    0    0  0.12764480669E+04 -0.51818035774E+03  0.63505526688E+04  0.65000000000E+04  0.15050000000E+03 0.  1.
</event>
<event>
 4    1  0.4630618E-004  0.6500000E+04  0.7818608E-02  0.7223770E-01
         52   -1    0    0    0    0  0.00000000000E+00  0.00000000000E+00  0.64930732323E+04  0.65000000000E+04  0.30000000000E+03 0.  1.
        -52   -1    0    0    0    0 -0.00000000000E+00 -0.00000000000E+00 -0.64930732323E+04  0.65000000000E+04  0.30000000000E+03 0. -1.
     100001    1    1    2    0    0 -0.16325993301E+04 -0.60983790026E+04 -0.15400463366E+04  0.65000000000E+04  0.15050000000E+03 0. -1.
     100001    1    1    2    0    0  0.16325993301E+04  0.60983790026E+04  0.15400463366E+04  0.65000000000E+04  0.15050000000E+03 0.  1.
</event>
<event>
 4    1  0.4630618E-004  0.6500000E+04  0.7818608E-02  0.7223770E-01
         52   -1    0    0    0    0  0.00000000000E+00  0.00000000000E+00  0.64930732323E+04  0.65000000000E+04  0.30000000000E+03 0. -1.
        -52   -1    0    0    0    0 -0.00000000000E+00 -0.00000000000E+00 -0.64930732323E+04  0.65000000000E+04  0.30000000000E+03 0.  1.
     100001    1    1    2    0    0 -0.68409305021E+03 -0.62104021913E+03 -0.64322372076E+04  0.65000000000E+04  0.15050000000E+03 0.  1.
     100001    1    1    2    0    0  0.68409305021E+03  0.62104021913E+03  0.64322372076E+04  0.65000000000E+04  0.15050000000E+03 0. -1.
</event>
<event>
 4    1  0.4630618E-004  0.6500000E+04  0.7818608E-02  0.7223770E-01
         52   -1    0    0    0    0  0.00000000000E+00  0.00000000000E+00  0.64930732323E+04  0.65000000000E+04  0.30000000000E+03 0.  1.
        -52   -1    0    0    0    0 -0.00000000000E+00 -0.00000000000E+00 -0.64930732323E+04  0.65000000000E+04  0.30000000000E+03 0. -1.
     100001    1    1    2    0    0  0.82487515309E+02  0.19492484074E+04 -0.61984656332E+04  0.65000000000E+04  0.15050000000E+03 0. -1.
     100001    1    1    2    0    0 -0.82487515309E+02 -0.19492484074E+04  0.61984656332E+04  0.65000000000E+04  0.15050000000E+03 0.  1.
</event>
<event>
 4    1  0.4630618E-004  0.6500000E+04  0.7818608E-02  0.7223770E-01
         52   -1    0    0    0    0  0.00000000000E+00  0.00000000000E+00  0.64930732323E+04  0.65000000000E+04  0.30000000000E+03 0.  1.
        -52   -1    0    0    0    0 -0.00000000000E+00 -0.00000000000E+00 -0.64930732323E+04  0.65000000000E+04  0.30000000000E+03 0. -1.
     100001    1    1    2    0    0  0.35708519078E+03 -0.42582348875E+03 -0.64744508858E+04  0.65000000000E+04  0.15050000000E+03 0. -1.
     100001    1    1    2    0    0 -0.35708519078E+03  0.42582348875E+03  0.64744508858E+04  0.65000000000E+04  0.15050000000E+03 0.  1.
</event>
<event>
 4    1  0.4630618E-004  0.6500000E+04  0.7818608E-02  0.7223770E-01
         52   -1    0    0    0    0  0.00000000000E+00  0.00000000000E+00  0.64930732323E+04  0.65000000000E+04  0.30000000000E+03 0. -1.
        -52   -1    0    0    0    0 -0.00000000000E+00 -0.00000000000E+00 -0.64930732323E+04  0.65000000000E+04  0.30000000000E+03 0.  1.
     100001    1    1    2    0    0  0.15020047865E+03 -0.19109822788E+03 -0.64937101131E+04  0.65000000000E+04  0.15050000000E+03 0.  1.
     100001    1    1    2    0    0 -0.15020047865E+03  0.19109822788E+03  0.64937101131E+04  0.65000000000E+04  0.15050000000E+03 0. -1.
</event>
<event>
 4    1  0.4630618E-004  0.6500000E+04  0.7818608E-02  0.7223770E-01
         52   -1    0    0    0    0  0.00000000000E+00  0.00000000000E+00  0.64930732323E+04  0.65000000000E+04  0.30000000000E+03 0. -1.
        -52   -1    0    0    0    0 -0.00000000000E+00 -0.00000000000E+00 -0.64930732323E+04  0.65000000000E+04  0.30000000000E+03 0. -1.
     100001    1    1    2    0    0  0.12415930835E+04 -0.58635880754E+02  0.63782723522E+04  0.65000000000E+04  0.15050000000E+03 0. -1.
     100001    1    1    2    0    0 -0.12415930835E+04  0.58635880754E+02 -0.63782723522E+04  0.65000000000E+04  0.15050000000E+03 0. -1.
</event>
<event>
 4    1  0.4630618E-004  0.6500000E+04  0.7818608E-02  0.7223770E-01
         52   -1    0    0    0    0  0.00000000000E+00  0.00000000000E+00  0.64930732323E+04  0.65000000000E+04  0.30000000000E+03 0. -1.
        -52   -1    0    0    0    0 -0.00000000000E+00 -0.00000000000E+00 -0.64930732323E+04  0.65000000000E+04  0.30000000000E+03 0.  1.
     100001    1    1    2    0    0  0.42876835058E+03 -0.27619072943E+03  0.64782116462E+04  0.65000000000E+04  0.15050000000E+03 0. -1.
     100001    1    1    2    0    0 -0.42876835058E+03  0.27619072943E+03 -0.64782116462E+04  0.65000000000E+04  0.15050000000E+03 0.  1.
</event>
<event>
 4    1  0.4630618E-004  0.6500000E+04  0.7818608E-02  0.7223770E-01
         52   -1    0    0    0    0  0.00000000000E+00  0.00000000000E+00  0.64930732323E+04  0.65000000000E+04  0.30000000000E+03 0.  1.
        -52   -1    0    0    0    0 -0.00000000000E+00 -0.00000000000E+00 -0.64930732323E+04  0.65000000000E+04  0.30000000000E+03 0. -1.
     100001    1    1    2    0    0 -0.50125642253E+03  0.53612331885E+04 -0.36377562381E+04  0.65000000000E+04  0.15050000000E+03 0. -1.
     100001    1    1    2    0    0  0.50125642253E+03 -0.53612331885E+04  0.36377562381E+04  0.65000000000E+04  0.15050000000E+03 0.  1.
</event>
<event>
 4    1  0.4630618E-004  0.6500000E+04  0.7818608E-02  0.7223770E-01
         52   -1    0    0    0    0  0.00000000000E+00  0.00000000000E+00  0.64930732323E+04  0.65000000000E+04  0.30000000000E+03 0.  1.
        -52   -1    0    0    0    0 -0.00000000000E+00 -0.00000000000E+00 -0.64930732323E+04  0.65000000000E+04  0.30000000000E+03 0. -1.
     100001    1    1    2    0    0  0.18391603164E+03  0.67162783071E+03 -0.64608390090E+04  0.65000000000E+04  0.15050000000E+03 0. -1.
     100001    1    1    2    0    0 -0.18391603164E+03 -0.67162783071E+03  0.64608390090E+04  0.65000000000E+04  0.15050000000E+03 0.  1.
</event>
<event>
 4    1  0.4630618E-004  0.6500000E+04  0.7818608E-02  0.7223770E-01
         52   -1    0    0    0    0  0.00000000000E+00  0.00000000000E+00  0.64930732323E+04  0.65000000000E+04  0.30000000000E+03 0. -1.
        -52   -1    0    0    0    0 -0.00000000000E+00 -0.00000000000E+00 -0.64930732323E+04  0.65000000000E+04  0.30000000000E+03 0.  1.
     100001    1    1    2    0    0 -0.60618778635E+04 -0.21004087876E+04  0.10340548550E+04  0.65000000000E+04  0.15050000000E+03 0.  1.
     100001    1    1    2    0    0  0.60618778635E+04  0.21004087876E+04 -0.10340548550E+04  0.65000000000E+04  0.15050000000E+03 0. -1.
</event>
<event>
 4    1  0.4630618E-004  0.6500000E+04  0.7818608E-02  0.7223770E-01
         52   -1    0    0    0    0  0.00000000000E+00  0.00000000000E+00  0.64930732323E+04  0.65000000000E+04  0.30000000000E+03 0.  1.
        -52   -1    0    0    0    0 -0.00000000000E+00 -0.00000000000E+00 -0.64930732323E+04  0.65000000000E+04  0.30000000000E+03 0. -1.
     100001    1    1    2    0    0 -0.29986964251E+03 -0.34836245404E+03 -0.64819805267E+04  0.65000000000E+04  0.15050000000E+03 0. -1.
     100001    1    1    2    0    0  0.29986964251E+03  0.34836245404E+03  0.64819805267E+04  0.65000000000E+04  0.15050000000E+03 0.  1.
</event>
<event>
 4    1  0.4630618E-004  0.6500000E+04  0.7818608E-02  0.7223770E-01
         52   -1    0    0    0    0  0.00000000000E+00  0.00000000000E+00  0.64930732323E+04  0.65000000000E+04  0.30000000000E+03 0.  1.
        -52   -1    0    0    0    0 -0.00000000000E+00 -0.00000000000E+00 -0.64930732323E+04  0.65000000000E+04  0.30000000000E+03 0. -1.
     100001    1    1    2    0    0 -0.44731895533E+03 -0.42807563618E+03  0.64686943622E+04  0.65000000000E+04  0.15050000000E+03 0.  1.
     100001    1    1    2    0    0  0.44731895533E+03  0.42807563618E+03 -0.64686943622E+04  0.65000000000E+04  0.15050000000E+03 0. -1.
</event>
<event>
 4    1  0.4630618E-004  0.6500000E+04  0.7818608E-02  0.7223770E-01
         52   -1    0    0    0    0  0.00000000000E+00  0.00000000000E+00  0.64930732323E+04  0.65000000000E+04  0.30000000000E+03 0.  1.
        -52   -1    0    0    0    0 -0.00000000000E+00 -0.00000000000E+00 -0.64930732323E+04  0.65000000000E+04  0.30000000000E+03 0. -1.
     100001    1    1    2    0    0 -0.12138766210E+04  0.12095381868E+03 -0.63827285288E+04  0.65000000000E+04  0.15050000000E+03 0. -1.
     100001    1    1    2    0    0  0.12138766210E+04 -0.12095381868E+03  0.63827285288E+04  0.65000000000E+04  0.15050000000E+03 0.  1.
</event>
<event>
 4    1  0.4630618E-004  0.6500000E+04  0.7818608E-02  0.7223770E-01
         52   -1    0    0    0    0  0.00000000000E+00  0.00000000000E+00  0.64930732323E+04  0.65000000000E+04  0.30000000000E+03 0. -1.
        -52   -1    0    0    0    0 -0.00000000000E+00 -0.00000000000E+00 -0.64930732323E+04  0.65000000000E+04  0.30000000000E+03 0.  1.
     100001    1    1    2    0    0 -0.33794952179E+04 -0.42264916967E+04  0.35976561480E+04  0.65000000000E+04  0.15050000000E+03 0. -1.
     100001    1    1    2    0    0  0.33794952179E+04  0.42264916967E+04 -0.35976561480E+04  0.65000000000E+04  0.15050000000E+03 0.  1.
</event>
<event>
 4    1  0.4630618E-004  0.6500000E+04  0.7818608E-02  0.7223770E-01
         52   -1    0    0    0    0  0.00000000000E+00  0.00000000000E+00  0.64930732323E+04  0.65000000000E+04  0.30000000000E+03 0.  1.
        -52   -1    0    0    0    0 -0.00000000000E+00 -0.00000000000E+00 -0.64930732323E+04  0.65000000000E+04  0.30000000000E+03 0. -1.
     100001    1    1    2    0    0 -0.28785706205E+04  0.67501418030E+03 -0.57866688854E+04  0.65000000000E+04  0.15050000000E+03 0. -1.
     100001    1    1    2    0    0  0.28785706205E+04 -0.67501418030E+03  0.57866688854E+04  0.65000000000E+04  0.15050000000E+03 0.  1.
</event>
<event>
 4    1  0.4630618E-004  0.6500000E+04  0.7818608E-02  0.7223770E-01
         52   -1    0    0    0    0  0.00000000000E+00  0.00000000000E+00  0.64930732323E+04  0.65000000000E+04  0.30000000000E+03 0.  1.
        -52   -1    0    0    0    0 -0.00000000000E+00 -0.00000000000E+00 -0.64930732323E+04  0.65000000000E+04  0.30000000000E+03 0.  1.
     100001    1    1    2    0    0  0.38152700386E+03  0.11344993242E+03 -0.64860555046E+04  0.65000000000E+04  0.15050000000E+03 0.  1.
     100001    1    1    2    0    0 -0.38152700386E+03 -0.11344993242E+03  0.64860555046E+04  0.65000000000E+04  0.15050000000E+03 0.  1.
</event>
<event>
 4    1  0.4630618E-004  0.6500000E+04  0.7818608E-02  0.7223770E-01
         52   -1    0    0    0    0  0.00000000000E+00  0.00000000000E+00  0.64930732323E+04  0.65000000000E+04  0.30000000000E+03 0.  1.
        -52   -1    0    0    0    0 -0.00000000000E+00 -0.00000000000E+00 -0.64930732323E+04  0.65000000000E+04  0.30000000000E+03 0. -1.
     100001    1    1    2    0    0 -0.30547602397E+04  0.34572614005E+04 -0.45763668161E+04  0.65000000000E+04  0.15050000000E+03 0. -1.
     100001    1    1    2    0    0  0.30547602397E+04 -0.34572614005E+04  0.45763668161E+04  0.65000000000E+04  0.15050000000E+03 0.  1.
</event>
<event>
 4    1  0.4630618E-004  0.6500000E+04  0.7818608E-02  0.7223770E-01
         52   -1    0    0    0    0  0.00000000000E+00  0.00000000000E+00  0.64930732323E+04  0.65000000000E+04  0.30000000000E+03 0. -1.
        -52   -1    0    0    0    0 -0.00000000000E+00 -0.00000000000E+00 -0.64930732323E+04  0.65000000000E+04  0.30000000000E+03 0.  1.
     100001    1    1    2    0    0 -0.23497964647E+03  0.89520857984E+02  0.64933905113E+04  0.65000000000E+04  0.15050000000E+03 0. -1.
     100001    1    1    2    0    0  0.23497964647E+03 -0.89520857984E+02 -0.64933905113E+04  0.65000000000E+04  0.15050000000E+03 0.  1.
</event>
<event>
 4    1  0.5340945E-004  0.6500000E+04  0.7818608E-02  0.7223770E-01
         52   -1    0    0    0    0  0.00000000000E+00  0.00000000000E+00  0.64930732323E+04  0.65000000000E+04  0.30000000000E+03 0.  1.
        -52   -1    0    0    0    0 -0.00000000000E+00 -0.00000000000E+00 -0.64930732323E+04  0.65000000000E+04  0.30000000000E+03 0.  1.
     100001    1    1    2    0    0 -0.18517943861E+03 -0.98091528566E+02 -0.64948777030E+04  0.65000000000E+04  0.15050000000E+03 0.  1.
     100001    1    1    2    0    0  0.18517943861E+03  0.98091528566E+02  0.64948777030E+04  0.65000000000E+04  0.15050000000E+03 0.  1.
</event>
<event>
 4    1  0.4630618E-004  0.6500000E+04  0.7818608E-02  0.7223770E-01
         52   -1    0    0    0    0  0.00000000000E+00  0.00000000000E+00  0.64930732323E+04  0.65000000000E+04  0.30000000000E+03 0. -1.
        -52   -1    0    0    0    0 -0.00000000000E+00 -0.00000000000E+00 -0.64930732323E+04  0.65000000000E+04  0.30000000000E+03 0.  1.
     100001    1    1    2    0    0 -0.23909030422E+04 -0.50641808473E+03 -0.60211687500E+04  0.65000000000E+04  0.15050000000E+03 0.  1.
     100001    1    1    2    0    0  0.23909030422E+04  0.50641808473E+03  0.60211687500E+04  0.65000000000E+04  0.15050000000E+03 0. -1.
</event>
<event>
 4    1  0.4630618E-004  0.6500000E+04  0.7818608E-02  0.7223770E-01
         52   -1    0    0    0    0  0.00000000000E+00  0.00000000000E+00  0.64930732323E+04  0.65000000000E+04  0.30000000000E+03 0.  1.
        -52   -1    0    0    0    0 -0.00000000000E+00 -0.00000000000E+00 -0.64930732323E+04  0.65000000000E+04  0.30000000000E+03 0.  1.
     100001    1    1    2    0    0  0.22973585757E+03 -0.12495826422E+03  0.64929928860E+04  0.65000000000E+04  0.15050000000E+03 0.  1.
     100001    1    1    2    0    0 -0.22973585757E+03  0.12495826422E+03 -0.64929928860E+04  0.65000000000E+04  0.15050000000E+03 0.  1.
</event>
<event>
 4    1  0.4630618E-004  0.6500000E+04  0.7818608E-02  0.7223770E-01
         52   -1    0    0    0    0  0.00000000000E+00  0.00000000000E+00  0.64930732323E+04  0.65000000000E+04  0.30000000000E+03 0. -1.
        -52   -1    0    0    0    0 -0.00000000000E+00 -0.00000000000E+00 -0.64930732323E+04  0.65000000000E+04  0.30000000000E+03 0.  1.
     100001    1    1    2    0    0 -0.55742392314E+03 -0.12852022050E+04  0.63454616548E+04  0.65000000000E+04  0.15050000000E+03 0. -1.
     100001    1    1    2    0    0  0.55742392314E+03  0.12852022050E+04 -0.63454616548E+04  0.65000000000E+04  0.15050000000E+03 0.  1.
</event>
<event>
 4    1  0.4630618E-004  0.6500000E+04  0.7818608E-02  0.7223770E-01
         52   -1    0    0    0    0  0.00000000000E+00  0.00000000000E+00  0.64930732323E+04  0.65000000000E+04  0.30000000000E+03 0. -1.
        -52   -1    0    0    0    0 -0.00000000000E+00 -0.00000000000E+00 -0.64930732323E+04  0.65000000000E+04  0.30000000000E+03 0. -1.
     100001    1    1    2    0    0 -0.17485077271E+03 -0.35519705250E+03  0.64861862455E+04  0.65000000000E+04  0.15050000000E+03 0. -1.
     100001    1    1    2    0    0  0.17485077271E+03  0.35519705250E+03 -0.64861862455E+04  0.65000000000E+04  0.15050000000E+03 0. -1.
</event>
<event>
 4    1  0.4630618E-004  0.6500000E+04  0.7818608E-02  0.7223770E-01
         52   -1    0    0    0    0  0.00000000000E+00  0.00000000000E+00  0.64930732323E+04  0.65000000000E+04  0.30000000000E+03 0. -1.
        -52   -1    0    0    0    0 -0.00000000000E+00 -0.00000000000E+00 -0.64930732323E+04  0.65000000000E+04  0.30000000000E+03 0.  1.
     100001    1    1    2    0    0  0.51347041360E+03  0.14658601217E+04  0.63099090317E+04  0.65000000000E+04  0.15050000000E+03 0. -1.
     100001    1    1    2    0    0 -0.51347041360E+03 -0.14658601217E+04 -0.63099090317E+04  0.65000000000E+04  0.15050000000E+03 0.  1.
</event>
<event>
 4    1  0.4630618E-004  0.6500000E+04  0.7818608E-02  0.7223770E-01
         52   -1    0    0    0    0  0.00000000000E+00  0.00000000000E+00  0.64930732323E+04  0.65000000000E+04  0.30000000000E+03 0. -1.
        -52   -1    0    0    0    0 -0.00000000000E+00 -0.00000000000E+00 -0.64930732323E+04  0.65000000000E+04  0.30000000000E+03 0.  1.
     100001    1    1    2    0    0  0.34605576600E+03  0.14715452500E+04 -0.63199802005E+04  0.65000000000E+04  0.15050000000E+03 0.  1.
     100001    1    1    2    0    0 -0.34605576600E+03 -0.14715452500E+04  0.63199802005E+04  0.65000000000E+04  0.15050000000E+03 0. -1.
</event>
<event>
 4    1  0.4630618E-004  0.6500000E+04  0.7818608E-02  0.7223770E-01
         52   -1    0    0    0    0  0.00000000000E+00  0.00000000000E+00  0.64930732323E+04  0.65000000000E+04  0.30000000000E+03 0.  1.
        -52   -1    0    0    0    0 -0.00000000000E+00 -0.00000000000E+00 -0.64930732323E+04  0.65000000000E+04  0.30000000000E+03 0. -1.
     100001    1    1    2    0    0 -0.40566372632E+04  0.22048905700E+04 -0.45726908313E+04  0.65000000000E+04  0.15050000000E+03 0. -1.
     100001    1    1    2    0    0  0.40566372632E+04 -0.22048905700E+04  0.45726908313E+04  0.65000000000E+04  0.15050000000E+03 0.  1.
</event>
<event>
 4    1  0.4630618E-004  0.6500000E+04  0.7818608E-02  0.7223770E-01
         52   -1    0    0    0    0  0.00000000000E+00  0.00000000000E+00  0.64930732323E+04  0.65000000000E+04  0.30000000000E+03 0. -1.
        -52   -1    0    0    0    0 -0.00000000000E+00 -0.00000000000E+00 -0.64930732323E+04  0.65000000000E+04  0.30000000000E+03 0.  1.
     100001    1    1    2    0    0  0.29136085918E+03  0.98987567111E+02 -0.64909675751E+04  0.65000000000E+04  0.15050000000E+03 0.  1.
     100001    1    1    2    0    0 -0.29136085918E+03 -0.98987567111E+02  0.64909675751E+04  0.65000000000E+04  0.15050000000E+03 0. -1.
</event>
<event>
 4    1  0.4630618E-004  0.6500000E+04  0.7818608E-02  0.7223770E-01
         52   -1    0    0    0    0  0.00000000000E+00  0.00000000000E+00  0.64930732323E+04  0.65000000000E+04  0.30000000000E+03 0. -1.
        -52   -1    0    0    0    0 -0.00000000000E+00 -0.00000000000E+00 -0.64930732323E+04  0.65000000000E+04  0.30000000000E+03 0.  1.
     100001    1    1    2    0    0  0.71216589883E+03  0.12542894109E+03 -0.64578972633E+04  0.65000000000E+04  0.15050000000E+03 0.  1.
     100001    1    1    2    0    0 -0.71216589883E+03 -0.12542894109E+03  0.64578972633E+04  0.65000000000E+04  0.15050000000E+03 0. -1.
</event>
<event>
 4    1  0.4630618E-004  0.6500000E+04  0.7818608E-02  0.7223770E-01
         52   -1    0    0    0    0  0.00000000000E+00  0.00000000000E+00  0.64930732323E+04  0.65000000000E+04  0.30000000000E+03 0.  1.
        -52   -1    0    0    0    0 -0.00000000000E+00 -0.00000000000E+00 -0.64930732323E+04  0.65000000000E+04  0.30000000000E+03 0. -1.
     100001    1    1    2    0    0 -0.26718310935E+04  0.40412811899E+04 -0.43309022965E+04  0.65000000000E+04  0.15050000000E+03 0. -1.
     100001    1    1    2    0    0  0.26718310935E+04 -0.40412811899E+04  0.43309022965E+04  0.65000000000E+04  0.15050000000E+03 0.  1.
</event>
<event>
 4    1  0.4630618E-004  0.6500000E+04  0.7818608E-02  0.7223770E-01
         52   -1    0    0    0    0  0.00000000000E+00  0.00000000000E+00  0.64930732323E+04  0.65000000000E+04  0.30000000000E+03 0. -1.
        -52   -1    0    0    0    0 -0.00000000000E+00 -0.00000000000E+00 -0.64930732323E+04  0.65000000000E+04  0.30000000000E+03 0.  1.
     100001    1    1    2    0    0 -0.70387811131E+03 -0.34600100082E+03 -0.64507510153E+04  0.65000000000E+04  0.15050000000E+03 0.  1.
     100001    1    1    2    0    0  0.70387811131E+03  0.34600100082E+03  0.64507510153E+04  0.65000000000E+04  0.15050000000E+03 0. -1.
</event>
<event>
 4    1  0.4630618E-004  0.6500000E+04  0.7818608E-02  0.7223770E-01
         52   -1    0    0    0    0  0.00000000000E+00  0.00000000000E+00  0.64930732323E+04  0.65000000000E+04  0.30000000000E+03 0.  1.
        -52   -1    0    0    0    0 -0.00000000000E+00 -0.00000000000E+00 -0.64930732323E+04  0.65000000000E+04  0.30000000000E+03 0. -1.
     100001    1    1    2    0    0 -0.60724314814E+02  0.20833838655E+04  0.61549308669E+04  0.65000000000E+04  0.15050000000E+03 0.  1.
     100001    1    1    2    0    0  0.60724314814E+02 -0.20833838655E+04 -0.61549308669E+04  0.65000000000E+04  0.15050000000E+03 0. -1.
</event>
<event>
 4    1  0.4630618E-004  0.6500000E+04  0.7818608E-02  0.7223770E-01
         52   -1    0    0    0    0  0.00000000000E+00  0.00000000000E+00  0.64930732323E+04  0.65000000000E+04  0.30000000000E+03 0.  1.
        -52   -1    0    0    0    0 -0.00000000000E+00 -0.00000000000E+00 -0.64930732323E+04  0.65000000000E+04  0.30000000000E+03 0. -1.
     100001    1    1    2    0    0 -0.26096074975E+04  0.58470913135E+04 -0.11085222736E+04  0.65000000000E+04  0.15050000000E+03 0.  1.
     100001    1    1    2    0    0  0.26096074975E+04 -0.58470913135E+04  0.11085222736E+04  0.65000000000E+04  0.15050000000E+03 0. -1.
</event>
<event>
 4    1  0.4630618E-004  0.6500000E+04  0.7818608E-02  0.7223770E-01
         52   -1    0    0    0    0  0.00000000000E+00  0.00000000000E+00  0.64930732323E+04  0.65000000000E+04  0.30000000000E+03 0.  1.
        -52   -1    0    0    0    0 -0.00000000000E+00 -0.00000000000E+00 -0.64930732323E+04  0.65000000000E+04  0.30000000000E+03 0. -1.
     100001    1    1    2    0    0 -0.28396343677E+03 -0.82534867365E+03 -0.64393721808E+04  0.65000000000E+04  0.15050000000E+03 0. -1.
     100001    1    1    2    0    0  0.28396343677E+03  0.82534867365E+03  0.64393721808E+04  0.65000000000E+04  0.15050000000E+03 0.  1.
</event>
<event>
 4    1  0.4630618E-004  0.6500000E+04  0.7818608E-02  0.7223770E-01
         52   -1    0    0    0    0  0.00000000000E+00  0.00000000000E+00  0.64930732323E+04  0.65000000000E+04  0.30000000000E+03 0.  1.
        -52   -1    0    0    0    0 -0.00000000000E+00 -0.00000000000E+00 -0.64930732323E+04  0.65000000000E+04  0.30000000000E+03 0. -1.
     100001    1    1    2    0    0  0.26622989590E+02 -0.30535178556E+03  0.64910246690E+04  0.65000000000E+04  0.15050000000E+03 0.  1.
     100001    1    1    2    0    0 -0.26622989590E+02  0.30535178556E+03 -0.64910246690E+04  0.65000000000E+04  0.15050000000E+03 0. -1.
</event>
<event>
 4    1  0.4630618E-004  0.6500000E+04  0.7818608E-02  0.7223770E-01
         52   -1    0    0    0    0  0.00000000000E+00  0.00000000000E+00  0.64930732323E+04  0.65000000000E+04  0.30000000000E+03 0. -1.
        -52   -1    0    0    0    0 -0.00000000000E+00 -0.00000000000E+00 -0.64930732323E+04  0.65000000000E+04  0.30000000000E+03 0.  1.
     100001    1    1    2    0    0  0.35050815300E+04  0.16766546880E+04 -0.52087025520E+04  0.65000000000E+04  0.15050000000E+03 0.  1.
     100001    1    1    2    0    0 -0.35050815300E+04 -0.16766546880E+04  0.52087025520E+04  0.65000000000E+04  0.15050000000E+03 0. -1.
</event>
<event>
 4    1  0.4630618E-004  0.6500000E+04  0.7818608E-02  0.7223770E-01
         52   -1    0    0    0    0  0.00000000000E+00  0.00000000000E+00  0.64930732323E+04  0.65000000000E+04  0.30000000000E+03 0.  1.
        -52   -1    0    0    0    0 -0.00000000000E+00 -0.00000000000E+00 -0.64930732323E+04  0.65000000000E+04  0.30000000000E+03 0. -1.
     100001    1    1    2    0    0  0.41124365828E+03  0.44705812005E+03 -0.64698042815E+04  0.65000000000E+04  0.15050000000E+03 0. -1.
     100001    1    1    2    0    0 -0.41124365828E+03 -0.44705812005E+03  0.64698042815E+04  0.65000000000E+04  0.15050000000E+03 0.  1.
</event>
<event>
 4    1  0.4630618E-004  0.6500000E+04  0.7818608E-02  0.7223770E-01
         52   -1    0    0    0    0  0.00000000000E+00  0.00000000000E+00  0.64930732323E+04  0.65000000000E+04  0.30000000000E+03 0. -1.
        -52   -1    0    0    0    0 -0.00000000000E+00 -0.00000000000E+00 -0.64930732323E+04  0.65000000000E+04  0.30000000000E+03 0.  1.
     100001    1    1    2    0    0 -0.28074677315E+04  0.42287946982E+04 -0.40574339288E+04  0.65000000000E+04  0.15050000000E+03 0.  1.
     100001    1    1    2    0    0  0.28074677315E+04 -0.42287946982E+04  0.40574339288E+04  0.65000000000E+04  0.15050000000E+03 0. -1.
</event>
<event>
 4    1  0.4630618E-004  0.6500000E+04  0.7818608E-02  0.7223770E-01
         52   -1    0    0    0    0  0.00000000000E+00  0.00000000000E+00  0.64930732323E+04  0.65000000000E+04  0.30000000000E+03 0. -1.
        -52   -1    0    0    0    0 -0.00000000000E+00 -0.00000000000E+00 -0.64930732323E+04  0.65000000000E+04  0.30000000000E+03 0. -1.
     100001    1    1    2    0    0 -0.33857676621E+03  0.21190411773E+03 -0.64859704107E+04  0.65000000000E+04  0.15050000000E+03 0. -1.
     100001    1    1    2    0    0  0.33857676621E+03 -0.21190411773E+03  0.64859704107E+04  0.65000000000E+04  0.15050000000E+03 0. -1.
</event>
<event>
 4    1  0.4630618E-004  0.6500000E+04  0.7818608E-02  0.7223770E-01
         52   -1    0    0    0    0  0.00000000000E+00  0.00000000000E+00  0.64930732323E+04  0.65000000000E+04  0.30000000000E+03 0. -1.
        -52   -1    0    0    0    0 -0.00000000000E+00 -0.00000000000E+00 -0.64930732323E+04  0.65000000000E+04  0.30000000000E+03 0.  1.
     100001    1    1    2    0    0  0.22323021890E+04  0.12815627144E+04 -0.59667221903E+04  0.65000000000E+04  0.15050000000E+03 0.  1.
     100001    1    1    2    0    0 -0.22323021890E+04 -0.12815627144E+04  0.59667221903E+04  0.65000000000E+04  0.15050000000E+03 0. -1.
</event>
<event>
 4    1  0.4630618E-004  0.6500000E+04  0.7818608E-02  0.7223770E-01
         52   -1    0    0    0    0  0.00000000000E+00  0.00000000000E+00  0.64930732323E+04  0.65000000000E+04  0.30000000000E+03 0.  1.
        -52   -1    0    0    0    0 -0.00000000000E+00 -0.00000000000E+00 -0.64930732323E+04  0.65000000000E+04  0.30000000000E+03 0. -1.
     100001    1    1    2    0    0  0.64828292785E+03  0.46855419479E+02  0.64656696146E+04  0.65000000000E+04  0.15050000000E+03 0.  1.
     100001    1    1    2    0    0 -0.64828292785E+03 -0.46855419479E+02 -0.64656696146E+04  0.65000000000E+04  0.15050000000E+03 0. -1.
</event>
<event>
 4    1  0.4630618E-004  0.6500000E+04  0.7818608E-02  0.7223770E-01
         52   -1    0    0    0    0  0.00000000000E+00  0.00000000000E+00  0.64930732323E+04  0.65000000000E+04  0.30000000000E+03 0.  1.
        -52   -1    0    0    0    0 -0.00000000000E+00 -0.00000000000E+00 -0.64930732323E+04  0.65000000000E+04  0.30000000000E+03 0.  1.
     100001    1    1    2    0    0  0.86329053081E+02 -0.32610974607E+03  0.64894953177E+04  0.65000000000E+04  0.15050000000E+03 0.  1.
     100001    1    1    2    0    0 -0.86329053081E+02  0.32610974607E+03 -0.64894953177E+04  0.65000000000E+04  0.15050000000E+03 0.  1.
</event>
<event>
 4    1  0.4630618E-004  0.6500000E+04  0.7818608E-02  0.7223770E-01
         52   -1    0    0    0    0  0.00000000000E+00  0.00000000000E+00  0.64930732323E+04  0.65000000000E+04  0.30000000000E+03 0. -1.
        -52   -1    0    0    0    0 -0.00000000000E+00 -0.00000000000E+00 -0.64930732323E+04  0.65000000000E+04  0.30000000000E+03 0.  1.
     100001    1    1    2    0    0  0.18490479348E+04 -0.39188356322E+03  0.62172983488E+04  0.65000000000E+04  0.15050000000E+03 0. -1.
     100001    1    1    2    0    0 -0.18490479348E+04  0.39188356322E+03 -0.62172983488E+04  0.65000000000E+04  0.15050000000E+03 0.  1.
</event>
<event>
 4    1  0.5666597E-004  0.6500000E+04  0.7818608E-02  0.7223770E-01
         52   -1    0    0    0    0  0.00000000000E+00  0.00000000000E+00  0.64930732323E+04  0.65000000000E+04  0.30000000000E+03 0. -1.
        -52   -1    0    0    0    0 -0.00000000000E+00 -0.00000000000E+00 -0.64930732323E+04  0.65000000000E+04  0.30000000000E+03 0. -1.
     100001    1    1    2    0    0  0.51391885805E+02  0.84443633026E+02  0.64975055134E+04  0.65000000000E+04  0.15050000000E+03 0. -1.
     100001    1    1    2    0    0 -0.51391885805E+02 -0.84443633026E+02 -0.64975055134E+04  0.65000000000E+04  0.15050000000E+03 0. -1.
</event>
<event>
 4    1  0.4630618E-004  0.6500000E+04  0.7818608E-02  0.7223770E-01
         52   -1    0    0    0    0  0.00000000000E+00  0.00000000000E+00  0.64930732323E+04  0.65000000000E+04  0.30000000000E+03 0.  1.
        -52   -1    0    0    0    0 -0.00000000000E+00 -0.00000000000E+00 -0.64930732323E+04  0.65000000000E+04  0.30000000000E+03 0. -1.
     100001    1    1    2    0    0  0.14797407052E+04  0.60596082268E+04  0.18217753246E+04  0.65000000000E+04  0.15050000000E+03 0.  1.
     100001    1    1    2    0    0 -0.14797407052E+04 -0.60596082268E+04 -0.18217753246E+04  0.65000000000E+04  0.15050000000E+03 0. -1.
</event>
<event>
 4    1  0.4630618E-004  0.6500000E+04  0.7818608E-02  0.7223770E-01
         52   -1    0    0    0    0  0.00000000000E+00  0.00000000000E+00  0.64930732323E+04  0.65000000000E+04  0.30000000000E+03 0.  1.
        -52   -1    0    0    0    0 -0.00000000000E+00 -0.00000000000E+00 -0.64930732323E+04  0.65000000000E+04  0.30000000000E+03 0. -1.
     100001    1    1    2    0    0 -0.97510188432E+03 -0.55071360127E+04 -0.33087730358E+04  0.65000000000E+04  0.15050000000E+03 0. -1.
     100001    1    1    2    0    0  0.97510188432E+03  0.55071360127E+04  0.33087730358E+04  0.65000000000E+04  0.15050000000E+03 0.  1.
</event>
<event>
 4    1  0.4630618E-004  0.6500000E+04  0.7818608E-02  0.7223770E-01
         52   -1    0    0    0    0  0.00000000000E+00  0.00000000000E+00  0.64930732323E+04  0.65000000000E+04  0.30000000000E+03 0. -1.
        -52   -1    0    0    0    0 -0.00000000000E+00 -0.00000000000E+00 -0.64930732323E+04  0.65000000000E+04  0.30000000000E+03 0.  1.
     100001    1    1    2    0    0 -0.14745718538E+04 -0.78934435720E+03  0.62793250500E+04  0.65000000000E+04  0.15050000000E+03 0. -1.
     100001    1    1    2    0    0  0.14745718538E+04  0.78934435720E+03 -0.62793250500E+04  0.65000000000E+04  0.15050000000E+03 0.  1.
</event>
<event>
 4    1  0.4630618E-004  0.6500000E+04  0.7818608E-02  0.7223770E-01
         52   -1    0    0    0    0  0.00000000000E+00  0.00000000000E+00  0.64930732323E+04  0.65000000000E+04  0.30000000000E+03 0.  1.
        -52   -1    0    0    0    0 -0.00000000000E+00 -0.00000000000E+00 -0.64930732323E+04  0.65000000000E+04  0.30000000000E+03 0. -1.
     100001    1    1    2    0    0  0.28433264313E+03  0.12507200805E+04  0.63704163112E+04  0.65000000000E+04  0.15050000000E+03 0.  1.
     100001    1    1    2    0    0 -0.28433264313E+03 -0.12507200805E+04 -0.63704163112E+04  0.65000000000E+04  0.15050000000E+03 0. -1.
</event>
<event>
 4    1  0.4630618E-004  0.6500000E+04  0.7818608E-02  0.7223770E-01
         52   -1    0    0    0    0  0.00000000000E+00  0.00000000000E+00  0.64930732323E+04  0.65000000000E+04  0.30000000000E+03 0. -1.
        -52   -1    0    0    0    0 -0.00000000000E+00 -0.00000000000E+00 -0.64930732323E+04  0.65000000000E+04  0.30000000000E+03 0.  1.
     100001    1    1    2    0    0  0.19869783811E+04 -0.18507926914E+03 -0.61842551958E+04  0.65000000000E+04  0.15050000000E+03 0.  1.
     100001    1    1    2    0    0 -0.19869783811E+04  0.18507926914E+03  0.61842551958E+04  0.65000000000E+04  0.15050000000E+03 0. -1.
</event>
<event>
 4    1  0.4630618E-004  0.6500000E+04  0.7818608E-02  0.7223770E-01
         52   -1    0    0    0    0  0.00000000000E+00  0.00000000000E+00  0.64930732323E+04  0.65000000000E+04  0.30000000000E+03 0.  1.
        -52   -1    0    0    0    0 -0.00000000000E+00 -0.00000000000E+00 -0.64930732323E+04  0.65000000000E+04  0.30000000000E+03 0. -1.
     100001    1    1    2    0    0 -0.63571707532E+04 -0.89792968096E+03  0.10037191104E+04  0.65000000000E+04  0.15050000000E+03 0.  1.
     100001    1    1    2    0    0  0.63571707532E+04  0.89792968096E+03 -0.10037191104E+04  0.65000000000E+04  0.15050000000E+03 0. -1.
</event>
<event>
 4    1  0.4630618E-004  0.6500000E+04  0.7818608E-02  0.7223770E-01
         52   -1    0    0    0    0  0.00000000000E+00  0.00000000000E+00  0.64930732323E+04  0.65000000000E+04  0.30000000000E+03 0. -1.
        -52   -1    0    0    0    0 -0.00000000000E+00 -0.00000000000E+00 -0.64930732323E+04  0.65000000000E+04  0.30000000000E+03 0.  1.
     100001    1    1    2    0    0  0.27583364610E+04  0.49176764019E+04  0.32303851975E+04  0.65000000000E+04  0.15050000000E+03 0.  1.
     100001    1    1    2    0    0 -0.27583364610E+04 -0.49176764019E+04 -0.32303851975E+04  0.65000000000E+04  0.15050000000E+03 0. -1.
</event>
<event>
 4    1  0.4630618E-004  0.6500000E+04  0.7818608E-02  0.7223770E-01
         52   -1    0    0    0    0  0.00000000000E+00  0.00000000000E+00  0.64930732323E+04  0.65000000000E+04  0.30000000000E+03 0.  1.
        -52   -1    0    0    0    0 -0.00000000000E+00 -0.00000000000E+00 -0.64930732323E+04  0.65000000000E+04  0.30000000000E+03 0. -1.
     100001    1    1    2    0    0  0.34722449027E+03  0.82081480835E+03  0.64368507792E+04  0.65000000000E+04  0.15050000000E+03 0.  1.
     100001    1    1    2    0    0 -0.34722449027E+03 -0.82081480835E+03 -0.64368507792E+04  0.65000000000E+04  0.15050000000E+03 0. -1.
</event>
<event>
 4    1  0.4630618E-004  0.6500000E+04  0.7818608E-02  0.7223770E-01
         52   -1    0    0    0    0  0.00000000000E+00  0.00000000000E+00  0.64930732323E+04  0.65000000000E+04  0.30000000000E+03 0. -1.
        -52   -1    0    0    0    0 -0.00000000000E+00 -0.00000000000E+00 -0.64930732323E+04  0.65000000000E+04  0.30000000000E+03 0.  1.
     100001    1    1    2    0    0  0.57936369142E+04  0.25125108176E+04 -0.15324524293E+04  0.65000000000E+04  0.15050000000E+03 0.  1.
     100001    1    1    2    0    0 -0.57936369142E+04 -0.25125108176E+04  0.15324524293E+04  0.65000000000E+04  0.15050000000E+03 0. -1.
</event>
<event>
 4    1  0.4630618E-004  0.6500000E+04  0.7818608E-02  0.7223770E-01
         52   -1    0    0    0    0  0.00000000000E+00  0.00000000000E+00  0.64930732323E+04  0.65000000000E+04  0.30000000000E+03 0. -1.
        -52   -1    0    0    0    0 -0.00000000000E+00 -0.00000000000E+00 -0.64930732323E+04  0.65000000000E+04  0.30000000000E+03 0. -1.
     100001    1    1    2    0    0  0.12218155334E+03  0.40443846038E+03 -0.64845085357E+04  0.65000000000E+04  0.15050000000E+03 0. -1.
     100001    1    1    2    0    0 -0.12218155334E+03 -0.40443846038E+03  0.64845085357E+04  0.65000000000E+04  0.15050000000E+03 0. -1.
</event>
<event>
 4    1  0.4630618E-004  0.6500000E+04  0.7818608E-02  0.7223770E-01
         52   -1    0    0    0    0  0.00000000000E+00  0.00000000000E+00  0.64930732323E+04  0.65000000000E+04  0.30000000000E+03 0. -1.
        -52   -1    0    0    0    0 -0.00000000000E+00 -0.00000000000E+00 -0.64930732323E+04  0.65000000000E+04  0.30000000000E+03 0.  1.
     100001    1    1    2    0    0  0.76338918857E+03 -0.10074316220E+04 -0.63741405871E+04  0.65000000000E+04  0.15050000000E+03 0.  1.
     100001    1    1    2    0    0 -0.76338918857E+03  0.10074316220E+04  0.63741405871E+04  0.65000000000E+04  0.15050000000E+03 0. -1.
</event>
<event>
 4    1  0.4630618E-004  0.6500000E+04  0.7818608E-02  0.7223770E-01
         52   -1    0    0    0    0  0.00000000000E+00  0.00000000000E+00  0.64930732323E+04  0.65000000000E+04  0.30000000000E+03 0.  1.
        -52   -1    0    0    0    0 -0.00000000000E+00 -0.00000000000E+00 -0.64930732323E+04  0.65000000000E+04  0.30000000000E+03 0. -1.
     100001    1    1    2    0    0  0.43615439099E+03 -0.52076968082E+03  0.64626556489E+04  0.65000000000E+04  0.15050000000E+03 0.  1.
     100001    1    1    2    0    0 -0.43615439099E+03  0.52076968082E+03 -0.64626556489E+04  0.65000000000E+04  0.15050000000E+03 0. -1.
</event>
<event>
 4    1  0.4630618E-004  0.6500000E+04  0.7818608E-02  0.7223770E-01
         52   -1    0    0    0    0  0.00000000000E+00  0.00000000000E+00  0.64930732323E+04  0.65000000000E+04  0.30000000000E+03 0. -1.
        -52   -1    0    0    0    0 -0.00000000000E+00 -0.00000000000E+00 -0.64930732323E+04  0.65000000000E+04  0.30000000000E+03 0.  1.
     100001    1    1    2    0    0  0.92273832679E+03 -0.59571199187E+03  0.64047662684E+04  0.65000000000E+04  0.15050000000E+03 0. -1.
     100001    1    1    2    0    0 -0.92273832679E+03  0.59571199187E+03 -0.64047662684E+04  0.65000000000E+04  0.15050000000E+03 0.  1.
</event>
<event>
 4    1  0.4630618E-004  0.6500000E+04  0.7818608E-02  0.7223770E-01
         52   -1    0    0    0    0  0.00000000000E+00  0.00000000000E+00  0.64930732323E+04  0.65000000000E+04  0.30000000000E+03 0.  1.
        -52   -1    0    0    0    0 -0.00000000000E+00 -0.00000000000E+00 -0.64930732323E+04  0.65000000000E+04  0.30000000000E+03 0. -1.
     100001    1    1    2    0    0 -0.21170181715E+04 -0.13259099311E+04 -0.59989621324E+04  0.65000000000E+04  0.15050000000E+03 0. -1.
     100001    1    1    2    0    0  0.21170181715E+04  0.13259099311E+04  0.59989621324E+04  0.65000000000E+04  0.15050000000E+03 0.  1.
</event>
<event>
 4    1  0.4630618E-004  0.6500000E+04  0.7818608E-02  0.7223770E-01
         52   -1    0    0    0    0  0.00000000000E+00  0.00000000000E+00  0.64930732323E+04  0.65000000000E+04  0.30000000000E+03 0.  1.
        -52   -1    0    0    0    0 -0.00000000000E+00 -0.00000000000E+00 -0.64930732323E+04  0.65000000000E+04  0.30000000000E+03 0. -1.
     100001    1    1    2    0    0 -0.27117504579E+03  0.12279277488E+04 -0.63754221263E+04  0.65000000000E+04  0.15050000000E+03 0. -1.
     100001    1    1    2    0    0  0.27117504579E+03 -0.12279277488E+04  0.63754221263E+04  0.65000000000E+04  0.15050000000E+03 0.  1.
</event>
<event>
 4    1  0.4630618E-004  0.6500000E+04  0.7818608E-02  0.7223770E-01
         52   -1    0    0    0    0  0.00000000000E+00  0.00000000000E+00  0.64930732323E+04  0.65000000000E+04  0.30000000000E+03 0.  1.
        -52   -1    0    0    0    0 -0.00000000000E+00 -0.00000000000E+00 -0.64930732323E+04  0.65000000000E+04  0.30000000000E+03 0.  1.
     100001    1    1    2    0    0  0.10462980762E+03 -0.35378187075E+03  0.64877762555E+04  0.65000000000E+04  0.15050000000E+03 0.  1.
     100001    1    1    2    0    0 -0.10462980762E+03  0.35378187075E+03 -0.64877762555E+04  0.65000000000E+04  0.15050000000E+03 0.  1.
</event>
<event>
 4    1  0.4630618E-004  0.6500000E+04  0.7818608E-02  0.7223770E-01
         52   -1    0    0    0    0  0.00000000000E+00  0.00000000000E+00  0.64930732323E+04  0.65000000000E+04  0.30000000000E+03 0.  1.
        -52   -1    0    0    0    0 -0.00000000000E+00 -0.00000000000E+00 -0.64930732323E+04  0.65000000000E+04  0.30000000000E+03 0. -1.
     100001    1    1    2    0    0  0.63146324442E+03  0.24700407303E+03 -0.64627852284E+04  0.65000000000E+04  0.15050000000E+03 0. -1.
     100001    1    1    2    0    0 -0.63146324442E+03 -0.24700407303E+03  0.64627852284E+04  0.65000000000E+04  0.15050000000E+03 0.  1.
</event>
<event>
 4    1  0.4630618E-004  0.6500000E+04  0.7818608E-02  0.7223770E-01
         52   -1    0    0    0    0  0.00000000000E+00  0.00000000000E+00  0.64930732323E+04  0.65000000000E+04  0.30000000000E+03 0.  1.
        -52   -1    0    0    0    0 -0.00000000000E+00 -0.00000000000E+00 -0.64930732323E+04  0.65000000000E+04  0.30000000000E+03 0. -1.
     100001    1    1    2    0    0 -0.23163345656E+04  0.45842882741E+04  0.39807342225E+04  0.65000000000E+04  0.15050000000E+03 0.  1.
     100001    1    1    2    0    0  0.23163345656E+04 -0.45842882741E+04 -0.39807342225E+04  0.65000000000E+04  0.15050000000E+03 0. -1.
</event>
<event>
 4    1  0.4630618E-004  0.6500000E+04  0.7818608E-02  0.7223770E-01
         52   -1    0    0    0    0  0.00000000000E+00  0.00000000000E+00  0.64930732323E+04  0.65000000000E+04  0.30000000000E+03 0. -1.
        -52   -1    0    0    0    0 -0.00000000000E+00 -0.00000000000E+00 -0.64930732323E+04  0.65000000000E+04  0.30000000000E+03 0.  1.
     100001    1    1    2    0    0 -0.14063386666E+04  0.33673275267E+03  0.63353115439E+04  0.65000000000E+04  0.15050000000E+03 0. -1.
     100001    1    1    2    0    0  0.14063386666E+04 -0.33673275267E+03 -0.63353115439E+04  0.65000000000E+04  0.15050000000E+03 0.  1.
</event>
<event>
 4    1  0.4630618E-004  0.6500000E+04  0.7818608E-02  0.7223770E-01
         52   -1    0    0    0    0  0.00000000000E+00  0.00000000000E+00  0.64930732323E+04  0.65000000000E+04  0.30000000000E+03 0.  1.
        -52   -1    0    0    0    0 -0.00000000000E+00 -0.00000000000E+00 -0.64930732323E+04  0.65000000000E+04  0.30000000000E+03 0.  1.
     100001    1    1    2    0    0 -0.27784998936E+03 -0.18249704288E+03  0.64897491448E+04  0.65000000000E+04  0.15050000000E+03 0.  1.
     100001    1    1    2    0    0  0.27784998936E+03  0.18249704288E+03 -0.64897491448E+04  0.65000000000E+04  0.15050000000E+03 0.  1.
</event>
<event>
 4    1  0.4630618E-004  0.6500000E+04  0.7818608E-02  0.7223770E-01
         52   -1    0    0    0    0  0.00000000000E+00  0.00000000000E+00  0.64930732323E+04  0.65000000000E+04  0.30000000000E+03 0.  1.
        -52   -1    0    0    0    0 -0.00000000000E+00 -0.00000000000E+00 -0.64930732323E+04  0.65000000000E+04  0.30000000000E+03 0. -1.
     100001    1    1    2    0    0  0.36436366527E+03  0.10665369443E+03 -0.64871576101E+04  0.65000000000E+04  0.15050000000E+03 0. -1.
     100001    1    1    2    0    0 -0.36436366527E+03 -0.10665369443E+03  0.64871576101E+04  0.65000000000E+04  0.15050000000E+03 0.  1.
</event>
<event>
 4    1  0.4630618E-004  0.6500000E+04  0.7818608E-02  0.7223770E-01
         52   -1    0    0    0    0  0.00000000000E+00  0.00000000000E+00  0.64930732323E+04  0.65000000000E+04  0.30000000000E+03 0.  1.
        -52   -1    0    0    0    0 -0.00000000000E+00 -0.00000000000E+00 -0.64930732323E+04  0.65000000000E+04  0.30000000000E+03 0. -1.
     100001    1    1    2    0    0  0.13734315147E+03  0.65683880080E+03  0.64635167980E+04  0.65000000000E+04  0.15050000000E+03 0.  1.
     100001    1    1    2    0    0 -0.13734315147E+03 -0.65683880080E+03 -0.64635167980E+04  0.65000000000E+04  0.15050000000E+03 0. -1.
</event>
<event>
 4    1  0.4630618E-004  0.6500000E+04  0.7818608E-02  0.7223770E-01
         52   -1    0    0    0    0  0.00000000000E+00  0.00000000000E+00  0.64930732323E+04  0.65000000000E+04  0.30000000000E+03 0. -1.
        -52   -1    0    0    0    0 -0.00000000000E+00 -0.00000000000E+00 -0.64930732323E+04  0.65000000000E+04  0.30000000000E+03 0. -1.
     100001    1    1    2    0    0  0.20524886722E+03  0.11338394621E+04 -0.63952819114E+04  0.65000000000E+04  0.15050000000E+03 0. -1.
     100001    1    1    2    0    0 -0.20524886722E+03 -0.11338394621E+04  0.63952819114E+04  0.65000000000E+04  0.15050000000E+03 0. -1.
</event>
<event>
 4    1  0.4630618E-004  0.6500000E+04  0.7818608E-02  0.7223770E-01
         52   -1    0    0    0    0  0.00000000000E+00  0.00000000000E+00  0.64930732323E+04  0.65000000000E+04  0.30000000000E+03 0. -1.
        -52   -1    0    0    0    0 -0.00000000000E+00 -0.00000000000E+00 -0.64930732323E+04  0.65000000000E+04  0.30000000000E+03 0.  1.
     100001    1    1    2    0    0 -0.16408553369E+03  0.52328390606E+03 -0.64750752614E+04  0.65000000000E+04  0.15050000000E+03 0.  1.
     100001    1    1    2    0    0  0.16408553369E+03 -0.52328390606E+03  0.64750752614E+04  0.65000000000E+04  0.15050000000E+03 0. -1.
</event>
<event>
 4    1  0.4630618E-004  0.6500000E+04  0.7818608E-02  0.7223770E-01
         52   -1    0    0    0    0  0.00000000000E+00  0.00000000000E+00  0.64930732323E+04  0.65000000000E+04  0.30000000000E+03 0. -1.
        -52   -1    0    0    0    0 -0.00000000000E+00 -0.00000000000E+00 -0.64930732323E+04  0.65000000000E+04  0.30000000000E+03 0. -1.
     100001    1    1    2    0    0  0.16170265367E+03  0.43671832377E+02  0.64960984270E+04  0.65000000000E+04  0.15050000000E+03 0. -1.
     100001    1    1    2    0    0 -0.16170265367E+03 -0.43671832377E+02 -0.64960984270E+04  0.65000000000E+04  0.15050000000E+03 0. -1.
</event>
<event>
 4    1  0.4630618E-004  0.6500000E+04  0.7818608E-02  0.7223770E-01
         52   -1    0    0    0    0  0.00000000000E+00  0.00000000000E+00  0.64930732323E+04  0.65000000000E+04  0.30000000000E+03 0.  1.
        -52   -1    0    0    0    0 -0.00000000000E+00 -0.00000000000E+00 -0.64930732323E+04  0.65000000000E+04  0.30000000000E+03 0. -1.
     100001    1    1    2    0    0  0.20628692203E+04 -0.35567538451E+04  0.50320395880E+04  0.65000000000E+04  0.15050000000E+03 0.  1.
     100001    1    1    2    0    0 -0.20628692203E+04  0.35567538451E+04 -0.50320395880E+04  0.65000000000E+04  0.15050000000E+03 0. -1.
</event>
<event>
 4    1  0.4630618E-004  0.6500000E+04  0.7818608E-02  0.7223770E-01
         52   -1    0    0    0    0  0.00000000000E+00  0.00000000000E+00  0.64930732323E+04  0.65000000000E+04  0.30000000000E+03 0. -1.
        -52   -1    0    0    0    0 -0.00000000000E+00 -0.00000000000E+00 -0.64930732323E+04  0.65000000000E+04  0.30000000000E+03 0.  1.
     100001    1    1    2    0    0 -0.34157025533E+03  0.40754045809E+03 -0.64764643352E+04  0.65000000000E+04  0.15050000000E+03 0.  1.
     100001    1    1    2    0    0  0.34157025533E+03 -0.40754045809E+03  0.64764643352E+04  0.65000000000E+04  0.15050000000E+03 0. -1.
</event>
<event>
 4    1  0.4630618E-004  0.6500000E+04  0.7818608E-02  0.7223770E-01
         52   -1    0    0    0    0  0.00000000000E+00  0.00000000000E+00  0.64930732323E+04  0.65000000000E+04  0.30000000000E+03 0. -1.
        -52   -1    0    0    0    0 -0.00000000000E+00 -0.00000000000E+00 -0.64930732323E+04  0.65000000000E+04  0.30000000000E+03 0.  1.
     100001    1    1    2    0    0  0.41790460734E+04 -0.21581422009E+04 -0.44838985166E+04  0.65000000000E+04  0.15050000000E+03 0.  1.
     100001    1    1    2    0    0 -0.41790460734E+04  0.21581422009E+04  0.44838985166E+04  0.65000000000E+04  0.15050000000E+03 0. -1.
</event>
<event>
 4    1  0.4630618E-004  0.6500000E+04  0.7818608E-02  0.7223770E-01
         52   -1    0    0    0    0  0.00000000000E+00  0.00000000000E+00  0.64930732323E+04  0.65000000000E+04  0.30000000000E+03 0. -1.
        -52   -1    0    0    0    0 -0.00000000000E+00 -0.00000000000E+00 -0.64930732323E+04  0.65000000000E+04  0.30000000000E+03 0.  1.
     100001    1    1    2    0    0  0.16387040729E+03 -0.29517174402E+02 -0.64961238424E+04  0.65000000000E+04  0.15050000000E+03 0.  1.
     100001    1    1    2    0    0 -0.16387040729E+03  0.29517174402E+02  0.64961238424E+04  0.65000000000E+04  0.15050000000E+03 0. -1.
</event>
<event>
 4    1  0.4630618E-004  0.6500000E+04  0.7818608E-02  0.7223770E-01
         52   -1    0    0    0    0  0.00000000000E+00  0.00000000000E+00  0.64930732323E+04  0.65000000000E+04  0.30000000000E+03 0. -1.
        -52   -1    0    0    0    0 -0.00000000000E+00 -0.00000000000E+00 -0.64930732323E+04  0.65000000000E+04  0.30000000000E+03 0.  1.
     100001    1    1    2    0    0 -0.94344640243E+03  0.58275741507E+03  0.64029409205E+04  0.65000000000E+04  0.15050000000E+03 0. -1.
     100001    1    1    2    0    0  0.94344640243E+03 -0.58275741507E+03 -0.64029409205E+04  0.65000000000E+04  0.15050000000E+03 0.  1.
</event>
<event>
 4    1  0.4630618E-004  0.6500000E+04  0.7818608E-02  0.7223770E-01
         52   -1    0    0    0    0  0.00000000000E+00  0.00000000000E+00  0.64930732323E+04  0.65000000000E+04  0.30000000000E+03 0.  1.
        -52   -1    0    0    0    0 -0.00000000000E+00 -0.00000000000E+00 -0.64930732323E+04  0.65000000000E+04  0.30000000000E+03 0. -1.
     100001    1    1    2    0    0  0.16585236144E+03 -0.94423755444E+03 -0.64271500827E+04  0.65000000000E+04  0.15050000000E+03 0. -1.
     100001    1    1    2    0    0 -0.16585236144E+03  0.94423755444E+03  0.64271500827E+04  0.65000000000E+04  0.15050000000E+03 0.  1.
</event>
<event>
 4    1  0.4630618E-004  0.6500000E+04  0.7818608E-02  0.7223770E-01
         52   -1    0    0    0    0  0.00000000000E+00  0.00000000000E+00  0.64930732323E+04  0.65000000000E+04  0.30000000000E+03 0.  1.
        -52   -1    0    0    0    0 -0.00000000000E+00 -0.00000000000E+00 -0.64930732323E+04  0.65000000000E+04  0.30000000000E+03 0. -1.
     100001    1    1    2    0    0  0.26565344998E+04 -0.21000237399E+04 -0.55461765653E+04  0.65000000000E+04  0.15050000000E+03 0. -1.
     100001    1    1    2    0    0 -0.26565344998E+04  0.21000237399E+04  0.55461765653E+04  0.65000000000E+04  0.15050000000E+03 0.  1.
</event>
<event>
 4    1  0.4630618E-004  0.6500000E+04  0.7818608E-02  0.7223770E-01
         52   -1    0    0    0    0  0.00000000000E+00  0.00000000000E+00  0.64930732323E+04  0.65000000000E+04  0.30000000000E+03 0. -1.
        -52   -1    0    0    0    0 -0.00000000000E+00 -0.00000000000E+00 -0.64930732323E+04  0.65000000000E+04  0.30000000000E+03 0.  1.
     100001    1    1    2    0    0  0.98995435688E+02  0.53643645253E+03 -0.64753212728E+04  0.65000000000E+04  0.15050000000E+03 0.  1.
     100001    1    1    2    0    0 -0.98995435688E+02 -0.53643645253E+03  0.64753212728E+04  0.65000000000E+04  0.15050000000E+03 0. -1.
</event>
<event>
 4    1  0.4630618E-004  0.6500000E+04  0.7818608E-02  0.7223770E-01
         52   -1    0    0    0    0  0.00000000000E+00  0.00000000000E+00  0.64930732323E+04  0.65000000000E+04  0.30000000000E+03 0.  1.
        -52   -1    0    0    0    0 -0.00000000000E+00 -0.00000000000E+00 -0.64930732323E+04  0.65000000000E+04  0.30000000000E+03 0.  1.
     100001    1    1    2    0    0  0.20313125979E+03 -0.11649702549E+03 -0.64940369482E+04  0.65000000000E+04  0.15050000000E+03 0.  1.
     100001    1    1    2    0    0 -0.20313125979E+03  0.11649702549E+03  0.64940369482E+04  0.65000000000E+04  0.15050000000E+03 0.  1.
</event>
<event>
 4    1  0.4630618E-004  0.6500000E+04  0.7818608E-02  0.7223770E-01
         52   -1    0    0    0    0  0.00000000000E+00  0.00000000000E+00  0.64930732323E+04  0.65000000000E+04  0.30000000000E+03 0.  1.
        -52   -1    0    0    0    0 -0.00000000000E+00 -0.00000000000E+00 -0.64930732323E+04  0.65000000000E+04  0.30000000000E+03 0. -1.
     100001    1    1    2    0    0 -0.70031039257E+02  0.15379705642E+03 -0.64960597187E+04  0.65000000000E+04  0.15050000000E+03 0. -1.
     100001    1    1    2    0    0  0.70031039257E+02 -0.15379705642E+03  0.64960597187E+04  0.65000000000E+04  0.15050000000E+03 0.  1.
</event>
<event>
 4    1  0.4630618E-004  0.6500000E+04  0.7818608E-02  0.7223770E-01
         52   -1    0    0    0    0  0.00000000000E+00  0.00000000000E+00  0.64930732323E+04  0.65000000000E+04  0.30000000000E+03 0.  1.
        -52   -1    0    0    0    0 -0.00000000000E+00 -0.00000000000E+00 -0.64930732323E+04  0.65000000000E+04  0.30000000000E+03 0. -1.
     100001    1    1    2    0    0 -0.25660225339E+04  0.40020293383E+04 -0.44301963027E+04  0.65000000000E+04  0.15050000000E+03 0. -1.
     100001    1    1    2    0    0  0.25660225339E+04 -0.40020293383E+04  0.44301963027E+04  0.65000000000E+04  0.15050000000E+03 0.  1.
</event>
<event>
 4    1  0.4630618E-004  0.6500000E+04  0.7818608E-02  0.7223770E-01
         52   -1    0    0    0    0  0.00000000000E+00  0.00000000000E+00  0.64930732323E+04  0.65000000000E+04  0.30000000000E+03 0. -1.
        -52   -1    0    0    0    0 -0.00000000000E+00 -0.00000000000E+00 -0.64930732323E+04  0.65000000000E+04  0.30000000000E+03 0. -1.
     100001    1    1    2    0    0 -0.10931386025E+04  0.13205094124E+04  0.62680661003E+04  0.65000000000E+04  0.15050000000E+03 0. -1.
     100001    1    1    2    0    0  0.10931386025E+04 -0.13205094124E+04 -0.62680661003E+04  0.65000000000E+04  0.15050000000E+03 0. -1.
</event>
<event>
 4    1  0.4630618E-004  0.6500000E+04  0.7818608E-02  0.7223770E-01
         52   -1    0    0    0    0  0.00000000000E+00  0.00000000000E+00  0.64930732323E+04  0.65000000000E+04  0.30000000000E+03 0. -1.
        -52   -1    0    0    0    0 -0.00000000000E+00 -0.00000000000E+00 -0.64930732323E+04  0.65000000000E+04  0.30000000000E+03 0.  1.
     100001    1    1    2    0    0 -0.46898772680E+04 -0.20012906349E+04 -0.40283044517E+04  0.65000000000E+04  0.15050000000E+03 0.  1.
     100001    1    1    2    0    0  0.46898772680E+04  0.20012906349E+04  0.40283044517E+04  0.65000000000E+04  0.15050000000E+03 0. -1.
</event>
<event>
 4    1  0.4630618E-004  0.6500000E+04  0.7818608E-02  0.7223770E-01
         52   -1    0    0    0    0  0.00000000000E+00  0.00000000000E+00  0.64930732323E+04  0.65000000000E+04  0.30000000000E+03 0.  1.
        -52   -1    0    0    0    0 -0.00000000000E+00 -0.00000000000E+00 -0.64930732323E+04  0.65000000000E+04  0.30000000000E+03 0. -1.
     100001    1    1    2    0    0 -0.37277241689E+03  0.39742683784E+03 -0.64753719881E+04  0.65000000000E+04  0.15050000000E+03 0. -1.
     100001    1    1    2    0    0  0.37277241689E+03 -0.39742683784E+03  0.64753719881E+04  0.65000000000E+04  0.15050000000E+03 0.  1.
</event>
<event>
 4    1  0.6617810E-004  0.6500000E+04  0.7818608E-02  0.7223770E-01
         52   -1    0    0    0    0  0.00000000000E+00  0.00000000000E+00  0.64930732323E+04  0.65000000000E+04  0.30000000000E+03 0. -1.
        -52   -1    0    0    0    0 -0.00000000000E+00 -0.00000000000E+00 -0.64930732323E+04  0.65000000000E+04  0.30000000000E+03 0. -1.
     100001    1    1    2    0    0 -0.14794232899E+03 -0.45776755398E+02  0.64964118793E+04  0.65000000000E+04  0.15050000000E+03 0. -1.
     100001    1    1    2    0    0  0.14794232899E+03  0.45776755398E+02 -0.64964118793E+04  0.65000000000E+04  0.15050000000E+03 0. -1.
</event>
<event>
 4    1  0.4630618E-004  0.6500000E+04  0.7818608E-02  0.7223770E-01
         52   -1    0    0    0    0  0.00000000000E+00  0.00000000000E+00  0.64930732323E+04  0.65000000000E+04  0.30000000000E+03 0.  1.
        -52   -1    0    0    0    0 -0.00000000000E+00 -0.00000000000E+00 -0.64930732323E+04  0.65000000000E+04  0.30000000000E+03 0. -1.
     100001    1    1    2    0    0 -0.38360088224E+04 -0.35291317661E+04  0.38804142875E+04  0.65000000000E+04  0.15050000000E+03 0.  1.
     100001    1    1    2    0    0  0.38360088224E+04  0.35291317661E+04 -0.38804142875E+04  0.65000000000E+04  0.15050000000E+03 0. -1.
</event>
<event>
 4    1  0.4630618E-004  0.6500000E+04  0.7818608E-02  0.7223770E-01
         52   -1    0    0    0    0  0.00000000000E+00  0.00000000000E+00  0.64930732323E+04  0.65000000000E+04  0.30000000000E+03 0. -1.
        -52   -1    0    0    0    0 -0.00000000000E+00 -0.00000000000E+00 -0.64930732323E+04  0.65000000000E+04  0.30000000000E+03 0.  1.
     100001    1    1    2    0    0  0.67303726264E+03  0.42225158401E+03 -0.64495018562E+04  0.65000000000E+04  0.15050000000E+03 0.  1.
     100001    1    1    2    0    0 -0.67303726264E+03 -0.42225158401E+03  0.64495018562E+04  0.65000000000E+04  0.15050000000E+03 0. -1.
</event>
<event>
 4    1  0.4630618E-004  0.6500000E+04  0.7818608E-02  0.7223770E-01
         52   -1    0    0    0    0  0.00000000000E+00  0.00000000000E+00  0.64930732323E+04  0.65000000000E+04  0.30000000000E+03 0.  1.
        -52   -1    0    0    0    0 -0.00000000000E+00 -0.00000000000E+00 -0.64930732323E+04  0.65000000000E+04  0.30000000000E+03 0. -1.
     100001    1    1    2    0    0  0.36076267300E+04  0.48569773048E+04  0.23711074601E+04  0.65000000000E+04  0.15050000000E+03 0.  1.
     100001    1    1    2    0    0 -0.36076267300E+04 -0.48569773048E+04 -0.23711074601E+04  0.65000000000E+04  0.15050000000E+03 0. -1.
</event>
<event>
 4    1  0.4630618E-004  0.6500000E+04  0.7818608E-02  0.7223770E-01
         52   -1    0    0    0    0  0.00000000000E+00  0.00000000000E+00  0.64930732323E+04  0.65000000000E+04  0.30000000000E+03 0.  1.
        -52   -1    0    0    0    0 -0.00000000000E+00 -0.00000000000E+00 -0.64930732323E+04  0.65000000000E+04  0.30000000000E+03 0. -1.
     100001    1    1    2    0    0 -0.80412025637E+03  0.91525449687E+03  0.63830282444E+04  0.65000000000E+04  0.15050000000E+03 0.  1.
     100001    1    1    2    0    0  0.80412025637E+03 -0.91525449687E+03 -0.63830282444E+04  0.65000000000E+04  0.15050000000E+03 0. -1.
</event>
<event>
 4    1  0.4630618E-004  0.6500000E+04  0.7818608E-02  0.7223770E-01
         52   -1    0    0    0    0  0.00000000000E+00  0.00000000000E+00  0.64930732323E+04  0.65000000000E+04  0.30000000000E+03 0.  1.
        -52   -1    0    0    0    0 -0.00000000000E+00 -0.00000000000E+00 -0.64930732323E+04  0.65000000000E+04  0.30000000000E+03 0. -1.
     100001    1    1    2    0    0  0.11606204407E+04  0.10256983520E+04  0.63109629086E+04  0.65000000000E+04  0.15050000000E+03 0.  1.
     100001    1    1    2    0    0 -0.11606204407E+04 -0.10256983520E+04 -0.63109629086E+04  0.65000000000E+04  0.15050000000E+03 0. -1.
</event>
<event>
 4    1  0.4630618E-004  0.6500000E+04  0.7818608E-02  0.7223770E-01
         52   -1    0    0    0    0  0.00000000000E+00  0.00000000000E+00  0.64930732323E+04  0.65000000000E+04  0.30000000000E+03 0. -1.
        -52   -1    0    0    0    0 -0.00000000000E+00 -0.00000000000E+00 -0.64930732323E+04  0.65000000000E+04  0.30000000000E+03 0.  1.
     100001    1    1    2    0    0  0.22674788359E+03  0.30330713159E+03 -0.64872135722E+04  0.65000000000E+04  0.15050000000E+03 0.  1.
     100001    1    1    2    0    0 -0.22674788359E+03 -0.30330713159E+03  0.64872135722E+04  0.65000000000E+04  0.15050000000E+03 0. -1.
</event>
<event>
 4    1  0.4630618E-004  0.6500000E+04  0.7818608E-02  0.7223770E-01
         52   -1    0    0    0    0  0.00000000000E+00  0.00000000000E+00  0.64930732323E+04  0.65000000000E+04  0.30000000000E+03 0. -1.
        -52   -1    0    0    0    0 -0.00000000000E+00 -0.00000000000E+00 -0.64930732323E+04  0.65000000000E+04  0.30000000000E+03 0.  1.
     100001    1    1    2    0    0  0.17364539363E+04  0.13276318496E+04  0.61195973028E+04  0.65000000000E+04  0.15050000000E+03 0. -1.
     100001    1    1    2    0    0 -0.17364539363E+04 -0.13276318496E+04 -0.61195973028E+04  0.65000000000E+04  0.15050000000E+03 0.  1.
</event>
<event>
 4    1  0.4630618E-004  0.6500000E+04  0.7818608E-02  0.7223770E-01
         52   -1    0    0    0    0  0.00000000000E+00  0.00000000000E+00  0.64930732323E+04  0.65000000000E+04  0.30000000000E+03 0.  1.
        -52   -1    0    0    0    0 -0.00000000000E+00 -0.00000000000E+00 -0.64930732323E+04  0.65000000000E+04  0.30000000000E+03 0. -1.
     100001    1    1    2    0    0  0.94095412976E+03 -0.10903960268E+04  0.63366388236E+04  0.65000000000E+04  0.15050000000E+03 0.  1.
     100001    1    1    2    0    0 -0.94095412976E+03  0.10903960268E+04 -0.63366388236E+04  0.65000000000E+04  0.15050000000E+03 0. -1.
</event>
<event>
 4    1  0.4630618E-004  0.6500000E+04  0.7818608E-02  0.7223770E-01
         52   -1    0    0    0    0  0.00000000000E+00  0.00000000000E+00  0.64930732323E+04  0.65000000000E+04  0.30000000000E+03 0. -1.
        -52   -1    0    0    0    0 -0.00000000000E+00 -0.00000000000E+00 -0.64930732323E+04  0.65000000000E+04  0.30000000000E+03 0. -1.
     100001    1    1    2    0    0  0.83237015327E+03 -0.91368757150E+03 -0.63796304517E+04  0.65000000000E+04  0.15050000000E+03 0. -1.
     100001    1    1    2    0    0 -0.83237015327E+03  0.91368757150E+03  0.63796304517E+04  0.65000000000E+04  0.15050000000E+03 0. -1.
</event>
<event>
 4    1  0.4630618E-004  0.6500000E+04  0.7818608E-02  0.7223770E-01
         52   -1    0    0    0    0  0.00000000000E+00  0.00000000000E+00  0.64930732323E+04  0.65000000000E+04  0.30000000000E+03 0.  1.
        -52   -1    0    0    0    0 -0.00000000000E+00 -0.00000000000E+00 -0.64930732323E+04  0.65000000000E+04  0.30000000000E+03 0.  1.
     100001    1    1    2    0    0 -0.24624727123E+03  0.29141822360E+03 -0.64870476683E+04  0.65000000000E+04  0.15050000000E+03 0.  1.
     100001    1    1    2    0    0  0.24624727123E+03 -0.29141822360E+03  0.64870476683E+04  0.65000000000E+04  0.15050000000E+03 0.  1.
</event>
<event>
 4    1  0.4630618E-004  0.6500000E+04  0.7818608E-02  0.7223770E-01
         52   -1    0    0    0    0  0.00000000000E+00  0.00000000000E+00  0.64930732323E+04  0.65000000000E+04  0.30000000000E+03 0.  1.
        -52   -1    0    0    0    0 -0.00000000000E+00 -0.00000000000E+00 -0.64930732323E+04  0.65000000000E+04  0.30000000000E+03 0.  1.
     100001    1    1    2    0    0  0.13870975929E+03  0.34258132996E+02 -0.64966865195E+04  0.65000000000E+04  0.15050000000E+03 0.  1.
     100001    1    1    2    0    0 -0.13870975929E+03 -0.34258132996E+02  0.64966865195E+04  0.65000000000E+04  0.15050000000E+03 0.  1.
</event>
<event>
 4    1  0.4630618E-004  0.6500000E+04  0.7818608E-02  0.7223770E-01
         52   -1    0    0    0    0  0.00000000000E+00  0.00000000000E+00  0.64930732323E+04  0.65000000000E+04  0.30000000000E+03 0. -1.
        -52   -1    0    0    0    0 -0.00000000000E+00 -0.00000000000E+00 -0.64930732323E+04  0.65000000000E+04  0.30000000000E+03 0.  1.
     100001    1    1    2    0    0 -0.11126649460E+03 -0.51267781899E+03 -0.64770464697E+04  0.65000000000E+04  0.15050000000E+03 0.  1.
     100001    1    1    2    0    0  0.11126649460E+03  0.51267781899E+03  0.64770464697E+04  0.65000000000E+04  0.15050000000E+03 0. -1.
</event>
<event>
 4    1  0.7644900E-004  0.6500000E+04  0.7818608E-02  0.7223770E-01
         52   -1    0    0    0    0  0.00000000000E+00  0.00000000000E+00  0.64930732323E+04  0.65000000000E+04  0.30000000000E+03 0. -1.
        -52   -1    0    0    0    0 -0.00000000000E+00 -0.00000000000E+00 -0.64930732323E+04  0.65000000000E+04  0.30000000000E+03 0. -1.
     100001    1    1    2    0    0  0.16374842696E+02  0.25344073422E+02 -0.64981873851E+04  0.65000000000E+04  0.15050000000E+03 0. -1.
     100001    1    1    2    0    0 -0.16374842696E+02 -0.25344073422E+02  0.64981873851E+04  0.65000000000E+04  0.15050000000E+03 0. -1.
</event>
<event>
 4    1  0.4630618E-004  0.6500000E+04  0.7818608E-02  0.7223770E-01
         52   -1    0    0    0    0  0.00000000000E+00  0.00000000000E+00  0.64930732323E+04  0.65000000000E+04  0.30000000000E+03 0.  1.
        -52   -1    0    0    0    0 -0.00000000000E+00 -0.00000000000E+00 -0.64930732323E+04  0.65000000000E+04  0.30000000000E+03 0. -1.
     100001    1    1    2    0    0 -0.21760404993E+03  0.45225128796E+02 -0.64944555519E+04  0.65000000000E+04  0.15050000000E+03 0. -1.
     100001    1    1    2    0    0  0.21760404993E+03 -0.45225128796E+02  0.64944555519E+04  0.65000000000E+04  0.15050000000E+03 0.  1.
</event>
<event>
 4    1  0.4630618E-004  0.6500000E+04  0.7818608E-02  0.7223770E-01
         52   -1    0    0    0    0  0.00000000000E+00  0.00000000000E+00  0.64930732323E+04  0.65000000000E+04  0.30000000000E+03 0.  1.
        -52   -1    0    0    0    0 -0.00000000000E+00 -0.00000000000E+00 -0.64930732323E+04  0.65000000000E+04  0.30000000000E+03 0. -1.
     100001    1    1    2    0    0 -0.47762148398E+03 -0.46508586227E+04  0.45131742200E+04  0.65000000000E+04  0.15050000000E+03 0.  1.
     100001    1    1    2    0    0  0.47762148398E+03  0.46508586227E+04 -0.45131742200E+04  0.65000000000E+04  0.15050000000E+03 0. -1.
</event>
<event>
 4    1  0.4630618E-004  0.6500000E+04  0.7818608E-02  0.7223770E-01
         52   -1    0    0    0    0  0.00000000000E+00  0.00000000000E+00  0.64930732323E+04  0.65000000000E+04  0.30000000000E+03 0.  1.
        -52   -1    0    0    0    0 -0.00000000000E+00 -0.00000000000E+00 -0.64930732323E+04  0.65000000000E+04  0.30000000000E+03 0. -1.
     100001    1    1    2    0    0 -0.18696650446E+04 -0.31724440520E+04  0.53541853823E+04  0.65000000000E+04  0.15050000000E+03 0.  1.
     100001    1    1    2    0    0  0.18696650446E+04  0.31724440520E+04 -0.53541853823E+04  0.65000000000E+04  0.15050000000E+03 0. -1.
</event>
<event>
 4    1  0.4630618E-004  0.6500000E+04  0.7818608E-02  0.7223770E-01
         52   -1    0    0    0    0  0.00000000000E+00  0.00000000000E+00  0.64930732323E+04  0.65000000000E+04  0.30000000000E+03 0. -1.
        -52   -1    0    0    0    0 -0.00000000000E+00 -0.00000000000E+00 -0.64930732323E+04  0.65000000000E+04  0.30000000000E+03 0. -1.
     100001    1    1    2    0    0 -0.90246220252E+02 -0.10793248371E+04  0.64073600855E+04  0.65000000000E+04  0.15050000000E+03 0. -1.
     100001    1    1    2    0    0  0.90246220252E+02  0.10793248371E+04 -0.64073600855E+04  0.65000000000E+04  0.15050000000E+03 0. -1.
</event>
<event>
 4    1  0.4630618E-004  0.6500000E+04  0.7818608E-02  0.7223770E-01
         52   -1    0    0    0    0  0.00000000000E+00  0.00000000000E+00  0.64930732323E+04  0.65000000000E+04  0.30000000000E+03 0. -1.
        -52   -1    0    0    0    0 -0.00000000000E+00 -0.00000000000E+00 -0.64930732323E+04  0.65000000000E+04  0.30000000000E+03 0.  1.
     100001    1    1    2    0    0  0.18866527080E+04 -0.11853335150E+04  0.61043325407E+04  0.65000000000E+04  0.15050000000E+03 0. -1.
     100001    1    1    2    0    0 -0.18866527080E+04  0.11853335150E+04 -0.61043325407E+04  0.65000000000E+04  0.15050000000E+03 0.  1.
</event>
<event>
 4    1  0.4630618E-004  0.6500000E+04  0.7818608E-02  0.7223770E-01
         52   -1    0    0    0    0  0.00000000000E+00  0.00000000000E+00  0.64930732323E+04  0.65000000000E+04  0.30000000000E+03 0.  1.
        -52   -1    0    0    0    0 -0.00000000000E+00 -0.00000000000E+00 -0.64930732323E+04  0.65000000000E+04  0.30000000000E+03 0. -1.
     100001    1    1    2    0    0  0.32262524159E+03 -0.91265177319E+03  0.64257551653E+04  0.65000000000E+04  0.15050000000E+03 0.  1.
     100001    1    1    2    0    0 -0.32262524159E+03  0.91265177319E+03 -0.64257551653E+04  0.65000000000E+04  0.15050000000E+03 0. -1.
</event>
<event>
 4    1  0.4630618E-004  0.6500000E+04  0.7818608E-02  0.7223770E-01
         52   -1    0    0    0    0  0.00000000000E+00  0.00000000000E+00  0.64930732323E+04  0.65000000000E+04  0.30000000000E+03 0.  1.
        -52   -1    0    0    0    0 -0.00000000000E+00 -0.00000000000E+00 -0.64930732323E+04  0.65000000000E+04  0.30000000000E+03 0. -1.
     100001    1    1    2    0    0 -0.94869009091E+03  0.33390276404E+03 -0.64199568383E+04  0.65000000000E+04  0.15050000000E+03 0. -1.
     100001    1    1    2    0    0  0.94869009091E+03 -0.33390276404E+03  0.64199568383E+04  0.65000000000E+04  0.15050000000E+03 0.  1.
</event>
<event>
 4    1  0.4630618E-004  0.6500000E+04  0.7818608E-02  0.7223770E-01
         52   -1    0    0    0    0  0.00000000000E+00  0.00000000000E+00  0.64930732323E+04  0.65000000000E+04  0.30000000000E+03 0.  1.
        -52   -1    0    0    0    0 -0.00000000000E+00 -0.00000000000E+00 -0.64930732323E+04  0.65000000000E+04  0.30000000000E+03 0.  1.
     100001    1    1    2    0    0 -0.45363689703E+03  0.75578400556E+03  0.64381949219E+04  0.65000000000E+04  0.15050000000E+03 0.  1.
     100001    1    1    2    0    0  0.45363689703E+03 -0.75578400556E+03 -0.64381949219E+04  0.65000000000E+04  0.15050000000E+03 0.  1.
</event>
<event>
 4    1  0.4630618E-004  0.6500000E+04  0.7818608E-02  0.7223770E-01
         52   -1    0    0    0    0  0.00000000000E+00  0.00000000000E+00  0.64930732323E+04  0.65000000000E+04  0.30000000000E+03 0. -1.
        -52   -1    0    0    0    0 -0.00000000000E+00 -0.00000000000E+00 -0.64930732323E+04  0.65000000000E+04  0.30000000000E+03 0.  1.
     100001    1    1    2    0    0  0.14517407733E+04 -0.22048948214E+04 -0.59378647091E+04  0.65000000000E+04  0.15050000000E+03 0.  1.
     100001    1    1    2    0    0 -0.14517407733E+04  0.22048948214E+04  0.59378647091E+04  0.65000000000E+04  0.15050000000E+03 0. -1.
</event>
<event>
 4    1  0.4630618E-004  0.6500000E+04  0.7818608E-02  0.7223770E-01
         52   -1    0    0    0    0  0.00000000000E+00  0.00000000000E+00  0.64930732323E+04  0.65000000000E+04  0.30000000000E+03 0. -1.
        -52   -1    0    0    0    0 -0.00000000000E+00 -0.00000000000E+00 -0.64930732323E+04  0.65000000000E+04  0.30000000000E+03 0.  1.
     100001    1    1    2    0    0  0.84230985093E+02  0.13360285177E+04 -0.63588743258E+04  0.65000000000E+04  0.15050000000E+03 0.  1.
     100001    1    1    2    0    0 -0.84230985093E+02 -0.13360285177E+04  0.63588743258E+04  0.65000000000E+04  0.15050000000E+03 0. -1.
</event>
<event>
 4    1  0.4630618E-004  0.6500000E+04  0.7818608E-02  0.7223770E-01
         52   -1    0    0    0    0  0.00000000000E+00  0.00000000000E+00  0.64930732323E+04  0.65000000000E+04  0.30000000000E+03 0.  1.
        -52   -1    0    0    0    0 -0.00000000000E+00 -0.00000000000E+00 -0.64930732323E+04  0.65000000000E+04  0.30000000000E+03 0. -1.
     100001    1    1    2    0    0 -0.28452070054E+04 -0.35100267621E+04  0.46703167961E+04  0.65000000000E+04  0.15050000000E+03 0.  1.
     100001    1    1    2    0    0  0.28452070054E+04  0.35100267621E+04 -0.46703167961E+04  0.65000000000E+04  0.15050000000E+03 0. -1.
</event>
<event>
 4    1  0.4630618E-004  0.6500000E+04  0.7818608E-02  0.7223770E-01
         52   -1    0    0    0    0  0.00000000000E+00  0.00000000000E+00  0.64930732323E+04  0.65000000000E+04  0.30000000000E+03 0. -1.
        -52   -1    0    0    0    0 -0.00000000000E+00 -0.00000000000E+00 -0.64930732323E+04  0.65000000000E+04  0.30000000000E+03 0.  1.
     100001    1    1    2    0    0  0.16854109538E+04 -0.33113190024E+03  0.62671437937E+04  0.65000000000E+04  0.15050000000E+03 0. -1.
     100001    1    1    2    0    0 -0.16854109538E+04  0.33113190024E+03 -0.62671437937E+04  0.65000000000E+04  0.15050000000E+03 0.  1.
</event>
<event>
 4    1  0.4630618E-004  0.6500000E+04  0.7818608E-02  0.7223770E-01
         52   -1    0    0    0    0  0.00000000000E+00  0.00000000000E+00  0.64930732323E+04  0.65000000000E+04  0.30000000000E+03 0.  1.
        -52   -1    0    0    0    0 -0.00000000000E+00 -0.00000000000E+00 -0.64930732323E+04  0.65000000000E+04  0.30000000000E+03 0. -1.
     100001    1    1    2    0    0 -0.45562284535E+04  0.40398706526E+04 -0.22688272608E+04  0.65000000000E+04  0.15050000000E+03 0. -1.
     100001    1    1    2    0    0  0.45562284535E+04 -0.40398706526E+04  0.22688272608E+04  0.65000000000E+04  0.15050000000E+03 0.  1.
</event>
<event>
 4    1  0.4630618E-004  0.6500000E+04  0.7818608E-02  0.7223770E-01
         52   -1    0    0    0    0  0.00000000000E+00  0.00000000000E+00  0.64930732323E+04  0.65000000000E+04  0.30000000000E+03 0.  1.
        -52   -1    0    0    0    0 -0.00000000000E+00 -0.00000000000E+00 -0.64930732323E+04  0.65000000000E+04  0.30000000000E+03 0. -1.
     100001    1    1    2    0    0 -0.16751818646E+03 -0.19442003223E+03  0.64931878348E+04  0.65000000000E+04  0.15050000000E+03 0.  1.
     100001    1    1    2    0    0  0.16751818646E+03  0.19442003223E+03 -0.64931878348E+04  0.65000000000E+04  0.15050000000E+03 0. -1.
</event>
<event>
 4    1  0.4630618E-004  0.6500000E+04  0.7818608E-02  0.7223770E-01
         52   -1    0    0    0    0  0.00000000000E+00  0.00000000000E+00  0.64930732323E+04  0.65000000000E+04  0.30000000000E+03 0. -1.
        -52   -1    0    0    0    0 -0.00000000000E+00 -0.00000000000E+00 -0.64930732323E+04  0.65000000000E+04  0.30000000000E+03 0.  1.
     100001    1    1    2    0    0  0.38954151942E+04 -0.29602823271E+04  0.42766597665E+04  0.65000000000E+04  0.15050000000E+03 0. -1.
     100001    1    1    2    0    0 -0.38954151942E+04  0.29602823271E+04 -0.42766597665E+04  0.65000000000E+04  0.15050000000E+03 0.  1.
</event>
<event>
 4    1  0.4630618E-004  0.6500000E+04  0.7818608E-02  0.7223770E-01
         52   -1    0    0    0    0  0.00000000000E+00  0.00000000000E+00  0.64930732323E+04  0.65000000000E+04  0.30000000000E+03 0.  1.
        -52   -1    0    0    0    0 -0.00000000000E+00 -0.00000000000E+00 -0.64930732323E+04  0.65000000000E+04  0.30000000000E+03 0. -1.
     100001    1    1    2    0    0 -0.18542969072E+04  0.80437909941E+02  0.62275567017E+04  0.65000000000E+04  0.15050000000E+03 0.  1.
     100001    1    1    2    0    0  0.18542969072E+04 -0.80437909941E+02 -0.62275567017E+04  0.65000000000E+04  0.15050000000E+03 0. -1.
</event>
<event>
 4    1  0.4630618E-004  0.6500000E+04  0.7818608E-02  0.7223770E-01
         52   -1    0    0    0    0  0.00000000000E+00  0.00000000000E+00  0.64930732323E+04  0.65000000000E+04  0.30000000000E+03 0. -1.
        -52   -1    0    0    0    0 -0.00000000000E+00 -0.00000000000E+00 -0.64930732323E+04  0.65000000000E+04  0.30000000000E+03 0.  1.
     100001    1    1    2    0    0  0.35153761259E+03 -0.10014952687E+04 -0.64109888694E+04  0.65000000000E+04  0.15050000000E+03 0.  1.
     100001    1    1    2    0    0 -0.35153761259E+03  0.10014952687E+04  0.64109888694E+04  0.65000000000E+04  0.15050000000E+03 0. -1.
</event>
<event>
 4    1  0.4630618E-004  0.6500000E+04  0.7818608E-02  0.7223770E-01
         52   -1    0    0    0    0  0.00000000000E+00  0.00000000000E+00  0.64930732323E+04  0.65000000000E+04  0.30000000000E+03 0. -1.
        -52   -1    0    0    0    0 -0.00000000000E+00 -0.00000000000E+00 -0.64930732323E+04  0.65000000000E+04  0.30000000000E+03 0.  1.
     100001    1    1    2    0    0 -0.14469652495E+04  0.10960572674E+04 -0.62395752887E+04  0.65000000000E+04  0.15050000000E+03 0.  1.
     100001    1    1    2    0    0  0.14469652495E+04 -0.10960572674E+04  0.62395752887E+04  0.65000000000E+04  0.15050000000E+03 0. -1.
</event>
<event>
 4    1  0.4630618E-004  0.6500000E+04  0.7818608E-02  0.7223770E-01
         52   -1    0    0    0    0  0.00000000000E+00  0.00000000000E+00  0.64930732323E+04  0.65000000000E+04  0.30000000000E+03 0.  1.
        -52   -1    0    0    0    0 -0.00000000000E+00 -0.00000000000E+00 -0.64930732323E+04  0.65000000000E+04  0.30000000000E+03 0. -1.
     100001    1    1    2    0    0 -0.11785197596E+04  0.79561101182E+03  0.63407762966E+04  0.65000000000E+04  0.15050000000E+03 0.  1.
     100001    1    1    2    0    0  0.11785197596E+04 -0.79561101182E+03 -0.63407762966E+04  0.65000000000E+04  0.15050000000E+03 0. -1.
</event>
<event>
 4    1  0.4630618E-004  0.6500000E+04  0.7818608E-02  0.7223770E-01
         52   -1    0    0    0    0  0.00000000000E+00  0.00000000000E+00  0.64930732323E+04  0.65000000000E+04  0.30000000000E+03 0. -1.
        -52   -1    0    0    0    0 -0.00000000000E+00 -0.00000000000E+00 -0.64930732323E+04  0.65000000000E+04  0.30000000000E+03 0.  1.
     100001    1    1    2    0    0 -0.18610699179E+04  0.61346039840E+04  0.10632038706E+04  0.65000000000E+04  0.15050000000E+03 0. -1.
     100001    1    1    2    0    0  0.18610699179E+04 -0.61346039840E+04 -0.10632038706E+04  0.65000000000E+04  0.15050000000E+03 0.  1.
</event>
<event>
 4    1  0.4630618E-004  0.6500000E+04  0.7818608E-02  0.7223770E-01
         52   -1    0    0    0    0  0.00000000000E+00  0.00000000000E+00  0.64930732323E+04  0.65000000000E+04  0.30000000000E+03 0.  1.
        -52   -1    0    0    0    0 -0.00000000000E+00 -0.00000000000E+00 -0.64930732323E+04  0.65000000000E+04  0.30000000000E+03 0. -1.
     100001    1    1    2    0    0 -0.16137509329E+04  0.57990124436E+04 -0.24483897476E+04  0.65000000000E+04  0.15050000000E+03 0. -1.
     100001    1    1    2    0    0  0.16137509329E+04 -0.57990124436E+04  0.24483897476E+04  0.65000000000E+04  0.15050000000E+03 0.  1.
</event>
<event>
 4    1  0.4630618E-004  0.6500000E+04  0.7818608E-02  0.7223770E-01
         52   -1    0    0    0    0  0.00000000000E+00  0.00000000000E+00  0.64930732323E+04  0.65000000000E+04  0.30000000000E+03 0.  1.
        -52   -1    0    0    0    0 -0.00000000000E+00 -0.00000000000E+00 -0.64930732323E+04  0.65000000000E+04  0.30000000000E+03 0. -1.
     100001    1    1    2    0    0 -0.45993736259E+03  0.31200859872E+03  0.64744465406E+04  0.65000000000E+04  0.15050000000E+03 0.  1.
     100001    1    1    2    0    0  0.45993736259E+03 -0.31200859872E+03 -0.64744465406E+04  0.65000000000E+04  0.15050000000E+03 0. -1.
</event>
<event>
 4    1  0.4630618E-004  0.6500000E+04  0.7818608E-02  0.7223770E-01
         52   -1    0    0    0    0  0.00000000000E+00  0.00000000000E+00  0.64930732323E+04  0.65000000000E+04  0.30000000000E+03 0. -1.
        -52   -1    0    0    0    0 -0.00000000000E+00 -0.00000000000E+00 -0.64930732323E+04  0.65000000000E+04  0.30000000000E+03 0.  1.
     100001    1    1    2    0    0  0.53558929870E+02  0.82511220833E+03 -0.64454380018E+04  0.65000000000E+04  0.15050000000E+03 0.  1.
     100001    1    1    2    0    0 -0.53558929870E+02 -0.82511220833E+03  0.64454380018E+04  0.65000000000E+04  0.15050000000E+03 0. -1.
</event>
<event>
 4    1  0.4630618E-004  0.6500000E+04  0.7818608E-02  0.7223770E-01
         52   -1    0    0    0    0  0.00000000000E+00  0.00000000000E+00  0.64930732323E+04  0.65000000000E+04  0.30000000000E+03 0.  1.
        -52   -1    0    0    0    0 -0.00000000000E+00 -0.00000000000E+00 -0.64930732323E+04  0.65000000000E+04  0.30000000000E+03 0. -1.
     100001    1    1    2    0    0  0.21603446415E+03 -0.11457027761E+04  0.63928119016E+04  0.65000000000E+04  0.15050000000E+03 0.  1.
     100001    1    1    2    0    0 -0.21603446415E+03  0.11457027761E+04 -0.63928119016E+04  0.65000000000E+04  0.15050000000E+03 0. -1.
</event>
<event>
 4    1  0.4630618E-004  0.6500000E+04  0.7818608E-02  0.7223770E-01
         52   -1    0    0    0    0  0.00000000000E+00  0.00000000000E+00  0.64930732323E+04  0.65000000000E+04  0.30000000000E+03 0. -1.
        -52   -1    0    0    0    0 -0.00000000000E+00 -0.00000000000E+00 -0.64930732323E+04  0.65000000000E+04  0.30000000000E+03 0.  1.
     100001    1    1    2    0    0  0.40496048261E+03  0.71247019785E+03 -0.64463744054E+04  0.65000000000E+04  0.15050000000E+03 0.  1.
     100001    1    1    2    0    0 -0.40496048261E+03 -0.71247019785E+03  0.64463744054E+04  0.65000000000E+04  0.15050000000E+03 0. -1.
</event>
<event>
 4    1  0.4630618E-004  0.6500000E+04  0.7818608E-02  0.7223770E-01
         52   -1    0    0    0    0  0.00000000000E+00  0.00000000000E+00  0.64930732323E+04  0.65000000000E+04  0.30000000000E+03 0.  1.
        -52   -1    0    0    0    0 -0.00000000000E+00 -0.00000000000E+00 -0.64930732323E+04  0.65000000000E+04  0.30000000000E+03 0. -1.
     100001    1    1    2    0    0 -0.20330601848E+04 -0.81728639136E+03  0.61176841198E+04  0.65000000000E+04  0.15050000000E+03 0.  1.
     100001    1    1    2    0    0  0.20330601848E+04  0.81728639136E+03 -0.61176841198E+04  0.65000000000E+04  0.15050000000E+03 0. -1.
</event>
<event>
 4    1  0.4630618E-004  0.6500000E+04  0.7818608E-02  0.7223770E-01
         52   -1    0    0    0    0  0.00000000000E+00  0.00000000000E+00  0.64930732323E+04  0.65000000000E+04  0.30000000000E+03 0.  1.
        -52   -1    0    0    0    0 -0.00000000000E+00 -0.00000000000E+00 -0.64930732323E+04  0.65000000000E+04  0.30000000000E+03 0. -1.
     100001    1    1    2    0    0 -0.15325739432E+04  0.48630255466E+03 -0.62961954134E+04  0.65000000000E+04  0.15050000000E+03 0. -1.
     100001    1    1    2    0    0  0.15325739432E+04 -0.48630255466E+03  0.62961954134E+04  0.65000000000E+04  0.15050000000E+03 0.  1.
</event>
<event>
 4    1  0.4630618E-004  0.6500000E+04  0.7818608E-02  0.7223770E-01
         52   -1    0    0    0    0  0.00000000000E+00  0.00000000000E+00  0.64930732323E+04  0.65000000000E+04  0.30000000000E+03 0. -1.
        -52   -1    0    0    0    0 -0.00000000000E+00 -0.00000000000E+00 -0.64930732323E+04  0.65000000000E+04  0.30000000000E+03 0.  1.
     100001    1    1    2    0    0 -0.20764123253E+03  0.28760396452E+03  0.64885683188E+04  0.65000000000E+04  0.15050000000E+03 0. -1.
     100001    1    1    2    0    0  0.20764123253E+03 -0.28760396452E+03 -0.64885683188E+04  0.65000000000E+04  0.15050000000E+03 0.  1.
</event>
<event>
 4    1  0.4630618E-004  0.6500000E+04  0.7818608E-02  0.7223770E-01
         52   -1    0    0    0    0  0.00000000000E+00  0.00000000000E+00  0.64930732323E+04  0.65000000000E+04  0.30000000000E+03 0.  1.
        -52   -1    0    0    0    0 -0.00000000000E+00 -0.00000000000E+00 -0.64930732323E+04  0.65000000000E+04  0.30000000000E+03 0. -1.
     100001    1    1    2    0    0 -0.30274696655E+04 -0.31670078165E+04  0.47991497856E+04  0.65000000000E+04  0.15050000000E+03 0.  1.
     100001    1    1    2    0    0  0.30274696655E+04  0.31670078165E+04 -0.47991497856E+04  0.65000000000E+04  0.15050000000E+03 0. -1.
</event>
<event>
 4    1  0.4630618E-004  0.6500000E+04  0.7818608E-02  0.7223770E-01
         52   -1    0    0    0    0  0.00000000000E+00  0.00000000000E+00  0.64930732323E+04  0.65000000000E+04  0.30000000000E+03 0. -1.
        -52   -1    0    0    0    0 -0.00000000000E+00 -0.00000000000E+00 -0.64930732323E+04  0.65000000000E+04  0.30000000000E+03 0.  1.
     100001    1    1    2    0    0  0.37216534036E+04 -0.53224660993E+04  0.21908974271E+03  0.65000000000E+04  0.15050000000E+03 0.  1.
     100001    1    1    2    0    0 -0.37216534036E+04  0.53224660993E+04 -0.21908974271E+03  0.65000000000E+04  0.15050000000E+03 0. -1.
</event>
<event>
 4    1  0.4630618E-004  0.6500000E+04  0.7818608E-02  0.7223770E-01
         52   -1    0    0    0    0  0.00000000000E+00  0.00000000000E+00  0.64930732323E+04  0.65000000000E+04  0.30000000000E+03 0. -1.
        -52   -1    0    0    0    0 -0.00000000000E+00 -0.00000000000E+00 -0.64930732323E+04  0.65000000000E+04  0.30000000000E+03 0.  1.
     100001    1    1    2    0    0 -0.24694965541E+04 -0.17409169182E+04  0.57530987131E+04  0.65000000000E+04  0.15050000000E+03 0. -1.
     100001    1    1    2    0    0  0.24694965541E+04  0.17409169182E+04 -0.57530987131E+04  0.65000000000E+04  0.15050000000E+03 0.  1.
</event>
<event>
 4    1  0.4630618E-004  0.6500000E+04  0.7818608E-02  0.7223770E-01
         52   -1    0    0    0    0  0.00000000000E+00  0.00000000000E+00  0.64930732323E+04  0.65000000000E+04  0.30000000000E+03 0.  1.
        -52   -1    0    0    0    0 -0.00000000000E+00 -0.00000000000E+00 -0.64930732323E+04  0.65000000000E+04  0.30000000000E+03 0. -1.
     100001    1    1    2    0    0  0.23715346358E+04  0.33936679136E+04 -0.50086117151E+04  0.65000000000E+04  0.15050000000E+03 0. -1.
     100001    1    1    2    0    0 -0.23715346358E+04 -0.33936679136E+04  0.50086117151E+04  0.65000000000E+04  0.15050000000E+03 0.  1.
</event>
<event>
 4    1  0.4630618E-004  0.6500000E+04  0.7818608E-02  0.7223770E-01
         52   -1    0    0    0    0  0.00000000000E+00  0.00000000000E+00  0.64930732323E+04  0.65000000000E+04  0.30000000000E+03 0.  1.
        -52   -1    0    0    0    0 -0.00000000000E+00 -0.00000000000E+00 -0.64930732323E+04  0.65000000000E+04  0.30000000000E+03 0. -1.
     100001    1    1    2    0    0 -0.87568827065E+03 -0.36971623984E+03  0.64283613545E+04  0.65000000000E+04  0.15050000000E+03 0.  1.
     100001    1    1    2    0    0  0.87568827065E+03  0.36971623984E+03 -0.64283613545E+04  0.65000000000E+04  0.15050000000E+03 0. -1.
</event>
<event>
 4    1  0.4630618E-004  0.6500000E+04  0.7818608E-02  0.7223770E-01
         52   -1    0    0    0    0  0.00000000000E+00  0.00000000000E+00  0.64930732323E+04  0.65000000000E+04  0.30000000000E+03 0. -1.
        -52   -1    0    0    0    0 -0.00000000000E+00 -0.00000000000E+00 -0.64930732323E+04  0.65000000000E+04  0.30000000000E+03 0.  1.
     100001    1    1    2    0    0  0.20513855166E+04  0.61154695095E+04  0.78752770812E+03  0.65000000000E+04  0.15050000000E+03 0. -1.
     100001    1    1    2    0    0 -0.20513855166E+04 -0.61154695095E+04 -0.78752770812E+03  0.65000000000E+04  0.15050000000E+03 0.  1.
</event>
<event>
 4    1  0.4630618E-004  0.6500000E+04  0.7818608E-02  0.7223770E-01
         52   -1    0    0    0    0  0.00000000000E+00  0.00000000000E+00  0.64930732323E+04  0.65000000000E+04  0.30000000000E+03 0.  1.
        -52   -1    0    0    0    0 -0.00000000000E+00 -0.00000000000E+00 -0.64930732323E+04  0.65000000000E+04  0.30000000000E+03 0.  1.
     100001    1    1    2    0    0  0.22946036638E+03 -0.13365323581E+03  0.64928294682E+04  0.65000000000E+04  0.15050000000E+03 0.  1.
     100001    1    1    2    0    0 -0.22946036638E+03  0.13365323581E+03 -0.64928294682E+04  0.65000000000E+04  0.15050000000E+03 0.  1.
</event>
<event>
 4    1  0.4630618E-004  0.6500000E+04  0.7818608E-02  0.7223770E-01
         52   -1    0    0    0    0  0.00000000000E+00  0.00000000000E+00  0.64930732323E+04  0.65000000000E+04  0.30000000000E+03 0. -1.
        -52   -1    0    0    0    0 -0.00000000000E+00 -0.00000000000E+00 -0.64930732323E+04  0.65000000000E+04  0.30000000000E+03 0.  1.
     100001    1    1    2    0    0  0.36764918455E+02 -0.10240629184E+04 -0.64169535786E+04  0.65000000000E+04  0.15050000000E+03 0.  1.
     100001    1    1    2    0    0 -0.36764918455E+02  0.10240629184E+04  0.64169535786E+04  0.65000000000E+04  0.15050000000E+03 0. -1.
</event>
<event>
 4    1  0.4630618E-004  0.6500000E+04  0.7818608E-02  0.7223770E-01
         52   -1    0    0    0    0  0.00000000000E+00  0.00000000000E+00  0.64930732323E+04  0.65000000000E+04  0.30000000000E+03 0.  1.
        -52   -1    0    0    0    0 -0.00000000000E+00 -0.00000000000E+00 -0.64930732323E+04  0.65000000000E+04  0.30000000000E+03 0. -1.
     100001    1    1    2    0    0  0.42895532809E+03 -0.50811971665E+03 -0.64641442922E+04  0.65000000000E+04  0.15050000000E+03 0. -1.
     100001    1    1    2    0    0 -0.42895532809E+03  0.50811971665E+03  0.64641442922E+04  0.65000000000E+04  0.15050000000E+03 0.  1.
</event>
<event>
 4    1  0.4630618E-004  0.6500000E+04  0.7818608E-02  0.7223770E-01
         52   -1    0    0    0    0  0.00000000000E+00  0.00000000000E+00  0.64930732323E+04  0.65000000000E+04  0.30000000000E+03 0.  1.
        -52   -1    0    0    0    0 -0.00000000000E+00 -0.00000000000E+00 -0.64930732323E+04  0.65000000000E+04  0.30000000000E+03 0. -1.
     100001    1    1    2    0    0  0.16462500416E+04 -0.34012749225E+03  0.62770633133E+04  0.65000000000E+04  0.15050000000E+03 0.  1.
     100001    1    1    2    0    0 -0.16462500416E+04  0.34012749225E+03 -0.62770633133E+04  0.65000000000E+04  0.15050000000E+03 0. -1.
</event>
<event>
 4    1  0.4630618E-004  0.6500000E+04  0.7818608E-02  0.7223770E-01
         52   -1    0    0    0    0  0.00000000000E+00  0.00000000000E+00  0.64930732323E+04  0.65000000000E+04  0.30000000000E+03 0.  1.
        -52   -1    0    0    0    0 -0.00000000000E+00 -0.00000000000E+00 -0.64930732323E+04  0.65000000000E+04  0.30000000000E+03 0. -1.
     100001    1    1    2    0    0 -0.70779348455E+03 -0.22912272534E+04 -0.60395906986E+04  0.65000000000E+04  0.15050000000E+03 0. -1.
     100001    1    1    2    0    0  0.70779348455E+03  0.22912272534E+04  0.60395906986E+04  0.65000000000E+04  0.15050000000E+03 0.  1.
</event>
<event>
 4    1  0.4630618E-004  0.6500000E+04  0.7818608E-02  0.7223770E-01
         52   -1    0    0    0    0  0.00000000000E+00  0.00000000000E+00  0.64930732323E+04  0.65000000000E+04  0.30000000000E+03 0. -1.
        -52   -1    0    0    0    0 -0.00000000000E+00 -0.00000000000E+00 -0.64930732323E+04  0.65000000000E+04  0.30000000000E+03 0.  1.
     100001    1    1    2    0    0  0.66595244357E+03 -0.44997485301E+03 -0.64483625615E+04  0.65000000000E+04  0.15050000000E+03 0.  1.
     100001    1    1    2    0    0 -0.66595244357E+03  0.44997485301E+03  0.64483625615E+04  0.65000000000E+04  0.15050000000E+03 0. -1.
</event>
<event>
 4    1  0.4630618E-004  0.6500000E+04  0.7818608E-02  0.7223770E-01
         52   -1    0    0    0    0  0.00000000000E+00  0.00000000000E+00  0.64930732323E+04  0.65000000000E+04  0.30000000000E+03 0. -1.
        -52   -1    0    0    0    0 -0.00000000000E+00 -0.00000000000E+00 -0.64930732323E+04  0.65000000000E+04  0.30000000000E+03 0.  1.
     100001    1    1    2    0    0  0.23977803594E+04 -0.48866131956E+03  0.60199010966E+04  0.65000000000E+04  0.15050000000E+03 0. -1.
     100001    1    1    2    0    0 -0.23977803594E+04  0.48866131956E+03 -0.60199010966E+04  0.65000000000E+04  0.15050000000E+03 0.  1.
</event>
<event>
 4    1  0.4630618E-004  0.6500000E+04  0.7818608E-02  0.7223770E-01
         52   -1    0    0    0    0  0.00000000000E+00  0.00000000000E+00  0.64930732323E+04  0.65000000000E+04  0.30000000000E+03 0. -1.
        -52   -1    0    0    0    0 -0.00000000000E+00 -0.00000000000E+00 -0.64930732323E+04  0.65000000000E+04  0.30000000000E+03 0.  1.
     100001    1    1    2    0    0 -0.58123965870E+04  0.15960366286E+04 -0.24281809540E+04  0.65000000000E+04  0.15050000000E+03 0.  1.
     100001    1    1    2    0    0  0.58123965870E+04 -0.15960366286E+04  0.24281809540E+04  0.65000000000E+04  0.15050000000E+03 0. -1.
</event>
<event>
 4    1  0.4630618E-004  0.6500000E+04  0.7818608E-02  0.7223770E-01
         52   -1    0    0    0    0  0.00000000000E+00  0.00000000000E+00  0.64930732323E+04  0.65000000000E+04  0.30000000000E+03 0.  1.
        -52   -1    0    0    0    0 -0.00000000000E+00 -0.00000000000E+00 -0.64930732323E+04  0.65000000000E+04  0.30000000000E+03 0. -1.
     100001    1    1    2    0    0  0.21199643296E+03  0.24791121573E+03 -0.64900652764E+04  0.65000000000E+04  0.15050000000E+03 0. -1.
     100001    1    1    2    0    0 -0.21199643296E+03 -0.24791121573E+03  0.64900652764E+04  0.65000000000E+04  0.15050000000E+03 0.  1.
</event>
<event>
 4    1  0.4630618E-004  0.6500000E+04  0.7818608E-02  0.7223770E-01
         52   -1    0    0    0    0  0.00000000000E+00  0.00000000000E+00  0.64930732323E+04  0.65000000000E+04  0.30000000000E+03 0.  1.
        -52   -1    0    0    0    0 -0.00000000000E+00 -0.00000000000E+00 -0.64930732323E+04  0.65000000000E+04  0.30000000000E+03 0. -1.
     100001    1    1    2    0    0 -0.59398733162E+04 -0.15907948560E+03 -0.26305794903E+04  0.65000000000E+04  0.15050000000E+03 0. -1.
     100001    1    1    2    0    0  0.59398733162E+04  0.15907948560E+03  0.26305794903E+04  0.65000000000E+04  0.15050000000E+03 0.  1.
</event>
<event>
 4    1  0.4630618E-004  0.6500000E+04  0.7818608E-02  0.7223770E-01
         52   -1    0    0    0    0  0.00000000000E+00  0.00000000000E+00  0.64930732323E+04  0.65000000000E+04  0.30000000000E+03 0.  1.
        -52   -1    0    0    0    0 -0.00000000000E+00 -0.00000000000E+00 -0.64930732323E+04  0.65000000000E+04  0.30000000000E+03 0.  1.
     100001    1    1    2    0    0 -0.22433766366E+04  0.91423856378E+03  0.60298241156E+04  0.65000000000E+04  0.15050000000E+03 0.  1.
     100001    1    1    2    0    0  0.22433766366E+04 -0.91423856378E+03 -0.60298241156E+04  0.65000000000E+04  0.15050000000E+03 0.  1.
</event>
<event>
 4    1  0.4630618E-004  0.6500000E+04  0.7818608E-02  0.7223770E-01
         52   -1    0    0    0    0  0.00000000000E+00  0.00000000000E+00  0.64930732323E+04  0.65000000000E+04  0.30000000000E+03 0.  1.
        -52   -1    0    0    0    0 -0.00000000000E+00 -0.00000000000E+00 -0.64930732323E+04  0.65000000000E+04  0.30000000000E+03 0. -1.
     100001    1    1    2    0    0 -0.25805996684E+04  0.24995890584E+04  0.54147862045E+04  0.65000000000E+04  0.15050000000E+03 0.  1.
     100001    1    1    2    0    0  0.25805996684E+04 -0.24995890584E+04 -0.54147862045E+04  0.65000000000E+04  0.15050000000E+03 0. -1.
</event>
<event>
 4    1  0.4630618E-004  0.6500000E+04  0.7818608E-02  0.7223770E-01
         52   -1    0    0    0    0  0.00000000000E+00  0.00000000000E+00  0.64930732323E+04  0.65000000000E+04  0.30000000000E+03 0. -1.
        -52   -1    0    0    0    0 -0.00000000000E+00 -0.00000000000E+00 -0.64930732323E+04  0.65000000000E+04  0.30000000000E+03 0.  1.
     100001    1    1    2    0    0  0.58243784151E+03  0.64082251226E+03  0.64402998702E+04  0.65000000000E+04  0.15050000000E+03 0. -1.
     100001    1    1    2    0    0 -0.58243784151E+03 -0.64082251226E+03 -0.64402998702E+04  0.65000000000E+04  0.15050000000E+03 0.  1.
</event>
<event>
 4    1  0.4630618E-004  0.6500000E+04  0.7818608E-02  0.7223770E-01
         52   -1    0    0    0    0  0.00000000000E+00  0.00000000000E+00  0.64930732323E+04  0.65000000000E+04  0.30000000000E+03 0. -1.
        -52   -1    0    0    0    0 -0.00000000000E+00 -0.00000000000E+00 -0.64930732323E+04  0.65000000000E+04  0.30000000000E+03 0.  1.
     100001    1    1    2    0    0 -0.35335414380E+03 -0.40359328642E+03  0.64760792968E+04  0.65000000000E+04  0.15050000000E+03 0. -1.
     100001    1    1    2    0    0  0.35335414380E+03  0.40359328642E+03 -0.64760792968E+04  0.65000000000E+04  0.15050000000E+03 0.  1.
</event>
<event>
 4    1  0.4630618E-004  0.6500000E+04  0.7818608E-02  0.7223770E-01
         52   -1    0    0    0    0  0.00000000000E+00  0.00000000000E+00  0.64930732323E+04  0.65000000000E+04  0.30000000000E+03 0. -1.
        -52   -1    0    0    0    0 -0.00000000000E+00 -0.00000000000E+00 -0.64930732323E+04  0.65000000000E+04  0.30000000000E+03 0.  1.
     100001    1    1    2    0    0  0.26783619179E+03 -0.52826769883E+04  0.37747764651E+04  0.65000000000E+04  0.15050000000E+03 0. -1.
     100001    1    1    2    0    0 -0.26783619179E+03  0.52826769883E+04 -0.37747764651E+04  0.65000000000E+04  0.15050000000E+03 0.  1.
</event>
<event>
 4    1  0.4630618E-004  0.6500000E+04  0.7818608E-02  0.7223770E-01
         52   -1    0    0    0    0  0.00000000000E+00  0.00000000000E+00  0.64930732323E+04  0.65000000000E+04  0.30000000000E+03 0. -1.
        -52   -1    0    0    0    0 -0.00000000000E+00 -0.00000000000E+00 -0.64930732323E+04  0.65000000000E+04  0.30000000000E+03 0.  1.
     100001    1    1    2    0    0  0.28588218320E+04  0.35437422139E+04 -0.46364187262E+04  0.65000000000E+04  0.15050000000E+03 0.  1.
     100001    1    1    2    0    0 -0.28588218320E+04 -0.35437422139E+04  0.46364187262E+04  0.65000000000E+04  0.15050000000E+03 0. -1.
</event>
<event>
 4    1  0.4630618E-004  0.6500000E+04  0.7818608E-02  0.7223770E-01
         52   -1    0    0    0    0  0.00000000000E+00  0.00000000000E+00  0.64930732323E+04  0.65000000000E+04  0.30000000000E+03 0.  1.
        -52   -1    0    0    0    0 -0.00000000000E+00 -0.00000000000E+00 -0.64930732323E+04  0.65000000000E+04  0.30000000000E+03 0. -1.
     100001    1    1    2    0    0 -0.28006876613E+04  0.29089520509E+04 -0.50913157768E+04  0.65000000000E+04  0.15050000000E+03 0. -1.
     100001    1    1    2    0    0  0.28006876613E+04 -0.29089520509E+04  0.50913157768E+04  0.65000000000E+04  0.15050000000E+03 0.  1.
</event>
<event>
 4    1  0.4630618E-004  0.6500000E+04  0.7818608E-02  0.7223770E-01
         52   -1    0    0    0    0  0.00000000000E+00  0.00000000000E+00  0.64930732323E+04  0.65000000000E+04  0.30000000000E+03 0.  1.
        -52   -1    0    0    0    0 -0.00000000000E+00 -0.00000000000E+00 -0.64930732323E+04  0.65000000000E+04  0.30000000000E+03 0. -1.
     100001    1    1    2    0    0 -0.34139492868E+04 -0.47842236035E+04  0.27719135139E+04  0.65000000000E+04  0.15050000000E+03 0.  1.
     100001    1    1    2    0    0  0.34139492868E+04  0.47842236035E+04 -0.27719135139E+04  0.65000000000E+04  0.15050000000E+03 0. -1.
</event>
<event>
 4    1  0.4630618E-004  0.6500000E+04  0.7818608E-02  0.7223770E-01
         52   -1    0    0    0    0  0.00000000000E+00  0.00000000000E+00  0.64930732323E+04  0.65000000000E+04  0.30000000000E+03 0. -1.
        -52   -1    0    0    0    0 -0.00000000000E+00 -0.00000000000E+00 -0.64930732323E+04  0.65000000000E+04  0.30000000000E+03 0.  1.
     100001    1    1    2    0    0 -0.10650306472E+04 -0.38143899467E+04  0.51520373450E+04  0.65000000000E+04  0.15050000000E+03 0. -1.
     100001    1    1    2    0    0  0.10650306472E+04  0.38143899467E+04 -0.51520373450E+04  0.65000000000E+04  0.15050000000E+03 0.  1.
</event>
<event>
 4    1  0.4630618E-004  0.6500000E+04  0.7818608E-02  0.7223770E-01
         52   -1    0    0    0    0  0.00000000000E+00  0.00000000000E+00  0.64930732323E+04  0.65000000000E+04  0.30000000000E+03 0.  1.
        -52   -1    0    0    0    0 -0.00000000000E+00 -0.00000000000E+00 -0.64930732323E+04  0.65000000000E+04  0.30000000000E+03 0. -1.
     100001    1    1    2    0    0  0.16470988895E+03  0.20801649336E+04  0.61541152290E+04  0.65000000000E+04  0.15050000000E+03 0.  1.
     100001    1    1    2    0    0 -0.16470988895E+03 -0.20801649336E+04 -0.61541152290E+04  0.65000000000E+04  0.15050000000E+03 0. -1.
</event>
<event>
 4    1  0.4630618E-004  0.6500000E+04  0.7818608E-02  0.7223770E-01
         52   -1    0    0    0    0  0.00000000000E+00  0.00000000000E+00  0.64930732323E+04  0.65000000000E+04  0.30000000000E+03 0. -1.
        -52   -1    0    0    0    0 -0.00000000000E+00 -0.00000000000E+00 -0.64930732323E+04  0.65000000000E+04  0.30000000000E+03 0.  1.
     100001    1    1    2    0    0  0.29371864019E+03  0.11509066189E+04  0.63887786834E+04  0.65000000000E+04  0.15050000000E+03 0. -1.
     100001    1    1    2    0    0 -0.29371864019E+03 -0.11509066189E+04 -0.63887786834E+04  0.65000000000E+04  0.15050000000E+03 0.  1.
</event>
<event>
 4    1  0.4630618E-004  0.6500000E+04  0.7818608E-02  0.7223770E-01
         52   -1    0    0    0    0  0.00000000000E+00  0.00000000000E+00  0.64930732323E+04  0.65000000000E+04  0.30000000000E+03 0.  1.
        -52   -1    0    0    0    0 -0.00000000000E+00 -0.00000000000E+00 -0.64930732323E+04  0.65000000000E+04  0.30000000000E+03 0. -1.
     100001    1    1    2    0    0 -0.48674704791E+03  0.17600329714E+04  0.62364020878E+04  0.65000000000E+04  0.15050000000E+03 0.  1.
     100001    1    1    2    0    0  0.48674704791E+03 -0.17600329714E+04 -0.62364020878E+04  0.65000000000E+04  0.15050000000E+03 0. -1.
</event>
<event>
 4    1  0.4630618E-004  0.6500000E+04  0.7818608E-02  0.7223770E-01
         52   -1    0    0    0    0  0.00000000000E+00  0.00000000000E+00  0.64930732323E+04  0.65000000000E+04  0.30000000000E+03 0.  1.
        -52   -1    0    0    0    0 -0.00000000000E+00 -0.00000000000E+00 -0.64930732323E+04  0.65000000000E+04  0.30000000000E+03 0. -1.
     100001    1    1    2    0    0 -0.44423799559E+03  0.57806199589E+03 -0.64572321224E+04  0.65000000000E+04  0.15050000000E+03 0. -1.
     100001    1    1    2    0    0  0.44423799559E+03 -0.57806199589E+03  0.64572321224E+04  0.65000000000E+04  0.15050000000E+03 0.  1.
</event>
<event>
 4    1  0.4630618E-004  0.6500000E+04  0.7818608E-02  0.7223770E-01
         52   -1    0    0    0    0  0.00000000000E+00  0.00000000000E+00  0.64930732323E+04  0.65000000000E+04  0.30000000000E+03 0.  1.
        -52   -1    0    0    0    0 -0.00000000000E+00 -0.00000000000E+00 -0.64930732323E+04  0.65000000000E+04  0.30000000000E+03 0. -1.
     100001    1    1    2    0    0 -0.71931681380E+03 -0.39268128585E+04 -0.51273846984E+04  0.65000000000E+04  0.15050000000E+03 0. -1.
     100001    1    1    2    0    0  0.71931681380E+03  0.39268128585E+04  0.51273846984E+04  0.65000000000E+04  0.15050000000E+03 0.  1.
</event>
<event>
 4    1  0.4630618E-004  0.6500000E+04  0.7818608E-02  0.7223770E-01
         52   -1    0    0    0    0  0.00000000000E+00  0.00000000000E+00  0.64930732323E+04  0.65000000000E+04  0.30000000000E+03 0. -1.
        -52   -1    0    0    0    0 -0.00000000000E+00 -0.00000000000E+00 -0.64930732323E+04  0.65000000000E+04  0.30000000000E+03 0.  1.
     100001    1    1    2    0    0  0.48212201865E+03 -0.67905512303E+02  0.64799920486E+04  0.65000000000E+04  0.15050000000E+03 0. -1.
     100001    1    1    2    0    0 -0.48212201865E+03  0.67905512303E+02 -0.64799920486E+04  0.65000000000E+04  0.15050000000E+03 0.  1.
</event>
<event>
 4    1  0.4630618E-004  0.6500000E+04  0.7818608E-02  0.7223770E-01
         52   -1    0    0    0    0  0.00000000000E+00  0.00000000000E+00  0.64930732323E+04  0.65000000000E+04  0.30000000000E+03 0.  1.
        -52   -1    0    0    0    0 -0.00000000000E+00 -0.00000000000E+00 -0.64930732323E+04  0.65000000000E+04  0.30000000000E+03 0. -1.
     100001    1    1    2    0    0  0.83320915816E+03 -0.47561127853E+03  0.64270449011E+04  0.65000000000E+04  0.15050000000E+03 0.  1.
     100001    1    1    2    0    0 -0.83320915816E+03  0.47561127853E+03 -0.64270449011E+04  0.65000000000E+04  0.15050000000E+03 0. -1.
</event>
<event>
 4    1  0.4630618E-004  0.6500000E+04  0.7818608E-02  0.7223770E-01
         52   -1    0    0    0    0  0.00000000000E+00  0.00000000000E+00  0.64930732323E+04  0.65000000000E+04  0.30000000000E+03 0. -1.
        -52   -1    0    0    0    0 -0.00000000000E+00 -0.00000000000E+00 -0.64930732323E+04  0.65000000000E+04  0.30000000000E+03 0.  1.
     100001    1    1    2    0    0  0.35943129074E+03  0.49690223973E+03 -0.64692539803E+04  0.65000000000E+04  0.15050000000E+03 0.  1.
     100001    1    1    2    0    0 -0.35943129074E+03 -0.49690223973E+03  0.64692539803E+04  0.65000000000E+04  0.15050000000E+03 0. -1.
</event>
<event>
 4    1  0.4630618E-004  0.6500000E+04  0.7818608E-02  0.7223770E-01
         52   -1    0    0    0    0  0.00000000000E+00  0.00000000000E+00  0.64930732323E+04  0.65000000000E+04  0.30000000000E+03 0. -1.
        -52   -1    0    0    0    0 -0.00000000000E+00 -0.00000000000E+00 -0.64930732323E+04  0.65000000000E+04  0.30000000000E+03 0.  1.
     100001    1    1    2    0    0  0.64610216575E+03 -0.30483657709E+03 -0.64588680434E+04  0.65000000000E+04  0.15050000000E+03 0.  1.
     100001    1    1    2    0    0 -0.64610216575E+03  0.30483657709E+03  0.64588680434E+04  0.65000000000E+04  0.15050000000E+03 0. -1.
</event>
<event>
 4    1  0.4630618E-004  0.6500000E+04  0.7818608E-02  0.7223770E-01
         52   -1    0    0    0    0  0.00000000000E+00  0.00000000000E+00  0.64930732323E+04  0.65000000000E+04  0.30000000000E+03 0. -1.
        -52   -1    0    0    0    0 -0.00000000000E+00 -0.00000000000E+00 -0.64930732323E+04  0.65000000000E+04  0.30000000000E+03 0.  1.
     100001    1    1    2    0    0  0.19638082698E+03 -0.33429875356E+03  0.64866808665E+04  0.65000000000E+04  0.15050000000E+03 0. -1.
     100001    1    1    2    0    0 -0.19638082698E+03  0.33429875356E+03 -0.64866808665E+04  0.65000000000E+04  0.15050000000E+03 0.  1.
</event>
<event>
 4    1  0.4630618E-004  0.6500000E+04  0.7818608E-02  0.7223770E-01
         52   -1    0    0    0    0  0.00000000000E+00  0.00000000000E+00  0.64930732323E+04  0.65000000000E+04  0.30000000000E+03 0.  1.
        -52   -1    0    0    0    0 -0.00000000000E+00 -0.00000000000E+00 -0.64930732323E+04  0.65000000000E+04  0.30000000000E+03 0. -1.
     100001    1    1    2    0    0 -0.18239534497E+04  0.22947659395E+04 -0.57995338473E+04  0.65000000000E+04  0.15050000000E+03 0. -1.
     100001    1    1    2    0    0  0.18239534497E+04 -0.22947659395E+04  0.57995338473E+04  0.65000000000E+04  0.15050000000E+03 0.  1.
</event>
<event>
 4    1  0.4630618E-004  0.6500000E+04  0.7818608E-02  0.7223770E-01
         52   -1    0    0    0    0  0.00000000000E+00  0.00000000000E+00  0.64930732323E+04  0.65000000000E+04  0.30000000000E+03 0. -1.
        -52   -1    0    0    0    0 -0.00000000000E+00 -0.00000000000E+00 -0.64930732323E+04  0.65000000000E+04  0.30000000000E+03 0.  1.
     100001    1    1    2    0    0  0.40336183584E+04  0.16986564774E+04 -0.48033154030E+04  0.65000000000E+04  0.15050000000E+03 0.  1.
     100001    1    1    2    0    0 -0.40336183584E+04 -0.16986564774E+04  0.48033154030E+04  0.65000000000E+04  0.15050000000E+03 0. -1.
</event>
<event>
 4    1  0.4630618E-004  0.6500000E+04  0.7818608E-02  0.7223770E-01
         52   -1    0    0    0    0  0.00000000000E+00  0.00000000000E+00  0.64930732323E+04  0.65000000000E+04  0.30000000000E+03 0. -1.
        -52   -1    0    0    0    0 -0.00000000000E+00 -0.00000000000E+00 -0.64930732323E+04  0.65000000000E+04  0.30000000000E+03 0.  1.
     100001    1    1    2    0    0 -0.37101771119E+04  0.87223221997E+03  0.52631878651E+04  0.65000000000E+04  0.15050000000E+03 0. -1.
     100001    1    1    2    0    0  0.37101771119E+04 -0.87223221997E+03 -0.52631878651E+04  0.65000000000E+04  0.15050000000E+03 0.  1.
</event>
<event>
 4    1  0.4630618E-004  0.6500000E+04  0.7818608E-02  0.7223770E-01
         52   -1    0    0    0    0  0.00000000000E+00  0.00000000000E+00  0.64930732323E+04  0.65000000000E+04  0.30000000000E+03 0.  1.
        -52   -1    0    0    0    0 -0.00000000000E+00 -0.00000000000E+00 -0.64930732323E+04  0.65000000000E+04  0.30000000000E+03 0. -1.
     100001    1    1    2    0    0 -0.93098284104E+03  0.12331045603E+04 -0.63118993847E+04  0.65000000000E+04  0.15050000000E+03 0. -1.
     100001    1    1    2    0    0  0.93098284104E+03 -0.12331045603E+04  0.63118993847E+04  0.65000000000E+04  0.15050000000E+03 0.  1.
</event>
<event>
 4    1  0.4630618E-004  0.6500000E+04  0.7818608E-02  0.7223770E-01
         52   -1    0    0    0    0  0.00000000000E+00  0.00000000000E+00  0.64930732323E+04  0.65000000000E+04  0.30000000000E+03 0. -1.
        -52   -1    0    0    0    0 -0.00000000000E+00 -0.00000000000E+00 -0.64930732323E+04  0.65000000000E+04  0.30000000000E+03 0.  1.
     100001    1    1    2    0    0 -0.16171813590E+04 -0.41072782743E+04 -0.47688928883E+04  0.65000000000E+04  0.15050000000E+03 0.  1.
     100001    1    1    2    0    0  0.16171813590E+04  0.41072782743E+04  0.47688928883E+04  0.65000000000E+04  0.15050000000E+03 0. -1.
</event>
<event>
 4    1  0.4630618E-004  0.6500000E+04  0.7818608E-02  0.7223770E-01
         52   -1    0    0    0    0  0.00000000000E+00  0.00000000000E+00  0.64930732323E+04  0.65000000000E+04  0.30000000000E+03 0. -1.
        -52   -1    0    0    0    0 -0.00000000000E+00 -0.00000000000E+00 -0.64930732323E+04  0.65000000000E+04  0.30000000000E+03 0.  1.
     100001    1    1    2    0    0 -0.43336641911E+03  0.65238802833E+03 -0.64508862304E+04  0.65000000000E+04  0.15050000000E+03 0.  1.
     100001    1    1    2    0    0  0.43336641911E+03 -0.65238802833E+03  0.64508862304E+04  0.65000000000E+04  0.15050000000E+03 0. -1.
</event>
<event>
 4    1  0.4630618E-004  0.6500000E+04  0.7818608E-02  0.7223770E-01
         52   -1    0    0    0    0  0.00000000000E+00  0.00000000000E+00  0.64930732323E+04  0.65000000000E+04  0.30000000000E+03 0.  1.
        -52   -1    0    0    0    0 -0.00000000000E+00 -0.00000000000E+00 -0.64930732323E+04  0.65000000000E+04  0.30000000000E+03 0. -1.
     100001    1    1    2    0    0 -0.11407259077E+04 -0.16914119150E+04  0.61697017665E+04  0.65000000000E+04  0.15050000000E+03 0.  1.
     100001    1    1    2    0    0  0.11407259077E+04  0.16914119150E+04 -0.61697017665E+04  0.65000000000E+04  0.15050000000E+03 0. -1.
</event>
<event>
 4    1  0.4630618E-004  0.6500000E+04  0.7818608E-02  0.7223770E-01
         52   -1    0    0    0    0  0.00000000000E+00  0.00000000000E+00  0.64930732323E+04  0.65000000000E+04  0.30000000000E+03 0.  1.
        -52   -1    0    0    0    0 -0.00000000000E+00 -0.00000000000E+00 -0.64930732323E+04  0.65000000000E+04  0.30000000000E+03 0. -1.
     100001    1    1    2    0    0  0.50134697656E+04  0.24257834534E+04 -0.33478418865E+04  0.65000000000E+04  0.15050000000E+03 0. -1.
     100001    1    1    2    0    0 -0.50134697656E+04 -0.24257834534E+04  0.33478418865E+04  0.65000000000E+04  0.15050000000E+03 0.  1.
</event>
<event>
 4    1  0.4630618E-004  0.6500000E+04  0.7818608E-02  0.7223770E-01
         52   -1    0    0    0    0  0.00000000000E+00  0.00000000000E+00  0.64930732323E+04  0.65000000000E+04  0.30000000000E+03 0.  1.
        -52   -1    0    0    0    0 -0.00000000000E+00 -0.00000000000E+00 -0.64930732323E+04  0.65000000000E+04  0.30000000000E+03 0. -1.
     100001    1    1    2    0    0 -0.44870038098E+03  0.92834145005E+03 -0.64159332813E+04  0.65000000000E+04  0.15050000000E+03 0. -1.
     100001    1    1    2    0    0  0.44870038098E+03 -0.92834145005E+03  0.64159332813E+04  0.65000000000E+04  0.15050000000E+03 0.  1.
</event>
<event>
 4    1  0.4630618E-004  0.6500000E+04  0.7818608E-02  0.7223770E-01
         52   -1    0    0    0    0  0.00000000000E+00  0.00000000000E+00  0.64930732323E+04  0.65000000000E+04  0.30000000000E+03 0. -1.
        -52   -1    0    0    0    0 -0.00000000000E+00 -0.00000000000E+00 -0.64930732323E+04  0.65000000000E+04  0.30000000000E+03 0.  1.
     100001    1    1    2    0    0 -0.22534452797E+02 -0.45440651638E+03 -0.64823110591E+04  0.65000000000E+04  0.15050000000E+03 0.  1.
     100001    1    1    2    0    0  0.22534452797E+02  0.45440651638E+03  0.64823110591E+04  0.65000000000E+04  0.15050000000E+03 0. -1.
</event>
<event>
 4    1  0.4630618E-004  0.6500000E+04  0.7818608E-02  0.7223770E-01
         52   -1    0    0    0    0  0.00000000000E+00  0.00000000000E+00  0.64930732323E+04  0.65000000000E+04  0.30000000000E+03 0. -1.
        -52   -1    0    0    0    0 -0.00000000000E+00 -0.00000000000E+00 -0.64930732323E+04  0.65000000000E+04  0.30000000000E+03 0.  1.
     100001    1    1    2    0    0 -0.11686660164E+04 -0.19942467372E+04 -0.60732651386E+04  0.65000000000E+04  0.15050000000E+03 0.  1.
     100001    1    1    2    0    0  0.11686660164E+04  0.19942467372E+04  0.60732651386E+04  0.65000000000E+04  0.15050000000E+03 0. -1.
</event>
<event>
 4    1  0.4630618E-004  0.6500000E+04  0.7818608E-02  0.7223770E-01
         52   -1    0    0    0    0  0.00000000000E+00  0.00000000000E+00  0.64930732323E+04  0.65000000000E+04  0.30000000000E+03 0.  1.
        -52   -1    0    0    0    0 -0.00000000000E+00 -0.00000000000E+00 -0.64930732323E+04  0.65000000000E+04  0.30000000000E+03 0. -1.
     100001    1    1    2    0    0  0.21282892507E+04 -0.15470974354E+04 -0.59417357852E+04  0.65000000000E+04  0.15050000000E+03 0. -1.
     100001    1    1    2    0    0 -0.21282892507E+04  0.15470974354E+04  0.59417357852E+04  0.65000000000E+04  0.15050000000E+03 0.  1.
</event>
<event>
 4    1  0.4630618E-004  0.6500000E+04  0.7818608E-02  0.7223770E-01
         52   -1    0    0    0    0  0.00000000000E+00  0.00000000000E+00  0.64930732323E+04  0.65000000000E+04  0.30000000000E+03 0.  1.
        -52   -1    0    0    0    0 -0.00000000000E+00 -0.00000000000E+00 -0.64930732323E+04  0.65000000000E+04  0.30000000000E+03 0. -1.
     100001    1    1    2    0    0  0.11557704857E+04 -0.24499094851E+02  0.63946027342E+04  0.65000000000E+04  0.15050000000E+03 0.  1.
     100001    1    1    2    0    0 -0.11557704857E+04  0.24499094851E+02 -0.63946027342E+04  0.65000000000E+04  0.15050000000E+03 0. -1.
</event>
<event>
 4    1  0.4630618E-004  0.6500000E+04  0.7818608E-02  0.7223770E-01
         52   -1    0    0    0    0  0.00000000000E+00  0.00000000000E+00  0.64930732323E+04  0.65000000000E+04  0.30000000000E+03 0.  1.
        -52   -1    0    0    0    0 -0.00000000000E+00 -0.00000000000E+00 -0.64930732323E+04  0.65000000000E+04  0.30000000000E+03 0. -1.
     100001    1    1    2    0    0 -0.40835341507E+03 -0.22297990509E+04  0.60900405114E+04  0.65000000000E+04  0.15050000000E+03 0.  1.
     100001    1    1    2    0    0  0.40835341507E+03  0.22297990509E+04 -0.60900405114E+04  0.65000000000E+04  0.15050000000E+03 0. -1.
</event>
<event>
 4    1  0.4630618E-004  0.6500000E+04  0.7818608E-02  0.7223770E-01
         52   -1    0    0    0    0  0.00000000000E+00  0.00000000000E+00  0.64930732323E+04  0.65000000000E+04  0.30000000000E+03 0. -1.
        -52   -1    0    0    0    0 -0.00000000000E+00 -0.00000000000E+00 -0.64930732323E+04  0.65000000000E+04  0.30000000000E+03 0.  1.
     100001    1    1    2    0    0 -0.12022003320E+03  0.56598117250E+04 -0.31905216080E+04  0.65000000000E+04  0.15050000000E+03 0.  1.
     100001    1    1    2    0    0  0.12022003320E+03 -0.56598117250E+04  0.31905216080E+04  0.65000000000E+04  0.15050000000E+03 0. -1.
</event>
<event>
 4    1  0.4630618E-004  0.6500000E+04  0.7818608E-02  0.7223770E-01
         52   -1    0    0    0    0  0.00000000000E+00  0.00000000000E+00  0.64930732323E+04  0.65000000000E+04  0.30000000000E+03 0. -1.
        -52   -1    0    0    0    0 -0.00000000000E+00 -0.00000000000E+00 -0.64930732323E+04  0.65000000000E+04  0.30000000000E+03 0.  1.
     100001    1    1    2    0    0  0.38805016326E+04  0.38175711705E+04 -0.35489726946E+04  0.65000000000E+04  0.15050000000E+03 0.  1.
     100001    1    1    2    0    0 -0.38805016326E+04 -0.38175711705E+04  0.35489726946E+04  0.65000000000E+04  0.15050000000E+03 0. -1.
</event>
<event>
 4    1  0.4630618E-004  0.6500000E+04  0.7818608E-02  0.7223770E-01
         52   -1    0    0    0    0  0.00000000000E+00  0.00000000000E+00  0.64930732323E+04  0.65000000000E+04  0.30000000000E+03 0. -1.
        -52   -1    0    0    0    0 -0.00000000000E+00 -0.00000000000E+00 -0.64930732323E+04  0.65000000000E+04  0.30000000000E+03 0.  1.
     100001    1    1    2    0    0 -0.12388563196E+04 -0.63764812859E+04  0.18185483379E+03  0.65000000000E+04  0.15050000000E+03 0.  1.
     100001    1    1    2    0    0  0.12388563196E+04  0.63764812859E+04 -0.18185483379E+03  0.65000000000E+04  0.15050000000E+03 0. -1.
</event>
<event>
 4    1  0.4630618E-004  0.6500000E+04  0.7818608E-02  0.7223770E-01
         52   -1    0    0    0    0  0.00000000000E+00  0.00000000000E+00  0.64930732323E+04  0.65000000000E+04  0.30000000000E+03 0. -1.
        -52   -1    0    0    0    0 -0.00000000000E+00 -0.00000000000E+00 -0.64930732323E+04  0.65000000000E+04  0.30000000000E+03 0.  1.
     100001    1    1    2    0    0 -0.24750644323E+04 -0.11904101921E+04 -0.58893403180E+04  0.65000000000E+04  0.15050000000E+03 0.  1.
     100001    1    1    2    0    0  0.24750644323E+04  0.11904101921E+04  0.58893403180E+04  0.65000000000E+04  0.15050000000E+03 0. -1.
</event>
<event>
 4    1  0.4630618E-004  0.6500000E+04  0.7818608E-02  0.7223770E-01
         52   -1    0    0    0    0  0.00000000000E+00  0.00000000000E+00  0.64930732323E+04  0.65000000000E+04  0.30000000000E+03 0.  1.
        -52   -1    0    0    0    0 -0.00000000000E+00 -0.00000000000E+00 -0.64930732323E+04  0.65000000000E+04  0.30000000000E+03 0. -1.
     100001    1    1    2    0    0  0.12193352059E+04 -0.75739496466E+02  0.63823847372E+04  0.65000000000E+04  0.15050000000E+03 0.  1.
     100001    1    1    2    0    0 -0.12193352059E+04  0.75739496466E+02 -0.63823847372E+04  0.65000000000E+04  0.15050000000E+03 0. -1.
</event>
<event>
 4    1  0.4630618E-004  0.6500000E+04  0.7818608E-02  0.7223770E-01
         52   -1    0    0    0    0  0.00000000000E+00  0.00000000000E+00  0.64930732323E+04  0.65000000000E+04  0.30000000000E+03 0.  1.
        -52   -1    0    0    0    0 -0.00000000000E+00 -0.00000000000E+00 -0.64930732323E+04  0.65000000000E+04  0.30000000000E+03 0. -1.
     100001    1    1    2    0    0  0.78336912994E+02  0.41869797148E+03  0.64842813855E+04  0.65000000000E+04  0.15050000000E+03 0.  1.
     100001    1    1    2    0    0 -0.78336912994E+02 -0.41869797148E+03 -0.64842813855E+04  0.65000000000E+04  0.15050000000E+03 0. -1.
</event>
<event>
 4    1  0.4630618E-004  0.6500000E+04  0.7818608E-02  0.7223770E-01
         52   -1    0    0    0    0  0.00000000000E+00  0.00000000000E+00  0.64930732323E+04  0.65000000000E+04  0.30000000000E+03 0. -1.
        -52   -1    0    0    0    0 -0.00000000000E+00 -0.00000000000E+00 -0.64930732323E+04  0.65000000000E+04  0.30000000000E+03 0.  1.
     100001    1    1    2    0    0 -0.19917173884E+02  0.32554190832E+04 -0.56239843215E+04  0.65000000000E+04  0.15050000000E+03 0.  1.
     100001    1    1    2    0    0  0.19917173884E+02 -0.32554190832E+04  0.56239843215E+04  0.65000000000E+04  0.15050000000E+03 0. -1.
</event>
<event>
 4    1  0.5158120E-004  0.6500000E+04  0.7818608E-02  0.7223770E-01
         52   -1    0    0    0    0  0.00000000000E+00  0.00000000000E+00  0.64930732323E+04  0.65000000000E+04  0.30000000000E+03 0.  1.
        -52   -1    0    0    0    0 -0.00000000000E+00 -0.00000000000E+00 -0.64930732323E+04  0.65000000000E+04  0.30000000000E+03 0. -1.
     100001    1    1    2    0    0 -0.23731816784E+03  0.62161860454E+02  0.64936250077E+04  0.65000000000E+04  0.15050000000E+03 0.  1.
     100001    1    1    2    0    0  0.23731816784E+03 -0.62161860454E+02 -0.64936250077E+04  0.65000000000E+04  0.15050000000E+03 0. -1.
</event>
<event>
 4    1  0.6251714E-004  0.6500000E+04  0.7818608E-02  0.7223770E-01
         52   -1    0    0    0    0  0.00000000000E+00  0.00000000000E+00  0.64930732323E+04  0.65000000000E+04  0.30000000000E+03 0. -1.
        -52   -1    0    0    0    0 -0.00000000000E+00 -0.00000000000E+00 -0.64930732323E+04  0.65000000000E+04  0.30000000000E+03 0. -1.
     100001    1    1    2    0    0  0.14435273952E+03 -0.75523785440E+02  0.64962149129E+04  0.65000000000E+04  0.15050000000E+03 0. -1.
     100001    1    1    2    0    0 -0.14435273952E+03  0.75523785440E+02 -0.64962149129E+04  0.65000000000E+04  0.15050000000E+03 0. -1.
</event>
<event>
 4    1  0.7093165E-004  0.6500000E+04  0.7818608E-02  0.7223770E-01
         52   -1    0    0    0    0  0.00000000000E+00  0.00000000000E+00  0.64930732323E+04  0.65000000000E+04  0.30000000000E+03 0.  1.
        -52   -1    0    0    0    0 -0.00000000000E+00 -0.00000000000E+00 -0.64930732323E+04  0.65000000000E+04  0.30000000000E+03 0.  1.
     100001    1    1    2    0    0 -0.45800893637E+02 -0.95780264620E+01  0.64980889721E+04  0.65000000000E+04  0.15050000000E+03 0.  1.
     100001    1    1    2    0    0  0.45800893637E+02  0.95780264620E+01 -0.64980889721E+04  0.65000000000E+04  0.15050000000E+03 0.  1.
</event>
<event>
 4    1  0.4630618E-004  0.6500000E+04  0.7818608E-02  0.7223770E-01
         52   -1    0    0    0    0  0.00000000000E+00  0.00000000000E+00  0.64930732323E+04  0.65000000000E+04  0.30000000000E+03 0.  1.
        -52   -1    0    0    0    0 -0.00000000000E+00 -0.00000000000E+00 -0.64930732323E+04  0.65000000000E+04  0.30000000000E+03 0. -1.
     100001    1    1    2    0    0  0.99078215637E+03 -0.75511903238E+03 -0.63777343717E+04  0.65000000000E+04  0.15050000000E+03 0. -1.
     100001    1    1    2    0    0 -0.99078215637E+03  0.75511903238E+03  0.63777343717E+04  0.65000000000E+04  0.15050000000E+03 0.  1.
</event>
<event>
 4    1  0.4630618E-004  0.6500000E+04  0.7818608E-02  0.7223770E-01
         52   -1    0    0    0    0  0.00000000000E+00  0.00000000000E+00  0.64930732323E+04  0.65000000000E+04  0.30000000000E+03 0.  1.
        -52   -1    0    0    0    0 -0.00000000000E+00 -0.00000000000E+00 -0.64930732323E+04  0.65000000000E+04  0.30000000000E+03 0. -1.
     100001    1    1    2    0    0  0.20151259881E+04  0.37869278983E+04  0.48811672882E+04  0.65000000000E+04  0.15050000000E+03 0.  1.
     100001    1    1    2    0    0 -0.20151259881E+04 -0.37869278983E+04 -0.48811672882E+04  0.65000000000E+04  0.15050000000E+03 0. -1.
</event>
<event>
 4    1  0.4630618E-004  0.6500000E+04  0.7818608E-02  0.7223770E-01
         52   -1    0    0    0    0  0.00000000000E+00  0.00000000000E+00  0.64930732323E+04  0.65000000000E+04  0.30000000000E+03 0.  1.
        -52   -1    0    0    0    0 -0.00000000000E+00 -0.00000000000E+00 -0.64930732323E+04  0.65000000000E+04  0.30000000000E+03 0. -1.
     100001    1    1    2    0    0  0.23473505341E+04 -0.42386000362E+04  0.43303077204E+04  0.65000000000E+04  0.15050000000E+03 0.  1.
     100001    1    1    2    0    0 -0.23473505341E+04  0.42386000362E+04 -0.43303077204E+04  0.65000000000E+04  0.15050000000E+03 0. -1.
</event>
<event>
 4    1  0.4630618E-004  0.6500000E+04  0.7818608E-02  0.7223770E-01
         52   -1    0    0    0    0  0.00000000000E+00  0.00000000000E+00  0.64930732323E+04  0.65000000000E+04  0.30000000000E+03 0. -1.
        -52   -1    0    0    0    0 -0.00000000000E+00 -0.00000000000E+00 -0.64930732323E+04  0.65000000000E+04  0.30000000000E+03 0.  1.
     100001    1    1    2    0    0  0.33343799077E+03 -0.62197075625E+03  0.64598236226E+04  0.65000000000E+04  0.15050000000E+03 0. -1.
     100001    1    1    2    0    0 -0.33343799077E+03  0.62197075625E+03 -0.64598236226E+04  0.65000000000E+04  0.15050000000E+03 0.  1.
</event>
<event>
 4    1  0.4630618E-004  0.6500000E+04  0.7818608E-02  0.7223770E-01
         52   -1    0    0    0    0  0.00000000000E+00  0.00000000000E+00  0.64930732323E+04  0.65000000000E+04  0.30000000000E+03 0.  1.
        -52   -1    0    0    0    0 -0.00000000000E+00 -0.00000000000E+00 -0.64930732323E+04  0.65000000000E+04  0.30000000000E+03 0. -1.
     100001    1    1    2    0    0  0.25954327905E+04 -0.41914090036E+03 -0.59426761047E+04  0.65000000000E+04  0.15050000000E+03 0. -1.
     100001    1    1    2    0    0 -0.25954327905E+04  0.41914090036E+03  0.59426761047E+04  0.65000000000E+04  0.15050000000E+03 0.  1.
</event>
<event>
 4    1  0.4630618E-004  0.6500000E+04  0.7818608E-02  0.7223770E-01
         52   -1    0    0    0    0  0.00000000000E+00  0.00000000000E+00  0.64930732323E+04  0.65000000000E+04  0.30000000000E+03 0. -1.
        -52   -1    0    0    0    0 -0.00000000000E+00 -0.00000000000E+00 -0.64930732323E+04  0.65000000000E+04  0.30000000000E+03 0. -1.
     100001    1    1    2    0    0  0.21937287358E+02 -0.75699511296E+02  0.64977794737E+04  0.65000000000E+04  0.15050000000E+03 0. -1.
     100001    1    1    2    0    0 -0.21937287358E+02  0.75699511296E+02 -0.64977794737E+04  0.65000000000E+04  0.15050000000E+03 0. -1.
</event>
<event>
 4    1  0.5813842E-004  0.6500000E+04  0.7818608E-02  0.7223770E-01
         52   -1    0    0    0    0  0.00000000000E+00  0.00000000000E+00  0.64930732323E+04  0.65000000000E+04  0.30000000000E+03 0. -1.
        -52   -1    0    0    0    0 -0.00000000000E+00 -0.00000000000E+00 -0.64930732323E+04  0.65000000000E+04  0.30000000000E+03 0. -1.
     100001    1    1    2    0    0 -0.13124392322E+03  0.15267337736E+03 -0.64951378448E+04  0.65000000000E+04  0.15050000000E+03 0. -1.
     100001    1    1    2    0    0  0.13124392322E+03 -0.15267337736E+03  0.64951378448E+04  0.65000000000E+04  0.15050000000E+03 0. -1.
</event>
<event>
 4    1  0.4630618E-004  0.6500000E+04  0.7818608E-02  0.7223770E-01
         52   -1    0    0    0    0  0.00000000000E+00  0.00000000000E+00  0.64930732323E+04  0.65000000000E+04  0.30000000000E+03 0. -1.
        -52   -1    0    0    0    0 -0.00000000000E+00 -0.00000000000E+00 -0.64930732323E+04  0.65000000000E+04  0.30000000000E+03 0.  1.
     100001    1    1    2    0    0  0.14357325973E+04  0.16882801685E+04  0.61086603877E+04  0.65000000000E+04  0.15050000000E+03 0. -1.
     100001    1    1    2    0    0 -0.14357325973E+04 -0.16882801685E+04 -0.61086603877E+04  0.65000000000E+04  0.15050000000E+03 0.  1.
</event>
<event>
 4    1  0.4630618E-004  0.6500000E+04  0.7818608E-02  0.7223770E-01
         52   -1    0    0    0    0  0.00000000000E+00  0.00000000000E+00  0.64930732323E+04  0.65000000000E+04  0.30000000000E+03 0.  1.
        -52   -1    0    0    0    0 -0.00000000000E+00 -0.00000000000E+00 -0.64930732323E+04  0.65000000000E+04  0.30000000000E+03 0. -1.
     100001    1    1    2    0    0 -0.40161799194E+04 -0.35104269295E+04  0.37114082741E+04  0.65000000000E+04  0.15050000000E+03 0.  1.
     100001    1    1    2    0    0  0.40161799194E+04  0.35104269295E+04 -0.37114082741E+04  0.65000000000E+04  0.15050000000E+03 0. -1.
</event>
<event>
 4    1  0.4630618E-004  0.6500000E+04  0.7818608E-02  0.7223770E-01
         52   -1    0    0    0    0  0.00000000000E+00  0.00000000000E+00  0.64930732323E+04  0.65000000000E+04  0.30000000000E+03 0.  1.
        -52   -1    0    0    0    0 -0.00000000000E+00 -0.00000000000E+00 -0.64930732323E+04  0.65000000000E+04  0.30000000000E+03 0. -1.
     100001    1    1    2    0    0  0.62830522195E+03 -0.25234743412E+03  0.64628865896E+04  0.65000000000E+04  0.15050000000E+03 0.  1.
     100001    1    1    2    0    0 -0.62830522195E+03  0.25234743412E+03 -0.64628865896E+04  0.65000000000E+04  0.15050000000E+03 0. -1.
</event>
<event>
 4    1  0.4630618E-004  0.6500000E+04  0.7818608E-02  0.7223770E-01
         52   -1    0    0    0    0  0.00000000000E+00  0.00000000000E+00  0.64930732323E+04  0.65000000000E+04  0.30000000000E+03 0.  1.
        -52   -1    0    0    0    0 -0.00000000000E+00 -0.00000000000E+00 -0.64930732323E+04  0.65000000000E+04  0.30000000000E+03 0. -1.
     100001    1    1    2    0    0  0.40631684403E+02 -0.42222325107E+03 -0.64843986878E+04  0.65000000000E+04  0.15050000000E+03 0. -1.
     100001    1    1    2    0    0 -0.40631684403E+02  0.42222325107E+03  0.64843986878E+04  0.65000000000E+04  0.15050000000E+03 0.  1.
</event>
<event>
 4    1  0.4630618E-004  0.6500000E+04  0.7818608E-02  0.7223770E-01
         52   -1    0    0    0    0  0.00000000000E+00  0.00000000000E+00  0.64930732323E+04  0.65000000000E+04  0.30000000000E+03 0.  1.
        -52   -1    0    0    0    0 -0.00000000000E+00 -0.00000000000E+00 -0.64930732323E+04  0.65000000000E+04  0.30000000000E+03 0. -1.
     100001    1    1    2    0    0 -0.92290995729E+03 -0.23798950197E+03 -0.64279816395E+04  0.65000000000E+04  0.15050000000E+03 0. -1.
     100001    1    1    2    0    0  0.92290995729E+03  0.23798950197E+03  0.64279816395E+04  0.65000000000E+04  0.15050000000E+03 0.  1.
</event>
<event>
 4    1  0.4630618E-004  0.6500000E+04  0.7818608E-02  0.7223770E-01
         52   -1    0    0    0    0  0.00000000000E+00  0.00000000000E+00  0.64930732323E+04  0.65000000000E+04  0.30000000000E+03 0. -1.
        -52   -1    0    0    0    0 -0.00000000000E+00 -0.00000000000E+00 -0.64930732323E+04  0.65000000000E+04  0.30000000000E+03 0.  1.
     100001    1    1    2    0    0  0.29437863802E+04  0.26807641144E+04 -0.51356572375E+04  0.65000000000E+04  0.15050000000E+03 0.  1.
     100001    1    1    2    0    0 -0.29437863802E+04 -0.26807641144E+04  0.51356572375E+04  0.65000000000E+04  0.15050000000E+03 0. -1.
</event>
<event>
 4    1  0.4630618E-004  0.6500000E+04  0.7818608E-02  0.7223770E-01
         52   -1    0    0    0    0  0.00000000000E+00  0.00000000000E+00  0.64930732323E+04  0.65000000000E+04  0.30000000000E+03 0.  1.
        -52   -1    0    0    0    0 -0.00000000000E+00 -0.00000000000E+00 -0.64930732323E+04  0.65000000000E+04  0.30000000000E+03 0. -1.
     100001    1    1    2    0    0 -0.10020845972E+04  0.44063127366E+03  0.64053899406E+04  0.65000000000E+04  0.15050000000E+03 0.  1.
     100001    1    1    2    0    0  0.10020845972E+04 -0.44063127366E+03 -0.64053899406E+04  0.65000000000E+04  0.15050000000E+03 0. -1.
</event>
<event>
 4    1  0.4630618E-004  0.6500000E+04  0.7818608E-02  0.7223770E-01
         52   -1    0    0    0    0  0.00000000000E+00  0.00000000000E+00  0.64930732323E+04  0.65000000000E+04  0.30000000000E+03 0. -1.
        -52   -1    0    0    0    0 -0.00000000000E+00 -0.00000000000E+00 -0.64930732323E+04  0.65000000000E+04  0.30000000000E+03 0.  1.
     100001    1    1    2    0    0  0.64672211489E+03 -0.69950373670E+02 -0.64656173102E+04  0.65000000000E+04  0.15050000000E+03 0.  1.
     100001    1    1    2    0    0 -0.64672211489E+03  0.69950373670E+02  0.64656173102E+04  0.65000000000E+04  0.15050000000E+03 0. -1.
</event>
<event>
 4    1  0.4630618E-004  0.6500000E+04  0.7818608E-02  0.7223770E-01
         52   -1    0    0    0    0  0.00000000000E+00  0.00000000000E+00  0.64930732323E+04  0.65000000000E+04  0.30000000000E+03 0. -1.
        -52   -1    0    0    0    0 -0.00000000000E+00 -0.00000000000E+00 -0.64930732323E+04  0.65000000000E+04  0.30000000000E+03 0.  1.
     100001    1    1    2    0    0  0.58499291025E+03  0.13984919829E+04 -0.63189677336E+04  0.65000000000E+04  0.15050000000E+03 0.  1.
     100001    1    1    2    0    0 -0.58499291025E+03 -0.13984919829E+04  0.63189677336E+04  0.65000000000E+04  0.15050000000E+03 0. -1.
</event>
<event>
 4    1  0.4630618E-004  0.6500000E+04  0.7818608E-02  0.7223770E-01
         52   -1    0    0    0    0  0.00000000000E+00  0.00000000000E+00  0.64930732323E+04  0.65000000000E+04  0.30000000000E+03 0. -1.
        -52   -1    0    0    0    0 -0.00000000000E+00 -0.00000000000E+00 -0.64930732323E+04  0.65000000000E+04  0.30000000000E+03 0.  1.
     100001    1    1    2    0    0 -0.40333902264E+03  0.34180253158E+03  0.64767150943E+04  0.65000000000E+04  0.15050000000E+03 0. -1.
     100001    1    1    2    0    0  0.40333902264E+03 -0.34180253158E+03 -0.64767150943E+04  0.65000000000E+04  0.15050000000E+03 0.  1.
</event>
<event>
 4    1  0.4630618E-004  0.6500000E+04  0.7818608E-02  0.7223770E-01
         52   -1    0    0    0    0  0.00000000000E+00  0.00000000000E+00  0.64930732323E+04  0.65000000000E+04  0.30000000000E+03 0.  1.
        -52   -1    0    0    0    0 -0.00000000000E+00 -0.00000000000E+00 -0.64930732323E+04  0.65000000000E+04  0.30000000000E+03 0. -1.
     100001    1    1    2    0    0 -0.39782599938E+04  0.11970795216E+04  0.49967787414E+04  0.65000000000E+04  0.15050000000E+03 0.  1.
     100001    1    1    2    0    0  0.39782599938E+04 -0.11970795216E+04 -0.49967787414E+04  0.65000000000E+04  0.15050000000E+03 0. -1.
</event>
<event>
 4    1  0.4630618E-004  0.6500000E+04  0.7818608E-02  0.7223770E-01
         52   -1    0    0    0    0  0.00000000000E+00  0.00000000000E+00  0.64930732323E+04  0.65000000000E+04  0.30000000000E+03 0.  1.
        -52   -1    0    0    0    0 -0.00000000000E+00 -0.00000000000E+00 -0.64930732323E+04  0.65000000000E+04  0.30000000000E+03 0. -1.
     100001    1    1    2    0    0  0.15025723193E+04  0.19664661760E+04 -0.60085469919E+04  0.65000000000E+04  0.15050000000E+03 0. -1.
     100001    1    1    2    0    0 -0.15025723193E+04 -0.19664661760E+04  0.60085469919E+04  0.65000000000E+04  0.15050000000E+03 0.  1.
</event>
<event>
 4    1  0.4630618E-004  0.6500000E+04  0.7818608E-02  0.7223770E-01
         52   -1    0    0    0    0  0.00000000000E+00  0.00000000000E+00  0.64930732323E+04  0.65000000000E+04  0.30000000000E+03 0. -1.
        -52   -1    0    0    0    0 -0.00000000000E+00 -0.00000000000E+00 -0.64930732323E+04  0.65000000000E+04  0.30000000000E+03 0.  1.
     100001    1    1    2    0    0 -0.90010748501E+02 -0.67788633250E+03 -0.64621759443E+04  0.65000000000E+04  0.15050000000E+03 0.  1.
     100001    1    1    2    0    0  0.90010748501E+02  0.67788633250E+03  0.64621759443E+04  0.65000000000E+04  0.15050000000E+03 0. -1.
</event>
<event>
 4    1  0.4630618E-004  0.6500000E+04  0.7818608E-02  0.7223770E-01
         52   -1    0    0    0    0  0.00000000000E+00  0.00000000000E+00  0.64930732323E+04  0.65000000000E+04  0.30000000000E+03 0.  1.
        -52   -1    0    0    0    0 -0.00000000000E+00 -0.00000000000E+00 -0.64930732323E+04  0.65000000000E+04  0.30000000000E+03 0. -1.
     100001    1    1    2    0    0  0.27866437382E+04 -0.86555102624E+03 -0.58062714239E+04  0.65000000000E+04  0.15050000000E+03 0. -1.
     100001    1    1    2    0    0 -0.27866437382E+04  0.86555102624E+03  0.58062714239E+04  0.65000000000E+04  0.15050000000E+03 0.  1.
</event>
<event>
 4    1  0.4630618E-004  0.6500000E+04  0.7818608E-02  0.7223770E-01
         52   -1    0    0    0    0  0.00000000000E+00  0.00000000000E+00  0.64930732323E+04  0.65000000000E+04  0.30000000000E+03 0.  1.
        -52   -1    0    0    0    0 -0.00000000000E+00 -0.00000000000E+00 -0.64930732323E+04  0.65000000000E+04  0.30000000000E+03 0. -1.
     100001    1    1    2    0    0  0.15893430773E+04  0.14324562591E+04  0.61359112932E+04  0.65000000000E+04  0.15050000000E+03 0.  1.
     100001    1    1    2    0    0 -0.15893430773E+04 -0.14324562591E+04 -0.61359112932E+04  0.65000000000E+04  0.15050000000E+03 0. -1.
</event>
<event>
 4    1  0.4630618E-004  0.6500000E+04  0.7818608E-02  0.7223770E-01
         52   -1    0    0    0    0  0.00000000000E+00  0.00000000000E+00  0.64930732323E+04  0.65000000000E+04  0.30000000000E+03 0.  1.
        -52   -1    0    0    0    0 -0.00000000000E+00 -0.00000000000E+00 -0.64930732323E+04  0.65000000000E+04  0.30000000000E+03 0. -1.
     100001    1    1    2    0    0  0.23959540888E+04 -0.52822475335E+04 -0.29299513220E+04  0.65000000000E+04  0.15050000000E+03 0. -1.
     100001    1    1    2    0    0 -0.23959540888E+04  0.52822475335E+04  0.29299513220E+04  0.65000000000E+04  0.15050000000E+03 0.  1.
</event>
<event>
 4    1  0.4630618E-004  0.6500000E+04  0.7818608E-02  0.7223770E-01
         52   -1    0    0    0    0  0.00000000000E+00  0.00000000000E+00  0.64930732323E+04  0.65000000000E+04  0.30000000000E+03 0. -1.
        -52   -1    0    0    0    0 -0.00000000000E+00 -0.00000000000E+00 -0.64930732323E+04  0.65000000000E+04  0.30000000000E+03 0.  1.
     100001    1    1    2    0    0  0.31327685213E+04  0.57878474199E+03  0.56637548821E+04  0.65000000000E+04  0.15050000000E+03 0. -1.
     100001    1    1    2    0    0 -0.31327685213E+04 -0.57878474199E+03 -0.56637548821E+04  0.65000000000E+04  0.15050000000E+03 0.  1.
</event>
<event>
 4    1  0.4630618E-004  0.6500000E+04  0.7818608E-02  0.7223770E-01
         52   -1    0    0    0    0  0.00000000000E+00  0.00000000000E+00  0.64930732323E+04  0.65000000000E+04  0.30000000000E+03 0.  1.
        -52   -1    0    0    0    0 -0.00000000000E+00 -0.00000000000E+00 -0.64930732323E+04  0.65000000000E+04  0.30000000000E+03 0. -1.
     100001    1    1    2    0    0 -0.19996986816E+03  0.15135762016E+04 -0.63163635807E+04  0.65000000000E+04  0.15050000000E+03 0. -1.
     100001    1    1    2    0    0  0.19996986816E+03 -0.15135762016E+04  0.63163635807E+04  0.65000000000E+04  0.15050000000E+03 0.  1.
</event>
<event>
 4    1  0.4630618E-004  0.6500000E+04  0.7818608E-02  0.7223770E-01
         52   -1    0    0    0    0  0.00000000000E+00  0.00000000000E+00  0.64930732323E+04  0.65000000000E+04  0.30000000000E+03 0. -1.
        -52   -1    0    0    0    0 -0.00000000000E+00 -0.00000000000E+00 -0.64930732323E+04  0.65000000000E+04  0.30000000000E+03 0.  1.
     100001    1    1    2    0    0 -0.18467911547E+03  0.98490927432E+03  0.64205293470E+04  0.65000000000E+04  0.15050000000E+03 0. -1.
     100001    1    1    2    0    0  0.18467911547E+03 -0.98490927432E+03 -0.64205293470E+04  0.65000000000E+04  0.15050000000E+03 0.  1.
</event>
<event>
 4    1  0.4630618E-004  0.6500000E+04  0.7818608E-02  0.7223770E-01
         52   -1    0    0    0    0  0.00000000000E+00  0.00000000000E+00  0.64930732323E+04  0.65000000000E+04  0.30000000000E+03 0.  1.
        -52   -1    0    0    0    0 -0.00000000000E+00 -0.00000000000E+00 -0.64930732323E+04  0.65000000000E+04  0.30000000000E+03 0. -1.
     100001    1    1    2    0    0 -0.16377518312E+04  0.32305163848E+03 -0.62801876030E+04  0.65000000000E+04  0.15050000000E+03 0. -1.
     100001    1    1    2    0    0  0.16377518312E+04 -0.32305163848E+03  0.62801876030E+04  0.65000000000E+04  0.15050000000E+03 0.  1.
</event>
<event>
 4    1  0.4630618E-004  0.6500000E+04  0.7818608E-02  0.7223770E-01
         52   -1    0    0    0    0  0.00000000000E+00  0.00000000000E+00  0.64930732323E+04  0.65000000000E+04  0.30000000000E+03 0.  1.
        -52   -1    0    0    0    0 -0.00000000000E+00 -0.00000000000E+00 -0.64930732323E+04  0.65000000000E+04  0.30000000000E+03 0. -1.
     100001    1    1    2    0    0 -0.91495041002E+03  0.10765987035E+04 -0.63428030656E+04  0.65000000000E+04  0.15050000000E+03 0. -1.
     100001    1    1    2    0    0  0.91495041002E+03 -0.10765987035E+04  0.63428030656E+04  0.65000000000E+04  0.15050000000E+03 0.  1.
</event>
<event>
 4    1  0.4630618E-004  0.6500000E+04  0.7818608E-02  0.7223770E-01
         52   -1    0    0    0    0  0.00000000000E+00  0.00000000000E+00  0.64930732323E+04  0.65000000000E+04  0.30000000000E+03 0.  1.
        -52   -1    0    0    0    0 -0.00000000000E+00 -0.00000000000E+00 -0.64930732323E+04  0.65000000000E+04  0.30000000000E+03 0. -1.
     100001    1    1    2    0    0  0.13603441891E+04  0.22740838493E+04 -0.59334101563E+04  0.65000000000E+04  0.15050000000E+03 0. -1.
     100001    1    1    2    0    0 -0.13603441891E+04 -0.22740838493E+04  0.59334101563E+04  0.65000000000E+04  0.15050000000E+03 0.  1.
</event>
<event>
 4    1  0.4630618E-004  0.6500000E+04  0.7818608E-02  0.7223770E-01
         52   -1    0    0    0    0  0.00000000000E+00  0.00000000000E+00  0.64930732323E+04  0.65000000000E+04  0.30000000000E+03 0.  1.
        -52   -1    0    0    0    0 -0.00000000000E+00 -0.00000000000E+00 -0.64930732323E+04  0.65000000000E+04  0.30000000000E+03 0. -1.
     100001    1    1    2    0    0  0.16457260626E+04 -0.13528608576E+04  0.61391125561E+04  0.65000000000E+04  0.15050000000E+03 0.  1.
     100001    1    1    2    0    0 -0.16457260626E+04  0.13528608576E+04 -0.61391125561E+04  0.65000000000E+04  0.15050000000E+03 0. -1.
</event>
<event>
 4    1  0.4630618E-004  0.6500000E+04  0.7818608E-02  0.7223770E-01
         52   -1    0    0    0    0  0.00000000000E+00  0.00000000000E+00  0.64930732323E+04  0.65000000000E+04  0.30000000000E+03 0. -1.
        -52   -1    0    0    0    0 -0.00000000000E+00 -0.00000000000E+00 -0.64930732323E+04  0.65000000000E+04  0.30000000000E+03 0.  1.
     100001    1    1    2    0    0  0.13069314652E+03  0.25174235397E+04 -0.59893946082E+04  0.65000000000E+04  0.15050000000E+03 0.  1.
     100001    1    1    2    0    0 -0.13069314652E+03 -0.25174235397E+04  0.59893946082E+04  0.65000000000E+04  0.15050000000E+03 0. -1.
</event>
<event>
 4    1  0.4630618E-004  0.6500000E+04  0.7818608E-02  0.7223770E-01
         52   -1    0    0    0    0  0.00000000000E+00  0.00000000000E+00  0.64930732323E+04  0.65000000000E+04  0.30000000000E+03 0.  1.
        -52   -1    0    0    0    0 -0.00000000000E+00 -0.00000000000E+00 -0.64930732323E+04  0.65000000000E+04  0.30000000000E+03 0. -1.
     100001    1    1    2    0    0 -0.20285313119E+04  0.11916425731E+04  0.60574250672E+04  0.65000000000E+04  0.15050000000E+03 0.  1.
     100001    1    1    2    0    0  0.20285313119E+04 -0.11916425731E+04 -0.60574250672E+04  0.65000000000E+04  0.15050000000E+03 0. -1.
</event>
<event>
 4    1  0.4630618E-004  0.6500000E+04  0.7818608E-02  0.7223770E-01
         52   -1    0    0    0    0  0.00000000000E+00  0.00000000000E+00  0.64930732323E+04  0.65000000000E+04  0.30000000000E+03 0.  1.
        -52   -1    0    0    0    0 -0.00000000000E+00 -0.00000000000E+00 -0.64930732323E+04  0.65000000000E+04  0.30000000000E+03 0.  1.
     100001    1    1    2    0    0 -0.31206677418E+02  0.91788819078E+02  0.64975342020E+04  0.65000000000E+04  0.15050000000E+03 0.  1.
     100001    1    1    2    0    0  0.31206677418E+02 -0.91788819078E+02 -0.64975342020E+04  0.65000000000E+04  0.15050000000E+03 0.  1.
</event>
<event>
 4    1  0.4630618E-004  0.6500000E+04  0.7818608E-02  0.7223770E-01
         52   -1    0    0    0    0  0.00000000000E+00  0.00000000000E+00  0.64930732323E+04  0.65000000000E+04  0.30000000000E+03 0. -1.
        -52   -1    0    0    0    0 -0.00000000000E+00 -0.00000000000E+00 -0.64930732323E+04  0.65000000000E+04  0.30000000000E+03 0.  1.
     100001    1    1    2    0    0 -0.82324780618E+03 -0.41356972075E+03  0.64326178874E+04  0.65000000000E+04  0.15050000000E+03 0. -1.
     100001    1    1    2    0    0  0.82324780618E+03  0.41356972075E+03 -0.64326178874E+04  0.65000000000E+04  0.15050000000E+03 0.  1.
</event>
<event>
 4    1  0.4630618E-004  0.6500000E+04  0.7818608E-02  0.7223770E-01
         52   -1    0    0    0    0  0.00000000000E+00  0.00000000000E+00  0.64930732323E+04  0.65000000000E+04  0.30000000000E+03 0. -1.
        -52   -1    0    0    0    0 -0.00000000000E+00 -0.00000000000E+00 -0.64930732323E+04  0.65000000000E+04  0.30000000000E+03 0. -1.
     100001    1    1    2    0    0  0.12604957323E+03  0.35966050872E+03  0.64870721881E+04  0.65000000000E+04  0.15050000000E+03 0. -1.
     100001    1    1    2    0    0 -0.12604957323E+03 -0.35966050872E+03 -0.64870721881E+04  0.65000000000E+04  0.15050000000E+03 0. -1.
</event>
<event>
 4    1  0.4630618E-004  0.6500000E+04  0.7818608E-02  0.7223770E-01
         52   -1    0    0    0    0  0.00000000000E+00  0.00000000000E+00  0.64930732323E+04  0.65000000000E+04  0.30000000000E+03 0.  1.
        -52   -1    0    0    0    0 -0.00000000000E+00 -0.00000000000E+00 -0.64930732323E+04  0.65000000000E+04  0.30000000000E+03 0. -1.
     100001    1    1    2    0    0 -0.33525377504E+04  0.33282876799E+04 -0.44621005706E+04  0.65000000000E+04  0.15050000000E+03 0. -1.
     100001    1    1    2    0    0  0.33525377504E+04 -0.33282876799E+04  0.44621005706E+04  0.65000000000E+04  0.15050000000E+03 0.  1.
</event>
<event>
 4    1  0.4630618E-004  0.6500000E+04  0.7818608E-02  0.7223770E-01
         52   -1    0    0    0    0  0.00000000000E+00  0.00000000000E+00  0.64930732323E+04  0.65000000000E+04  0.30000000000E+03 0. -1.
        -52   -1    0    0    0    0 -0.00000000000E+00 -0.00000000000E+00 -0.64930732323E+04  0.65000000000E+04  0.30000000000E+03 0.  1.
     100001    1    1    2    0    0 -0.13356098404E+04 -0.29987592692E+02  0.63594494139E+04  0.65000000000E+04  0.15050000000E+03 0. -1.
     100001    1    1    2    0    0  0.13356098404E+04  0.29987592692E+02 -0.63594494139E+04  0.65000000000E+04  0.15050000000E+03 0.  1.
</event>
<event>
 4    1  0.4630618E-004  0.6500000E+04  0.7818608E-02  0.7223770E-01
         52   -1    0    0    0    0  0.00000000000E+00  0.00000000000E+00  0.64930732323E+04  0.65000000000E+04  0.30000000000E+03 0. -1.
        -52   -1    0    0    0    0 -0.00000000000E+00 -0.00000000000E+00 -0.64930732323E+04  0.65000000000E+04  0.30000000000E+03 0.  1.
     100001    1    1    2    0    0 -0.21374290340E+04  0.43245243380E+04 -0.43539908273E+04  0.65000000000E+04  0.15050000000E+03 0.  1.
     100001    1    1    2    0    0  0.21374290340E+04 -0.43245243380E+04  0.43539908273E+04  0.65000000000E+04  0.15050000000E+03 0. -1.
</event>
<event>
 4    1  0.4630618E-004  0.6500000E+04  0.7818608E-02  0.7223770E-01
         52   -1    0    0    0    0  0.00000000000E+00  0.00000000000E+00  0.64930732323E+04  0.65000000000E+04  0.30000000000E+03 0. -1.
        -52   -1    0    0    0    0 -0.00000000000E+00 -0.00000000000E+00 -0.64930732323E+04  0.65000000000E+04  0.30000000000E+03 0.  1.
     100001    1    1    2    0    0 -0.97483219374E+03 -0.25800184580E+04  0.58839235804E+04  0.65000000000E+04  0.15050000000E+03 0. -1.
     100001    1    1    2    0    0  0.97483219374E+03  0.25800184580E+04 -0.58839235804E+04  0.65000000000E+04  0.15050000000E+03 0.  1.
</event>
<event>
 4    1  0.4630618E-004  0.6500000E+04  0.7818608E-02  0.7223770E-01
         52   -1    0    0    0    0  0.00000000000E+00  0.00000000000E+00  0.64930732323E+04  0.65000000000E+04  0.30000000000E+03 0. -1.
        -52   -1    0    0    0    0 -0.00000000000E+00 -0.00000000000E+00 -0.64930732323E+04  0.65000000000E+04  0.30000000000E+03 0.  1.
     100001    1    1    2    0    0  0.29003664896E+03 -0.32517549769E+04  0.56186580304E+04  0.65000000000E+04  0.15050000000E+03 0. -1.
     100001    1    1    2    0    0 -0.29003664896E+03  0.32517549769E+04 -0.56186580304E+04  0.65000000000E+04  0.15050000000E+03 0.  1.
</event>
<event>
 4    1  0.4630618E-004  0.6500000E+04  0.7818608E-02  0.7223770E-01
         52   -1    0    0    0    0  0.00000000000E+00  0.00000000000E+00  0.64930732323E+04  0.65000000000E+04  0.30000000000E+03 0.  1.
        -52   -1    0    0    0    0 -0.00000000000E+00 -0.00000000000E+00 -0.64930732323E+04  0.65000000000E+04  0.30000000000E+03 0. -1.
     100001    1    1    2    0    0  0.14524777732E+04 -0.11252515321E+04  0.62330945010E+04  0.65000000000E+04  0.15050000000E+03 0.  1.
     100001    1    1    2    0    0 -0.14524777732E+04  0.11252515321E+04 -0.62330945010E+04  0.65000000000E+04  0.15050000000E+03 0. -1.
</event>
<event>
 4    1  0.4630618E-004  0.6500000E+04  0.7818608E-02  0.7223770E-01
         52   -1    0    0    0    0  0.00000000000E+00  0.00000000000E+00  0.64930732323E+04  0.65000000000E+04  0.30000000000E+03 0.  1.
        -52   -1    0    0    0    0 -0.00000000000E+00 -0.00000000000E+00 -0.64930732323E+04  0.65000000000E+04  0.30000000000E+03 0. -1.
     100001    1    1    2    0    0  0.61277292160E+03 -0.47107606615E+03  0.64521272799E+04  0.65000000000E+04  0.15050000000E+03 0.  1.
     100001    1    1    2    0    0 -0.61277292160E+03  0.47107606615E+03 -0.64521272799E+04  0.65000000000E+04  0.15050000000E+03 0. -1.
</event>
<event>
 4    1  0.4630618E-004  0.6500000E+04  0.7818608E-02  0.7223770E-01
         52   -1    0    0    0    0  0.00000000000E+00  0.00000000000E+00  0.64930732323E+04  0.65000000000E+04  0.30000000000E+03 0. -1.
        -52   -1    0    0    0    0 -0.00000000000E+00 -0.00000000000E+00 -0.64930732323E+04  0.65000000000E+04  0.30000000000E+03 0.  1.
     100001    1    1    2    0    0  0.15619057175E+04 -0.17005845344E+03  0.63054643288E+04  0.65000000000E+04  0.15050000000E+03 0. -1.
     100001    1    1    2    0    0 -0.15619057175E+04  0.17005845344E+03 -0.63054643288E+04  0.65000000000E+04  0.15050000000E+03 0.  1.
</event>
<event>
 4    1  0.4630618E-004  0.6500000E+04  0.7818608E-02  0.7223770E-01
         52   -1    0    0    0    0  0.00000000000E+00  0.00000000000E+00  0.64930732323E+04  0.65000000000E+04  0.30000000000E+03 0.  1.
        -52   -1    0    0    0    0 -0.00000000000E+00 -0.00000000000E+00 -0.64930732323E+04  0.65000000000E+04  0.30000000000E+03 0. -1.
     100001    1    1    2    0    0  0.31519527532E+03  0.58121281198E+03 -0.64645334987E+04  0.65000000000E+04  0.15050000000E+03 0. -1.
     100001    1    1    2    0    0 -0.31519527532E+03 -0.58121281198E+03  0.64645334987E+04  0.65000000000E+04  0.15050000000E+03 0.  1.
</event>
<event>
 4    1  0.4630618E-004  0.6500000E+04  0.7818608E-02  0.7223770E-01
         52   -1    0    0    0    0  0.00000000000E+00  0.00000000000E+00  0.64930732323E+04  0.65000000000E+04  0.30000000000E+03 0. -1.
        -52   -1    0    0    0    0 -0.00000000000E+00 -0.00000000000E+00 -0.64930732323E+04  0.65000000000E+04  0.30000000000E+03 0.  1.
     100001    1    1    2    0    0 -0.49888013602E+03 -0.10897853884E+04  0.63867704019E+04  0.65000000000E+04  0.15050000000E+03 0. -1.
     100001    1    1    2    0    0  0.49888013602E+03  0.10897853884E+04 -0.63867704019E+04  0.65000000000E+04  0.15050000000E+03 0.  1.
</event>
<event>
 4    1  0.4630618E-004  0.6500000E+04  0.7818608E-02  0.7223770E-01
         52   -1    0    0    0    0  0.00000000000E+00  0.00000000000E+00  0.64930732323E+04  0.65000000000E+04  0.30000000000E+03 0.  1.
        -52   -1    0    0    0    0 -0.00000000000E+00 -0.00000000000E+00 -0.64930732323E+04  0.65000000000E+04  0.30000000000E+03 0. -1.
     100001    1    1    2    0    0 -0.11270650745E+04 -0.15699072271E+04  0.62042296352E+04  0.65000000000E+04  0.15050000000E+03 0.  1.
     100001    1    1    2    0    0  0.11270650745E+04  0.15699072271E+04 -0.62042296352E+04  0.65000000000E+04  0.15050000000E+03 0. -1.
</event>
<event>
 4    1  0.4630618E-004  0.6500000E+04  0.7818608E-02  0.7223770E-01
         52   -1    0    0    0    0  0.00000000000E+00  0.00000000000E+00  0.64930732323E+04  0.65000000000E+04  0.30000000000E+03 0.  1.
        -52   -1    0    0    0    0 -0.00000000000E+00 -0.00000000000E+00 -0.64930732323E+04  0.65000000000E+04  0.30000000000E+03 0. -1.
     100001    1    1    2    0    0  0.11972184948E+04 -0.28274570901E+04 -0.57270851250E+04  0.65000000000E+04  0.15050000000E+03 0. -1.
     100001    1    1    2    0    0 -0.11972184948E+04  0.28274570901E+04  0.57270851250E+04  0.65000000000E+04  0.15050000000E+03 0.  1.
</event>
<event>
 4    1  0.4630618E-004  0.6500000E+04  0.7818608E-02  0.7223770E-01
         52   -1    0    0    0    0  0.00000000000E+00  0.00000000000E+00  0.64930732323E+04  0.65000000000E+04  0.30000000000E+03 0.  1.
        -52   -1    0    0    0    0 -0.00000000000E+00 -0.00000000000E+00 -0.64930732323E+04  0.65000000000E+04  0.30000000000E+03 0. -1.
     100001    1    1    2    0    0  0.42054356931E+04  0.35798720978E+04  0.34243504705E+04  0.65000000000E+04  0.15050000000E+03 0.  1.
     100001    1    1    2    0    0 -0.42054356931E+04 -0.35798720978E+04 -0.34243504705E+04  0.65000000000E+04  0.15050000000E+03 0. -1.
</event>
<event>
 4    1  0.4630618E-004  0.6500000E+04  0.7818608E-02  0.7223770E-01
         52   -1    0    0    0    0  0.00000000000E+00  0.00000000000E+00  0.64930732323E+04  0.65000000000E+04  0.30000000000E+03 0. -1.
        -52   -1    0    0    0    0 -0.00000000000E+00 -0.00000000000E+00 -0.64930732323E+04  0.65000000000E+04  0.30000000000E+03 0.  1.
     100001    1    1    2    0    0 -0.24537552443E+04 -0.90219754451E+03  0.59491574649E+04  0.65000000000E+04  0.15050000000E+03 0. -1.
     100001    1    1    2    0    0  0.24537552443E+04  0.90219754451E+03 -0.59491574649E+04  0.65000000000E+04  0.15050000000E+03 0.  1.
</event>
<event>
 4    1  0.4630618E-004  0.6500000E+04  0.7818608E-02  0.7223770E-01
         52   -1    0    0    0    0  0.00000000000E+00  0.00000000000E+00  0.64930732323E+04  0.65000000000E+04  0.30000000000E+03 0.  1.
        -52   -1    0    0    0    0 -0.00000000000E+00 -0.00000000000E+00 -0.64930732323E+04  0.65000000000E+04  0.30000000000E+03 0. -1.
     100001    1    1    2    0    0 -0.10010172732E+03 -0.10761009373E+04  0.64077559385E+04  0.65000000000E+04  0.15050000000E+03 0.  1.
     100001    1    1    2    0    0  0.10010172732E+03  0.10761009373E+04 -0.64077559385E+04  0.65000000000E+04  0.15050000000E+03 0. -1.
</event>
<event>
 4    1  0.5445810E-004  0.6500000E+04  0.7818608E-02  0.7223770E-01
         52   -1    0    0    0    0  0.00000000000E+00  0.00000000000E+00  0.64930732323E+04  0.65000000000E+04  0.30000000000E+03 0. -1.
        -52   -1    0    0    0    0 -0.00000000000E+00 -0.00000000000E+00 -0.64930732323E+04  0.65000000000E+04  0.30000000000E+03 0.  1.
     100001    1    1    2    0    0 -0.22389074079E+03  0.36871175963E+02  0.64942946655E+04  0.65000000000E+04  0.15050000000E+03 0. -1.
     100001    1    1    2    0    0  0.22389074079E+03 -0.36871175963E+02 -0.64942946655E+04  0.65000000000E+04  0.15050000000E+03 0.  1.
</event>
<event>
 4    1  0.4630618E-004  0.6500000E+04  0.7818608E-02  0.7223770E-01
         52   -1    0    0    0    0  0.00000000000E+00  0.00000000000E+00  0.64930732323E+04  0.65000000000E+04  0.30000000000E+03 0. -1.
        -52   -1    0    0    0    0 -0.00000000000E+00 -0.00000000000E+00 -0.64930732323E+04  0.65000000000E+04  0.30000000000E+03 0.  1.
     100001    1    1    2    0    0  0.15155645221E+04  0.67194033390E+03 -0.62832245000E+04  0.65000000000E+04  0.15050000000E+03 0.  1.
     100001    1    1    2    0    0 -0.15155645221E+04 -0.67194033390E+03  0.62832245000E+04  0.65000000000E+04  0.15050000000E+03 0. -1.
</event>
<event>
 4    1  0.6189255E-004  0.6500000E+04  0.7818608E-02  0.7223770E-01
         52   -1    0    0    0    0  0.00000000000E+00  0.00000000000E+00  0.64930732323E+04  0.65000000000E+04  0.30000000000E+03 0. -1.
        -52   -1    0    0    0    0 -0.00000000000E+00 -0.00000000000E+00 -0.64930732323E+04  0.65000000000E+04  0.30000000000E+03 0. -1.
     100001    1    1    2    0    0  0.66133996869E+02 -0.38461995500E+02 -0.64978070700E+04  0.65000000000E+04  0.15050000000E+03 0. -1.
     100001    1    1    2    0    0 -0.66133996869E+02  0.38461995500E+02  0.64978070700E+04  0.65000000000E+04  0.15050000000E+03 0. -1.
</event>
<event>
 4    1  0.4630618E-004  0.6500000E+04  0.7818608E-02  0.7223770E-01
         52   -1    0    0    0    0  0.00000000000E+00  0.00000000000E+00  0.64930732323E+04  0.65000000000E+04  0.30000000000E+03 0. -1.
        -52   -1    0    0    0    0 -0.00000000000E+00 -0.00000000000E+00 -0.64930732323E+04  0.65000000000E+04  0.30000000000E+03 0.  1.
     100001    1    1    2    0    0  0.68479084835E+03 -0.18985344788E+04 -0.61768906480E+04  0.65000000000E+04  0.15050000000E+03 0.  1.
     100001    1    1    2    0    0 -0.68479084835E+03  0.18985344788E+04  0.61768906480E+04  0.65000000000E+04  0.15050000000E+03 0. -1.
</event>
<event>
 4    1  0.4630618E-004  0.6500000E+04  0.7818608E-02  0.7223770E-01
         52   -1    0    0    0    0  0.00000000000E+00  0.00000000000E+00  0.64930732323E+04  0.65000000000E+04  0.30000000000E+03 0. -1.
        -52   -1    0    0    0    0 -0.00000000000E+00 -0.00000000000E+00 -0.64930732323E+04  0.65000000000E+04  0.30000000000E+03 0.  1.
     100001    1    1    2    0    0 -0.24128227376E+04 -0.27374716463E+04 -0.53769773268E+04  0.65000000000E+04  0.15050000000E+03 0.  1.
     100001    1    1    2    0    0  0.24128227376E+04  0.27374716463E+04  0.53769773268E+04  0.65000000000E+04  0.15050000000E+03 0. -1.
</event>
<event>
 4    1  0.4630618E-004  0.6500000E+04  0.7818608E-02  0.7223770E-01
         52   -1    0    0    0    0  0.00000000000E+00  0.00000000000E+00  0.64930732323E+04  0.65000000000E+04  0.30000000000E+03 0.  1.
        -52   -1    0    0    0    0 -0.00000000000E+00 -0.00000000000E+00 -0.64930732323E+04  0.65000000000E+04  0.30000000000E+03 0. -1.
     100001    1    1    2    0    0 -0.32055439733E+03 -0.10312396005E+04 -0.64078966529E+04  0.65000000000E+04  0.15050000000E+03 0. -1.
     100001    1    1    2    0    0  0.32055439733E+03  0.10312396005E+04  0.64078966529E+04  0.65000000000E+04  0.15050000000E+03 0.  1.
</event>
<event>
 4    1  0.4630618E-004  0.6500000E+04  0.7818608E-02  0.7223770E-01
         52   -1    0    0    0    0  0.00000000000E+00  0.00000000000E+00  0.64930732323E+04  0.65000000000E+04  0.30000000000E+03 0. -1.
        -52   -1    0    0    0    0 -0.00000000000E+00 -0.00000000000E+00 -0.64930732323E+04  0.65000000000E+04  0.30000000000E+03 0. -1.
     100001    1    1    2    0    0  0.28459489203E+03 -0.71998641257E+02  0.64916231940E+04  0.65000000000E+04  0.15050000000E+03 0. -1.
     100001    1    1    2    0    0 -0.28459489203E+03  0.71998641257E+02 -0.64916231940E+04  0.65000000000E+04  0.15050000000E+03 0. -1.
</event>
<event>
 4    1  0.4630618E-004  0.6500000E+04  0.7818608E-02  0.7223770E-01
         52   -1    0    0    0    0  0.00000000000E+00  0.00000000000E+00  0.64930732323E+04  0.65000000000E+04  0.30000000000E+03 0. -1.
        -52   -1    0    0    0    0 -0.00000000000E+00 -0.00000000000E+00 -0.64930732323E+04  0.65000000000E+04  0.30000000000E+03 0.  1.
     100001    1    1    2    0    0 -0.24073332584E+04  0.48574581590E+04  0.35829033711E+04  0.65000000000E+04  0.15050000000E+03 0. -1.
     100001    1    1    2    0    0  0.24073332584E+04 -0.48574581590E+04 -0.35829033711E+04  0.65000000000E+04  0.15050000000E+03 0.  1.
</event>
<event>
 4    1  0.4630618E-004  0.6500000E+04  0.7818608E-02  0.7223770E-01
         52   -1    0    0    0    0  0.00000000000E+00  0.00000000000E+00  0.64930732323E+04  0.65000000000E+04  0.30000000000E+03 0.  1.
        -52   -1    0    0    0    0 -0.00000000000E+00 -0.00000000000E+00 -0.64930732323E+04  0.65000000000E+04  0.30000000000E+03 0.  1.
     100001    1    1    2    0    0 -0.26773825895E+02 -0.18675119518E+03 -0.64955182167E+04  0.65000000000E+04  0.15050000000E+03 0.  1.
     100001    1    1    2    0    0  0.26773825895E+02  0.18675119518E+03  0.64955182167E+04  0.65000000000E+04  0.15050000000E+03 0.  1.
</event>
<event>
 4    1  0.4630618E-004  0.6500000E+04  0.7818608E-02  0.7223770E-01
         52   -1    0    0    0    0  0.00000000000E+00  0.00000000000E+00  0.64930732323E+04  0.65000000000E+04  0.30000000000E+03 0. -1.
        -52   -1    0    0    0    0 -0.00000000000E+00 -0.00000000000E+00 -0.64930732323E+04  0.65000000000E+04  0.30000000000E+03 0.  1.
     100001    1    1    2    0    0  0.72755344604E+03 -0.32950728905E+03 -0.64489875701E+04  0.65000000000E+04  0.15050000000E+03 0.  1.
     100001    1    1    2    0    0 -0.72755344604E+03  0.32950728905E+03  0.64489875701E+04  0.65000000000E+04  0.15050000000E+03 0. -1.
</event>
<event>
 4    1  0.4630618E-004  0.6500000E+04  0.7818608E-02  0.7223770E-01
         52   -1    0    0    0    0  0.00000000000E+00  0.00000000000E+00  0.64930732323E+04  0.65000000000E+04  0.30000000000E+03 0.  1.
        -52   -1    0    0    0    0 -0.00000000000E+00 -0.00000000000E+00 -0.64930732323E+04  0.65000000000E+04  0.30000000000E+03 0. -1.
     100001    1    1    2    0    0 -0.34054251710E+04  0.13549521778E+04 -0.53660538341E+04  0.65000000000E+04  0.15050000000E+03 0. -1.
     100001    1    1    2    0    0  0.34054251710E+04 -0.13549521778E+04  0.53660538341E+04  0.65000000000E+04  0.15050000000E+03 0.  1.
</event>
<event>
 4    1  0.4630618E-004  0.6500000E+04  0.7818608E-02  0.7223770E-01
         52   -1    0    0    0    0  0.00000000000E+00  0.00000000000E+00  0.64930732323E+04  0.65000000000E+04  0.30000000000E+03 0. -1.
        -52   -1    0    0    0    0 -0.00000000000E+00 -0.00000000000E+00 -0.64930732323E+04  0.65000000000E+04  0.30000000000E+03 0.  1.
     100001    1    1    2    0    0 -0.47321835887E+04 -0.22153879653E+04 -0.38633980375E+04  0.65000000000E+04  0.15050000000E+03 0.  1.
     100001    1    1    2    0    0  0.47321835887E+04  0.22153879653E+04  0.38633980375E+04  0.65000000000E+04  0.15050000000E+03 0. -1.
</event>
<event>
 4    1  0.4630618E-004  0.6500000E+04  0.7818608E-02  0.7223770E-01
         52   -1    0    0    0    0  0.00000000000E+00  0.00000000000E+00  0.64930732323E+04  0.65000000000E+04  0.30000000000E+03 0.  1.
        -52   -1    0    0    0    0 -0.00000000000E+00 -0.00000000000E+00 -0.64930732323E+04  0.65000000000E+04  0.30000000000E+03 0.  1.
     100001    1    1    2    0    0 -0.21006744966E+03 -0.27162648587E+03 -0.64891787207E+04  0.65000000000E+04  0.15050000000E+03 0.  1.
     100001    1    1    2    0    0  0.21006744966E+03  0.27162648587E+03  0.64891787207E+04  0.65000000000E+04  0.15050000000E+03 0.  1.
</event>
<event>
 4    1  0.4630618E-004  0.6500000E+04  0.7818608E-02  0.7223770E-01
         52   -1    0    0    0    0  0.00000000000E+00  0.00000000000E+00  0.64930732323E+04  0.65000000000E+04  0.30000000000E+03 0.  1.
        -52   -1    0    0    0    0 -0.00000000000E+00 -0.00000000000E+00 -0.64930732323E+04  0.65000000000E+04  0.30000000000E+03 0. -1.
     100001    1    1    2    0    0  0.12102195818E+04  0.17925477874E+04  0.61277639269E+04  0.65000000000E+04  0.15050000000E+03 0.  1.
     100001    1    1    2    0    0 -0.12102195818E+04 -0.17925477874E+04 -0.61277639269E+04  0.65000000000E+04  0.15050000000E+03 0. -1.
</event>
<event>
 4    1  0.4630618E-004  0.6500000E+04  0.7818608E-02  0.7223770E-01
         52   -1    0    0    0    0  0.00000000000E+00  0.00000000000E+00  0.64930732323E+04  0.65000000000E+04  0.30000000000E+03 0. -1.
        -52   -1    0    0    0    0 -0.00000000000E+00 -0.00000000000E+00 -0.64930732323E+04  0.65000000000E+04  0.30000000000E+03 0.  1.
     100001    1    1    2    0    0  0.12562054721E+03 -0.49880706514E+03 -0.64778669900E+04  0.65000000000E+04  0.15050000000E+03 0.  1.
     100001    1    1    2    0    0 -0.12562054721E+03  0.49880706514E+03  0.64778669900E+04  0.65000000000E+04  0.15050000000E+03 0. -1.
</event>
<event>
 4    1  0.4630618E-004  0.6500000E+04  0.7818608E-02  0.7223770E-01
         52   -1    0    0    0    0  0.00000000000E+00  0.00000000000E+00  0.64930732323E+04  0.65000000000E+04  0.30000000000E+03 0.  1.
        -52   -1    0    0    0    0 -0.00000000000E+00 -0.00000000000E+00 -0.64930732323E+04  0.65000000000E+04  0.30000000000E+03 0. -1.
     100001    1    1    2    0    0  0.56954209866E+04  0.30880404323E+04 -0.50352340924E+03  0.65000000000E+04  0.15050000000E+03 0.  1.
     100001    1    1    2    0    0 -0.56954209866E+04 -0.30880404323E+04  0.50352340924E+03  0.65000000000E+04  0.15050000000E+03 0. -1.
</event>
<event>
 4    1  0.4630618E-004  0.6500000E+04  0.7818608E-02  0.7223770E-01
         52   -1    0    0    0    0  0.00000000000E+00  0.00000000000E+00  0.64930732323E+04  0.65000000000E+04  0.30000000000E+03 0.  1.
        -52   -1    0    0    0    0 -0.00000000000E+00 -0.00000000000E+00 -0.64930732323E+04  0.65000000000E+04  0.30000000000E+03 0. -1.
     100001    1    1    2    0    0 -0.43007871418E+02 -0.32583293104E+03  0.64899409068E+04  0.65000000000E+04  0.15050000000E+03 0.  1.
     100001    1    1    2    0    0  0.43007871418E+02  0.32583293104E+03 -0.64899409068E+04  0.65000000000E+04  0.15050000000E+03 0. -1.
</event>
<event>
 4    1  0.4630618E-004  0.6500000E+04  0.7818608E-02  0.7223770E-01
         52   -1    0    0    0    0  0.00000000000E+00  0.00000000000E+00  0.64930732323E+04  0.65000000000E+04  0.30000000000E+03 0.  1.
        -52   -1    0    0    0    0 -0.00000000000E+00 -0.00000000000E+00 -0.64930732323E+04  0.65000000000E+04  0.30000000000E+03 0.  1.
     100001    1    1    2    0    0  0.41936280980E+03  0.18126746390E+02  0.64846862688E+04  0.65000000000E+04  0.15050000000E+03 0.  1.
     100001    1    1    2    0    0 -0.41936280980E+03 -0.18126746390E+02 -0.64846862688E+04  0.65000000000E+04  0.15050000000E+03 0.  1.
</event>
<event>
 4    1  0.4630618E-004  0.6500000E+04  0.7818608E-02  0.7223770E-01
         52   -1    0    0    0    0  0.00000000000E+00  0.00000000000E+00  0.64930732323E+04  0.65000000000E+04  0.30000000000E+03 0. -1.
        -52   -1    0    0    0    0 -0.00000000000E+00 -0.00000000000E+00 -0.64930732323E+04  0.65000000000E+04  0.30000000000E+03 0.  1.
     100001    1    1    2    0    0 -0.45115114528E+04 -0.32908368418E+04  0.33232524794E+04  0.65000000000E+04  0.15050000000E+03 0. -1.
     100001    1    1    2    0    0  0.45115114528E+04  0.32908368418E+04 -0.33232524794E+04  0.65000000000E+04  0.15050000000E+03 0.  1.
</event>
<event>
 4    1  0.4630618E-004  0.6500000E+04  0.7818608E-02  0.7223770E-01
         52   -1    0    0    0    0  0.00000000000E+00  0.00000000000E+00  0.64930732323E+04  0.65000000000E+04  0.30000000000E+03 0.  1.
        -52   -1    0    0    0    0 -0.00000000000E+00 -0.00000000000E+00 -0.64930732323E+04  0.65000000000E+04  0.30000000000E+03 0.  1.
     100001    1    1    2    0    0  0.28399904400E+03 -0.16392006394E+03 -0.64899787754E+04  0.65000000000E+04  0.15050000000E+03 0.  1.
     100001    1    1    2    0    0 -0.28399904400E+03  0.16392006394E+03  0.64899787754E+04  0.65000000000E+04  0.15050000000E+03 0.  1.
</event>
<event>
 4    1  0.4630618E-004  0.6500000E+04  0.7818608E-02  0.7223770E-01
         52   -1    0    0    0    0  0.00000000000E+00  0.00000000000E+00  0.64930732323E+04  0.65000000000E+04  0.30000000000E+03 0.  1.
        -52   -1    0    0    0    0 -0.00000000000E+00 -0.00000000000E+00 -0.64930732323E+04  0.65000000000E+04  0.30000000000E+03 0. -1.
     100001    1    1    2    0    0  0.41300130395E+03 -0.49782217402E+03 -0.64659842836E+04  0.65000000000E+04  0.15050000000E+03 0. -1.
     100001    1    1    2    0    0 -0.41300130395E+03  0.49782217402E+03  0.64659842836E+04  0.65000000000E+04  0.15050000000E+03 0.  1.
</event>
<event>
 4    1  0.4630618E-004  0.6500000E+04  0.7818608E-02  0.7223770E-01
         52   -1    0    0    0    0  0.00000000000E+00  0.00000000000E+00  0.64930732323E+04  0.65000000000E+04  0.30000000000E+03 0.  1.
        -52   -1    0    0    0    0 -0.00000000000E+00 -0.00000000000E+00 -0.64930732323E+04  0.65000000000E+04  0.30000000000E+03 0.  1.
     100001    1    1    2    0    0 -0.44536306521E+03  0.58974971338E+03  0.64560976422E+04  0.65000000000E+04  0.15050000000E+03 0.  1.
     100001    1    1    2    0    0  0.44536306521E+03 -0.58974971338E+03 -0.64560976422E+04  0.65000000000E+04  0.15050000000E+03 0.  1.
</event>
<event>
 4    1  0.4630618E-004  0.6500000E+04  0.7818608E-02  0.7223770E-01
         52   -1    0    0    0    0  0.00000000000E+00  0.00000000000E+00  0.64930732323E+04  0.65000000000E+04  0.30000000000E+03 0.  1.
        -52   -1    0    0    0    0 -0.00000000000E+00 -0.00000000000E+00 -0.64930732323E+04  0.65000000000E+04  0.30000000000E+03 0. -1.
     100001    1    1    2    0    0  0.88283163700E+03 -0.42381305772E+04  0.48462570363E+04  0.65000000000E+04  0.15050000000E+03 0.  1.
     100001    1    1    2    0    0 -0.88283163700E+03  0.42381305772E+04 -0.48462570363E+04  0.65000000000E+04  0.15050000000E+03 0. -1.
</event>
<event>
 4    1  0.5290413E-004  0.6500000E+04  0.7818608E-02  0.7223770E-01
         52   -1    0    0    0    0  0.00000000000E+00  0.00000000000E+00  0.64930732323E+04  0.65000000000E+04  0.30000000000E+03 0.  1.
        -52   -1    0    0    0    0 -0.00000000000E+00 -0.00000000000E+00 -0.64930732323E+04  0.65000000000E+04  0.30000000000E+03 0.  1.
     100001    1    1    2    0    0 -0.83118696752E+02  0.14942780046E+03 -0.64960074172E+04  0.65000000000E+04  0.15050000000E+03 0.  1.
     100001    1    1    2    0    0  0.83118696752E+02 -0.14942780046E+03  0.64960074172E+04  0.65000000000E+04  0.15050000000E+03 0.  1.
</event>
<event>
 4    1  0.4630618E-004  0.6500000E+04  0.7818608E-02  0.7223770E-01
         52   -1    0    0    0    0  0.00000000000E+00  0.00000000000E+00  0.64930732323E+04  0.65000000000E+04  0.30000000000E+03 0. -1.
        -52   -1    0    0    0    0 -0.00000000000E+00 -0.00000000000E+00 -0.64930732323E+04  0.65000000000E+04  0.30000000000E+03 0.  1.
     100001    1    1    2    0    0  0.15991057541E+04  0.44789095244E+04 -0.44282705438E+04  0.65000000000E+04  0.15050000000E+03 0.  1.
     100001    1    1    2    0    0 -0.15991057541E+04 -0.44789095244E+04  0.44282705438E+04  0.65000000000E+04  0.15050000000E+03 0. -1.
</event>
<event>
 4    1  0.4630618E-004  0.6500000E+04  0.7818608E-02  0.7223770E-01
         52   -1    0    0    0    0  0.00000000000E+00  0.00000000000E+00  0.64930732323E+04  0.65000000000E+04  0.30000000000E+03 0.  1.
        -52   -1    0    0    0    0 -0.00000000000E+00 -0.00000000000E+00 -0.64930732323E+04  0.65000000000E+04  0.30000000000E+03 0.  1.
     100001    1    1    2    0    0 -0.64269597624E+03  0.25751420802E+02  0.64663458380E+04  0.65000000000E+04  0.15050000000E+03 0.  1.
     100001    1    1    2    0    0  0.64269597624E+03 -0.25751420802E+02 -0.64663458380E+04  0.65000000000E+04  0.15050000000E+03 0.  1.
</event>
<event>
 4    1  0.4630618E-004  0.6500000E+04  0.7818608E-02  0.7223770E-01
         52   -1    0    0    0    0  0.00000000000E+00  0.00000000000E+00  0.64930732323E+04  0.65000000000E+04  0.30000000000E+03 0. -1.
        -52   -1    0    0    0    0 -0.00000000000E+00 -0.00000000000E+00 -0.64930732323E+04  0.65000000000E+04  0.30000000000E+03 0.  1.
     100001    1    1    2    0    0  0.13423456360E+04 -0.15985517660E+04  0.61538679052E+04  0.65000000000E+04  0.15050000000E+03 0. -1.
     100001    1    1    2    0    0 -0.13423456360E+04  0.15985517660E+04 -0.61538679052E+04  0.65000000000E+04  0.15050000000E+03 0.  1.
</event>
<event>
 4    1  0.4630618E-004  0.6500000E+04  0.7818608E-02  0.7223770E-01
         52   -1    0    0    0    0  0.00000000000E+00  0.00000000000E+00  0.64930732323E+04  0.65000000000E+04  0.30000000000E+03 0.  1.
        -52   -1    0    0    0    0 -0.00000000000E+00 -0.00000000000E+00 -0.64930732323E+04  0.65000000000E+04  0.30000000000E+03 0. -1.
     100001    1    1    2    0    0  0.12142845345E+04 -0.11321907661E+03 -0.63827928260E+04  0.65000000000E+04  0.15050000000E+03 0. -1.
     100001    1    1    2    0    0 -0.12142845345E+04  0.11321907661E+03  0.63827928260E+04  0.65000000000E+04  0.15050000000E+03 0.  1.
</event>
<event>
 4    1  0.4630618E-004  0.6500000E+04  0.7818608E-02  0.7223770E-01
         52   -1    0    0    0    0  0.00000000000E+00  0.00000000000E+00  0.64930732323E+04  0.65000000000E+04  0.30000000000E+03 0. -1.
        -52   -1    0    0    0    0 -0.00000000000E+00 -0.00000000000E+00 -0.64930732323E+04  0.65000000000E+04  0.30000000000E+03 0.  1.
     100001    1    1    2    0    0 -0.11647082581E+04  0.49922012360E+04  0.39935862634E+04  0.65000000000E+04  0.15050000000E+03 0. -1.
     100001    1    1    2    0    0  0.11647082581E+04 -0.49922012360E+04 -0.39935862634E+04  0.65000000000E+04  0.15050000000E+03 0.  1.
</event>
<event>
 4    1  0.4630618E-004  0.6500000E+04  0.7818608E-02  0.7223770E-01
         52   -1    0    0    0    0  0.00000000000E+00  0.00000000000E+00  0.64930732323E+04  0.65000000000E+04  0.30000000000E+03 0.  1.
        -52   -1    0    0    0    0 -0.00000000000E+00 -0.00000000000E+00 -0.64930732323E+04  0.65000000000E+04  0.30000000000E+03 0.  1.
     100001    1    1    2    0    0 -0.48864108336E+03  0.52875498569E+03 -0.64582503673E+04  0.65000000000E+04  0.15050000000E+03 0.  1.
     100001    1    1    2    0    0  0.48864108336E+03 -0.52875498569E+03  0.64582503673E+04  0.65000000000E+04  0.15050000000E+03 0.  1.
</event>
<event>
 4    1  0.4630618E-004  0.6500000E+04  0.7818608E-02  0.7223770E-01
         52   -1    0    0    0    0  0.00000000000E+00  0.00000000000E+00  0.64930732323E+04  0.65000000000E+04  0.30000000000E+03 0.  1.
        -52   -1    0    0    0    0 -0.00000000000E+00 -0.00000000000E+00 -0.64930732323E+04  0.65000000000E+04  0.30000000000E+03 0. -1.
     100001    1    1    2    0    0  0.34452419100E+04  0.54877996275E+04 -0.49164334674E+03  0.65000000000E+04  0.15050000000E+03 0. -1.
     100001    1    1    2    0    0 -0.34452419100E+04 -0.54877996275E+04  0.49164334674E+03  0.65000000000E+04  0.15050000000E+03 0.  1.
</event>
<event>
 4    1  0.4630618E-004  0.6500000E+04  0.7818608E-02  0.7223770E-01
         52   -1    0    0    0    0  0.00000000000E+00  0.00000000000E+00  0.64930732323E+04  0.65000000000E+04  0.30000000000E+03 0.  1.
        -52   -1    0    0    0    0 -0.00000000000E+00 -0.00000000000E+00 -0.64930732323E+04  0.65000000000E+04  0.30000000000E+03 0. -1.
     100001    1    1    2    0    0 -0.15093362510E+03 -0.59108107052E+03  0.64695588690E+04  0.65000000000E+04  0.15050000000E+03 0.  1.
     100001    1    1    2    0    0  0.15093362510E+03  0.59108107052E+03 -0.64695588690E+04  0.65000000000E+04  0.15050000000E+03 0. -1.
</event>
<event>
 4    1  0.4630618E-004  0.6500000E+04  0.7818608E-02  0.7223770E-01
         52   -1    0    0    0    0  0.00000000000E+00  0.00000000000E+00  0.64930732323E+04  0.65000000000E+04  0.30000000000E+03 0.  1.
        -52   -1    0    0    0    0 -0.00000000000E+00 -0.00000000000E+00 -0.64930732323E+04  0.65000000000E+04  0.30000000000E+03 0. -1.
     100001    1    1    2    0    0  0.22157064548E+03 -0.45442831178E+03 -0.64785608825E+04  0.65000000000E+04  0.15050000000E+03 0. -1.
     100001    1    1    2    0    0 -0.22157064548E+03  0.45442831178E+03  0.64785608825E+04  0.65000000000E+04  0.15050000000E+03 0.  1.
</event>
<event>
 4    1  0.4630618E-004  0.6500000E+04  0.7818608E-02  0.7223770E-01
         52   -1    0    0    0    0  0.00000000000E+00  0.00000000000E+00  0.64930732323E+04  0.65000000000E+04  0.30000000000E+03 0. -1.
        -52   -1    0    0    0    0 -0.00000000000E+00 -0.00000000000E+00 -0.64930732323E+04  0.65000000000E+04  0.30000000000E+03 0.  1.
     100001    1    1    2    0    0 -0.74727616981E+03  0.62325199993E+04  0.16806613385E+04  0.65000000000E+04  0.15050000000E+03 0. -1.
     100001    1    1    2    0    0  0.74727616981E+03 -0.62325199993E+04 -0.16806613385E+04  0.65000000000E+04  0.15050000000E+03 0.  1.
</event>
<event>
 4    1  0.5492725E-004  0.6500000E+04  0.7818608E-02  0.7223770E-01
         52   -1    0    0    0    0  0.00000000000E+00  0.00000000000E+00  0.64930732323E+04  0.65000000000E+04  0.30000000000E+03 0. -1.
        -52   -1    0    0    0    0 -0.00000000000E+00 -0.00000000000E+00 -0.64930732323E+04  0.65000000000E+04  0.30000000000E+03 0. -1.
     100001    1    1    2    0    0 -0.52568890543E+02  0.96661869695E+02 -0.64973258149E+04  0.65000000000E+04  0.15050000000E+03 0. -1.
     100001    1    1    2    0    0  0.52568890543E+02 -0.96661869695E+02  0.64973258149E+04  0.65000000000E+04  0.15050000000E+03 0. -1.
</event>
<event>
 4    1  0.4630618E-004  0.6500000E+04  0.7818608E-02  0.7223770E-01
         52   -1    0    0    0    0  0.00000000000E+00  0.00000000000E+00  0.64930732323E+04  0.65000000000E+04  0.30000000000E+03 0. -1.
        -52   -1    0    0    0    0 -0.00000000000E+00 -0.00000000000E+00 -0.64930732323E+04  0.65000000000E+04  0.30000000000E+03 0.  1.
     100001    1    1    2    0    0 -0.35765603982E+04 -0.13270395122E+04 -0.52606588562E+04  0.65000000000E+04  0.15050000000E+03 0.  1.
     100001    1    1    2    0    0  0.35765603982E+04  0.13270395122E+04  0.52606588562E+04  0.65000000000E+04  0.15050000000E+03 0. -1.
</event>
<event>
 4    1  0.4630618E-004  0.6500000E+04  0.7818608E-02  0.7223770E-01
         52   -1    0    0    0    0  0.00000000000E+00  0.00000000000E+00  0.64930732323E+04  0.65000000000E+04  0.30000000000E+03 0. -1.
        -52   -1    0    0    0    0 -0.00000000000E+00 -0.00000000000E+00 -0.64930732323E+04  0.65000000000E+04  0.30000000000E+03 0.  1.
     100001    1    1    2    0    0 -0.12319727913E+04 -0.18625191952E+04 -0.61025089135E+04  0.65000000000E+04  0.15050000000E+03 0.  1.
     100001    1    1    2    0    0  0.12319727913E+04  0.18625191952E+04  0.61025089135E+04  0.65000000000E+04  0.15050000000E+03 0. -1.
</event>
<event>
 4    1  0.4630618E-004  0.6500000E+04  0.7818608E-02  0.7223770E-01
         52   -1    0    0    0    0  0.00000000000E+00  0.00000000000E+00  0.64930732323E+04  0.65000000000E+04  0.30000000000E+03 0. -1.
        -52   -1    0    0    0    0 -0.00000000000E+00 -0.00000000000E+00 -0.64930732323E+04  0.65000000000E+04  0.30000000000E+03 0.  1.
     100001    1    1    2    0    0 -0.61735729140E+03  0.71961321451E+03  0.64287149996E+04  0.65000000000E+04  0.15050000000E+03 0. -1.
     100001    1    1    2    0    0  0.61735729140E+03 -0.71961321451E+03 -0.64287149996E+04  0.65000000000E+04  0.15050000000E+03 0.  1.
</event>
<event>
 4    1  0.4630618E-004  0.6500000E+04  0.7818608E-02  0.7223770E-01
         52   -1    0    0    0    0  0.00000000000E+00  0.00000000000E+00  0.64930732323E+04  0.65000000000E+04  0.30000000000E+03 0.  1.
        -52   -1    0    0    0    0 -0.00000000000E+00 -0.00000000000E+00 -0.64930732323E+04  0.65000000000E+04  0.30000000000E+03 0. -1.
     100001    1    1    2    0    0 -0.53823172933E+03 -0.12854126519E+04 -0.63470757574E+04  0.65000000000E+04  0.15050000000E+03 0. -1.
     100001    1    1    2    0    0  0.53823172933E+03  0.12854126519E+04  0.63470757574E+04  0.65000000000E+04  0.15050000000E+03 0.  1.
</event>
<event>
 4    1  0.4630618E-004  0.6500000E+04  0.7818608E-02  0.7223770E-01
         52   -1    0    0    0    0  0.00000000000E+00  0.00000000000E+00  0.64930732323E+04  0.65000000000E+04  0.30000000000E+03 0.  1.
        -52   -1    0    0    0    0 -0.00000000000E+00 -0.00000000000E+00 -0.64930732323E+04  0.65000000000E+04  0.30000000000E+03 0. -1.
     100001    1    1    2    0    0 -0.75191934721E+03  0.52959047463E+03 -0.64328454804E+04  0.65000000000E+04  0.15050000000E+03 0. -1.
     100001    1    1    2    0    0  0.75191934721E+03 -0.52959047463E+03  0.64328454804E+04  0.65000000000E+04  0.15050000000E+03 0.  1.
</event>
<event>
 4    1  0.4630618E-004  0.6500000E+04  0.7818608E-02  0.7223770E-01
         52   -1    0    0    0    0  0.00000000000E+00  0.00000000000E+00  0.64930732323E+04  0.65000000000E+04  0.30000000000E+03 0.  1.
        -52   -1    0    0    0    0 -0.00000000000E+00 -0.00000000000E+00 -0.64930732323E+04  0.65000000000E+04  0.30000000000E+03 0. -1.
     100001    1    1    2    0    0  0.93887499884E+03 -0.52190104418E+03 -0.64088597103E+04  0.65000000000E+04  0.15050000000E+03 0. -1.
     100001    1    1    2    0    0 -0.93887499884E+03  0.52190104418E+03  0.64088597103E+04  0.65000000000E+04  0.15050000000E+03 0.  1.
</event>
<event>
 4    1  0.4630618E-004  0.6500000E+04  0.7818608E-02  0.7223770E-01
         52   -1    0    0    0    0  0.00000000000E+00  0.00000000000E+00  0.64930732323E+04  0.65000000000E+04  0.30000000000E+03 0.  1.
        -52   -1    0    0    0    0 -0.00000000000E+00 -0.00000000000E+00 -0.64930732323E+04  0.65000000000E+04  0.30000000000E+03 0. -1.
     100001    1    1    2    0    0 -0.65013149891E+03  0.85701865884E+03 -0.64086034206E+04  0.65000000000E+04  0.15050000000E+03 0. -1.
     100001    1    1    2    0    0  0.65013149891E+03 -0.85701865884E+03  0.64086034206E+04  0.65000000000E+04  0.15050000000E+03 0.  1.
</event>
<event>
 4    1  0.4630618E-004  0.6500000E+04  0.7818608E-02  0.7223770E-01
         52   -1    0    0    0    0  0.00000000000E+00  0.00000000000E+00  0.64930732323E+04  0.65000000000E+04  0.30000000000E+03 0.  1.
        -52   -1    0    0    0    0 -0.00000000000E+00 -0.00000000000E+00 -0.64930732323E+04  0.65000000000E+04  0.30000000000E+03 0. -1.
     100001    1    1    2    0    0 -0.62146817795E+02 -0.11743404178E+04  0.63909633160E+04  0.65000000000E+04  0.15050000000E+03 0.  1.
     100001    1    1    2    0    0  0.62146817795E+02  0.11743404178E+04 -0.63909633160E+04  0.65000000000E+04  0.15050000000E+03 0. -1.
</event>
<event>
 4    1  0.4630618E-004  0.6500000E+04  0.7818608E-02  0.7223770E-01
         52   -1    0    0    0    0  0.00000000000E+00  0.00000000000E+00  0.64930732323E+04  0.65000000000E+04  0.30000000000E+03 0.  1.
        -52   -1    0    0    0    0 -0.00000000000E+00 -0.00000000000E+00 -0.64930732323E+04  0.65000000000E+04  0.30000000000E+03 0. -1.
     100001    1    1    2    0    0  0.53955994096E+03 -0.20335512134E+04  0.61482431867E+04  0.65000000000E+04  0.15050000000E+03 0.  1.
     100001    1    1    2    0    0 -0.53955994096E+03  0.20335512134E+04 -0.61482431867E+04  0.65000000000E+04  0.15050000000E+03 0. -1.
</event>
<event>
 4    1  0.4630618E-004  0.6500000E+04  0.7818608E-02  0.7223770E-01
         52   -1    0    0    0    0  0.00000000000E+00  0.00000000000E+00  0.64930732323E+04  0.65000000000E+04  0.30000000000E+03 0. -1.
        -52   -1    0    0    0    0 -0.00000000000E+00 -0.00000000000E+00 -0.64930732323E+04  0.65000000000E+04  0.30000000000E+03 0.  1.
     100001    1    1    2    0    0  0.17544025403E+04 -0.94571048043E+03 -0.61850669490E+04  0.65000000000E+04  0.15050000000E+03 0.  1.
     100001    1    1    2    0    0 -0.17544025403E+04  0.94571048043E+03  0.61850669490E+04  0.65000000000E+04  0.15050000000E+03 0. -1.
</event>
<event>
 4    1  0.4630618E-004  0.6500000E+04  0.7818608E-02  0.7223770E-01
         52   -1    0    0    0    0  0.00000000000E+00  0.00000000000E+00  0.64930732323E+04  0.65000000000E+04  0.30000000000E+03 0. -1.
        -52   -1    0    0    0    0 -0.00000000000E+00 -0.00000000000E+00 -0.64930732323E+04  0.65000000000E+04  0.30000000000E+03 0.  1.
     100001    1    1    2    0    0  0.44911151106E+03 -0.37641433108E+04  0.52779611344E+04  0.65000000000E+04  0.15050000000E+03 0. -1.
     100001    1    1    2    0    0 -0.44911151106E+03  0.37641433108E+04 -0.52779611344E+04  0.65000000000E+04  0.15050000000E+03 0.  1.
</event>
<event>
 4    1  0.4630618E-004  0.6500000E+04  0.7818608E-02  0.7223770E-01
         52   -1    0    0    0    0  0.00000000000E+00  0.00000000000E+00  0.64930732323E+04  0.65000000000E+04  0.30000000000E+03 0.  1.
        -52   -1    0    0    0    0 -0.00000000000E+00 -0.00000000000E+00 -0.64930732323E+04  0.65000000000E+04  0.30000000000E+03 0. -1.
     100001    1    1    2    0    0 -0.46796090823E+03 -0.28873727698E+03  0.64749512062E+04  0.65000000000E+04  0.15050000000E+03 0.  1.
     100001    1    1    2    0    0  0.46796090823E+03  0.28873727698E+03 -0.64749512062E+04  0.65000000000E+04  0.15050000000E+03 0. -1.
</event>
<event>
 4    1  0.4630618E-004  0.6500000E+04  0.7818608E-02  0.7223770E-01
         52   -1    0    0    0    0  0.00000000000E+00  0.00000000000E+00  0.64930732323E+04  0.65000000000E+04  0.30000000000E+03 0.  1.
        -52   -1    0    0    0    0 -0.00000000000E+00 -0.00000000000E+00 -0.64930732323E+04  0.65000000000E+04  0.30000000000E+03 0. -1.
     100001    1    1    2    0    0  0.83278908223E+03  0.39093070787E+03 -0.64328053970E+04  0.65000000000E+04  0.15050000000E+03 0. -1.
     100001    1    1    2    0    0 -0.83278908223E+03 -0.39093070787E+03  0.64328053970E+04  0.65000000000E+04  0.15050000000E+03 0.  1.
</event>
<event>
 4    1  0.4630618E-004  0.6500000E+04  0.7818608E-02  0.7223770E-01
         52   -1    0    0    0    0  0.00000000000E+00  0.00000000000E+00  0.64930732323E+04  0.65000000000E+04  0.30000000000E+03 0. -1.
        -52   -1    0    0    0    0 -0.00000000000E+00 -0.00000000000E+00 -0.64930732323E+04  0.65000000000E+04  0.30000000000E+03 0.  1.
     100001    1    1    2    0    0 -0.23191183422E+03 -0.23752182902E+03 -0.64897727257E+04  0.65000000000E+04  0.15050000000E+03 0.  1.
     100001    1    1    2    0    0  0.23191183422E+03  0.23752182902E+03  0.64897727257E+04  0.65000000000E+04  0.15050000000E+03 0. -1.
</event>
<event>
 4    1  0.4630618E-004  0.6500000E+04  0.7818608E-02  0.7223770E-01
         52   -1    0    0    0    0  0.00000000000E+00  0.00000000000E+00  0.64930732323E+04  0.65000000000E+04  0.30000000000E+03 0.  1.
        -52   -1    0    0    0    0 -0.00000000000E+00 -0.00000000000E+00 -0.64930732323E+04  0.65000000000E+04  0.30000000000E+03 0. -1.
     100001    1    1    2    0    0  0.36128065097E+03  0.41911657889E+03 -0.64746557696E+04  0.65000000000E+04  0.15050000000E+03 0. -1.
     100001    1    1    2    0    0 -0.36128065097E+03 -0.41911657889E+03  0.64746557696E+04  0.65000000000E+04  0.15050000000E+03 0.  1.
</event>
<event>
 4    1  0.4630618E-004  0.6500000E+04  0.7818608E-02  0.7223770E-01
         52   -1    0    0    0    0  0.00000000000E+00  0.00000000000E+00  0.64930732323E+04  0.65000000000E+04  0.30000000000E+03 0.  1.
        -52   -1    0    0    0    0 -0.00000000000E+00 -0.00000000000E+00 -0.64930732323E+04  0.65000000000E+04  0.30000000000E+03 0. -1.
     100001    1    1    2    0    0  0.38171377278E+04 -0.75487468572E+03  0.52045147253E+04  0.65000000000E+04  0.15050000000E+03 0.  1.
     100001    1    1    2    0    0 -0.38171377278E+04  0.75487468572E+03 -0.52045147253E+04  0.65000000000E+04  0.15050000000E+03 0. -1.
</event>
<event>
 4    1  0.4630618E-004  0.6500000E+04  0.7818608E-02  0.7223770E-01
         52   -1    0    0    0    0  0.00000000000E+00  0.00000000000E+00  0.64930732323E+04  0.65000000000E+04  0.30000000000E+03 0.  1.
        -52   -1    0    0    0    0 -0.00000000000E+00 -0.00000000000E+00 -0.64930732323E+04  0.65000000000E+04  0.30000000000E+03 0. -1.
     100001    1    1    2    0    0 -0.27256816489E+04  0.33931863069E+03  0.58892166003E+04  0.65000000000E+04  0.15050000000E+03 0.  1.
     100001    1    1    2    0    0  0.27256816489E+04 -0.33931863069E+03 -0.58892166003E+04  0.65000000000E+04  0.15050000000E+03 0. -1.
</event>
<event>
 4    1  0.4630618E-004  0.6500000E+04  0.7818608E-02  0.7223770E-01
         52   -1    0    0    0    0  0.00000000000E+00  0.00000000000E+00  0.64930732323E+04  0.65000000000E+04  0.30000000000E+03 0.  1.
        -52   -1    0    0    0    0 -0.00000000000E+00 -0.00000000000E+00 -0.64930732323E+04  0.65000000000E+04  0.30000000000E+03 0. -1.
     100001    1    1    2    0    0 -0.51264049863E+03  0.32765606111E+03 -0.64697133611E+04  0.65000000000E+04  0.15050000000E+03 0. -1.
     100001    1    1    2    0    0  0.51264049863E+03 -0.32765606111E+03  0.64697133611E+04  0.65000000000E+04  0.15050000000E+03 0.  1.
</event>
<event>
 4    1  0.4630618E-004  0.6500000E+04  0.7818608E-02  0.7223770E-01
         52   -1    0    0    0    0  0.00000000000E+00  0.00000000000E+00  0.64930732323E+04  0.65000000000E+04  0.30000000000E+03 0.  1.
        -52   -1    0    0    0    0 -0.00000000000E+00 -0.00000000000E+00 -0.64930732323E+04  0.65000000000E+04  0.30000000000E+03 0. -1.
     100001    1    1    2    0    0 -0.48637471695E+04  0.40274621661E+04 -0.15332520084E+04  0.65000000000E+04  0.15050000000E+03 0.  1.
     100001    1    1    2    0    0  0.48637471695E+04 -0.40274621661E+04  0.15332520084E+04  0.65000000000E+04  0.15050000000E+03 0. -1.
</event>
<event>
 4    1  0.4630618E-004  0.6500000E+04  0.7818608E-02  0.7223770E-01
         52   -1    0    0    0    0  0.00000000000E+00  0.00000000000E+00  0.64930732323E+04  0.65000000000E+04  0.30000000000E+03 0.  1.
        -52   -1    0    0    0    0 -0.00000000000E+00 -0.00000000000E+00 -0.64930732323E+04  0.65000000000E+04  0.30000000000E+03 0.  1.
     100001    1    1    2    0    0 -0.13574601026E+03  0.29065085646E+03 -0.64903347256E+04  0.65000000000E+04  0.15050000000E+03 0.  1.
     100001    1    1    2    0    0  0.13574601026E+03 -0.29065085646E+03  0.64903347256E+04  0.65000000000E+04  0.15050000000E+03 0.  1.
</event>
<event>
 4    1  0.4630618E-004  0.6500000E+04  0.7818608E-02  0.7223770E-01
         52   -1    0    0    0    0  0.00000000000E+00  0.00000000000E+00  0.64930732323E+04  0.65000000000E+04  0.30000000000E+03 0.  1.
        -52   -1    0    0    0    0 -0.00000000000E+00 -0.00000000000E+00 -0.64930732323E+04  0.65000000000E+04  0.30000000000E+03 0. -1.
     100001    1    1    2    0    0 -0.92869549240E+03 -0.20149954183E+03 -0.64283957849E+04  0.65000000000E+04  0.15050000000E+03 0. -1.
     100001    1    1    2    0    0  0.92869549240E+03  0.20149954183E+03  0.64283957849E+04  0.65000000000E+04  0.15050000000E+03 0.  1.
</event>
<event>
 4    1  0.4630618E-004  0.6500000E+04  0.7818608E-02  0.7223770E-01
         52   -1    0    0    0    0  0.00000000000E+00  0.00000000000E+00  0.64930732323E+04  0.65000000000E+04  0.30000000000E+03 0.  1.
        -52   -1    0    0    0    0 -0.00000000000E+00 -0.00000000000E+00 -0.64930732323E+04  0.65000000000E+04  0.30000000000E+03 0. -1.
     100001    1    1    2    0    0 -0.27637125803E+04 -0.58799265418E+04  0.12532512418E+03  0.65000000000E+04  0.15050000000E+03 0.  1.
     100001    1    1    2    0    0  0.27637125803E+04  0.58799265418E+04 -0.12532512418E+03  0.65000000000E+04  0.15050000000E+03 0. -1.
</event>
<event>
 4    1  0.4630618E-004  0.6500000E+04  0.7818608E-02  0.7223770E-01
         52   -1    0    0    0    0  0.00000000000E+00  0.00000000000E+00  0.64930732323E+04  0.65000000000E+04  0.30000000000E+03 0.  1.
        -52   -1    0    0    0    0 -0.00000000000E+00 -0.00000000000E+00 -0.64930732323E+04  0.65000000000E+04  0.30000000000E+03 0.  1.
     100001    1    1    2    0    0 -0.56168452716E+03  0.29596758191E+02 -0.64738693433E+04  0.65000000000E+04  0.15050000000E+03 0.  1.
     100001    1    1    2    0    0  0.56168452716E+03 -0.29596758191E+02  0.64738693433E+04  0.65000000000E+04  0.15050000000E+03 0.  1.
</event>
<event>
 4    1  0.4630618E-004  0.6500000E+04  0.7818608E-02  0.7223770E-01
         52   -1    0    0    0    0  0.00000000000E+00  0.00000000000E+00  0.64930732323E+04  0.65000000000E+04  0.30000000000E+03 0.  1.
        -52   -1    0    0    0    0 -0.00000000000E+00 -0.00000000000E+00 -0.64930732323E+04  0.65000000000E+04  0.30000000000E+03 0. -1.
     100001    1    1    2    0    0  0.25628578104E+04 -0.17553292458E+03 -0.59689444449E+04  0.65000000000E+04  0.15050000000E+03 0. -1.
     100001    1    1    2    0    0 -0.25628578104E+04  0.17553292458E+03  0.59689444449E+04  0.65000000000E+04  0.15050000000E+03 0.  1.
</event>
<event>
 4    1  0.4630618E-004  0.6500000E+04  0.7818608E-02  0.7223770E-01
         52   -1    0    0    0    0  0.00000000000E+00  0.00000000000E+00  0.64930732323E+04  0.65000000000E+04  0.30000000000E+03 0.  1.
        -52   -1    0    0    0    0 -0.00000000000E+00 -0.00000000000E+00 -0.64930732323E+04  0.65000000000E+04  0.30000000000E+03 0. -1.
     100001    1    1    2    0    0  0.42658886748E+04 -0.38776372103E+04  0.29989120076E+04  0.65000000000E+04  0.15050000000E+03 0.  1.
     100001    1    1    2    0    0 -0.42658886748E+04  0.38776372103E+04 -0.29989120076E+04  0.65000000000E+04  0.15050000000E+03 0. -1.
</event>
<event>
 4    1  0.4630618E-004  0.6500000E+04  0.7818608E-02  0.7223770E-01
         52   -1    0    0    0    0  0.00000000000E+00  0.00000000000E+00  0.64930732323E+04  0.65000000000E+04  0.30000000000E+03 0.  1.
        -52   -1    0    0    0    0 -0.00000000000E+00 -0.00000000000E+00 -0.64930732323E+04  0.65000000000E+04  0.30000000000E+03 0. -1.
     100001    1    1    2    0    0 -0.54457368504E+03  0.39737007377E+04 -0.51127772980E+04  0.65000000000E+04  0.15050000000E+03 0. -1.
     100001    1    1    2    0    0  0.54457368504E+03 -0.39737007377E+04  0.51127772980E+04  0.65000000000E+04  0.15050000000E+03 0.  1.
</event>
<event>
 4    1  0.4630618E-004  0.6500000E+04  0.7818608E-02  0.7223770E-01
         52   -1    0    0    0    0  0.00000000000E+00  0.00000000000E+00  0.64930732323E+04  0.65000000000E+04  0.30000000000E+03 0. -1.
        -52   -1    0    0    0    0 -0.00000000000E+00 -0.00000000000E+00 -0.64930732323E+04  0.65000000000E+04  0.30000000000E+03 0. -1.
     100001    1    1    2    0    0  0.27248000376E+03 -0.35530844172E+03 -0.64828126850E+04  0.65000000000E+04  0.15050000000E+03 0. -1.
     100001    1    1    2    0    0 -0.27248000376E+03  0.35530844172E+03  0.64828126850E+04  0.65000000000E+04  0.15050000000E+03 0. -1.
</event>
<event>
 4    1  0.4630618E-004  0.6500000E+04  0.7818608E-02  0.7223770E-01
         52   -1    0    0    0    0  0.00000000000E+00  0.00000000000E+00  0.64930732323E+04  0.65000000000E+04  0.30000000000E+03 0.  1.
        -52   -1    0    0    0    0 -0.00000000000E+00 -0.00000000000E+00 -0.64930732323E+04  0.65000000000E+04  0.30000000000E+03 0. -1.
     100001    1    1    2    0    0 -0.24429691977E+03 -0.13351400077E+03 -0.64922910268E+04  0.65000000000E+04  0.15050000000E+03 0. -1.
     100001    1    1    2    0    0  0.24429691977E+03  0.13351400077E+03  0.64922910268E+04  0.65000000000E+04  0.15050000000E+03 0.  1.
</event>
<event>
 4    1  0.4630618E-004  0.6500000E+04  0.7818608E-02  0.7223770E-01
         52   -1    0    0    0    0  0.00000000000E+00  0.00000000000E+00  0.64930732323E+04  0.65000000000E+04  0.30000000000E+03 0.  1.
        -52   -1    0    0    0    0 -0.00000000000E+00 -0.00000000000E+00 -0.64930732323E+04  0.65000000000E+04  0.30000000000E+03 0. -1.
     100001    1    1    2    0    0 -0.91291641037E+03 -0.93620464587E+02  0.64331305432E+04  0.65000000000E+04  0.15050000000E+03 0.  1.
     100001    1    1    2    0    0  0.91291641037E+03  0.93620464587E+02 -0.64331305432E+04  0.65000000000E+04  0.15050000000E+03 0. -1.
</event>
<event>
 4    1  0.4630618E-004  0.6500000E+04  0.7818608E-02  0.7223770E-01
         52   -1    0    0    0    0  0.00000000000E+00  0.00000000000E+00  0.64930732323E+04  0.65000000000E+04  0.30000000000E+03 0. -1.
        -52   -1    0    0    0    0 -0.00000000000E+00 -0.00000000000E+00 -0.64930732323E+04  0.65000000000E+04  0.30000000000E+03 0.  1.
     100001    1    1    2    0    0  0.42698594109E+04  0.19079285914E+04 -0.45117024338E+04  0.65000000000E+04  0.15050000000E+03 0.  1.
     100001    1    1    2    0    0 -0.42698594109E+04 -0.19079285914E+04  0.45117024338E+04  0.65000000000E+04  0.15050000000E+03 0. -1.
</event>
<event>
 4    1  0.4630618E-004  0.6500000E+04  0.7818608E-02  0.7223770E-01
         52   -1    0    0    0    0  0.00000000000E+00  0.00000000000E+00  0.64930732323E+04  0.65000000000E+04  0.30000000000E+03 0. -1.
        -52   -1    0    0    0    0 -0.00000000000E+00 -0.00000000000E+00 -0.64930732323E+04  0.65000000000E+04  0.30000000000E+03 0.  1.
     100001    1    1    2    0    0 -0.13484004760E+04 -0.80570796140E+02  0.63563097984E+04  0.65000000000E+04  0.15050000000E+03 0. -1.
     100001    1    1    2    0    0  0.13484004760E+04  0.80570796140E+02 -0.63563097984E+04  0.65000000000E+04  0.15050000000E+03 0.  1.
</event>
<event>
 4    1  0.4630618E-004  0.6500000E+04  0.7818608E-02  0.7223770E-01
         52   -1    0    0    0    0  0.00000000000E+00  0.00000000000E+00  0.64930732323E+04  0.65000000000E+04  0.30000000000E+03 0.  1.
        -52   -1    0    0    0    0 -0.00000000000E+00 -0.00000000000E+00 -0.64930732323E+04  0.65000000000E+04  0.30000000000E+03 0. -1.
     100001    1    1    2    0    0  0.88522625456E+03 -0.11915316084E+04  0.63264505573E+04  0.65000000000E+04  0.15050000000E+03 0.  1.
     100001    1    1    2    0    0 -0.88522625456E+03  0.11915316084E+04 -0.63264505573E+04  0.65000000000E+04  0.15050000000E+03 0. -1.
</event>
<event>
 4    1  0.4630618E-004  0.6500000E+04  0.7818608E-02  0.7223770E-01
         52   -1    0    0    0    0  0.00000000000E+00  0.00000000000E+00  0.64930732323E+04  0.65000000000E+04  0.30000000000E+03 0.  1.
        -52   -1    0    0    0    0 -0.00000000000E+00 -0.00000000000E+00 -0.64930732323E+04  0.65000000000E+04  0.30000000000E+03 0.  1.
     100001    1    1    2    0    0 -0.42681605706E+03 -0.40616738623E+03 -0.64714917799E+04  0.65000000000E+04  0.15050000000E+03 0.  1.
     100001    1    1    2    0    0  0.42681605706E+03  0.40616738623E+03  0.64714917799E+04  0.65000000000E+04  0.15050000000E+03 0.  1.
</event>
<event>
 4    1  0.4630618E-004  0.6500000E+04  0.7818608E-02  0.7223770E-01
         52   -1    0    0    0    0  0.00000000000E+00  0.00000000000E+00  0.64930732323E+04  0.65000000000E+04  0.30000000000E+03 0.  1.
        -52   -1    0    0    0    0 -0.00000000000E+00 -0.00000000000E+00 -0.64930732323E+04  0.65000000000E+04  0.30000000000E+03 0. -1.
     100001    1    1    2    0    0 -0.56867457224E+03  0.44595455315E+04 -0.46921650262E+04  0.65000000000E+04  0.15050000000E+03 0. -1.
     100001    1    1    2    0    0  0.56867457224E+03 -0.44595455315E+04  0.46921650262E+04  0.65000000000E+04  0.15050000000E+03 0.  1.
</event>
<event>
 4    1  0.4630618E-004  0.6500000E+04  0.7818608E-02  0.7223770E-01
         52   -1    0    0    0    0  0.00000000000E+00  0.00000000000E+00  0.64930732323E+04  0.65000000000E+04  0.30000000000E+03 0. -1.
        -52   -1    0    0    0    0 -0.00000000000E+00 -0.00000000000E+00 -0.64930732323E+04  0.65000000000E+04  0.30000000000E+03 0. -1.
     100001    1    1    2    0    0 -0.26704440691E+04 -0.11255799201E+04  0.58162830113E+04  0.65000000000E+04  0.15050000000E+03 0. -1.
     100001    1    1    2    0    0  0.26704440691E+04  0.11255799201E+04 -0.58162830113E+04  0.65000000000E+04  0.15050000000E+03 0. -1.
</event>
<event>
 4    1  0.4630618E-004  0.6500000E+04  0.7818608E-02  0.7223770E-01
         52   -1    0    0    0    0  0.00000000000E+00  0.00000000000E+00  0.64930732323E+04  0.65000000000E+04  0.30000000000E+03 0. -1.
        -52   -1    0    0    0    0 -0.00000000000E+00 -0.00000000000E+00 -0.64930732323E+04  0.65000000000E+04  0.30000000000E+03 0.  1.
     100001    1    1    2    0    0 -0.54405716089E+04  0.11946018192E+04  0.33467083547E+04  0.65000000000E+04  0.15050000000E+03 0. -1.
     100001    1    1    2    0    0  0.54405716089E+04 -0.11946018192E+04 -0.33467083547E+04  0.65000000000E+04  0.15050000000E+03 0.  1.
</event>
<event>
 4    1  0.4630618E-004  0.6500000E+04  0.7818608E-02  0.7223770E-01
         52   -1    0    0    0    0  0.00000000000E+00  0.00000000000E+00  0.64930732323E+04  0.65000000000E+04  0.30000000000E+03 0.  1.
        -52   -1    0    0    0    0 -0.00000000000E+00 -0.00000000000E+00 -0.64930732323E+04  0.65000000000E+04  0.30000000000E+03 0. -1.
     100001    1    1    2    0    0  0.84895395920E+02  0.53275369256E+04 -0.37198780663E+04  0.65000000000E+04  0.15050000000E+03 0. -1.
     100001    1    1    2    0    0 -0.84895395920E+02 -0.53275369256E+04  0.37198780663E+04  0.65000000000E+04  0.15050000000E+03 0.  1.
</event>
<event>
 4    1  0.4630618E-004  0.6500000E+04  0.7818608E-02  0.7223770E-01
         52   -1    0    0    0    0  0.00000000000E+00  0.00000000000E+00  0.64930732323E+04  0.65000000000E+04  0.30000000000E+03 0. -1.
        -52   -1    0    0    0    0 -0.00000000000E+00 -0.00000000000E+00 -0.64930732323E+04  0.65000000000E+04  0.30000000000E+03 0.  1.
     100001    1    1    2    0    0  0.13268341714E+04 -0.90336817963E+03  0.62968870693E+04  0.65000000000E+04  0.15050000000E+03 0. -1.
     100001    1    1    2    0    0 -0.13268341714E+04  0.90336817963E+03 -0.62968870693E+04  0.65000000000E+04  0.15050000000E+03 0.  1.
</event>
<event>
 4    1  0.4630618E-004  0.6500000E+04  0.7818608E-02  0.7223770E-01
         52   -1    0    0    0    0  0.00000000000E+00  0.00000000000E+00  0.64930732323E+04  0.65000000000E+04  0.30000000000E+03 0. -1.
        -52   -1    0    0    0    0 -0.00000000000E+00 -0.00000000000E+00 -0.64930732323E+04  0.65000000000E+04  0.30000000000E+03 0.  1.
     100001    1    1    2    0    0 -0.81427247684E+03 -0.10096227639E+04  0.63674933811E+04  0.65000000000E+04  0.15050000000E+03 0. -1.
     100001    1    1    2    0    0  0.81427247684E+03  0.10096227639E+04 -0.63674933811E+04  0.65000000000E+04  0.15050000000E+03 0.  1.
</event>
<event>
 4    1  0.4630618E-004  0.6500000E+04  0.7818608E-02  0.7223770E-01
         52   -1    0    0    0    0  0.00000000000E+00  0.00000000000E+00  0.64930732323E+04  0.65000000000E+04  0.30000000000E+03 0.  1.
        -52   -1    0    0    0    0 -0.00000000000E+00 -0.00000000000E+00 -0.64930732323E+04  0.65000000000E+04  0.30000000000E+03 0. -1.
     100001    1    1    2    0    0 -0.19572435605E+04  0.23601260678E+04  0.57294286224E+04  0.65000000000E+04  0.15050000000E+03 0.  1.
     100001    1    1    2    0    0  0.19572435605E+04 -0.23601260678E+04 -0.57294286224E+04  0.65000000000E+04  0.15050000000E+03 0. -1.
</event>
<event>
 4    1  0.4630618E-004  0.6500000E+04  0.7818608E-02  0.7223770E-01
         52   -1    0    0    0    0  0.00000000000E+00  0.00000000000E+00  0.64930732323E+04  0.65000000000E+04  0.30000000000E+03 0. -1.
        -52   -1    0    0    0    0 -0.00000000000E+00 -0.00000000000E+00 -0.64930732323E+04  0.65000000000E+04  0.30000000000E+03 0.  1.
     100001    1    1    2    0    0  0.13596426172E+04  0.46857768445E+04 -0.42921110269E+04  0.65000000000E+04  0.15050000000E+03 0.  1.
     100001    1    1    2    0    0 -0.13596426172E+04 -0.46857768445E+04  0.42921110269E+04  0.65000000000E+04  0.15050000000E+03 0. -1.
</event>
<event>
 4    1  0.4630618E-004  0.6500000E+04  0.7818608E-02  0.7223770E-01
         52   -1    0    0    0    0  0.00000000000E+00  0.00000000000E+00  0.64930732323E+04  0.65000000000E+04  0.30000000000E+03 0. -1.
        -52   -1    0    0    0    0 -0.00000000000E+00 -0.00000000000E+00 -0.64930732323E+04  0.65000000000E+04  0.30000000000E+03 0.  1.
     100001    1    1    2    0    0  0.11212563337E+04 -0.24930498293E+04  0.58953232764E+04  0.65000000000E+04  0.15050000000E+03 0. -1.
     100001    1    1    2    0    0 -0.11212563337E+04  0.24930498293E+04 -0.58953232764E+04  0.65000000000E+04  0.15050000000E+03 0.  1.
</event>
<event>
 4    1  0.4630618E-004  0.6500000E+04  0.7818608E-02  0.7223770E-01
         52   -1    0    0    0    0  0.00000000000E+00  0.00000000000E+00  0.64930732323E+04  0.65000000000E+04  0.30000000000E+03 0. -1.
        -52   -1    0    0    0    0 -0.00000000000E+00 -0.00000000000E+00 -0.64930732323E+04  0.65000000000E+04  0.30000000000E+03 0.  1.
     100001    1    1    2    0    0 -0.85515451465E+02  0.50321505559E+03  0.64781796413E+04  0.65000000000E+04  0.15050000000E+03 0. -1.
     100001    1    1    2    0    0  0.85515451465E+02 -0.50321505559E+03 -0.64781796413E+04  0.65000000000E+04  0.15050000000E+03 0.  1.
</event>
<event>
 4    1  0.4630618E-004  0.6500000E+04  0.7818608E-02  0.7223770E-01
         52   -1    0    0    0    0  0.00000000000E+00  0.00000000000E+00  0.64930732323E+04  0.65000000000E+04  0.30000000000E+03 0.  1.
        -52   -1    0    0    0    0 -0.00000000000E+00 -0.00000000000E+00 -0.64930732323E+04  0.65000000000E+04  0.30000000000E+03 0. -1.
     100001    1    1    2    0    0 -0.22172570339E+04  0.10518139446E+04  0.60170431627E+04  0.65000000000E+04  0.15050000000E+03 0.  1.
     100001    1    1    2    0    0  0.22172570339E+04 -0.10518139446E+04 -0.60170431627E+04  0.65000000000E+04  0.15050000000E+03 0. -1.
</event>
<event>
 4    1  0.4630618E-004  0.6500000E+04  0.7818608E-02  0.7223770E-01
         52   -1    0    0    0    0  0.00000000000E+00  0.00000000000E+00  0.64930732323E+04  0.65000000000E+04  0.30000000000E+03 0.  1.
        -52   -1    0    0    0    0 -0.00000000000E+00 -0.00000000000E+00 -0.64930732323E+04  0.65000000000E+04  0.30000000000E+03 0. -1.
     100001    1    1    2    0    0 -0.92606172064E+03  0.12664619861E+04  0.63060156579E+04  0.65000000000E+04  0.15050000000E+03 0.  1.
     100001    1    1    2    0    0  0.92606172064E+03 -0.12664619861E+04 -0.63060156579E+04  0.65000000000E+04  0.15050000000E+03 0. -1.
</event>
<event>
 4    1  0.4630618E-004  0.6500000E+04  0.7818608E-02  0.7223770E-01
         52   -1    0    0    0    0  0.00000000000E+00  0.00000000000E+00  0.64930732323E+04  0.65000000000E+04  0.30000000000E+03 0.  1.
        -52   -1    0    0    0    0 -0.00000000000E+00 -0.00000000000E+00 -0.64930732323E+04  0.65000000000E+04  0.30000000000E+03 0. -1.
     100001    1    1    2    0    0 -0.54170164005E+04  0.88518441912E+03  0.34784668478E+04  0.65000000000E+04  0.15050000000E+03 0.  1.
     100001    1    1    2    0    0  0.54170164005E+04 -0.88518441912E+03 -0.34784668478E+04  0.65000000000E+04  0.15050000000E+03 0. -1.
</event>
<event>
 4    1  0.4630618E-004  0.6500000E+04  0.7818608E-02  0.7223770E-01
         52   -1    0    0    0    0  0.00000000000E+00  0.00000000000E+00  0.64930732323E+04  0.65000000000E+04  0.30000000000E+03 0. -1.
        -52   -1    0    0    0    0 -0.00000000000E+00 -0.00000000000E+00 -0.64930732323E+04  0.65000000000E+04  0.30000000000E+03 0.  1.
     100001    1    1    2    0    0  0.87002105747E+02  0.13590728519E+04  0.63539516340E+04  0.65000000000E+04  0.15050000000E+03 0. -1.
     100001    1    1    2    0    0 -0.87002105747E+02 -0.13590728519E+04 -0.63539516340E+04  0.65000000000E+04  0.15050000000E+03 0.  1.
</event>
<event>
 4    1  0.4630618E-004  0.6500000E+04  0.7818608E-02  0.7223770E-01
         52   -1    0    0    0    0  0.00000000000E+00  0.00000000000E+00  0.64930732323E+04  0.65000000000E+04  0.30000000000E+03 0.  1.
        -52   -1    0    0    0    0 -0.00000000000E+00 -0.00000000000E+00 -0.64930732323E+04  0.65000000000E+04  0.30000000000E+03 0. -1.
     100001    1    1    2    0    0 -0.87398165618E+03  0.59371150152E+03  0.64117869949E+04  0.65000000000E+04  0.15050000000E+03 0.  1.
     100001    1    1    2    0    0  0.87398165618E+03 -0.59371150152E+03 -0.64117869949E+04  0.65000000000E+04  0.15050000000E+03 0. -1.
</event>
<event>
 4    1  0.4630618E-004  0.6500000E+04  0.7818608E-02  0.7223770E-01
         52   -1    0    0    0    0  0.00000000000E+00  0.00000000000E+00  0.64930732323E+04  0.65000000000E+04  0.30000000000E+03 0. -1.
        -52   -1    0    0    0    0 -0.00000000000E+00 -0.00000000000E+00 -0.64930732323E+04  0.65000000000E+04  0.30000000000E+03 0.  1.
     100001    1    1    2    0    0 -0.48057702016E+03  0.65290362091E+03  0.64474888398E+04  0.65000000000E+04  0.15050000000E+03 0. -1.
     100001    1    1    2    0    0  0.48057702016E+03 -0.65290362091E+03 -0.64474888398E+04  0.65000000000E+04  0.15050000000E+03 0.  1.
</event>
<event>
 4    1  0.4630618E-004  0.6500000E+04  0.7818608E-02  0.7223770E-01
         52   -1    0    0    0    0  0.00000000000E+00  0.00000000000E+00  0.64930732323E+04  0.65000000000E+04  0.30000000000E+03 0. -1.
        -52   -1    0    0    0    0 -0.00000000000E+00 -0.00000000000E+00 -0.64930732323E+04  0.65000000000E+04  0.30000000000E+03 0.  1.
     100001    1    1    2    0    0  0.15976079016E+04 -0.28007657180E+04  0.56418711556E+04  0.65000000000E+04  0.15050000000E+03 0. -1.
     100001    1    1    2    0    0 -0.15976079016E+04  0.28007657180E+04 -0.56418711556E+04  0.65000000000E+04  0.15050000000E+03 0.  1.
</event>
<event>
 4    1  0.4630618E-004  0.6500000E+04  0.7818608E-02  0.7223770E-01
         52   -1    0    0    0    0  0.00000000000E+00  0.00000000000E+00  0.64930732323E+04  0.65000000000E+04  0.30000000000E+03 0.  1.
        -52   -1    0    0    0    0 -0.00000000000E+00 -0.00000000000E+00 -0.64930732323E+04  0.65000000000E+04  0.30000000000E+03 0. -1.
     100001    1    1    2    0    0  0.26146252162E+03  0.10561390512E+04  0.64065245964E+04  0.65000000000E+04  0.15050000000E+03 0.  1.
     100001    1    1    2    0    0 -0.26146252162E+03 -0.10561390512E+04 -0.64065245964E+04  0.65000000000E+04  0.15050000000E+03 0. -1.
</event>
<event>
 4    1  0.4630618E-004  0.6500000E+04  0.7818608E-02  0.7223770E-01
         52   -1    0    0    0    0  0.00000000000E+00  0.00000000000E+00  0.64930732323E+04  0.65000000000E+04  0.30000000000E+03 0.  1.
        -52   -1    0    0    0    0 -0.00000000000E+00 -0.00000000000E+00 -0.64930732323E+04  0.65000000000E+04  0.30000000000E+03 0.  1.
     100001    1    1    2    0    0  0.29802423548E+03  0.43966254234E+03 -0.64765135802E+04  0.65000000000E+04  0.15050000000E+03 0.  1.
     100001    1    1    2    0    0 -0.29802423548E+03 -0.43966254234E+03  0.64765135802E+04  0.65000000000E+04  0.15050000000E+03 0.  1.
</event>
<event>
 4    1  0.4630618E-004  0.6500000E+04  0.7818608E-02  0.7223770E-01
         52   -1    0    0    0    0  0.00000000000E+00  0.00000000000E+00  0.64930732323E+04  0.65000000000E+04  0.30000000000E+03 0. -1.
        -52   -1    0    0    0    0 -0.00000000000E+00 -0.00000000000E+00 -0.64930732323E+04  0.65000000000E+04  0.30000000000E+03 0. -1.
     100001    1    1    2    0    0 -0.64314969633E+03  0.82056646972E+03  0.64140766200E+04  0.65000000000E+04  0.15050000000E+03 0. -1.
     100001    1    1    2    0    0  0.64314969633E+03 -0.82056646972E+03 -0.64140766200E+04  0.65000000000E+04  0.15050000000E+03 0. -1.
</event>
<event>
 4    1  0.4630618E-004  0.6500000E+04  0.7818608E-02  0.7223770E-01
         52   -1    0    0    0    0  0.00000000000E+00  0.00000000000E+00  0.64930732323E+04  0.65000000000E+04  0.30000000000E+03 0.  1.
        -52   -1    0    0    0    0 -0.00000000000E+00 -0.00000000000E+00 -0.64930732323E+04  0.65000000000E+04  0.30000000000E+03 0. -1.
     100001    1    1    2    0    0  0.10879331805E+03  0.52911972434E+03  0.64757660613E+04  0.65000000000E+04  0.15050000000E+03 0.  1.
     100001    1    1    2    0    0 -0.10879331805E+03 -0.52911972434E+03 -0.64757660613E+04  0.65000000000E+04  0.15050000000E+03 0. -1.
</event>
<event>
 4    1  0.4630618E-004  0.6500000E+04  0.7818608E-02  0.7223770E-01
         52   -1    0    0    0    0  0.00000000000E+00  0.00000000000E+00  0.64930732323E+04  0.65000000000E+04  0.30000000000E+03 0.  1.
        -52   -1    0    0    0    0 -0.00000000000E+00 -0.00000000000E+00 -0.64930732323E+04  0.65000000000E+04  0.30000000000E+03 0. -1.
     100001    1    1    2    0    0  0.39631437689E+04  0.15356369240E+04 -0.49155529145E+04  0.65000000000E+04  0.15050000000E+03 0. -1.
     100001    1    1    2    0    0 -0.39631437689E+04 -0.15356369240E+04  0.49155529145E+04  0.65000000000E+04  0.15050000000E+03 0.  1.
</event>
<event>
 4    1  0.4630618E-004  0.6500000E+04  0.7818608E-02  0.7223770E-01
         52   -1    0    0    0    0  0.00000000000E+00  0.00000000000E+00  0.64930732323E+04  0.65000000000E+04  0.30000000000E+03 0.  1.
        -52   -1    0    0    0    0 -0.00000000000E+00 -0.00000000000E+00 -0.64930732323E+04  0.65000000000E+04  0.30000000000E+03 0.  1.
     100001    1    1    2    0    0 -0.91775511848E+02  0.43862236777E+03 -0.64827877818E+04  0.65000000000E+04  0.15050000000E+03 0.  1.
     100001    1    1    2    0    0  0.91775511848E+02 -0.43862236777E+03  0.64827877818E+04  0.65000000000E+04  0.15050000000E+03 0.  1.
</event>
<event>
 4    1  0.4630618E-004  0.6500000E+04  0.7818608E-02  0.7223770E-01
         52   -1    0    0    0    0  0.00000000000E+00  0.00000000000E+00  0.64930732323E+04  0.65000000000E+04  0.30000000000E+03 0.  1.
        -52   -1    0    0    0    0 -0.00000000000E+00 -0.00000000000E+00 -0.64930732323E+04  0.65000000000E+04  0.30000000000E+03 0. -1.
     100001    1    1    2    0    0 -0.60403213123E+02 -0.42742023692E+03 -0.64839041590E+04  0.65000000000E+04  0.15050000000E+03 0. -1.
     100001    1    1    2    0    0  0.60403213123E+02  0.42742023692E+03  0.64839041590E+04  0.65000000000E+04  0.15050000000E+03 0.  1.
</event>
<event>
 4    1  0.4630618E-004  0.6500000E+04  0.7818608E-02  0.7223770E-01
         52   -1    0    0    0    0  0.00000000000E+00  0.00000000000E+00  0.64930732323E+04  0.65000000000E+04  0.30000000000E+03 0.  1.
        -52   -1    0    0    0    0 -0.00000000000E+00 -0.00000000000E+00 -0.64930732323E+04  0.65000000000E+04  0.30000000000E+03 0. -1.
     100001    1    1    2    0    0 -0.88485505559E+03 -0.30968241639E+03 -0.64302782274E+04  0.65000000000E+04  0.15050000000E+03 0. -1.
     100001    1    1    2    0    0  0.88485505559E+03  0.30968241639E+03  0.64302782274E+04  0.65000000000E+04  0.15050000000E+03 0.  1.
</event>
<event>
 4    1  0.4630618E-004  0.6500000E+04  0.7818608E-02  0.7223770E-01
         52   -1    0    0    0    0  0.00000000000E+00  0.00000000000E+00  0.64930732323E+04  0.65000000000E+04  0.30000000000E+03 0.  1.
        -52   -1    0    0    0    0 -0.00000000000E+00 -0.00000000000E+00 -0.64930732323E+04  0.65000000000E+04  0.30000000000E+03 0. -1.
     100001    1    1    2    0    0  0.97029301524E+03  0.82396317575E+02 -0.64248807041E+04  0.65000000000E+04  0.15050000000E+03 0. -1.
     100001    1    1    2    0    0 -0.97029301524E+03 -0.82396317575E+02  0.64248807041E+04  0.65000000000E+04  0.15050000000E+03 0.  1.
</event>
<event>
 4    1  0.4630618E-004  0.6500000E+04  0.7818608E-02  0.7223770E-01
         52   -1    0    0    0    0  0.00000000000E+00  0.00000000000E+00  0.64930732323E+04  0.65000000000E+04  0.30000000000E+03 0. -1.
        -52   -1    0    0    0    0 -0.00000000000E+00 -0.00000000000E+00 -0.64930732323E+04  0.65000000000E+04  0.30000000000E+03 0.  1.
     100001    1    1    2    0    0 -0.19615944647E+04 -0.54610746614E+04 -0.29250915283E+04  0.65000000000E+04  0.15050000000E+03 0. -1.
     100001    1    1    2    0    0  0.19615944647E+04  0.54610746614E+04  0.29250915283E+04  0.65000000000E+04  0.15050000000E+03 0.  1.
</event>
<event>
 4    1  0.4630618E-004  0.6500000E+04  0.7818608E-02  0.7223770E-01
         52   -1    0    0    0    0  0.00000000000E+00  0.00000000000E+00  0.64930732323E+04  0.65000000000E+04  0.30000000000E+03 0. -1.
        -52   -1    0    0    0    0 -0.00000000000E+00 -0.00000000000E+00 -0.64930732323E+04  0.65000000000E+04  0.30000000000E+03 0. -1.
     100001    1    1    2    0    0  0.23494906819E+03 -0.19804679919E+03  0.64909880720E+04  0.65000000000E+04  0.15050000000E+03 0. -1.
     100001    1    1    2    0    0 -0.23494906819E+03  0.19804679919E+03 -0.64909880720E+04  0.65000000000E+04  0.15050000000E+03 0. -1.
</event>
<event>
 4    1  0.4630618E-004  0.6500000E+04  0.7818608E-02  0.7223770E-01
         52   -1    0    0    0    0  0.00000000000E+00  0.00000000000E+00  0.64930732323E+04  0.65000000000E+04  0.30000000000E+03 0.  1.
        -52   -1    0    0    0    0 -0.00000000000E+00 -0.00000000000E+00 -0.64930732323E+04  0.65000000000E+04  0.30000000000E+03 0. -1.
     100001    1    1    2    0    0  0.41806230209E+03  0.73261736301E+03 -0.64432790923E+04  0.65000000000E+04  0.15050000000E+03 0. -1.
     100001    1    1    2    0    0 -0.41806230209E+03 -0.73261736301E+03  0.64432790923E+04  0.65000000000E+04  0.15050000000E+03 0.  1.
</event>
<event>
 4    1  0.4630618E-004  0.6500000E+04  0.7818608E-02  0.7223770E-01
         52   -1    0    0    0    0  0.00000000000E+00  0.00000000000E+00  0.64930732323E+04  0.65000000000E+04  0.30000000000E+03 0.  1.
        -52   -1    0    0    0    0 -0.00000000000E+00 -0.00000000000E+00 -0.64930732323E+04  0.65000000000E+04  0.30000000000E+03 0. -1.
     100001    1    1    2    0    0 -0.49559781970E+02  0.28749720098E+03  0.64917053952E+04  0.65000000000E+04  0.15050000000E+03 0.  1.
     100001    1    1    2    0    0  0.49559781970E+02 -0.28749720098E+03 -0.64917053952E+04  0.65000000000E+04  0.15050000000E+03 0. -1.
</event>
<event>
 4    1  0.4630618E-004  0.6500000E+04  0.7818608E-02  0.7223770E-01
         52   -1    0    0    0    0  0.00000000000E+00  0.00000000000E+00  0.64930732323E+04  0.65000000000E+04  0.30000000000E+03 0.  1.
        -52   -1    0    0    0    0 -0.00000000000E+00 -0.00000000000E+00 -0.64930732323E+04  0.65000000000E+04  0.30000000000E+03 0. -1.
     100001    1    1    2    0    0 -0.20788897489E+04 -0.11393700727E+04 -0.60504051930E+04  0.65000000000E+04  0.15050000000E+03 0. -1.
     100001    1    1    2    0    0  0.20788897489E+04  0.11393700727E+04  0.60504051930E+04  0.65000000000E+04  0.15050000000E+03 0.  1.
</event>
<event>
 4    1  0.4630618E-004  0.6500000E+04  0.7818608E-02  0.7223770E-01
         52   -1    0    0    0    0  0.00000000000E+00  0.00000000000E+00  0.64930732323E+04  0.65000000000E+04  0.30000000000E+03 0. -1.
        -52   -1    0    0    0    0 -0.00000000000E+00 -0.00000000000E+00 -0.64930732323E+04  0.65000000000E+04  0.30000000000E+03 0.  1.
     100001    1    1    2    0    0  0.21292534952E+04  0.59523432857E+04  0.15044064319E+04  0.65000000000E+04  0.15050000000E+03 0. -1.
     100001    1    1    2    0    0 -0.21292534952E+04 -0.59523432857E+04 -0.15044064319E+04  0.65000000000E+04  0.15050000000E+03 0.  1.
</event>
<event>
 4    1  0.4630618E-004  0.6500000E+04  0.7818608E-02  0.7223770E-01
         52   -1    0    0    0    0  0.00000000000E+00  0.00000000000E+00  0.64930732323E+04  0.65000000000E+04  0.30000000000E+03 0.  1.
        -52   -1    0    0    0    0 -0.00000000000E+00 -0.00000000000E+00 -0.64930732323E+04  0.65000000000E+04  0.30000000000E+03 0. -1.
     100001    1    1    2    0    0 -0.43771521230E+04  0.47840404983E+04  0.42525939513E+03  0.65000000000E+04  0.15050000000E+03 0. -1.
     100001    1    1    2    0    0  0.43771521230E+04 -0.47840404983E+04 -0.42525939513E+03  0.65000000000E+04  0.15050000000E+03 0.  1.
</event>
<event>
 4    1  0.4630618E-004  0.6500000E+04  0.7818608E-02  0.7223770E-01
         52   -1    0    0    0    0  0.00000000000E+00  0.00000000000E+00  0.64930732323E+04  0.65000000000E+04  0.30000000000E+03 0. -1.
        -52   -1    0    0    0    0 -0.00000000000E+00 -0.00000000000E+00 -0.64930732323E+04  0.65000000000E+04  0.30000000000E+03 0.  1.
     100001    1    1    2    0    0 -0.85824282497E+03 -0.61213492493E+03  0.64121805836E+04  0.65000000000E+04  0.15050000000E+03 0. -1.
     100001    1    1    2    0    0  0.85824282497E+03  0.61213492493E+03 -0.64121805836E+04  0.65000000000E+04  0.15050000000E+03 0.  1.
</event>
<event>
 4    1  0.4630618E-004  0.6500000E+04  0.7818608E-02  0.7223770E-01
         52   -1    0    0    0    0  0.00000000000E+00  0.00000000000E+00  0.64930732323E+04  0.65000000000E+04  0.30000000000E+03 0. -1.
        -52   -1    0    0    0    0 -0.00000000000E+00 -0.00000000000E+00 -0.64930732323E+04  0.65000000000E+04  0.30000000000E+03 0.  1.
     100001    1    1    2    0    0 -0.28351387145E+04  0.57092047407E+04 -0.12626636324E+04  0.65000000000E+04  0.15050000000E+03 0.  1.
     100001    1    1    2    0    0  0.28351387145E+04 -0.57092047407E+04  0.12626636324E+04  0.65000000000E+04  0.15050000000E+03 0. -1.
</event>
<event>
 4    1  0.4630618E-004  0.6500000E+04  0.7818608E-02  0.7223770E-01
         52   -1    0    0    0    0  0.00000000000E+00  0.00000000000E+00  0.64930732323E+04  0.65000000000E+04  0.30000000000E+03 0. -1.
        -52   -1    0    0    0    0 -0.00000000000E+00 -0.00000000000E+00 -0.64930732323E+04  0.65000000000E+04  0.30000000000E+03 0.  1.
     100001    1    1    2    0    0 -0.75245509880E+03  0.38384791399E+03  0.64431220579E+04  0.65000000000E+04  0.15050000000E+03 0. -1.
     100001    1    1    2    0    0  0.75245509880E+03 -0.38384791399E+03 -0.64431220579E+04  0.65000000000E+04  0.15050000000E+03 0.  1.
</event>
<event>
 4    1  0.4630618E-004  0.6500000E+04  0.7818608E-02  0.7223770E-01
         52   -1    0    0    0    0  0.00000000000E+00  0.00000000000E+00  0.64930732323E+04  0.65000000000E+04  0.30000000000E+03 0.  1.
        -52   -1    0    0    0    0 -0.00000000000E+00 -0.00000000000E+00 -0.64930732323E+04  0.65000000000E+04  0.30000000000E+03 0.  1.
     100001    1    1    2    0    0 -0.20095303316E+03  0.20429552035E+03 -0.64919358414E+04  0.65000000000E+04  0.15050000000E+03 0.  1.
     100001    1    1    2    0    0  0.20095303316E+03 -0.20429552035E+03  0.64919358414E+04  0.65000000000E+04  0.15050000000E+03 0.  1.
</event>
<event>
 4    1  0.4630618E-004  0.6500000E+04  0.7818608E-02  0.7223770E-01
         52   -1    0    0    0    0  0.00000000000E+00  0.00000000000E+00  0.64930732323E+04  0.65000000000E+04  0.30000000000E+03 0. -1.
        -52   -1    0    0    0    0 -0.00000000000E+00 -0.00000000000E+00 -0.64930732323E+04  0.65000000000E+04  0.30000000000E+03 0.  1.
     100001    1    1    2    0    0 -0.73913422424E+03  0.25515086268E+04  0.59305003226E+04  0.65000000000E+04  0.15050000000E+03 0. -1.
     100001    1    1    2    0    0  0.73913422424E+03 -0.25515086268E+04 -0.59305003226E+04  0.65000000000E+04  0.15050000000E+03 0.  1.
</event>
<event>
 4    1  0.4630618E-004  0.6500000E+04  0.7818608E-02  0.7223770E-01
         52   -1    0    0    0    0  0.00000000000E+00  0.00000000000E+00  0.64930732323E+04  0.65000000000E+04  0.30000000000E+03 0.  1.
        -52   -1    0    0    0    0 -0.00000000000E+00 -0.00000000000E+00 -0.64930732323E+04  0.65000000000E+04  0.30000000000E+03 0. -1.
     100001    1    1    2    0    0  0.27601500142E+04  0.20956968822E+04  0.54969970190E+04  0.65000000000E+04  0.15050000000E+03 0.  1.
     100001    1    1    2    0    0 -0.27601500142E+04 -0.20956968822E+04 -0.54969970190E+04  0.65000000000E+04  0.15050000000E+03 0. -1.
</event>
<event>
 4    1  0.4630618E-004  0.6500000E+04  0.7818608E-02  0.7223770E-01
         52   -1    0    0    0    0  0.00000000000E+00  0.00000000000E+00  0.64930732323E+04  0.65000000000E+04  0.30000000000E+03 0. -1.
        -52   -1    0    0    0    0 -0.00000000000E+00 -0.00000000000E+00 -0.64930732323E+04  0.65000000000E+04  0.30000000000E+03 0.  1.
     100001    1    1    2    0    0 -0.35675078315E+03  0.68098008518E+03  0.64526230908E+04  0.65000000000E+04  0.15050000000E+03 0. -1.
     100001    1    1    2    0    0  0.35675078315E+03 -0.68098008518E+03 -0.64526230908E+04  0.65000000000E+04  0.15050000000E+03 0.  1.
</event>
<event>
 4    1  0.4630618E-004  0.6500000E+04  0.7818608E-02  0.7223770E-01
         52   -1    0    0    0    0  0.00000000000E+00  0.00000000000E+00  0.64930732323E+04  0.65000000000E+04  0.30000000000E+03 0. -1.
        -52   -1    0    0    0    0 -0.00000000000E+00 -0.00000000000E+00 -0.64930732323E+04  0.65000000000E+04  0.30000000000E+03 0.  1.
     100001    1    1    2    0    0 -0.33066670920E+04  0.17285790955E+04  0.53202741286E+04  0.65000000000E+04  0.15050000000E+03 0. -1.
     100001    1    1    2    0    0  0.33066670920E+04 -0.17285790955E+04 -0.53202741286E+04  0.65000000000E+04  0.15050000000E+03 0.  1.
</event>
<event>
 4    1  0.4630618E-004  0.6500000E+04  0.7818608E-02  0.7223770E-01
         52   -1    0    0    0    0  0.00000000000E+00  0.00000000000E+00  0.64930732323E+04  0.65000000000E+04  0.30000000000E+03 0.  1.
        -52   -1    0    0    0    0 -0.00000000000E+00 -0.00000000000E+00 -0.64930732323E+04  0.65000000000E+04  0.30000000000E+03 0. -1.
     100001    1    1    2    0    0  0.56217192145E+03  0.46994808956E+03 -0.64568151030E+04  0.65000000000E+04  0.15050000000E+03 0. -1.
     100001    1    1    2    0    0 -0.56217192145E+03 -0.46994808956E+03  0.64568151030E+04  0.65000000000E+04  0.15050000000E+03 0.  1.
</event>
<event>
 4    1  0.4630618E-004  0.6500000E+04  0.7818608E-02  0.7223770E-01
         52   -1    0    0    0    0  0.00000000000E+00  0.00000000000E+00  0.64930732323E+04  0.65000000000E+04  0.30000000000E+03 0.  1.
        -52   -1    0    0    0    0 -0.00000000000E+00 -0.00000000000E+00 -0.64930732323E+04  0.65000000000E+04  0.30000000000E+03 0. -1.
     100001    1    1    2    0    0  0.13428884808E+04  0.25106867027E+04 -0.58412714848E+04  0.65000000000E+04  0.15050000000E+03 0. -1.
     100001    1    1    2    0    0 -0.13428884808E+04 -0.25106867027E+04  0.58412714848E+04  0.65000000000E+04  0.15050000000E+03 0.  1.
</event>
<event>
 4    1  0.4630618E-004  0.6500000E+04  0.7818608E-02  0.7223770E-01
         52   -1    0    0    0    0  0.00000000000E+00  0.00000000000E+00  0.64930732323E+04  0.65000000000E+04  0.30000000000E+03 0. -1.
        -52   -1    0    0    0    0 -0.00000000000E+00 -0.00000000000E+00 -0.64930732323E+04  0.65000000000E+04  0.30000000000E+03 0.  1.
     100001    1    1    2    0    0 -0.43258572707E+04 -0.45927402857E+04 -0.15559708519E+04  0.65000000000E+04  0.15050000000E+03 0. -1.
     100001    1    1    2    0    0  0.43258572707E+04  0.45927402857E+04  0.15559708519E+04  0.65000000000E+04  0.15050000000E+03 0.  1.
</event>
<event>
 4    1  0.4630618E-004  0.6500000E+04  0.7818608E-02  0.7223770E-01
         52   -1    0    0    0    0  0.00000000000E+00  0.00000000000E+00  0.64930732323E+04  0.65000000000E+04  0.30000000000E+03 0.  1.
        -52   -1    0    0    0    0 -0.00000000000E+00 -0.00000000000E+00 -0.64930732323E+04  0.65000000000E+04  0.30000000000E+03 0.  1.
     100001    1    1    2    0    0 -0.87602779527E+02 -0.56168981288E+02  0.64974241472E+04  0.65000000000E+04  0.15050000000E+03 0.  1.
     100001    1    1    2    0    0  0.87602779527E+02  0.56168981288E+02 -0.64974241472E+04  0.65000000000E+04  0.15050000000E+03 0.  1.
</event>
<event>
 4    1  0.4630618E-004  0.6500000E+04  0.7818608E-02  0.7223770E-01
         52   -1    0    0    0    0  0.00000000000E+00  0.00000000000E+00  0.64930732323E+04  0.65000000000E+04  0.30000000000E+03 0.  1.
        -52   -1    0    0    0    0 -0.00000000000E+00 -0.00000000000E+00 -0.64930732323E+04  0.65000000000E+04  0.30000000000E+03 0. -1.
     100001    1    1    2    0    0  0.26153903537E+04  0.78424540774E+03  0.58967823589E+04  0.65000000000E+04  0.15050000000E+03 0.  1.
     100001    1    1    2    0    0 -0.26153903537E+04 -0.78424540774E+03 -0.58967823589E+04  0.65000000000E+04  0.15050000000E+03 0. -1.
</event>
<event>
 4    1  0.4630618E-004  0.6500000E+04  0.7818608E-02  0.7223770E-01
         52   -1    0    0    0    0  0.00000000000E+00  0.00000000000E+00  0.64930732323E+04  0.65000000000E+04  0.30000000000E+03 0.  1.
        -52   -1    0    0    0    0 -0.00000000000E+00 -0.00000000000E+00 -0.64930732323E+04  0.65000000000E+04  0.30000000000E+03 0.  1.
     100001    1    1    2    0    0  0.91404820820E+02 -0.25712747004E+03 -0.64925249613E+04  0.65000000000E+04  0.15050000000E+03 0.  1.
     100001    1    1    2    0    0 -0.91404820820E+02  0.25712747004E+03  0.64925249613E+04  0.65000000000E+04  0.15050000000E+03 0.  1.
</event>
<event>
 4    1  0.4630618E-004  0.6500000E+04  0.7818608E-02  0.7223770E-01
         52   -1    0    0    0    0  0.00000000000E+00  0.00000000000E+00  0.64930732323E+04  0.65000000000E+04  0.30000000000E+03 0. -1.
        -52   -1    0    0    0    0 -0.00000000000E+00 -0.00000000000E+00 -0.64930732323E+04  0.65000000000E+04  0.30000000000E+03 0.  1.
     100001    1    1    2    0    0 -0.12329754730E+03 -0.27249480330E+03  0.64913707371E+04  0.65000000000E+04  0.15050000000E+03 0. -1.
     100001    1    1    2    0    0  0.12329754730E+03  0.27249480330E+03 -0.64913707371E+04  0.65000000000E+04  0.15050000000E+03 0.  1.
</event>
<event>
 4    1  0.4630618E-004  0.6500000E+04  0.7818608E-02  0.7223770E-01
         52   -1    0    0    0    0  0.00000000000E+00  0.00000000000E+00  0.64930732323E+04  0.65000000000E+04  0.30000000000E+03 0.  1.
        -52   -1    0    0    0    0 -0.00000000000E+00 -0.00000000000E+00 -0.64930732323E+04  0.65000000000E+04  0.30000000000E+03 0.  1.
     100001    1    1    2    0    0 -0.33654261833E+03 -0.99668072053E+02  0.64887714624E+04  0.65000000000E+04  0.15050000000E+03 0.  1.
     100001    1    1    2    0    0  0.33654261833E+03  0.99668072053E+02 -0.64887714624E+04  0.65000000000E+04  0.15050000000E+03 0.  1.
</event>
<event>
 4    1  0.4630618E-004  0.6500000E+04  0.7818608E-02  0.7223770E-01
         52   -1    0    0    0    0  0.00000000000E+00  0.00000000000E+00  0.64930732323E+04  0.65000000000E+04  0.30000000000E+03 0.  1.
        -52   -1    0    0    0    0 -0.00000000000E+00 -0.00000000000E+00 -0.64930732323E+04  0.65000000000E+04  0.30000000000E+03 0. -1.
     100001    1    1    2    0    0  0.15233719073E+04 -0.71852782798E+03 -0.62761776220E+04  0.65000000000E+04  0.15050000000E+03 0. -1.
     100001    1    1    2    0    0 -0.15233719073E+04  0.71852782798E+03  0.62761776220E+04  0.65000000000E+04  0.15050000000E+03 0.  1.
</event>
<event>
 4    1  0.4630618E-004  0.6500000E+04  0.7818608E-02  0.7223770E-01
         52   -1    0    0    0    0  0.00000000000E+00  0.00000000000E+00  0.64930732323E+04  0.65000000000E+04  0.30000000000E+03 0. -1.
        -52   -1    0    0    0    0 -0.00000000000E+00 -0.00000000000E+00 -0.64930732323E+04  0.65000000000E+04  0.30000000000E+03 0.  1.
     100001    1    1    2    0    0  0.32514150379E+03  0.27594706493E+04 -0.58742620377E+04  0.65000000000E+04  0.15050000000E+03 0.  1.
     100001    1    1    2    0    0 -0.32514150379E+03 -0.27594706493E+04  0.58742620377E+04  0.65000000000E+04  0.15050000000E+03 0. -1.
</event>
<event>
 4    1  0.4630618E-004  0.6500000E+04  0.7818608E-02  0.7223770E-01
         52   -1    0    0    0    0  0.00000000000E+00  0.00000000000E+00  0.64930732323E+04  0.65000000000E+04  0.30000000000E+03 0.  1.
        -52   -1    0    0    0    0 -0.00000000000E+00 -0.00000000000E+00 -0.64930732323E+04  0.65000000000E+04  0.30000000000E+03 0.  1.
     100001    1    1    2    0    0 -0.38942606494E+03 -0.12764589513E+04  0.63597444631E+04  0.65000000000E+04  0.15050000000E+03 0.  1.
     100001    1    1    2    0    0  0.38942606494E+03  0.12764589513E+04 -0.63597444631E+04  0.65000000000E+04  0.15050000000E+03 0.  1.
</event>
<event>
 4    1  0.4630618E-004  0.6500000E+04  0.7818608E-02  0.7223770E-01
         52   -1    0    0    0    0  0.00000000000E+00  0.00000000000E+00  0.64930732323E+04  0.65000000000E+04  0.30000000000E+03 0.  1.
        -52   -1    0    0    0    0 -0.00000000000E+00 -0.00000000000E+00 -0.64930732323E+04  0.65000000000E+04  0.30000000000E+03 0. -1.
     100001    1    1    2    0    0 -0.23429420769E+04 -0.81706152408E+03  0.60058623561E+04  0.65000000000E+04  0.15050000000E+03 0.  1.
     100001    1    1    2    0    0  0.23429420769E+04  0.81706152408E+03 -0.60058623561E+04  0.65000000000E+04  0.15050000000E+03 0. -1.
</event>
<event>
 4    1  0.4630618E-004  0.6500000E+04  0.7818608E-02  0.7223770E-01
         52   -1    0    0    0    0  0.00000000000E+00  0.00000000000E+00  0.64930732323E+04  0.65000000000E+04  0.30000000000E+03 0. -1.
        -52   -1    0    0    0    0 -0.00000000000E+00 -0.00000000000E+00 -0.64930732323E+04  0.65000000000E+04  0.30000000000E+03 0.  1.
     100001    1    1    2    0    0  0.95856475460E+03 -0.84017487073E+03  0.63720176983E+04  0.65000000000E+04  0.15050000000E+03 0. -1.
     100001    1    1    2    0    0 -0.95856475460E+03  0.84017487073E+03 -0.63720176983E+04  0.65000000000E+04  0.15050000000E+03 0.  1.
</event>
<event>
 4    1  0.4630618E-004  0.6500000E+04  0.7818608E-02  0.7223770E-01
         52   -1    0    0    0    0  0.00000000000E+00  0.00000000000E+00  0.64930732323E+04  0.65000000000E+04  0.30000000000E+03 0. -1.
        -52   -1    0    0    0    0 -0.00000000000E+00 -0.00000000000E+00 -0.64930732323E+04  0.65000000000E+04  0.30000000000E+03 0.  1.
     100001    1    1    2    0    0  0.11332095341E+04  0.22563139938E+03  0.63947069029E+04  0.65000000000E+04  0.15050000000E+03 0. -1.
     100001    1    1    2    0    0 -0.11332095341E+04 -0.22563139938E+03 -0.63947069029E+04  0.65000000000E+04  0.15050000000E+03 0.  1.
</event>
<event>
 4    1  0.4630618E-004  0.6500000E+04  0.7818608E-02  0.7223770E-01
         52   -1    0    0    0    0  0.00000000000E+00  0.00000000000E+00  0.64930732323E+04  0.65000000000E+04  0.30000000000E+03 0. -1.
        -52   -1    0    0    0    0 -0.00000000000E+00 -0.00000000000E+00 -0.64930732323E+04  0.65000000000E+04  0.30000000000E+03 0.  1.
     100001    1    1    2    0    0 -0.54221119763E+04 -0.13836091545E+03 -0.35789534398E+04  0.65000000000E+04  0.15050000000E+03 0.  1.
     100001    1    1    2    0    0  0.54221119763E+04  0.13836091545E+03  0.35789534398E+04  0.65000000000E+04  0.15050000000E+03 0. -1.
</event>
<event>
 4    1  0.4630618E-004  0.6500000E+04  0.7818608E-02  0.7223770E-01
         52   -1    0    0    0    0  0.00000000000E+00  0.00000000000E+00  0.64930732323E+04  0.65000000000E+04  0.30000000000E+03 0. -1.
        -52   -1    0    0    0    0 -0.00000000000E+00 -0.00000000000E+00 -0.64930732323E+04  0.65000000000E+04  0.30000000000E+03 0.  1.
     100001    1    1    2    0    0  0.14622121387E+04  0.15434564198E+03 -0.63297284961E+04  0.65000000000E+04  0.15050000000E+03 0.  1.
     100001    1    1    2    0    0 -0.14622121387E+04 -0.15434564198E+03  0.63297284961E+04  0.65000000000E+04  0.15050000000E+03 0. -1.
</event>
<event>
 4    1  0.4630618E-004  0.6500000E+04  0.7818608E-02  0.7223770E-01
         52   -1    0    0    0    0  0.00000000000E+00  0.00000000000E+00  0.64930732323E+04  0.65000000000E+04  0.30000000000E+03 0.  1.
        -52   -1    0    0    0    0 -0.00000000000E+00 -0.00000000000E+00 -0.64930732323E+04  0.65000000000E+04  0.30000000000E+03 0.  1.
     100001    1    1    2    0    0  0.19239351535E+03  0.41245422053E+03  0.64823002091E+04  0.65000000000E+04  0.15050000000E+03 0.  1.
     100001    1    1    2    0    0 -0.19239351535E+03 -0.41245422053E+03 -0.64823002091E+04  0.65000000000E+04  0.15050000000E+03 0.  1.
</event>
<event>
 4    1  0.4630618E-004  0.6500000E+04  0.7818608E-02  0.7223770E-01
         52   -1    0    0    0    0  0.00000000000E+00  0.00000000000E+00  0.64930732323E+04  0.65000000000E+04  0.30000000000E+03 0. -1.
        -52   -1    0    0    0    0 -0.00000000000E+00 -0.00000000000E+00 -0.64930732323E+04  0.65000000000E+04  0.30000000000E+03 0.  1.
     100001    1    1    2    0    0  0.24473620811E+04 -0.73472997437E+02 -0.60193330455E+04  0.65000000000E+04  0.15050000000E+03 0.  1.
     100001    1    1    2    0    0 -0.24473620811E+04  0.73472997437E+02  0.60193330455E+04  0.65000000000E+04  0.15050000000E+03 0. -1.
</event>
<event>
 4    1  0.4630618E-004  0.6500000E+04  0.7818608E-02  0.7223770E-01
         52   -1    0    0    0    0  0.00000000000E+00  0.00000000000E+00  0.64930732323E+04  0.65000000000E+04  0.30000000000E+03 0.  1.
        -52   -1    0    0    0    0 -0.00000000000E+00 -0.00000000000E+00 -0.64930732323E+04  0.65000000000E+04  0.30000000000E+03 0. -1.
     100001    1    1    2    0    0  0.43020524160E+04  0.10072260767E+04  0.47649963684E+04  0.65000000000E+04  0.15050000000E+03 0.  1.
     100001    1    1    2    0    0 -0.43020524160E+04 -0.10072260767E+04 -0.47649963684E+04  0.65000000000E+04  0.15050000000E+03 0. -1.
</event>
<event>
 4    1  0.4630618E-004  0.6500000E+04  0.7818608E-02  0.7223770E-01
         52   -1    0    0    0    0  0.00000000000E+00  0.00000000000E+00  0.64930732323E+04  0.65000000000E+04  0.30000000000E+03 0.  1.
        -52   -1    0    0    0    0 -0.00000000000E+00 -0.00000000000E+00 -0.64930732323E+04  0.65000000000E+04  0.30000000000E+03 0.  1.
     100001    1    1    2    0    0  0.10084082381E+03 -0.90952439605E+02 -0.64968383489E+04  0.65000000000E+04  0.15050000000E+03 0.  1.
     100001    1    1    2    0    0 -0.10084082381E+03  0.90952439605E+02  0.64968383489E+04  0.65000000000E+04  0.15050000000E+03 0.  1.
</event>
<event>
 4    1  0.4630618E-004  0.6500000E+04  0.7818608E-02  0.7223770E-01
         52   -1    0    0    0    0  0.00000000000E+00  0.00000000000E+00  0.64930732323E+04  0.65000000000E+04  0.30000000000E+03 0. -1.
        -52   -1    0    0    0    0 -0.00000000000E+00 -0.00000000000E+00 -0.64930732323E+04  0.65000000000E+04  0.30000000000E+03 0.  1.
     100001    1    1    2    0    0  0.24362705102E+04 -0.44631374247E+04  0.40462748398E+04  0.65000000000E+04  0.15050000000E+03 0. -1.
     100001    1    1    2    0    0 -0.24362705102E+04  0.44631374247E+04 -0.40462748398E+04  0.65000000000E+04  0.15050000000E+03 0.  1.
</event>
<event>
 4    1  0.4630618E-004  0.6500000E+04  0.7818608E-02  0.7223770E-01
         52   -1    0    0    0    0  0.00000000000E+00  0.00000000000E+00  0.64930732323E+04  0.65000000000E+04  0.30000000000E+03 0. -1.
        -52   -1    0    0    0    0 -0.00000000000E+00 -0.00000000000E+00 -0.64930732323E+04  0.65000000000E+04  0.30000000000E+03 0.  1.
     100001    1    1    2    0    0  0.28649474510E+04 -0.19281633821E+04  0.55046899845E+04  0.65000000000E+04  0.15050000000E+03 0. -1.
     100001    1    1    2    0    0 -0.28649474510E+04  0.19281633821E+04 -0.55046899845E+04  0.65000000000E+04  0.15050000000E+03 0.  1.
</event>
<event>
 4    1  0.4630618E-004  0.6500000E+04  0.7818608E-02  0.7223770E-01
         52   -1    0    0    0    0  0.00000000000E+00  0.00000000000E+00  0.64930732323E+04  0.65000000000E+04  0.30000000000E+03 0.  1.
        -52   -1    0    0    0    0 -0.00000000000E+00 -0.00000000000E+00 -0.64930732323E+04  0.65000000000E+04  0.30000000000E+03 0. -1.
     100001    1    1    2    0    0 -0.40211934387E+03 -0.41709111309E+03 -0.64723786035E+04  0.65000000000E+04  0.15050000000E+03 0. -1.
     100001    1    1    2    0    0  0.40211934387E+03  0.41709111309E+03  0.64723786035E+04  0.65000000000E+04  0.15050000000E+03 0.  1.
</event>
<event>
 4    1  0.4630618E-004  0.6500000E+04  0.7818608E-02  0.7223770E-01
         52   -1    0    0    0    0  0.00000000000E+00  0.00000000000E+00  0.64930732323E+04  0.65000000000E+04  0.30000000000E+03 0. -1.
        -52   -1    0    0    0    0 -0.00000000000E+00 -0.00000000000E+00 -0.64930732323E+04  0.65000000000E+04  0.30000000000E+03 0.  1.
     100001    1    1    2    0    0  0.24757772569E+04  0.22543037189E+04  0.55692002538E+04  0.65000000000E+04  0.15050000000E+03 0. -1.
     100001    1    1    2    0    0 -0.24757772569E+04 -0.22543037189E+04 -0.55692002538E+04  0.65000000000E+04  0.15050000000E+03 0.  1.
</event>
<event>
 4    1  0.4630618E-004  0.6500000E+04  0.7818608E-02  0.7223770E-01
         52   -1    0    0    0    0  0.00000000000E+00  0.00000000000E+00  0.64930732323E+04  0.65000000000E+04  0.30000000000E+03 0.  1.
        -52   -1    0    0    0    0 -0.00000000000E+00 -0.00000000000E+00 -0.64930732323E+04  0.65000000000E+04  0.30000000000E+03 0. -1.
     100001    1    1    2    0    0 -0.11382692408E+04 -0.14689501149E+04 -0.62268674665E+04  0.65000000000E+04  0.15050000000E+03 0. -1.
     100001    1    1    2    0    0  0.11382692408E+04  0.14689501149E+04  0.62268674665E+04  0.65000000000E+04  0.15050000000E+03 0.  1.
</event>
<event>
 4    1  0.4630618E-004  0.6500000E+04  0.7818608E-02  0.7223770E-01
         52   -1    0    0    0    0  0.00000000000E+00  0.00000000000E+00  0.64930732323E+04  0.65000000000E+04  0.30000000000E+03 0.  1.
        -52   -1    0    0    0    0 -0.00000000000E+00 -0.00000000000E+00 -0.64930732323E+04  0.65000000000E+04  0.30000000000E+03 0. -1.
     100001    1    1    2    0    0 -0.27635392143E+03  0.53725892632E+03  0.64701105946E+04  0.65000000000E+04  0.15050000000E+03 0.  1.
     100001    1    1    2    0    0  0.27635392143E+03 -0.53725892632E+03 -0.64701105946E+04  0.65000000000E+04  0.15050000000E+03 0. -1.
</event>
<event>
 4    1  0.4630618E-004  0.6500000E+04  0.7818608E-02  0.7223770E-01
         52   -1    0    0    0    0  0.00000000000E+00  0.00000000000E+00  0.64930732323E+04  0.65000000000E+04  0.30000000000E+03 0.  1.
        -52   -1    0    0    0    0 -0.00000000000E+00 -0.00000000000E+00 -0.64930732323E+04  0.65000000000E+04  0.30000000000E+03 0. -1.
     100001    1    1    2    0    0 -0.76928369993E+03  0.17088443663E+04 -0.62221703023E+04  0.65000000000E+04  0.15050000000E+03 0. -1.
     100001    1    1    2    0    0  0.76928369993E+03 -0.17088443663E+04  0.62221703023E+04  0.65000000000E+04  0.15050000000E+03 0.  1.
</event>
<event>
 4    1  0.4630618E-004  0.6500000E+04  0.7818608E-02  0.7223770E-01
         52   -1    0    0    0    0  0.00000000000E+00  0.00000000000E+00  0.64930732323E+04  0.65000000000E+04  0.30000000000E+03 0. -1.
        -52   -1    0    0    0    0 -0.00000000000E+00 -0.00000000000E+00 -0.64930732323E+04  0.65000000000E+04  0.30000000000E+03 0.  1.
     100001    1    1    2    0    0 -0.25193713933E+04  0.28105186838E+04 -0.52897166522E+04  0.65000000000E+04  0.15050000000E+03 0.  1.
     100001    1    1    2    0    0  0.25193713933E+04 -0.28105186838E+04  0.52897166522E+04  0.65000000000E+04  0.15050000000E+03 0. -1.
</event>
<event>
 4    1  0.4630618E-004  0.6500000E+04  0.7818608E-02  0.7223770E-01
         52   -1    0    0    0    0  0.00000000000E+00  0.00000000000E+00  0.64930732323E+04  0.65000000000E+04  0.30000000000E+03 0.  1.
        -52   -1    0    0    0    0 -0.00000000000E+00 -0.00000000000E+00 -0.64930732323E+04  0.65000000000E+04  0.30000000000E+03 0. -1.
     100001    1    1    2    0    0 -0.39580339178E+02  0.37433481579E+03  0.64873458820E+04  0.65000000000E+04  0.15050000000E+03 0.  1.
     100001    1    1    2    0    0  0.39580339178E+02 -0.37433481579E+03 -0.64873458820E+04  0.65000000000E+04  0.15050000000E+03 0. -1.
</event>
<event>
 4    1  0.4630618E-004  0.6500000E+04  0.7818608E-02  0.7223770E-01
         52   -1    0    0    0    0  0.00000000000E+00  0.00000000000E+00  0.64930732323E+04  0.65000000000E+04  0.30000000000E+03 0.  1.
        -52   -1    0    0    0    0 -0.00000000000E+00 -0.00000000000E+00 -0.64930732323E+04  0.65000000000E+04  0.30000000000E+03 0. -1.
     100001    1    1    2    0    0 -0.50390924375E+04 -0.40350035209E+04  0.74407240436E+03  0.65000000000E+04  0.15050000000E+03 0.  1.
     100001    1    1    2    0    0  0.50390924375E+04  0.40350035209E+04 -0.74407240436E+03  0.65000000000E+04  0.15050000000E+03 0. -1.
</event>
<event>
 4    1  0.4630618E-004  0.6500000E+04  0.7818608E-02  0.7223770E-01
         52   -1    0    0    0    0  0.00000000000E+00  0.00000000000E+00  0.64930732323E+04  0.65000000000E+04  0.30000000000E+03 0. -1.
        -52   -1    0    0    0    0 -0.00000000000E+00 -0.00000000000E+00 -0.64930732323E+04  0.65000000000E+04  0.30000000000E+03 0.  1.
     100001    1    1    2    0    0  0.29033272932E+04  0.14466283976E+04  0.56307465453E+04  0.65000000000E+04  0.15050000000E+03 0. -1.
     100001    1    1    2    0    0 -0.29033272932E+04 -0.14466283976E+04 -0.56307465453E+04  0.65000000000E+04  0.15050000000E+03 0.  1.
</event>
<event>
 4    1  0.4630618E-004  0.6500000E+04  0.7818608E-02  0.7223770E-01
         52   -1    0    0    0    0  0.00000000000E+00  0.00000000000E+00  0.64930732323E+04  0.65000000000E+04  0.30000000000E+03 0.  1.
        -52   -1    0    0    0    0 -0.00000000000E+00 -0.00000000000E+00 -0.64930732323E+04  0.65000000000E+04  0.30000000000E+03 0. -1.
     100001    1    1    2    0    0  0.62533439893E+03 -0.27554436328E+03  0.64622273206E+04  0.65000000000E+04  0.15050000000E+03 0.  1.
     100001    1    1    2    0    0 -0.62533439893E+03  0.27554436328E+03 -0.64622273206E+04  0.65000000000E+04  0.15050000000E+03 0. -1.
</event>
<event>
 4    1  0.4630618E-004  0.6500000E+04  0.7818608E-02  0.7223770E-01
         52   -1    0    0    0    0  0.00000000000E+00  0.00000000000E+00  0.64930732323E+04  0.65000000000E+04  0.30000000000E+03 0. -1.
        -52   -1    0    0    0    0 -0.00000000000E+00 -0.00000000000E+00 -0.64930732323E+04  0.65000000000E+04  0.30000000000E+03 0.  1.
     100001    1    1    2    0    0 -0.46496628955E+03  0.50142824581E+03 -0.64621765539E+04  0.65000000000E+04  0.15050000000E+03 0.  1.
     100001    1    1    2    0    0  0.46496628955E+03 -0.50142824581E+03  0.64621765539E+04  0.65000000000E+04  0.15050000000E+03 0. -1.
</event>
<event>
 4    1  0.4630618E-004  0.6500000E+04  0.7818608E-02  0.7223770E-01
         52   -1    0    0    0    0  0.00000000000E+00  0.00000000000E+00  0.64930732323E+04  0.65000000000E+04  0.30000000000E+03 0. -1.
        -52   -1    0    0    0    0 -0.00000000000E+00 -0.00000000000E+00 -0.64930732323E+04  0.65000000000E+04  0.30000000000E+03 0.  1.
     100001    1    1    2    0    0 -0.61772967838E+02  0.33984062761E+03  0.64890709811E+04  0.65000000000E+04  0.15050000000E+03 0. -1.
     100001    1    1    2    0    0  0.61772967838E+02 -0.33984062761E+03 -0.64890709811E+04  0.65000000000E+04  0.15050000000E+03 0.  1.
</event>
<event>
 4    1  0.7079403E-004  0.6500000E+04  0.7818608E-02  0.7223770E-01
         52   -1    0    0    0    0  0.00000000000E+00  0.00000000000E+00  0.64930732323E+04  0.65000000000E+04  0.30000000000E+03 0.  1.
        -52   -1    0    0    0    0 -0.00000000000E+00 -0.00000000000E+00 -0.64930732323E+04  0.65000000000E+04  0.30000000000E+03 0.  1.
     100001    1    1    2    0    0 -0.12699394313E+03  0.34145346551E+02  0.64969266876E+04  0.65000000000E+04  0.15050000000E+03 0.  1.
     100001    1    1    2    0    0  0.12699394313E+03 -0.34145346551E+02 -0.64969266876E+04  0.65000000000E+04  0.15050000000E+03 0.  1.
</event>
<event>
 4    1  0.4630618E-004  0.6500000E+04  0.7818608E-02  0.7223770E-01
         52   -1    0    0    0    0  0.00000000000E+00  0.00000000000E+00  0.64930732323E+04  0.65000000000E+04  0.30000000000E+03 0. -1.
        -52   -1    0    0    0    0 -0.00000000000E+00 -0.00000000000E+00 -0.64930732323E+04  0.65000000000E+04  0.30000000000E+03 0.  1.
     100001    1    1    2    0    0  0.61995895850E+04  0.26029402818E+03 -0.19299444932E+04  0.65000000000E+04  0.15050000000E+03 0.  1.
     100001    1    1    2    0    0 -0.61995895850E+04 -0.26029402818E+03  0.19299444932E+04  0.65000000000E+04  0.15050000000E+03 0. -1.
</event>
<event>
 4    1  0.4630618E-004  0.6500000E+04  0.7818608E-02  0.7223770E-01
         52   -1    0    0    0    0  0.00000000000E+00  0.00000000000E+00  0.64930732323E+04  0.65000000000E+04  0.30000000000E+03 0. -1.
        -52   -1    0    0    0    0 -0.00000000000E+00 -0.00000000000E+00 -0.64930732323E+04  0.65000000000E+04  0.30000000000E+03 0.  1.
     100001    1    1    2    0    0  0.40358886264E+04 -0.36363059407E+04 -0.35659825926E+04  0.65000000000E+04  0.15050000000E+03 0.  1.
     100001    1    1    2    0    0 -0.40358886264E+04  0.36363059407E+04  0.35659825926E+04  0.65000000000E+04  0.15050000000E+03 0. -1.
</event>
<event>
 4    1  0.5443568E-004  0.6500000E+04  0.7818608E-02  0.7223770E-01
         52   -1    0    0    0    0  0.00000000000E+00  0.00000000000E+00  0.64930732323E+04  0.65000000000E+04  0.30000000000E+03 0. -1.
        -52   -1    0    0    0    0 -0.00000000000E+00 -0.00000000000E+00 -0.64930732323E+04  0.65000000000E+04  0.30000000000E+03 0. -1.
     100001    1    1    2    0    0  0.61977137731E+02  0.10184740687E+03  0.64971636650E+04  0.65000000000E+04  0.15050000000E+03 0. -1.
     100001    1    1    2    0    0 -0.61977137731E+02 -0.10184740687E+03 -0.64971636650E+04  0.65000000000E+04  0.15050000000E+03 0. -1.
</event>
<event>
 4    1  0.4630618E-004  0.6500000E+04  0.7818608E-02  0.7223770E-01
         52   -1    0    0    0    0  0.00000000000E+00  0.00000000000E+00  0.64930732323E+04  0.65000000000E+04  0.30000000000E+03 0. -1.
        -52   -1    0    0    0    0 -0.00000000000E+00 -0.00000000000E+00 -0.64930732323E+04  0.65000000000E+04  0.30000000000E+03 0.  1.
     100001    1    1    2    0    0 -0.51582162411E+04 -0.32572309673E+04 -0.22384372642E+04  0.65000000000E+04  0.15050000000E+03 0.  1.
     100001    1    1    2    0    0  0.51582162411E+04  0.32572309673E+04  0.22384372642E+04  0.65000000000E+04  0.15050000000E+03 0. -1.
</event>
<event>
 4    1  0.4630618E-004  0.6500000E+04  0.7818608E-02  0.7223770E-01
         52   -1    0    0    0    0  0.00000000000E+00  0.00000000000E+00  0.64930732323E+04  0.65000000000E+04  0.30000000000E+03 0. -1.
        -52   -1    0    0    0    0 -0.00000000000E+00 -0.00000000000E+00 -0.64930732323E+04  0.65000000000E+04  0.30000000000E+03 0.  1.
     100001    1    1    2    0    0 -0.10347170348E+04 -0.12616289130E+04  0.62900717717E+04  0.65000000000E+04  0.15050000000E+03 0. -1.
     100001    1    1    2    0    0  0.10347170348E+04  0.12616289130E+04 -0.62900717717E+04  0.65000000000E+04  0.15050000000E+03 0.  1.
</event>
<event>
 4    1  0.4630618E-004  0.6500000E+04  0.7818608E-02  0.7223770E-01
         52   -1    0    0    0    0  0.00000000000E+00  0.00000000000E+00  0.64930732323E+04  0.65000000000E+04  0.30000000000E+03 0. -1.
        -52   -1    0    0    0    0 -0.00000000000E+00 -0.00000000000E+00 -0.64930732323E+04  0.65000000000E+04  0.30000000000E+03 0.  1.
     100001    1    1    2    0    0 -0.36218680590E+03  0.54142377430E+03 -0.64655263331E+04  0.65000000000E+04  0.15050000000E+03 0.  1.
     100001    1    1    2    0    0  0.36218680590E+03 -0.54142377430E+03  0.64655263331E+04  0.65000000000E+04  0.15050000000E+03 0. -1.
</event>
<event>
 4    1  0.4630618E-004  0.6500000E+04  0.7818608E-02  0.7223770E-01
         52   -1    0    0    0    0  0.00000000000E+00  0.00000000000E+00  0.64930732323E+04  0.65000000000E+04  0.30000000000E+03 0.  1.
        -52   -1    0    0    0    0 -0.00000000000E+00 -0.00000000000E+00 -0.64930732323E+04  0.65000000000E+04  0.30000000000E+03 0. -1.
     100001    1    1    2    0    0  0.29212177942E+04  0.19346853918E+04  0.54727350369E+04  0.65000000000E+04  0.15050000000E+03 0.  1.
     100001    1    1    2    0    0 -0.29212177942E+04 -0.19346853918E+04 -0.54727350369E+04  0.65000000000E+04  0.15050000000E+03 0. -1.
</event>
<event>
 4    1  0.4630618E-004  0.6500000E+04  0.7818608E-02  0.7223770E-01
         52   -1    0    0    0    0  0.00000000000E+00  0.00000000000E+00  0.64930732323E+04  0.65000000000E+04  0.30000000000E+03 0. -1.
        -52   -1    0    0    0    0 -0.00000000000E+00 -0.00000000000E+00 -0.64930732323E+04  0.65000000000E+04  0.30000000000E+03 0.  1.
     100001    1    1    2    0    0 -0.51137152527E+04 -0.31277224010E+04 -0.25089078593E+04  0.65000000000E+04  0.15050000000E+03 0.  1.
     100001    1    1    2    0    0  0.51137152527E+04  0.31277224010E+04  0.25089078593E+04  0.65000000000E+04  0.15050000000E+03 0. -1.
</event>
<event>
 4    1  0.6281198E-004  0.6500000E+04  0.7818608E-02  0.7223770E-01
         52   -1    0    0    0    0  0.00000000000E+00  0.00000000000E+00  0.64930732323E+04  0.65000000000E+04  0.30000000000E+03 0.  1.
        -52   -1    0    0    0    0 -0.00000000000E+00 -0.00000000000E+00 -0.64930732323E+04  0.65000000000E+04  0.30000000000E+03 0.  1.
     100001    1    1    2    0    0 -0.88085301013E+02 -0.12155291453E+03  0.64965233486E+04  0.65000000000E+04  0.15050000000E+03 0.  1.
     100001    1    1    2    0    0  0.88085301013E+02  0.12155291453E+03 -0.64965233486E+04  0.65000000000E+04  0.15050000000E+03 0.  1.
</event>
<event>
 4    1  0.4630618E-004  0.6500000E+04  0.7818608E-02  0.7223770E-01
         52   -1    0    0    0    0  0.00000000000E+00  0.00000000000E+00  0.64930732323E+04  0.65000000000E+04  0.30000000000E+03 0. -1.
        -52   -1    0    0    0    0 -0.00000000000E+00 -0.00000000000E+00 -0.64930732323E+04  0.65000000000E+04  0.30000000000E+03 0.  1.
     100001    1    1    2    0    0 -0.19777548898E+04  0.32524506526E+04  0.52666308109E+04  0.65000000000E+04  0.15050000000E+03 0. -1.
     100001    1    1    2    0    0  0.19777548898E+04 -0.32524506526E+04 -0.52666308109E+04  0.65000000000E+04  0.15050000000E+03 0.  1.
</event>
<event>
 4    1  0.4630618E-004  0.6500000E+04  0.7818608E-02  0.7223770E-01
         52   -1    0    0    0    0  0.00000000000E+00  0.00000000000E+00  0.64930732323E+04  0.65000000000E+04  0.30000000000E+03 0.  1.
        -52   -1    0    0    0    0 -0.00000000000E+00 -0.00000000000E+00 -0.64930732323E+04  0.65000000000E+04  0.30000000000E+03 0. -1.
     100001    1    1    2    0    0  0.37174634873E+04  0.16398340037E+04 -0.50713666216E+04  0.65000000000E+04  0.15050000000E+03 0. -1.
     100001    1    1    2    0    0 -0.37174634873E+04 -0.16398340037E+04  0.50713666216E+04  0.65000000000E+04  0.15050000000E+03 0.  1.
</event>
<event>
 4    1  0.4630618E-004  0.6500000E+04  0.7818608E-02  0.7223770E-01
         52   -1    0    0    0    0  0.00000000000E+00  0.00000000000E+00  0.64930732323E+04  0.65000000000E+04  0.30000000000E+03 0. -1.
        -52   -1    0    0    0    0 -0.00000000000E+00 -0.00000000000E+00 -0.64930732323E+04  0.65000000000E+04  0.30000000000E+03 0.  1.
     100001    1    1    2    0    0  0.49279190399E+04  0.21174757509E+04  0.36686864313E+04  0.65000000000E+04  0.15050000000E+03 0. -1.
     100001    1    1    2    0    0 -0.49279190399E+04 -0.21174757509E+04 -0.36686864313E+04  0.65000000000E+04  0.15050000000E+03 0.  1.
</event>
<event>
 4    1  0.4630618E-004  0.6500000E+04  0.7818608E-02  0.7223770E-01
         52   -1    0    0    0    0  0.00000000000E+00  0.00000000000E+00  0.64930732323E+04  0.65000000000E+04  0.30000000000E+03 0. -1.
        -52   -1    0    0    0    0 -0.00000000000E+00 -0.00000000000E+00 -0.64930732323E+04  0.65000000000E+04  0.30000000000E+03 0.  1.
     100001    1    1    2    0    0 -0.62169105930E+03  0.17878317896E+04  0.62164706602E+04  0.65000000000E+04  0.15050000000E+03 0. -1.
     100001    1    1    2    0    0  0.62169105930E+03 -0.17878317896E+04 -0.62164706602E+04  0.65000000000E+04  0.15050000000E+03 0.  1.
</event>
<event>
 4    1  0.4630618E-004  0.6500000E+04  0.7818608E-02  0.7223770E-01
         52   -1    0    0    0    0  0.00000000000E+00  0.00000000000E+00  0.64930732323E+04  0.65000000000E+04  0.30000000000E+03 0. -1.
        -52   -1    0    0    0    0 -0.00000000000E+00 -0.00000000000E+00 -0.64930732323E+04  0.65000000000E+04  0.30000000000E+03 0.  1.
     100001    1    1    2    0    0 -0.13929701364E+04  0.57887377756E+03  0.63207506753E+04  0.65000000000E+04  0.15050000000E+03 0. -1.
     100001    1    1    2    0    0  0.13929701364E+04 -0.57887377756E+03 -0.63207506753E+04  0.65000000000E+04  0.15050000000E+03 0.  1.
</event>
<event>
 4    1  0.4630618E-004  0.6500000E+04  0.7818608E-02  0.7223770E-01
         52   -1    0    0    0    0  0.00000000000E+00  0.00000000000E+00  0.64930732323E+04  0.65000000000E+04  0.30000000000E+03 0.  1.
        -52   -1    0    0    0    0 -0.00000000000E+00 -0.00000000000E+00 -0.64930732323E+04  0.65000000000E+04  0.30000000000E+03 0. -1.
     100001    1    1    2    0    0 -0.29728534046E+04  0.48190693354E+04 -0.31884264341E+04  0.65000000000E+04  0.15050000000E+03 0. -1.
     100001    1    1    2    0    0  0.29728534046E+04 -0.48190693354E+04  0.31884264341E+04  0.65000000000E+04  0.15050000000E+03 0.  1.
</event>
<event>
 4    1  0.5115208E-004  0.6500000E+04  0.7818608E-02  0.7223770E-01
         52   -1    0    0    0    0  0.00000000000E+00  0.00000000000E+00  0.64930732323E+04  0.65000000000E+04  0.30000000000E+03 0.  1.
        -52   -1    0    0    0    0 -0.00000000000E+00 -0.00000000000E+00 -0.64930732323E+04  0.65000000000E+04  0.30000000000E+03 0.  1.
     100001    1    1    2    0    0  0.43981392037E+02 -0.18858705276E+03  0.64953714529E+04  0.65000000000E+04  0.15050000000E+03 0.  1.
     100001    1    1    2    0    0 -0.43981392037E+02  0.18858705276E+03 -0.64953714529E+04  0.65000000000E+04  0.15050000000E+03 0.  1.
</event>
<event>
 4    1  0.4630618E-004  0.6500000E+04  0.7818608E-02  0.7223770E-01
         52   -1    0    0    0    0  0.00000000000E+00  0.00000000000E+00  0.64930732323E+04  0.65000000000E+04  0.30000000000E+03 0.  1.
        -52   -1    0    0    0    0 -0.00000000000E+00 -0.00000000000E+00 -0.64930732323E+04  0.65000000000E+04  0.30000000000E+03 0. -1.
     100001    1    1    2    0    0  0.73885924131E+03 -0.19161462031E+04  0.61652104992E+04  0.65000000000E+04  0.15050000000E+03 0.  1.
     100001    1    1    2    0    0 -0.73885924131E+03  0.19161462031E+04 -0.61652104992E+04  0.65000000000E+04  0.15050000000E+03 0. -1.
</event>
<event>
 4    1  0.4630618E-004  0.6500000E+04  0.7818608E-02  0.7223770E-01
         52   -1    0    0    0    0  0.00000000000E+00  0.00000000000E+00  0.64930732323E+04  0.65000000000E+04  0.30000000000E+03 0. -1.
        -52   -1    0    0    0    0 -0.00000000000E+00 -0.00000000000E+00 -0.64930732323E+04  0.65000000000E+04  0.30000000000E+03 0.  1.
     100001    1    1    2    0    0 -0.68220509475E+03  0.26721416404E+03 -0.64568213967E+04  0.65000000000E+04  0.15050000000E+03 0.  1.
     100001    1    1    2    0    0  0.68220509475E+03 -0.26721416404E+03  0.64568213967E+04  0.65000000000E+04  0.15050000000E+03 0. -1.
</event>
<event>
 4    1  0.4630618E-004  0.6500000E+04  0.7818608E-02  0.7223770E-01
         52   -1    0    0    0    0  0.00000000000E+00  0.00000000000E+00  0.64930732323E+04  0.65000000000E+04  0.30000000000E+03 0. -1.
        -52   -1    0    0    0    0 -0.00000000000E+00 -0.00000000000E+00 -0.64930732323E+04  0.65000000000E+04  0.30000000000E+03 0. -1.
     100001    1    1    2    0    0  0.39977981547E+02  0.35696104284E+03  0.64883226126E+04  0.65000000000E+04  0.15050000000E+03 0. -1.
     100001    1    1    2    0    0 -0.39977981547E+02 -0.35696104284E+03 -0.64883226126E+04  0.65000000000E+04  0.15050000000E+03 0. -1.
</event>
<event>
 4    1  0.4630618E-004  0.6500000E+04  0.7818608E-02  0.7223770E-01
         52   -1    0    0    0    0  0.00000000000E+00  0.00000000000E+00  0.64930732323E+04  0.65000000000E+04  0.30000000000E+03 0.  1.
        -52   -1    0    0    0    0 -0.00000000000E+00 -0.00000000000E+00 -0.64930732323E+04  0.65000000000E+04  0.30000000000E+03 0.  1.
     100001    1    1    2    0    0 -0.44079521030E+03  0.16222107372E+03 -0.64812601904E+04  0.65000000000E+04  0.15050000000E+03 0.  1.
     100001    1    1    2    0    0  0.44079521030E+03 -0.16222107372E+03  0.64812601904E+04  0.65000000000E+04  0.15050000000E+03 0.  1.
</event>
<event>
 4    1  0.4630618E-004  0.6500000E+04  0.7818608E-02  0.7223770E-01
         52   -1    0    0    0    0  0.00000000000E+00  0.00000000000E+00  0.64930732323E+04  0.65000000000E+04  0.30000000000E+03 0. -1.
        -52   -1    0    0    0    0 -0.00000000000E+00 -0.00000000000E+00 -0.64930732323E+04  0.65000000000E+04  0.30000000000E+03 0. -1.
     100001    1    1    2    0    0 -0.40293869357E+03 -0.60008846956E+02 -0.64854752407E+04  0.65000000000E+04  0.15050000000E+03 0. -1.
     100001    1    1    2    0    0  0.40293869357E+03  0.60008846956E+02  0.64854752407E+04  0.65000000000E+04  0.15050000000E+03 0. -1.
</event>
<event>
 4    1  0.4630618E-004  0.6500000E+04  0.7818608E-02  0.7223770E-01
         52   -1    0    0    0    0  0.00000000000E+00  0.00000000000E+00  0.64930732323E+04  0.65000000000E+04  0.30000000000E+03 0.  1.
        -52   -1    0    0    0    0 -0.00000000000E+00 -0.00000000000E+00 -0.64930732323E+04  0.65000000000E+04  0.30000000000E+03 0. -1.
     100001    1    1    2    0    0  0.55722135799E+04  0.13326179383E+04 -0.30662542295E+04  0.65000000000E+04  0.15050000000E+03 0. -1.
     100001    1    1    2    0    0 -0.55722135799E+04 -0.13326179383E+04  0.30662542295E+04  0.65000000000E+04  0.15050000000E+03 0.  1.
</event>
<event>
 4    1  0.4630618E-004  0.6500000E+04  0.7818608E-02  0.7223770E-01
         52   -1    0    0    0    0  0.00000000000E+00  0.00000000000E+00  0.64930732323E+04  0.65000000000E+04  0.30000000000E+03 0.  1.
        -52   -1    0    0    0    0 -0.00000000000E+00 -0.00000000000E+00 -0.64930732323E+04  0.65000000000E+04  0.30000000000E+03 0. -1.
     100001    1    1    2    0    0 -0.36872766923E+03  0.39600966069E+03 -0.64756903883E+04  0.65000000000E+04  0.15050000000E+03 0. -1.
     100001    1    1    2    0    0  0.36872766923E+03 -0.39600966069E+03  0.64756903883E+04  0.65000000000E+04  0.15050000000E+03 0.  1.
</event>
<event>
 4    1  0.4630618E-004  0.6500000E+04  0.7818608E-02  0.7223770E-01
         52   -1    0    0    0    0  0.00000000000E+00  0.00000000000E+00  0.64930732323E+04  0.65000000000E+04  0.30000000000E+03 0. -1.
        -52   -1    0    0    0    0 -0.00000000000E+00 -0.00000000000E+00 -0.64930732323E+04  0.65000000000E+04  0.30000000000E+03 0.  1.
     100001    1    1    2    0    0 -0.11082961545E+04  0.96689740985E+03 -0.63296239053E+04  0.65000000000E+04  0.15050000000E+03 0.  1.
     100001    1    1    2    0    0  0.11082961545E+04 -0.96689740985E+03  0.63296239053E+04  0.65000000000E+04  0.15050000000E+03 0. -1.
</event>
<event>
 4    1  0.4630618E-004  0.6500000E+04  0.7818608E-02  0.7223770E-01
         52   -1    0    0    0    0  0.00000000000E+00  0.00000000000E+00  0.64930732323E+04  0.65000000000E+04  0.30000000000E+03 0.  1.
        -52   -1    0    0    0    0 -0.00000000000E+00 -0.00000000000E+00 -0.64930732323E+04  0.65000000000E+04  0.30000000000E+03 0.  1.
     100001    1    1    2    0    0  0.17484964961E+03  0.29531458401E+03  0.64891884428E+04  0.65000000000E+04  0.15050000000E+03 0.  1.
     100001    1    1    2    0    0 -0.17484964961E+03 -0.29531458401E+03 -0.64891884428E+04  0.65000000000E+04  0.15050000000E+03 0.  1.
</event>
<event>
 4    1  0.4630618E-004  0.6500000E+04  0.7818608E-02  0.7223770E-01
         52   -1    0    0    0    0  0.00000000000E+00  0.00000000000E+00  0.64930732323E+04  0.65000000000E+04  0.30000000000E+03 0.  1.
        -52   -1    0    0    0    0 -0.00000000000E+00 -0.00000000000E+00 -0.64930732323E+04  0.65000000000E+04  0.30000000000E+03 0. -1.
     100001    1    1    2    0    0  0.49569176141E+03  0.75616007943E+02 -0.64788827468E+04  0.65000000000E+04  0.15050000000E+03 0. -1.
     100001    1    1    2    0    0 -0.49569176141E+03 -0.75616007943E+02  0.64788827468E+04  0.65000000000E+04  0.15050000000E+03 0.  1.
</event>
<event>
 4    1  0.4630618E-004  0.6500000E+04  0.7818608E-02  0.7223770E-01
         52   -1    0    0    0    0  0.00000000000E+00  0.00000000000E+00  0.64930732323E+04  0.65000000000E+04  0.30000000000E+03 0.  1.
        -52   -1    0    0    0    0 -0.00000000000E+00 -0.00000000000E+00 -0.64930732323E+04  0.65000000000E+04  0.30000000000E+03 0.  1.
     100001    1    1    2    0    0  0.23089706117E+03  0.20375962100E+02  0.64941220436E+04  0.65000000000E+04  0.15050000000E+03 0.  1.
     100001    1    1    2    0    0 -0.23089706117E+03 -0.20375962100E+02 -0.64941220436E+04  0.65000000000E+04  0.15050000000E+03 0.  1.
</event>
<event>
 4    1  0.4630618E-004  0.6500000E+04  0.7818608E-02  0.7223770E-01
         52   -1    0    0    0    0  0.00000000000E+00  0.00000000000E+00  0.64930732323E+04  0.65000000000E+04  0.30000000000E+03 0.  1.
        -52   -1    0    0    0    0 -0.00000000000E+00 -0.00000000000E+00 -0.64930732323E+04  0.65000000000E+04  0.30000000000E+03 0.  1.
     100001    1    1    2    0    0 -0.46760554209E+02  0.57044328710E+03 -0.64730022136E+04  0.65000000000E+04  0.15050000000E+03 0.  1.
     100001    1    1    2    0    0  0.46760554209E+02 -0.57044328710E+03  0.64730022136E+04  0.65000000000E+04  0.15050000000E+03 0.  1.
</event>
<event>
 4    1  0.4630618E-004  0.6500000E+04  0.7818608E-02  0.7223770E-01
         52   -1    0    0    0    0  0.00000000000E+00  0.00000000000E+00  0.64930732323E+04  0.65000000000E+04  0.30000000000E+03 0.  1.
        -52   -1    0    0    0    0 -0.00000000000E+00 -0.00000000000E+00 -0.64930732323E+04  0.65000000000E+04  0.30000000000E+03 0. -1.
     100001    1    1    2    0    0  0.45629874708E+04  0.37833758259E+04  0.26631865221E+04  0.65000000000E+04  0.15050000000E+03 0.  1.
     100001    1    1    2    0    0 -0.45629874708E+04 -0.37833758259E+04 -0.26631865221E+04  0.65000000000E+04  0.15050000000E+03 0. -1.
</event>
<event>
 4    1  0.4630618E-004  0.6500000E+04  0.7818608E-02  0.7223770E-01
         52   -1    0    0    0    0  0.00000000000E+00  0.00000000000E+00  0.64930732323E+04  0.65000000000E+04  0.30000000000E+03 0. -1.
        -52   -1    0    0    0    0 -0.00000000000E+00 -0.00000000000E+00 -0.64930732323E+04  0.65000000000E+04  0.30000000000E+03 0.  1.
     100001    1    1    2    0    0 -0.18851909954E+04  0.32583570728E+04 -0.52968399869E+04  0.65000000000E+04  0.15050000000E+03 0.  1.
     100001    1    1    2    0    0  0.18851909954E+04 -0.32583570728E+04  0.52968399869E+04  0.65000000000E+04  0.15050000000E+03 0. -1.
</event>
<event>
 4    1  0.4630618E-004  0.6500000E+04  0.7818608E-02  0.7223770E-01
         52   -1    0    0    0    0  0.00000000000E+00  0.00000000000E+00  0.64930732323E+04  0.65000000000E+04  0.30000000000E+03 0. -1.
        -52   -1    0    0    0    0 -0.00000000000E+00 -0.00000000000E+00 -0.64930732323E+04  0.65000000000E+04  0.30000000000E+03 0. -1.
     100001    1    1    2    0    0 -0.68169232903E+02 -0.82490259871E+02  0.64973762445E+04  0.65000000000E+04  0.15050000000E+03 0. -1.
     100001    1    1    2    0    0  0.68169232903E+02  0.82490259871E+02 -0.64973762445E+04  0.65000000000E+04  0.15050000000E+03 0. -1.
</event>
<event>
 4    1  0.4630618E-004  0.6500000E+04  0.7818608E-02  0.7223770E-01
         52   -1    0    0    0    0  0.00000000000E+00  0.00000000000E+00  0.64930732323E+04  0.65000000000E+04  0.30000000000E+03 0.  1.
        -52   -1    0    0    0    0 -0.00000000000E+00 -0.00000000000E+00 -0.64930732323E+04  0.65000000000E+04  0.30000000000E+03 0. -1.
     100001    1    1    2    0    0 -0.44061482731E+03  0.59747372308E+03 -0.64557132429E+04  0.65000000000E+04  0.15050000000E+03 0. -1.
     100001    1    1    2    0    0  0.44061482731E+03 -0.59747372308E+03  0.64557132429E+04  0.65000000000E+04  0.15050000000E+03 0.  1.
</event>
<event>
 4    1  0.4630618E-004  0.6500000E+04  0.7818608E-02  0.7223770E-01
         52   -1    0    0    0    0  0.00000000000E+00  0.00000000000E+00  0.64930732323E+04  0.65000000000E+04  0.30000000000E+03 0. -1.
        -52   -1    0    0    0    0 -0.00000000000E+00 -0.00000000000E+00 -0.64930732323E+04  0.65000000000E+04  0.30000000000E+03 0. -1.
     100001    1    1    2    0    0 -0.62369065899E+02  0.37408422900E+03 -0.64871812707E+04  0.65000000000E+04  0.15050000000E+03 0. -1.
     100001    1    1    2    0    0  0.62369065899E+02 -0.37408422900E+03  0.64871812707E+04  0.65000000000E+04  0.15050000000E+03 0. -1.
</event>
<event>
 4    1  0.4630618E-004  0.6500000E+04  0.7818608E-02  0.7223770E-01
         52   -1    0    0    0    0  0.00000000000E+00  0.00000000000E+00  0.64930732323E+04  0.65000000000E+04  0.30000000000E+03 0. -1.
        -52   -1    0    0    0    0 -0.00000000000E+00 -0.00000000000E+00 -0.64930732323E+04  0.65000000000E+04  0.30000000000E+03 0.  1.
     100001    1    1    2    0    0  0.12220328242E+04  0.95212857235E+02  0.63816079509E+04  0.65000000000E+04  0.15050000000E+03 0. -1.
     100001    1    1    2    0    0 -0.12220328242E+04 -0.95212857235E+02 -0.63816079509E+04  0.65000000000E+04  0.15050000000E+03 0.  1.
</event>
<event>
 4    1  0.4630618E-004  0.6500000E+04  0.7818608E-02  0.7223770E-01
         52   -1    0    0    0    0  0.00000000000E+00  0.00000000000E+00  0.64930732323E+04  0.65000000000E+04  0.30000000000E+03 0. -1.
        -52   -1    0    0    0    0 -0.00000000000E+00 -0.00000000000E+00 -0.64930732323E+04  0.65000000000E+04  0.30000000000E+03 0.  1.
     100001    1    1    2    0    0 -0.82269310812E+02 -0.60873062328E+03 -0.64691598016E+04  0.65000000000E+04  0.15050000000E+03 0.  1.
     100001    1    1    2    0    0  0.82269310812E+02  0.60873062328E+03  0.64691598016E+04  0.65000000000E+04  0.15050000000E+03 0. -1.
</event>
<event>
 4    1  0.4630618E-004  0.6500000E+04  0.7818608E-02  0.7223770E-01
         52   -1    0    0    0    0  0.00000000000E+00  0.00000000000E+00  0.64930732323E+04  0.65000000000E+04  0.30000000000E+03 0.  1.
        -52   -1    0    0    0    0 -0.00000000000E+00 -0.00000000000E+00 -0.64930732323E+04  0.65000000000E+04  0.30000000000E+03 0. -1.
     100001    1    1    2    0    0 -0.15401208298E+04  0.34028644829E+04  0.53175079587E+04  0.65000000000E+04  0.15050000000E+03 0.  1.
     100001    1    1    2    0    0  0.15401208298E+04 -0.34028644829E+04 -0.53175079587E+04  0.65000000000E+04  0.15050000000E+03 0. -1.
</event>
<event>
 4    1  0.4630618E-004  0.6500000E+04  0.7818608E-02  0.7223770E-01
         52   -1    0    0    0    0  0.00000000000E+00  0.00000000000E+00  0.64930732323E+04  0.65000000000E+04  0.30000000000E+03 0.  1.
        -52   -1    0    0    0    0 -0.00000000000E+00 -0.00000000000E+00 -0.64930732323E+04  0.65000000000E+04  0.30000000000E+03 0. -1.
     100001    1    1    2    0    0  0.18974265638E+03  0.32141761464E+03 -0.64875294366E+04  0.65000000000E+04  0.15050000000E+03 0. -1.
     100001    1    1    2    0    0 -0.18974265638E+03 -0.32141761464E+03  0.64875294366E+04  0.65000000000E+04  0.15050000000E+03 0.  1.
</event>
<event>
 4    1  0.4630618E-004  0.6500000E+04  0.7818608E-02  0.7223770E-01
         52   -1    0    0    0    0  0.00000000000E+00  0.00000000000E+00  0.64930732323E+04  0.65000000000E+04  0.30000000000E+03 0. -1.
        -52   -1    0    0    0    0 -0.00000000000E+00 -0.00000000000E+00 -0.64930732323E+04  0.65000000000E+04  0.30000000000E+03 0.  1.
     100001    1    1    2    0    0  0.87740114809E+03 -0.11172546757E+04 -0.63410771139E+04  0.65000000000E+04  0.15050000000E+03 0.  1.
     100001    1    1    2    0    0 -0.87740114809E+03  0.11172546757E+04  0.63410771139E+04  0.65000000000E+04  0.15050000000E+03 0. -1.
</event>
<event>
 4    1  0.4630618E-004  0.6500000E+04  0.7818608E-02  0.7223770E-01
         52   -1    0    0    0    0  0.00000000000E+00  0.00000000000E+00  0.64930732323E+04  0.65000000000E+04  0.30000000000E+03 0. -1.
        -52   -1    0    0    0    0 -0.00000000000E+00 -0.00000000000E+00 -0.64930732323E+04  0.65000000000E+04  0.30000000000E+03 0.  1.
     100001    1    1    2    0    0  0.27329715460E+03 -0.95805988169E+03  0.64214312796E+04  0.65000000000E+04  0.15050000000E+03 0. -1.
     100001    1    1    2    0    0 -0.27329715460E+03  0.95805988169E+03 -0.64214312796E+04  0.65000000000E+04  0.15050000000E+03 0.  1.
</event>
<event>
 4    1  0.4630618E-004  0.6500000E+04  0.7818608E-02  0.7223770E-01
         52   -1    0    0    0    0  0.00000000000E+00  0.00000000000E+00  0.64930732323E+04  0.65000000000E+04  0.30000000000E+03 0. -1.
        -52   -1    0    0    0    0 -0.00000000000E+00 -0.00000000000E+00 -0.64930732323E+04  0.65000000000E+04  0.30000000000E+03 0.  1.
     100001    1    1    2    0    0 -0.25672991976E+04 -0.45678494415E+04  0.38433157637E+04  0.65000000000E+04  0.15050000000E+03 0. -1.
     100001    1    1    2    0    0  0.25672991976E+04  0.45678494415E+04 -0.38433157637E+04  0.65000000000E+04  0.15050000000E+03 0.  1.
</event>
<event>
 4    1  0.4630618E-004  0.6500000E+04  0.7818608E-02  0.7223770E-01
         52   -1    0    0    0    0  0.00000000000E+00  0.00000000000E+00  0.64930732323E+04  0.65000000000E+04  0.30000000000E+03 0. -1.
        -52   -1    0    0    0    0 -0.00000000000E+00 -0.00000000000E+00 -0.64930732323E+04  0.65000000000E+04  0.30000000000E+03 0.  1.
     100001    1    1    2    0    0  0.97908019011E+03  0.58402083039E+03 -0.63974738296E+04  0.65000000000E+04  0.15050000000E+03 0.  1.
     100001    1    1    2    0    0 -0.97908019011E+03 -0.58402083039E+03  0.63974738296E+04  0.65000000000E+04  0.15050000000E+03 0. -1.
</event>
<event>
 4    1  0.4630618E-004  0.6500000E+04  0.7818608E-02  0.7223770E-01
         52   -1    0    0    0    0  0.00000000000E+00  0.00000000000E+00  0.64930732323E+04  0.65000000000E+04  0.30000000000E+03 0.  1.
        -52   -1    0    0    0    0 -0.00000000000E+00 -0.00000000000E+00 -0.64930732323E+04  0.65000000000E+04  0.30000000000E+03 0. -1.
     100001    1    1    2    0    0 -0.24309409409E+04 -0.15688138045E+04 -0.58186509724E+04  0.65000000000E+04  0.15050000000E+03 0. -1.
     100001    1    1    2    0    0  0.24309409409E+04  0.15688138045E+04  0.58186509724E+04  0.65000000000E+04  0.15050000000E+03 0.  1.
</event>
<event>
 4    1  0.4630618E-004  0.6500000E+04  0.7818608E-02  0.7223770E-01
         52   -1    0    0    0    0  0.00000000000E+00  0.00000000000E+00  0.64930732323E+04  0.65000000000E+04  0.30000000000E+03 0.  1.
        -52   -1    0    0    0    0 -0.00000000000E+00 -0.00000000000E+00 -0.64930732323E+04  0.65000000000E+04  0.30000000000E+03 0. -1.
     100001    1    1    2    0    0 -0.67836891309E+03  0.83653274289E+03 -0.64083834419E+04  0.65000000000E+04  0.15050000000E+03 0. -1.
     100001    1    1    2    0    0  0.67836891309E+03 -0.83653274289E+03  0.64083834419E+04  0.65000000000E+04  0.15050000000E+03 0.  1.
</event>
<event>
 4    1  0.4630618E-004  0.6500000E+04  0.7818608E-02  0.7223770E-01
         52   -1    0    0    0    0  0.00000000000E+00  0.00000000000E+00  0.64930732323E+04  0.65000000000E+04  0.30000000000E+03 0. -1.
        -52   -1    0    0    0    0 -0.00000000000E+00 -0.00000000000E+00 -0.64930732323E+04  0.65000000000E+04  0.30000000000E+03 0.  1.
     100001    1    1    2    0    0  0.43374497065E+04  0.34450117610E+04  0.33979072619E+04  0.65000000000E+04  0.15050000000E+03 0. -1.
     100001    1    1    2    0    0 -0.43374497065E+04 -0.34450117610E+04 -0.33979072619E+04  0.65000000000E+04  0.15050000000E+03 0.  1.
</event>
<event>
 4    1  0.4630618E-004  0.6500000E+04  0.7818608E-02  0.7223770E-01
         52   -1    0    0    0    0  0.00000000000E+00  0.00000000000E+00  0.64930732323E+04  0.65000000000E+04  0.30000000000E+03 0. -1.
        -52   -1    0    0    0    0 -0.00000000000E+00 -0.00000000000E+00 -0.64930732323E+04  0.65000000000E+04  0.30000000000E+03 0. -1.
     100001    1    1    2    0    0  0.49866223018E+03 -0.87254050734E+02  0.64785085059E+04  0.65000000000E+04  0.15050000000E+03 0. -1.
     100001    1    1    2    0    0 -0.49866223018E+03  0.87254050734E+02 -0.64785085059E+04  0.65000000000E+04  0.15050000000E+03 0. -1.
</event>
<event>
 4    1  0.4630618E-004  0.6500000E+04  0.7818608E-02  0.7223770E-01
         52   -1    0    0    0    0  0.00000000000E+00  0.00000000000E+00  0.64930732323E+04  0.65000000000E+04  0.30000000000E+03 0.  1.
        -52   -1    0    0    0    0 -0.00000000000E+00 -0.00000000000E+00 -0.64930732323E+04  0.65000000000E+04  0.30000000000E+03 0. -1.
     100001    1    1    2    0    0 -0.72771014472E+02  0.12404316841E+04 -0.63783527157E+04  0.65000000000E+04  0.15050000000E+03 0. -1.
     100001    1    1    2    0    0  0.72771014472E+02 -0.12404316841E+04  0.63783527157E+04  0.65000000000E+04  0.15050000000E+03 0.  1.
</event>
<event>
 4    1  0.4630618E-004  0.6500000E+04  0.7818608E-02  0.7223770E-01
         52   -1    0    0    0    0  0.00000000000E+00  0.00000000000E+00  0.64930732323E+04  0.65000000000E+04  0.30000000000E+03 0.  1.
        -52   -1    0    0    0    0 -0.00000000000E+00 -0.00000000000E+00 -0.64930732323E+04  0.65000000000E+04  0.30000000000E+03 0. -1.
     100001    1    1    2    0    0  0.81856412862E+03 -0.23857491530E+03 -0.64420792084E+04  0.65000000000E+04  0.15050000000E+03 0. -1.
     100001    1    1    2    0    0 -0.81856412862E+03  0.23857491530E+03  0.64420792084E+04  0.65000000000E+04  0.15050000000E+03 0.  1.
</event>
<event>
 4    1  0.4630618E-004  0.6500000E+04  0.7818608E-02  0.7223770E-01
         52   -1    0    0    0    0  0.00000000000E+00  0.00000000000E+00  0.64930732323E+04  0.65000000000E+04  0.30000000000E+03 0. -1.
        -52   -1    0    0    0    0 -0.00000000000E+00 -0.00000000000E+00 -0.64930732323E+04  0.65000000000E+04  0.30000000000E+03 0.  1.
     100001    1    1    2    0    0  0.14278620508E+04 -0.42822402300E+03  0.63249651303E+04  0.65000000000E+04  0.15050000000E+03 0. -1.
     100001    1    1    2    0    0 -0.14278620508E+04  0.42822402300E+03 -0.63249651303E+04  0.65000000000E+04  0.15050000000E+03 0.  1.
</event>
<event>
 4    1  0.4630618E-004  0.6500000E+04  0.7818608E-02  0.7223770E-01
         52   -1    0    0    0    0  0.00000000000E+00  0.00000000000E+00  0.64930732323E+04  0.65000000000E+04  0.30000000000E+03 0. -1.
        -52   -1    0    0    0    0 -0.00000000000E+00 -0.00000000000E+00 -0.64930732323E+04  0.65000000000E+04  0.30000000000E+03 0.  1.
     100001    1    1    2    0    0  0.23801800883E+04  0.91171650617E+03  0.59775300509E+04  0.65000000000E+04  0.15050000000E+03 0. -1.
     100001    1    1    2    0    0 -0.23801800883E+04 -0.91171650617E+03 -0.59775300509E+04  0.65000000000E+04  0.15050000000E+03 0.  1.
</event>
<event>
 4    1  0.4630618E-004  0.6500000E+04  0.7818608E-02  0.7223770E-01
         52   -1    0    0    0    0  0.00000000000E+00  0.00000000000E+00  0.64930732323E+04  0.65000000000E+04  0.30000000000E+03 0.  1.
        -52   -1    0    0    0    0 -0.00000000000E+00 -0.00000000000E+00 -0.64930732323E+04  0.65000000000E+04  0.30000000000E+03 0. -1.
     100001    1    1    2    0    0 -0.12875876508E+04 -0.14643337394E+04 -0.61988058924E+04  0.65000000000E+04  0.15050000000E+03 0. -1.
     100001    1    1    2    0    0  0.12875876508E+04  0.14643337394E+04  0.61988058924E+04  0.65000000000E+04  0.15050000000E+03 0.  1.
</event>
<event>
 4    1  0.4630618E-004  0.6500000E+04  0.7818608E-02  0.7223770E-01
         52   -1    0    0    0    0  0.00000000000E+00  0.00000000000E+00  0.64930732323E+04  0.65000000000E+04  0.30000000000E+03 0.  1.
        -52   -1    0    0    0    0 -0.00000000000E+00 -0.00000000000E+00 -0.64930732323E+04  0.65000000000E+04  0.30000000000E+03 0. -1.
     100001    1    1    2    0    0  0.19198307933E+04 -0.34198595799E+04  0.51813280082E+04  0.65000000000E+04  0.15050000000E+03 0.  1.
     100001    1    1    2    0    0 -0.19198307933E+04  0.34198595799E+04 -0.51813280082E+04  0.65000000000E+04  0.15050000000E+03 0. -1.
</event>
<event>
 4    1  0.4630618E-004  0.6500000E+04  0.7818608E-02  0.7223770E-01
         52   -1    0    0    0    0  0.00000000000E+00  0.00000000000E+00  0.64930732323E+04  0.65000000000E+04  0.30000000000E+03 0.  1.
        -52   -1    0    0    0    0 -0.00000000000E+00 -0.00000000000E+00 -0.64930732323E+04  0.65000000000E+04  0.30000000000E+03 0. -1.
     100001    1    1    2    0    0 -0.24741131533E+04 -0.17560313256E+03 -0.60062698403E+04  0.65000000000E+04  0.15050000000E+03 0. -1.
     100001    1    1    2    0    0  0.24741131533E+04  0.17560313256E+03  0.60062698403E+04  0.65000000000E+04  0.15050000000E+03 0.  1.
</event>
<event>
 4    1  0.4630618E-004  0.6500000E+04  0.7818608E-02  0.7223770E-01
         52   -1    0    0    0    0  0.00000000000E+00  0.00000000000E+00  0.64930732323E+04  0.65000000000E+04  0.30000000000E+03 0. -1.
        -52   -1    0    0    0    0 -0.00000000000E+00 -0.00000000000E+00 -0.64930732323E+04  0.65000000000E+04  0.30000000000E+03 0.  1.
     100001    1    1    2    0    0 -0.56366941600E+03  0.98201006731E+03  0.63988501129E+04  0.65000000000E+04  0.15050000000E+03 0. -1.
     100001    1    1    2    0    0  0.56366941600E+03 -0.98201006731E+03 -0.63988501129E+04  0.65000000000E+04  0.15050000000E+03 0.  1.
</event>
<event>
 4    1  0.4630618E-004  0.6500000E+04  0.7818608E-02  0.7223770E-01
         52   -1    0    0    0    0  0.00000000000E+00  0.00000000000E+00  0.64930732323E+04  0.65000000000E+04  0.30000000000E+03 0.  1.
        -52   -1    0    0    0    0 -0.00000000000E+00 -0.00000000000E+00 -0.64930732323E+04  0.65000000000E+04  0.30000000000E+03 0. -1.
     100001    1    1    2    0    0 -0.16952690173E+04 -0.46696572895E+04 -0.41889991057E+04  0.65000000000E+04  0.15050000000E+03 0. -1.
     100001    1    1    2    0    0  0.16952690173E+04  0.46696572895E+04  0.41889991057E+04  0.65000000000E+04  0.15050000000E+03 0.  1.
</event>
<event>
 4    1  0.4630618E-004  0.6500000E+04  0.7818608E-02  0.7223770E-01
         52   -1    0    0    0    0  0.00000000000E+00  0.00000000000E+00  0.64930732323E+04  0.65000000000E+04  0.30000000000E+03 0.  1.
        -52   -1    0    0    0    0 -0.00000000000E+00 -0.00000000000E+00 -0.64930732323E+04  0.65000000000E+04  0.30000000000E+03 0. -1.
     100001    1    1    2    0    0 -0.33917118420E+04 -0.16827072303E+04 -0.52813006834E+04  0.65000000000E+04  0.15050000000E+03 0. -1.
     100001    1    1    2    0    0  0.33917118420E+04  0.16827072303E+04  0.52813006834E+04  0.65000000000E+04  0.15050000000E+03 0.  1.
</event>
<event>
 4    1  0.4630618E-004  0.6500000E+04  0.7818608E-02  0.7223770E-01
         52   -1    0    0    0    0  0.00000000000E+00  0.00000000000E+00  0.64930732323E+04  0.65000000000E+04  0.30000000000E+03 0. -1.
        -52   -1    0    0    0    0 -0.00000000000E+00 -0.00000000000E+00 -0.64930732323E+04  0.65000000000E+04  0.30000000000E+03 0.  1.
     100001    1    1    2    0    0 -0.30800853952E+04  0.43133213003E+04  0.37597450804E+04  0.65000000000E+04  0.15050000000E+03 0. -1.
     100001    1    1    2    0    0  0.30800853952E+04 -0.43133213003E+04 -0.37597450804E+04  0.65000000000E+04  0.15050000000E+03 0.  1.
</event>
<event>
 4    1  0.4630618E-004  0.6500000E+04  0.7818608E-02  0.7223770E-01
         52   -1    0    0    0    0  0.00000000000E+00  0.00000000000E+00  0.64930732323E+04  0.65000000000E+04  0.30000000000E+03 0.  1.
        -52   -1    0    0    0    0 -0.00000000000E+00 -0.00000000000E+00 -0.64930732323E+04  0.65000000000E+04  0.30000000000E+03 0. -1.
     100001    1    1    2    0    0 -0.16160384831E+04 -0.17398773956E+04  0.60488508015E+04  0.65000000000E+04  0.15050000000E+03 0.  1.
     100001    1    1    2    0    0  0.16160384831E+04  0.17398773956E+04 -0.60488508015E+04  0.65000000000E+04  0.15050000000E+03 0. -1.
</event>
<event>
 4    1  0.4630618E-004  0.6500000E+04  0.7818608E-02  0.7223770E-01
         52   -1    0    0    0    0  0.00000000000E+00  0.00000000000E+00  0.64930732323E+04  0.65000000000E+04  0.30000000000E+03 0.  1.
        -52   -1    0    0    0    0 -0.00000000000E+00 -0.00000000000E+00 -0.64930732323E+04  0.65000000000E+04  0.30000000000E+03 0.  1.
     100001    1    1    2    0    0  0.30670999600E+03 -0.14630962091E+02 -0.64909987416E+04  0.65000000000E+04  0.15050000000E+03 0.  1.
     100001    1    1    2    0    0 -0.30670999600E+03  0.14630962091E+02  0.64909987416E+04  0.65000000000E+04  0.15050000000E+03 0.  1.
</event>
<event>
 4    1  0.4630618E-004  0.6500000E+04  0.7818608E-02  0.7223770E-01
         52   -1    0    0    0    0  0.00000000000E+00  0.00000000000E+00  0.64930732323E+04  0.65000000000E+04  0.30000000000E+03 0. -1.
        -52   -1    0    0    0    0 -0.00000000000E+00 -0.00000000000E+00 -0.64930732323E+04  0.65000000000E+04  0.30000000000E+03 0.  1.
     100001    1    1    2    0    0  0.14610339044E+03 -0.36836188297E+03  0.64861632012E+04  0.65000000000E+04  0.15050000000E+03 0. -1.
     100001    1    1    2    0    0 -0.14610339044E+03  0.36836188297E+03 -0.64861632012E+04  0.65000000000E+04  0.15050000000E+03 0.  1.
</event>
<event>
 4    1  0.4630618E-004  0.6500000E+04  0.7818608E-02  0.7223770E-01
         52   -1    0    0    0    0  0.00000000000E+00  0.00000000000E+00  0.64930732323E+04  0.65000000000E+04  0.30000000000E+03 0. -1.
        -52   -1    0    0    0    0 -0.00000000000E+00 -0.00000000000E+00 -0.64930732323E+04  0.65000000000E+04  0.30000000000E+03 0.  1.
     100001    1    1    2    0    0 -0.64476191203E+04 -0.80105529503E+03 -0.11776181152E+03  0.65000000000E+04  0.15050000000E+03 0. -1.
     100001    1    1    2    0    0  0.64476191203E+04  0.80105529503E+03  0.11776181152E+03  0.65000000000E+04  0.15050000000E+03 0.  1.
</event>
<event>
 4    1  0.4630618E-004  0.6500000E+04  0.7818608E-02  0.7223770E-01
         52   -1    0    0    0    0  0.00000000000E+00  0.00000000000E+00  0.64930732323E+04  0.65000000000E+04  0.30000000000E+03 0. -1.
        -52   -1    0    0    0    0 -0.00000000000E+00 -0.00000000000E+00 -0.64930732323E+04  0.65000000000E+04  0.30000000000E+03 0.  1.
     100001    1    1    2    0    0 -0.14145029657E+04  0.21370504296E+04  0.59715614852E+04  0.65000000000E+04  0.15050000000E+03 0. -1.
     100001    1    1    2    0    0  0.14145029657E+04 -0.21370504296E+04 -0.59715614852E+04  0.65000000000E+04  0.15050000000E+03 0.  1.
</event>
<event>
 4    1  0.4630618E-004  0.6500000E+04  0.7818608E-02  0.7223770E-01
         52   -1    0    0    0    0  0.00000000000E+00  0.00000000000E+00  0.64930732323E+04  0.65000000000E+04  0.30000000000E+03 0. -1.
        -52   -1    0    0    0    0 -0.00000000000E+00 -0.00000000000E+00 -0.64930732323E+04  0.65000000000E+04  0.30000000000E+03 0.  1.
     100001    1    1    2    0    0  0.35590071585E+03  0.36124872361E+03  0.64784399195E+04  0.65000000000E+04  0.15050000000E+03 0. -1.
     100001    1    1    2    0    0 -0.35590071585E+03 -0.36124872361E+03 -0.64784399195E+04  0.65000000000E+04  0.15050000000E+03 0.  1.
</event>
<event>
 4    1  0.4630618E-004  0.6500000E+04  0.7818608E-02  0.7223770E-01
         52   -1    0    0    0    0  0.00000000000E+00  0.00000000000E+00  0.64930732323E+04  0.65000000000E+04  0.30000000000E+03 0.  1.
        -52   -1    0    0    0    0 -0.00000000000E+00 -0.00000000000E+00 -0.64930732323E+04  0.65000000000E+04  0.30000000000E+03 0. -1.
     100001    1    1    2    0    0  0.56435005979E+04  0.15767949989E+04 -0.28092647228E+04  0.65000000000E+04  0.15050000000E+03 0. -1.
     100001    1    1    2    0    0 -0.56435005979E+04 -0.15767949989E+04  0.28092647228E+04  0.65000000000E+04  0.15050000000E+03 0.  1.
</event>
<event>
 4    1  0.4630618E-004  0.6500000E+04  0.7818608E-02  0.7223770E-01
         52   -1    0    0    0    0  0.00000000000E+00  0.00000000000E+00  0.64930732323E+04  0.65000000000E+04  0.30000000000E+03 0.  1.
        -52   -1    0    0    0    0 -0.00000000000E+00 -0.00000000000E+00 -0.64930732323E+04  0.65000000000E+04  0.30000000000E+03 0.  1.
     100001    1    1    2    0    0  0.45845246974E+02  0.27040906720E+03  0.64924669348E+04  0.65000000000E+04  0.15050000000E+03 0.  1.
     100001    1    1    2    0    0 -0.45845246974E+02 -0.27040906720E+03 -0.64924669348E+04  0.65000000000E+04  0.15050000000E+03 0.  1.
</event>
<event>
 4    1  0.4630618E-004  0.6500000E+04  0.7818608E-02  0.7223770E-01
         52   -1    0    0    0    0  0.00000000000E+00  0.00000000000E+00  0.64930732323E+04  0.65000000000E+04  0.30000000000E+03 0.  1.
        -52   -1    0    0    0    0 -0.00000000000E+00 -0.00000000000E+00 -0.64930732323E+04  0.65000000000E+04  0.30000000000E+03 0. -1.
     100001    1    1    2    0    0  0.61836864030E+03 -0.43933909684E+03  0.64538322827E+04  0.65000000000E+04  0.15050000000E+03 0.  1.
     100001    1    1    2    0    0 -0.61836864030E+03  0.43933909684E+03 -0.64538322827E+04  0.65000000000E+04  0.15050000000E+03 0. -1.
</event>
<event>
 4    1  0.4630618E-004  0.6500000E+04  0.7818608E-02  0.7223770E-01
         52   -1    0    0    0    0  0.00000000000E+00  0.00000000000E+00  0.64930732323E+04  0.65000000000E+04  0.30000000000E+03 0.  1.
        -52   -1    0    0    0    0 -0.00000000000E+00 -0.00000000000E+00 -0.64930732323E+04  0.65000000000E+04  0.30000000000E+03 0. -1.
     100001    1    1    2    0    0  0.11483758250E+04  0.62671189046E+02  0.63956747132E+04  0.65000000000E+04  0.15050000000E+03 0.  1.
     100001    1    1    2    0    0 -0.11483758250E+04 -0.62671189046E+02 -0.63956747132E+04  0.65000000000E+04  0.15050000000E+03 0. -1.
</event>
<event>
 4    1  0.4630618E-004  0.6500000E+04  0.7818608E-02  0.7223770E-01
         52   -1    0    0    0    0  0.00000000000E+00  0.00000000000E+00  0.64930732323E+04  0.65000000000E+04  0.30000000000E+03 0.  1.
        -52   -1    0    0    0    0 -0.00000000000E+00 -0.00000000000E+00 -0.64930732323E+04  0.65000000000E+04  0.30000000000E+03 0. -1.
     100001    1    1    2    0    0  0.10623134339E+04  0.14116324751E+04 -0.62534897196E+04  0.65000000000E+04  0.15050000000E+03 0. -1.
     100001    1    1    2    0    0 -0.10623134339E+04 -0.14116324751E+04  0.62534897196E+04  0.65000000000E+04  0.15050000000E+03 0.  1.
</event>
<event>
 4    1  0.4630618E-004  0.6500000E+04  0.7818608E-02  0.7223770E-01
         52   -1    0    0    0    0  0.00000000000E+00  0.00000000000E+00  0.64930732323E+04  0.65000000000E+04  0.30000000000E+03 0.  1.
        -52   -1    0    0    0    0 -0.00000000000E+00 -0.00000000000E+00 -0.64930732323E+04  0.65000000000E+04  0.30000000000E+03 0. -1.
     100001    1    1    2    0    0 -0.11015522780E+04 -0.13738772710E+04  0.62551093974E+04  0.65000000000E+04  0.15050000000E+03 0.  1.
     100001    1    1    2    0    0  0.11015522780E+04  0.13738772710E+04 -0.62551093974E+04  0.65000000000E+04  0.15050000000E+03 0. -1.
</event>
<event>
 4    1  0.4630618E-004  0.6500000E+04  0.7818608E-02  0.7223770E-01
         52   -1    0    0    0    0  0.00000000000E+00  0.00000000000E+00  0.64930732323E+04  0.65000000000E+04  0.30000000000E+03 0. -1.
        -52   -1    0    0    0    0 -0.00000000000E+00 -0.00000000000E+00 -0.64930732323E+04  0.65000000000E+04  0.30000000000E+03 0.  1.
     100001    1    1    2    0    0 -0.43583145260E+03 -0.64364396782E+03 -0.64515984948E+04  0.65000000000E+04  0.15050000000E+03 0.  1.
     100001    1    1    2    0    0  0.43583145260E+03  0.64364396782E+03  0.64515984948E+04  0.65000000000E+04  0.15050000000E+03 0. -1.
</event>
<event>
 4    1  0.4630618E-004  0.6500000E+04  0.7818608E-02  0.7223770E-01
         52   -1    0    0    0    0  0.00000000000E+00  0.00000000000E+00  0.64930732323E+04  0.65000000000E+04  0.30000000000E+03 0.  1.
        -52   -1    0    0    0    0 -0.00000000000E+00 -0.00000000000E+00 -0.64930732323E+04  0.65000000000E+04  0.30000000000E+03 0. -1.
     100001    1    1    2    0    0  0.48060161725E+03 -0.56464512937E+03  0.64558150309E+04  0.65000000000E+04  0.15050000000E+03 0.  1.
     100001    1    1    2    0    0 -0.48060161725E+03  0.56464512937E+03 -0.64558150309E+04  0.65000000000E+04  0.15050000000E+03 0. -1.
</event>
<event>
 4    1  0.4630618E-004  0.6500000E+04  0.7818608E-02  0.7223770E-01
         52   -1    0    0    0    0  0.00000000000E+00  0.00000000000E+00  0.64930732323E+04  0.65000000000E+04  0.30000000000E+03 0. -1.
        -52   -1    0    0    0    0 -0.00000000000E+00 -0.00000000000E+00 -0.64930732323E+04  0.65000000000E+04  0.30000000000E+03 0.  1.
     100001    1    1    2    0    0  0.18635707407E+03 -0.10415736031E+04  0.64115322054E+04  0.65000000000E+04  0.15050000000E+03 0. -1.
     100001    1    1    2    0    0 -0.18635707407E+03  0.10415736031E+04 -0.64115322054E+04  0.65000000000E+04  0.15050000000E+03 0.  1.
</event>
<event>
 4    1  0.4630618E-004  0.6500000E+04  0.7818608E-02  0.7223770E-01
         52   -1    0    0    0    0  0.00000000000E+00  0.00000000000E+00  0.64930732323E+04  0.65000000000E+04  0.30000000000E+03 0. -1.
        -52   -1    0    0    0    0 -0.00000000000E+00 -0.00000000000E+00 -0.64930732323E+04  0.65000000000E+04  0.30000000000E+03 0.  1.
     100001    1    1    2    0    0  0.35765809223E+02  0.91892140503E+03 -0.64328573751E+04  0.65000000000E+04  0.15050000000E+03 0.  1.
     100001    1    1    2    0    0 -0.35765809223E+02 -0.91892140503E+03  0.64328573751E+04  0.65000000000E+04  0.15050000000E+03 0. -1.
</event>
<event>
 4    1  0.4630618E-004  0.6500000E+04  0.7818608E-02  0.7223770E-01
         52   -1    0    0    0    0  0.00000000000E+00  0.00000000000E+00  0.64930732323E+04  0.65000000000E+04  0.30000000000E+03 0. -1.
        -52   -1    0    0    0    0 -0.00000000000E+00 -0.00000000000E+00 -0.64930732323E+04  0.65000000000E+04  0.30000000000E+03 0. -1.
     100001    1    1    2    0    0 -0.90550136758E+02 -0.65820739532E+03 -0.64642024603E+04  0.65000000000E+04  0.15050000000E+03 0. -1.
     100001    1    1    2    0    0  0.90550136758E+02  0.65820739532E+03  0.64642024603E+04  0.65000000000E+04  0.15050000000E+03 0. -1.
</event>
<event>
 4    1  0.4630618E-004  0.6500000E+04  0.7818608E-02  0.7223770E-01
         52   -1    0    0    0    0  0.00000000000E+00  0.00000000000E+00  0.64930732323E+04  0.65000000000E+04  0.30000000000E+03 0. -1.
        -52   -1    0    0    0    0 -0.00000000000E+00 -0.00000000000E+00 -0.64930732323E+04  0.65000000000E+04  0.30000000000E+03 0.  1.
     100001    1    1    2    0    0  0.29961941815E+04 -0.25415586384E+04  0.51759684953E+04  0.65000000000E+04  0.15050000000E+03 0. -1.
     100001    1    1    2    0    0 -0.29961941815E+04  0.25415586384E+04 -0.51759684953E+04  0.65000000000E+04  0.15050000000E+03 0.  1.
</event>
<event>
 4    1  0.4630618E-004  0.6500000E+04  0.7818608E-02  0.7223770E-01
         52   -1    0    0    0    0  0.00000000000E+00  0.00000000000E+00  0.64930732323E+04  0.65000000000E+04  0.30000000000E+03 0. -1.
        -52   -1    0    0    0    0 -0.00000000000E+00 -0.00000000000E+00 -0.64930732323E+04  0.65000000000E+04  0.30000000000E+03 0.  1.
     100001    1    1    2    0    0 -0.72267718218E+03  0.84331051197E+03  0.64026490471E+04  0.65000000000E+04  0.15050000000E+03 0. -1.
     100001    1    1    2    0    0  0.72267718218E+03 -0.84331051197E+03 -0.64026490471E+04  0.65000000000E+04  0.15050000000E+03 0.  1.
</event>
<event>
 4    1  0.4630618E-004  0.6500000E+04  0.7818608E-02  0.7223770E-01
         52   -1    0    0    0    0  0.00000000000E+00  0.00000000000E+00  0.64930732323E+04  0.65000000000E+04  0.30000000000E+03 0.  1.
        -52   -1    0    0    0    0 -0.00000000000E+00 -0.00000000000E+00 -0.64930732323E+04  0.65000000000E+04  0.30000000000E+03 0. -1.
     100001    1    1    2    0    0 -0.85671783367E+03 -0.11990876662E+04  0.63289472325E+04  0.65000000000E+04  0.15050000000E+03 0.  1.
     100001    1    1    2    0    0  0.85671783367E+03  0.11990876662E+04 -0.63289472325E+04  0.65000000000E+04  0.15050000000E+03 0. -1.
</event>
<event>
 4    1  0.4630618E-004  0.6500000E+04  0.7818608E-02  0.7223770E-01
         52   -1    0    0    0    0  0.00000000000E+00  0.00000000000E+00  0.64930732323E+04  0.65000000000E+04  0.30000000000E+03 0. -1.
        -52   -1    0    0    0    0 -0.00000000000E+00 -0.00000000000E+00 -0.64930732323E+04  0.65000000000E+04  0.30000000000E+03 0.  1.
     100001    1    1    2    0    0 -0.93113095245E+03  0.18677107813E+04  0.61540231830E+04  0.65000000000E+04  0.15050000000E+03 0. -1.
     100001    1    1    2    0    0  0.93113095245E+03 -0.18677107813E+04 -0.61540231830E+04  0.65000000000E+04  0.15050000000E+03 0.  1.
</event>
<event>
 4    1  0.4630618E-004  0.6500000E+04  0.7818608E-02  0.7223770E-01
         52   -1    0    0    0    0  0.00000000000E+00  0.00000000000E+00  0.64930732323E+04  0.65000000000E+04  0.30000000000E+03 0. -1.
        -52   -1    0    0    0    0 -0.00000000000E+00 -0.00000000000E+00 -0.64930732323E+04  0.65000000000E+04  0.30000000000E+03 0.  1.
     100001    1    1    2    0    0 -0.30875242024E+04  0.18775679451E+04  0.54008594373E+04  0.65000000000E+04  0.15050000000E+03 0. -1.
     100001    1    1    2    0    0  0.30875242024E+04 -0.18775679451E+04 -0.54008594373E+04  0.65000000000E+04  0.15050000000E+03 0.  1.
</event>
<event>
 4    1  0.4630618E-004  0.6500000E+04  0.7818608E-02  0.7223770E-01
         52   -1    0    0    0    0  0.00000000000E+00  0.00000000000E+00  0.64930732323E+04  0.65000000000E+04  0.30000000000E+03 0. -1.
        -52   -1    0    0    0    0 -0.00000000000E+00 -0.00000000000E+00 -0.64930732323E+04  0.65000000000E+04  0.30000000000E+03 0.  1.
     100001    1    1    2    0    0  0.19846349473E+04 -0.37209755154E+03  0.61765781213E+04  0.65000000000E+04  0.15050000000E+03 0. -1.
     100001    1    1    2    0    0 -0.19846349473E+04  0.37209755154E+03 -0.61765781213E+04  0.65000000000E+04  0.15050000000E+03 0.  1.
</event>
<event>
 4    1  0.4630618E-004  0.6500000E+04  0.7818608E-02  0.7223770E-01
         52   -1    0    0    0    0  0.00000000000E+00  0.00000000000E+00  0.64930732323E+04  0.65000000000E+04  0.30000000000E+03 0. -1.
        -52   -1    0    0    0    0 -0.00000000000E+00 -0.00000000000E+00 -0.64930732323E+04  0.65000000000E+04  0.30000000000E+03 0.  1.
     100001    1    1    2    0    0 -0.12849311917E+03 -0.13422499935E+04  0.63568234381E+04  0.65000000000E+04  0.15050000000E+03 0. -1.
     100001    1    1    2    0    0  0.12849311917E+03  0.13422499935E+04 -0.63568234381E+04  0.65000000000E+04  0.15050000000E+03 0.  1.
</event>
<event>
 4    1  0.4630618E-004  0.6500000E+04  0.7818608E-02  0.7223770E-01
         52   -1    0    0    0    0  0.00000000000E+00  0.00000000000E+00  0.64930732323E+04  0.65000000000E+04  0.30000000000E+03 0.  1.
        -52   -1    0    0    0    0 -0.00000000000E+00 -0.00000000000E+00 -0.64930732323E+04  0.65000000000E+04  0.30000000000E+03 0. -1.
     100001    1    1    2    0    0 -0.77937819543E+03  0.10626609873E+03 -0.64504749356E+04  0.65000000000E+04  0.15050000000E+03 0. -1.
     100001    1    1    2    0    0  0.77937819543E+03 -0.10626609873E+03  0.64504749356E+04  0.65000000000E+04  0.15050000000E+03 0.  1.
</event>
<event>
 4    1  0.4630618E-004  0.6500000E+04  0.7818608E-02  0.7223770E-01
         52   -1    0    0    0    0  0.00000000000E+00  0.00000000000E+00  0.64930732323E+04  0.65000000000E+04  0.30000000000E+03 0.  1.
        -52   -1    0    0    0    0 -0.00000000000E+00 -0.00000000000E+00 -0.64930732323E+04  0.65000000000E+04  0.30000000000E+03 0. -1.
     100001    1    1    2    0    0  0.45891771819E+04 -0.23799737761E+03  0.45945793923E+04  0.65000000000E+04  0.15050000000E+03 0.  1.
     100001    1    1    2    0    0 -0.45891771819E+04  0.23799737761E+03 -0.45945793923E+04  0.65000000000E+04  0.15050000000E+03 0. -1.
</event>
<event>
 4    1  0.4630618E-004  0.6500000E+04  0.7818608E-02  0.7223770E-01
         52   -1    0    0    0    0  0.00000000000E+00  0.00000000000E+00  0.64930732323E+04  0.65000000000E+04  0.30000000000E+03 0. -1.
        -52   -1    0    0    0    0 -0.00000000000E+00 -0.00000000000E+00 -0.64930732323E+04  0.65000000000E+04  0.30000000000E+03 0.  1.
     100001    1    1    2    0    0  0.76446951718E+03 -0.11525520014E+04 -0.63493747717E+04  0.65000000000E+04  0.15050000000E+03 0.  1.
     100001    1    1    2    0    0 -0.76446951718E+03  0.11525520014E+04  0.63493747717E+04  0.65000000000E+04  0.15050000000E+03 0. -1.
</event>
<event>
 4    1  0.4630618E-004  0.6500000E+04  0.7818608E-02  0.7223770E-01
         52   -1    0    0    0    0  0.00000000000E+00  0.00000000000E+00  0.64930732323E+04  0.65000000000E+04  0.30000000000E+03 0.  1.
        -52   -1    0    0    0    0 -0.00000000000E+00 -0.00000000000E+00 -0.64930732323E+04  0.65000000000E+04  0.30000000000E+03 0. -1.
     100001    1    1    2    0    0 -0.12250834024E+04 -0.33737258167E+03  0.63728094392E+04  0.65000000000E+04  0.15050000000E+03 0.  1.
     100001    1    1    2    0    0  0.12250834024E+04  0.33737258167E+03 -0.63728094392E+04  0.65000000000E+04  0.15050000000E+03 0. -1.
</event>
<event>
 4    1  0.4630618E-004  0.6500000E+04  0.7818608E-02  0.7223770E-01
         52   -1    0    0    0    0  0.00000000000E+00  0.00000000000E+00  0.64930732323E+04  0.65000000000E+04  0.30000000000E+03 0.  1.
        -52   -1    0    0    0    0 -0.00000000000E+00 -0.00000000000E+00 -0.64930732323E+04  0.65000000000E+04  0.30000000000E+03 0. -1.
     100001    1    1    2    0    0  0.11460005355E+04  0.17030642451E+03  0.63941401489E+04  0.65000000000E+04  0.15050000000E+03 0.  1.
     100001    1    1    2    0    0 -0.11460005355E+04 -0.17030642451E+03 -0.63941401489E+04  0.65000000000E+04  0.15050000000E+03 0. -1.
</event>
<event>
 4    1  0.6171566E-004  0.6500000E+04  0.7818608E-02  0.7223770E-01
         52   -1    0    0    0    0  0.00000000000E+00  0.00000000000E+00  0.64930732323E+04  0.65000000000E+04  0.30000000000E+03 0.  1.
        -52   -1    0    0    0    0 -0.00000000000E+00 -0.00000000000E+00 -0.64930732323E+04  0.65000000000E+04  0.30000000000E+03 0. -1.
     100001    1    1    2    0    0 -0.12597377627E+03  0.12901057990E+03 -0.64957552777E+04  0.65000000000E+04  0.15050000000E+03 0. -1.
     100001    1    1    2    0    0  0.12597377627E+03 -0.12901057990E+03  0.64957552777E+04  0.65000000000E+04  0.15050000000E+03 0.  1.
</event>
<event>
 4    1  0.4630618E-004  0.6500000E+04  0.7818608E-02  0.7223770E-01
         52   -1    0    0    0    0  0.00000000000E+00  0.00000000000E+00  0.64930732323E+04  0.65000000000E+04  0.30000000000E+03 0. -1.
        -52   -1    0    0    0    0 -0.00000000000E+00 -0.00000000000E+00 -0.64930732323E+04  0.65000000000E+04  0.30000000000E+03 0.  1.
     100001    1    1    2    0    0  0.14182691058E+04 -0.12165304243E+04 -0.62238184598E+04  0.65000000000E+04  0.15050000000E+03 0.  1.
     100001    1    1    2    0    0 -0.14182691058E+04  0.12165304243E+04  0.62238184598E+04  0.65000000000E+04  0.15050000000E+03 0. -1.
</event>
<event>
 4    1  0.6245210E-004  0.6500000E+04  0.7818608E-02  0.7223770E-01
         52   -1    0    0    0    0  0.00000000000E+00  0.00000000000E+00  0.64930732323E+04  0.65000000000E+04  0.30000000000E+03 0.  1.
        -52   -1    0    0    0    0 -0.00000000000E+00 -0.00000000000E+00 -0.64930732323E+04  0.65000000000E+04  0.30000000000E+03 0.  1.
     100001    1    1    2    0    0 -0.11952832091E+03  0.89559615229E+02 -0.64965407569E+04  0.65000000000E+04  0.15050000000E+03 0.  1.
     100001    1    1    2    0    0  0.11952832091E+03 -0.89559615229E+02  0.64965407569E+04  0.65000000000E+04  0.15050000000E+03 0.  1.
</event>
<event>
 4    1  0.4630618E-004  0.6500000E+04  0.7818608E-02  0.7223770E-01
         52   -1    0    0    0    0  0.00000000000E+00  0.00000000000E+00  0.64930732323E+04  0.65000000000E+04  0.30000000000E+03 0. -1.
        -52   -1    0    0    0    0 -0.00000000000E+00 -0.00000000000E+00 -0.64930732323E+04  0.65000000000E+04  0.30000000000E+03 0. -1.
     100001    1    1    2    0    0 -0.49617254487E+02 -0.15223757648E+02  0.64980501780E+04  0.65000000000E+04  0.15050000000E+03 0. -1.
     100001    1    1    2    0    0  0.49617254487E+02  0.15223757648E+02 -0.64980501780E+04  0.65000000000E+04  0.15050000000E+03 0. -1.
</event>
<event>
 4    1  0.4630618E-004  0.6500000E+04  0.7818608E-02  0.7223770E-01
         52   -1    0    0    0    0  0.00000000000E+00  0.00000000000E+00  0.64930732323E+04  0.65000000000E+04  0.30000000000E+03 0.  1.
        -52   -1    0    0    0    0 -0.00000000000E+00 -0.00000000000E+00 -0.64930732323E+04  0.65000000000E+04  0.30000000000E+03 0. -1.
     100001    1    1    2    0    0  0.58983891608E+03 -0.24006588321E+03  0.64669782878E+04  0.65000000000E+04  0.15050000000E+03 0.  1.
     100001    1    1    2    0    0 -0.58983891608E+03  0.24006588321E+03 -0.64669782878E+04  0.65000000000E+04  0.15050000000E+03 0. -1.
</event>
<event>
 4    1  0.4630618E-004  0.6500000E+04  0.7818608E-02  0.7223770E-01
         52   -1    0    0    0    0  0.00000000000E+00  0.00000000000E+00  0.64930732323E+04  0.65000000000E+04  0.30000000000E+03 0. -1.
        -52   -1    0    0    0    0 -0.00000000000E+00 -0.00000000000E+00 -0.64930732323E+04  0.65000000000E+04  0.30000000000E+03 0.  1.
     100001    1    1    2    0    0  0.34442235762E+03 -0.10891061662E+03 -0.64882094192E+04  0.65000000000E+04  0.15050000000E+03 0.  1.
     100001    1    1    2    0    0 -0.34442235762E+03  0.10891061662E+03  0.64882094192E+04  0.65000000000E+04  0.15050000000E+03 0. -1.
</event>
<event>
 4    1  0.4630618E-004  0.6500000E+04  0.7818608E-02  0.7223770E-01
         52   -1    0    0    0    0  0.00000000000E+00  0.00000000000E+00  0.64930732323E+04  0.65000000000E+04  0.30000000000E+03 0.  1.
        -52   -1    0    0    0    0 -0.00000000000E+00 -0.00000000000E+00 -0.64930732323E+04  0.65000000000E+04  0.30000000000E+03 0. -1.
     100001    1    1    2    0    0 -0.20363549542E+04  0.22843027127E+04  0.57325883654E+04  0.65000000000E+04  0.15050000000E+03 0.  1.
     100001    1    1    2    0    0  0.20363549542E+04 -0.22843027127E+04 -0.57325883654E+04  0.65000000000E+04  0.15050000000E+03 0. -1.
</event>
<event>
 4    1  0.4630618E-004  0.6500000E+04  0.7818608E-02  0.7223770E-01
         52   -1    0    0    0    0  0.00000000000E+00  0.00000000000E+00  0.64930732323E+04  0.65000000000E+04  0.30000000000E+03 0.  1.
        -52   -1    0    0    0    0 -0.00000000000E+00 -0.00000000000E+00 -0.64930732323E+04  0.65000000000E+04  0.30000000000E+03 0. -1.
     100001    1    1    2    0    0 -0.17685401754E+04 -0.11078532812E+04 -0.61540455397E+04  0.65000000000E+04  0.15050000000E+03 0. -1.
     100001    1    1    2    0    0  0.17685401754E+04  0.11078532812E+04  0.61540455397E+04  0.65000000000E+04  0.15050000000E+03 0.  1.
</event>
<event>
 4    1  0.4630618E-004  0.6500000E+04  0.7818608E-02  0.7223770E-01
         52   -1    0    0    0    0  0.00000000000E+00  0.00000000000E+00  0.64930732323E+04  0.65000000000E+04  0.30000000000E+03 0.  1.
        -52   -1    0    0    0    0 -0.00000000000E+00 -0.00000000000E+00 -0.64930732323E+04  0.65000000000E+04  0.30000000000E+03 0. -1.
     100001    1    1    2    0    0  0.26998854780E+04  0.46262813737E+04 -0.36790608594E+04  0.65000000000E+04  0.15050000000E+03 0. -1.
     100001    1    1    2    0    0 -0.26998854780E+04 -0.46262813737E+04  0.36790608594E+04  0.65000000000E+04  0.15050000000E+03 0.  1.
</event>
<event>
 4    1  0.4630618E-004  0.6500000E+04  0.7818608E-02  0.7223770E-01
         52   -1    0    0    0    0  0.00000000000E+00  0.00000000000E+00  0.64930732323E+04  0.65000000000E+04  0.30000000000E+03 0. -1.
        -52   -1    0    0    0    0 -0.00000000000E+00 -0.00000000000E+00 -0.64930732323E+04  0.65000000000E+04  0.30000000000E+03 0.  1.
     100001    1    1    2    0    0  0.42072952140E+04  0.22607848229E+03  0.49472118665E+04  0.65000000000E+04  0.15050000000E+03 0. -1.
     100001    1    1    2    0    0 -0.42072952140E+04 -0.22607848229E+03 -0.49472118665E+04  0.65000000000E+04  0.15050000000E+03 0.  1.
</event>
<event>
 4    1  0.4630618E-004  0.6500000E+04  0.7818608E-02  0.7223770E-01
         52   -1    0    0    0    0  0.00000000000E+00  0.00000000000E+00  0.64930732323E+04  0.65000000000E+04  0.30000000000E+03 0. -1.
        -52   -1    0    0    0    0 -0.00000000000E+00 -0.00000000000E+00 -0.64930732323E+04  0.65000000000E+04  0.30000000000E+03 0.  1.
     100001    1    1    2    0    0  0.39650009841E+04  0.49244503701E+04  0.15019672095E+04  0.65000000000E+04  0.15050000000E+03 0. -1.
     100001    1    1    2    0    0 -0.39650009841E+04 -0.49244503701E+04 -0.15019672095E+04  0.65000000000E+04  0.15050000000E+03 0.  1.
</event>
<event>
 4    1  0.4630618E-004  0.6500000E+04  0.7818608E-02  0.7223770E-01
         52   -1    0    0    0    0  0.00000000000E+00  0.00000000000E+00  0.64930732323E+04  0.65000000000E+04  0.30000000000E+03 0. -1.
        -52   -1    0    0    0    0 -0.00000000000E+00 -0.00000000000E+00 -0.64930732323E+04  0.65000000000E+04  0.30000000000E+03 0.  1.
     100001    1    1    2    0    0 -0.40556506003E+03 -0.68133369993E+03 -0.64497016304E+04  0.65000000000E+04  0.15050000000E+03 0.  1.
     100001    1    1    2    0    0  0.40556506003E+03  0.68133369993E+03  0.64497016304E+04  0.65000000000E+04  0.15050000000E+03 0. -1.
</event>
<event>
 4    1  0.4630618E-004  0.6500000E+04  0.7818608E-02  0.7223770E-01
         52   -1    0    0    0    0  0.00000000000E+00  0.00000000000E+00  0.64930732323E+04  0.65000000000E+04  0.30000000000E+03 0. -1.
        -52   -1    0    0    0    0 -0.00000000000E+00 -0.00000000000E+00 -0.64930732323E+04  0.65000000000E+04  0.30000000000E+03 0.  1.
     100001    1    1    2    0    0 -0.79480555665E+03  0.65317900313E+03  0.64163066531E+04  0.65000000000E+04  0.15050000000E+03 0. -1.
     100001    1    1    2    0    0  0.79480555665E+03 -0.65317900313E+03 -0.64163066531E+04  0.65000000000E+04  0.15050000000E+03 0.  1.
</event>
<event>
 4    1  0.4630618E-004  0.6500000E+04  0.7818608E-02  0.7223770E-01
         52   -1    0    0    0    0  0.00000000000E+00  0.00000000000E+00  0.64930732323E+04  0.65000000000E+04  0.30000000000E+03 0. -1.
        -52   -1    0    0    0    0 -0.00000000000E+00 -0.00000000000E+00 -0.64930732323E+04  0.65000000000E+04  0.30000000000E+03 0.  1.
     100001    1    1    2    0    0 -0.10746239734E+04 -0.86305585030E+03  0.63504068897E+04  0.65000000000E+04  0.15050000000E+03 0. -1.
     100001    1    1    2    0    0  0.10746239734E+04  0.86305585030E+03 -0.63504068897E+04  0.65000000000E+04  0.15050000000E+03 0.  1.
</event>
<event>
 4    1  0.4630618E-004  0.6500000E+04  0.7818608E-02  0.7223770E-01
         52   -1    0    0    0    0  0.00000000000E+00  0.00000000000E+00  0.64930732323E+04  0.65000000000E+04  0.30000000000E+03 0.  1.
        -52   -1    0    0    0    0 -0.00000000000E+00 -0.00000000000E+00 -0.64930732323E+04  0.65000000000E+04  0.30000000000E+03 0.  1.
     100001    1    1    2    0    0 -0.25284136421E+03  0.30909107527E+03  0.64859759252E+04  0.65000000000E+04  0.15050000000E+03 0.  1.
     100001    1    1    2    0    0  0.25284136421E+03 -0.30909107527E+03 -0.64859759252E+04  0.65000000000E+04  0.15050000000E+03 0.  1.
</event>
<event>
 4    1  0.4630618E-004  0.6500000E+04  0.7818608E-02  0.7223770E-01
         52   -1    0    0    0    0  0.00000000000E+00  0.00000000000E+00  0.64930732323E+04  0.65000000000E+04  0.30000000000E+03 0.  1.
        -52   -1    0    0    0    0 -0.00000000000E+00 -0.00000000000E+00 -0.64930732323E+04  0.65000000000E+04  0.30000000000E+03 0. -1.
     100001    1    1    2    0    0 -0.22175884151E+04 -0.94298343945E+03  0.60349344325E+04  0.65000000000E+04  0.15050000000E+03 0.  1.
     100001    1    1    2    0    0  0.22175884151E+04  0.94298343945E+03 -0.60349344325E+04  0.65000000000E+04  0.15050000000E+03 0. -1.
</event>
<event>
 4    1  0.4630618E-004  0.6500000E+04  0.7818608E-02  0.7223770E-01
         52   -1    0    0    0    0  0.00000000000E+00  0.00000000000E+00  0.64930732323E+04  0.65000000000E+04  0.30000000000E+03 0.  1.
        -52   -1    0    0    0    0 -0.00000000000E+00 -0.00000000000E+00 -0.64930732323E+04  0.65000000000E+04  0.30000000000E+03 0. -1.
     100001    1    1    2    0    0 -0.64435983454E+04  0.41596890778E+03  0.73099930277E+03  0.65000000000E+04  0.15050000000E+03 0.  1.
     100001    1    1    2    0    0  0.64435983454E+04 -0.41596890778E+03 -0.73099930277E+03  0.65000000000E+04  0.15050000000E+03 0. -1.
</event>
<event>
 4    1  0.4630618E-004  0.6500000E+04  0.7818608E-02  0.7223770E-01
         52   -1    0    0    0    0  0.00000000000E+00  0.00000000000E+00  0.64930732323E+04  0.65000000000E+04  0.30000000000E+03 0.  1.
        -52   -1    0    0    0    0 -0.00000000000E+00 -0.00000000000E+00 -0.64930732323E+04  0.65000000000E+04  0.30000000000E+03 0. -1.
     100001    1    1    2    0    0  0.72239838582E+03  0.23528533179E+03 -0.64536912798E+04  0.65000000000E+04  0.15050000000E+03 0. -1.
     100001    1    1    2    0    0 -0.72239838582E+03 -0.23528533179E+03  0.64536912798E+04  0.65000000000E+04  0.15050000000E+03 0.  1.
</event>
<event>
 4    1  0.4630618E-004  0.6500000E+04  0.7818608E-02  0.7223770E-01
         52   -1    0    0    0    0  0.00000000000E+00  0.00000000000E+00  0.64930732323E+04  0.65000000000E+04  0.30000000000E+03 0. -1.
        -52   -1    0    0    0    0 -0.00000000000E+00 -0.00000000000E+00 -0.64930732323E+04  0.65000000000E+04  0.30000000000E+03 0.  1.
     100001    1    1    2    0    0 -0.91171720955E+03  0.97784296185E+03 -0.63592408841E+04  0.65000000000E+04  0.15050000000E+03 0.  1.
     100001    1    1    2    0    0  0.91171720955E+03 -0.97784296185E+03  0.63592408841E+04  0.65000000000E+04  0.15050000000E+03 0. -1.
</event>
<event>
 4    1  0.4630618E-004  0.6500000E+04  0.7818608E-02  0.7223770E-01
         52   -1    0    0    0    0  0.00000000000E+00  0.00000000000E+00  0.64930732323E+04  0.65000000000E+04  0.30000000000E+03 0. -1.
        -52   -1    0    0    0    0 -0.00000000000E+00 -0.00000000000E+00 -0.64930732323E+04  0.65000000000E+04  0.30000000000E+03 0.  1.
     100001    1    1    2    0    0 -0.84895200306E+03  0.75635107080E+03 -0.63980124495E+04  0.65000000000E+04  0.15050000000E+03 0.  1.
     100001    1    1    2    0    0  0.84895200306E+03 -0.75635107080E+03  0.63980124495E+04  0.65000000000E+04  0.15050000000E+03 0. -1.
</event>
<event>
 4    1  0.4630618E-004  0.6500000E+04  0.7818608E-02  0.7223770E-01
         52   -1    0    0    0    0  0.00000000000E+00  0.00000000000E+00  0.64930732323E+04  0.65000000000E+04  0.30000000000E+03 0.  1.
        -52   -1    0    0    0    0 -0.00000000000E+00 -0.00000000000E+00 -0.64930732323E+04  0.65000000000E+04  0.30000000000E+03 0. -1.
     100001    1    1    2    0    0 -0.19254509747E+04  0.35738752169E+03 -0.61961490019E+04  0.65000000000E+04  0.15050000000E+03 0. -1.
     100001    1    1    2    0    0  0.19254509747E+04 -0.35738752169E+03  0.61961490019E+04  0.65000000000E+04  0.15050000000E+03 0.  1.
</event>
<event>
 4    1  0.4630618E-004  0.6500000E+04  0.7818608E-02  0.7223770E-01
         52   -1    0    0    0    0  0.00000000000E+00  0.00000000000E+00  0.64930732323E+04  0.65000000000E+04  0.30000000000E+03 0.  1.
        -52   -1    0    0    0    0 -0.00000000000E+00 -0.00000000000E+00 -0.64930732323E+04  0.65000000000E+04  0.30000000000E+03 0. -1.
     100001    1    1    2    0    0 -0.12555172707E+03 -0.53477462645E+03 -0.64749982713E+04  0.65000000000E+04  0.15050000000E+03 0. -1.
     100001    1    1    2    0    0  0.12555172707E+03  0.53477462645E+03  0.64749982713E+04  0.65000000000E+04  0.15050000000E+03 0.  1.
</event>
<event>
 4    1  0.4630618E-004  0.6500000E+04  0.7818608E-02  0.7223770E-01
         52   -1    0    0    0    0  0.00000000000E+00  0.00000000000E+00  0.64930732323E+04  0.65000000000E+04  0.30000000000E+03 0. -1.
        -52   -1    0    0    0    0 -0.00000000000E+00 -0.00000000000E+00 -0.64930732323E+04  0.65000000000E+04  0.30000000000E+03 0. -1.
     100001    1    1    2    0    0 -0.31793942333E+03 -0.64582268882E+03 -0.64582642659E+04  0.65000000000E+04  0.15050000000E+03 0. -1.
     100001    1    1    2    0    0  0.31793942333E+03  0.64582268882E+03  0.64582642659E+04  0.65000000000E+04  0.15050000000E+03 0. -1.
</event>
<event>
 4    1  0.4630618E-004  0.6500000E+04  0.7818608E-02  0.7223770E-01
         52   -1    0    0    0    0  0.00000000000E+00  0.00000000000E+00  0.64930732323E+04  0.65000000000E+04  0.30000000000E+03 0. -1.
        -52   -1    0    0    0    0 -0.00000000000E+00 -0.00000000000E+00 -0.64930732323E+04  0.65000000000E+04  0.30000000000E+03 0.  1.
     100001    1    1    2    0    0  0.87081200036E+03  0.18858707699E+03 -0.64368836501E+04  0.65000000000E+04  0.15050000000E+03 0.  1.
     100001    1    1    2    0    0 -0.87081200036E+03 -0.18858707699E+03  0.64368836501E+04  0.65000000000E+04  0.15050000000E+03 0. -1.
</event>
<event>
 4    1  0.6734860E-004  0.6500000E+04  0.7818608E-02  0.7223770E-01
         52   -1    0    0    0    0  0.00000000000E+00  0.00000000000E+00  0.64930732323E+04  0.65000000000E+04  0.30000000000E+03 0.  1.
        -52   -1    0    0    0    0 -0.00000000000E+00 -0.00000000000E+00 -0.64930732323E+04  0.65000000000E+04  0.30000000000E+03 0.  1.
     100001    1    1    2    0    0 -0.11308552350E+03 -0.22297248592E+02 -0.64972351233E+04  0.65000000000E+04  0.15050000000E+03 0.  1.
     100001    1    1    2    0    0  0.11308552350E+03  0.22297248592E+02  0.64972351233E+04  0.65000000000E+04  0.15050000000E+03 0.  1.
</event>
<event>
 4    1  0.4630618E-004  0.6500000E+04  0.7818608E-02  0.7223770E-01
         52   -1    0    0    0    0  0.00000000000E+00  0.00000000000E+00  0.64930732323E+04  0.65000000000E+04  0.30000000000E+03 0.  1.
        -52   -1    0    0    0    0 -0.00000000000E+00 -0.00000000000E+00 -0.64930732323E+04  0.65000000000E+04  0.30000000000E+03 0. -1.
     100001    1    1    2    0    0  0.19420532619E+04 -0.83749580006E+03 -0.61444592653E+04  0.65000000000E+04  0.15050000000E+03 0. -1.
     100001    1    1    2    0    0 -0.19420532619E+04  0.83749580006E+03  0.61444592653E+04  0.65000000000E+04  0.15050000000E+03 0.  1.
</event>
<event>
 4    1  0.4630618E-004  0.6500000E+04  0.7818608E-02  0.7223770E-01
         52   -1    0    0    0    0  0.00000000000E+00  0.00000000000E+00  0.64930732323E+04  0.65000000000E+04  0.30000000000E+03 0.  1.
        -52   -1    0    0    0    0 -0.00000000000E+00 -0.00000000000E+00 -0.64930732323E+04  0.65000000000E+04  0.30000000000E+03 0. -1.
     100001    1    1    2    0    0 -0.10772134699E+04 -0.11031667618E+04  0.63126843724E+04  0.65000000000E+04  0.15050000000E+03 0.  1.
     100001    1    1    2    0    0  0.10772134699E+04  0.11031667618E+04 -0.63126843724E+04  0.65000000000E+04  0.15050000000E+03 0. -1.
</event>
<event>
 4    1  0.4630618E-004  0.6500000E+04  0.7818608E-02  0.7223770E-01
         52   -1    0    0    0    0  0.00000000000E+00  0.00000000000E+00  0.64930732323E+04  0.65000000000E+04  0.30000000000E+03 0. -1.
        -52   -1    0    0    0    0 -0.00000000000E+00 -0.00000000000E+00 -0.64930732323E+04  0.65000000000E+04  0.30000000000E+03 0. -1.
     100001    1    1    2    0    0 -0.96611892599E+02  0.29393773796E+03 -0.64908871889E+04  0.65000000000E+04  0.15050000000E+03 0. -1.
     100001    1    1    2    0    0  0.96611892599E+02 -0.29393773796E+03  0.64908871889E+04  0.65000000000E+04  0.15050000000E+03 0. -1.
</event>
<event>
 4    1  0.4630618E-004  0.6500000E+04  0.7818608E-02  0.7223770E-01
         52   -1    0    0    0    0  0.00000000000E+00  0.00000000000E+00  0.64930732323E+04  0.65000000000E+04  0.30000000000E+03 0. -1.
        -52   -1    0    0    0    0 -0.00000000000E+00 -0.00000000000E+00 -0.64930732323E+04  0.65000000000E+04  0.30000000000E+03 0.  1.
     100001    1    1    2    0    0  0.22287512616E+03 -0.24008345827E+03  0.64899950972E+04  0.65000000000E+04  0.15050000000E+03 0. -1.
     100001    1    1    2    0    0 -0.22287512616E+03  0.24008345827E+03 -0.64899950972E+04  0.65000000000E+04  0.15050000000E+03 0.  1.
</event>
<event>
 4    1  0.4630618E-004  0.6500000E+04  0.7818608E-02  0.7223770E-01
         52   -1    0    0    0    0  0.00000000000E+00  0.00000000000E+00  0.64930732323E+04  0.65000000000E+04  0.30000000000E+03 0.  1.
        -52   -1    0    0    0    0 -0.00000000000E+00 -0.00000000000E+00 -0.64930732323E+04  0.65000000000E+04  0.30000000000E+03 0. -1.
     100001    1    1    2    0    0 -0.33990614190E+04  0.34845455880E+03  0.55274144625E+04  0.65000000000E+04  0.15050000000E+03 0.  1.
     100001    1    1    2    0    0  0.33990614190E+04 -0.34845455880E+03 -0.55274144625E+04  0.65000000000E+04  0.15050000000E+03 0. -1.
</event>
<event>
 4    1  0.4630618E-004  0.6500000E+04  0.7818608E-02  0.7223770E-01
         52   -1    0    0    0    0  0.00000000000E+00  0.00000000000E+00  0.64930732323E+04  0.65000000000E+04  0.30000000000E+03 0. -1.
        -52   -1    0    0    0    0 -0.00000000000E+00 -0.00000000000E+00 -0.64930732323E+04  0.65000000000E+04  0.30000000000E+03 0.  1.
     100001    1    1    2    0    0 -0.32893768381E+04 -0.43308952476E+04 -0.35567817085E+04  0.65000000000E+04  0.15050000000E+03 0.  1.
     100001    1    1    2    0    0  0.32893768381E+04  0.43308952476E+04  0.35567817085E+04  0.65000000000E+04  0.15050000000E+03 0. -1.
</event>
<event>
 4    1  0.4630618E-004  0.6500000E+04  0.7818608E-02  0.7223770E-01
         52   -1    0    0    0    0  0.00000000000E+00  0.00000000000E+00  0.64930732323E+04  0.65000000000E+04  0.30000000000E+03 0. -1.
        -52   -1    0    0    0    0 -0.00000000000E+00 -0.00000000000E+00 -0.64930732323E+04  0.65000000000E+04  0.30000000000E+03 0.  1.
     100001    1    1    2    0    0 -0.17776816932E+04  0.53936824128E+04  0.31583836969E+04  0.65000000000E+04  0.15050000000E+03 0. -1.
     100001    1    1    2    0    0  0.17776816932E+04 -0.53936824128E+04 -0.31583836969E+04  0.65000000000E+04  0.15050000000E+03 0.  1.
</event>
<event>
 4    1  0.4630618E-004  0.6500000E+04  0.7818608E-02  0.7223770E-01
         52   -1    0    0    0    0  0.00000000000E+00  0.00000000000E+00  0.64930732323E+04  0.65000000000E+04  0.30000000000E+03 0.  1.
        -52   -1    0    0    0    0 -0.00000000000E+00 -0.00000000000E+00 -0.64930732323E+04  0.65000000000E+04  0.30000000000E+03 0.  1.
     100001    1    1    2    0    0 -0.34475358780E+03  0.61571388042E+03  0.64598290327E+04  0.65000000000E+04  0.15050000000E+03 0.  1.
     100001    1    1    2    0    0  0.34475358780E+03 -0.61571388042E+03 -0.64598290327E+04  0.65000000000E+04  0.15050000000E+03 0.  1.
</event>
<event>
 4    1  0.4630618E-004  0.6500000E+04  0.7818608E-02  0.7223770E-01
         52   -1    0    0    0    0  0.00000000000E+00  0.00000000000E+00  0.64930732323E+04  0.65000000000E+04  0.30000000000E+03 0.  1.
        -52   -1    0    0    0    0 -0.00000000000E+00 -0.00000000000E+00 -0.64930732323E+04  0.65000000000E+04  0.30000000000E+03 0. -1.
     100001    1    1    2    0    0  0.17444087744E+03  0.63667930889E+03 -0.64646391692E+04  0.65000000000E+04  0.15050000000E+03 0. -1.
     100001    1    1    2    0    0 -0.17444087744E+03 -0.63667930889E+03  0.64646391692E+04  0.65000000000E+04  0.15050000000E+03 0.  1.
</event>
<event>
 4    1  0.4630618E-004  0.6500000E+04  0.7818608E-02  0.7223770E-01
         52   -1    0    0    0    0  0.00000000000E+00  0.00000000000E+00  0.64930732323E+04  0.65000000000E+04  0.30000000000E+03 0.  1.
        -52   -1    0    0    0    0 -0.00000000000E+00 -0.00000000000E+00 -0.64930732323E+04  0.65000000000E+04  0.30000000000E+03 0. -1.
     100001    1    1    2    0    0 -0.48248628866E+03  0.30368624733E+04 -0.57246854105E+04  0.65000000000E+04  0.15050000000E+03 0. -1.
     100001    1    1    2    0    0  0.48248628866E+03 -0.30368624733E+04  0.57246854105E+04  0.65000000000E+04  0.15050000000E+03 0.  1.
</event>
<event>
 4    1  0.4630618E-004  0.6500000E+04  0.7818608E-02  0.7223770E-01
         52   -1    0    0    0    0  0.00000000000E+00  0.00000000000E+00  0.64930732323E+04  0.65000000000E+04  0.30000000000E+03 0. -1.
        -52   -1    0    0    0    0 -0.00000000000E+00 -0.00000000000E+00 -0.64930732323E+04  0.65000000000E+04  0.30000000000E+03 0.  1.
     100001    1    1    2    0    0 -0.61490415739E+04  0.18840155050E+04 -0.93119442065E+03  0.65000000000E+04  0.15050000000E+03 0. -1.
     100001    1    1    2    0    0  0.61490415739E+04 -0.18840155050E+04  0.93119442065E+03  0.65000000000E+04  0.15050000000E+03 0.  1.
</event>
<event>
 4    1  0.4630618E-004  0.6500000E+04  0.7818608E-02  0.7223770E-01
         52   -1    0    0    0    0  0.00000000000E+00  0.00000000000E+00  0.64930732323E+04  0.65000000000E+04  0.30000000000E+03 0. -1.
        -52   -1    0    0    0    0 -0.00000000000E+00 -0.00000000000E+00 -0.64930732323E+04  0.65000000000E+04  0.30000000000E+03 0. -1.
     100001    1    1    2    0    0  0.21152594697E+03 -0.65722037476E+03  0.64614756753E+04  0.65000000000E+04  0.15050000000E+03 0. -1.
     100001    1    1    2    0    0 -0.21152594697E+03  0.65722037476E+03 -0.64614756753E+04  0.65000000000E+04  0.15050000000E+03 0. -1.
</event>
<event>
 4    1  0.4630618E-004  0.6500000E+04  0.7818608E-02  0.7223770E-01
         52   -1    0    0    0    0  0.00000000000E+00  0.00000000000E+00  0.64930732323E+04  0.65000000000E+04  0.30000000000E+03 0. -1.
        -52   -1    0    0    0    0 -0.00000000000E+00 -0.00000000000E+00 -0.64930732323E+04  0.65000000000E+04  0.30000000000E+03 0.  1.
     100001    1    1    2    0    0  0.82176947920E+03 -0.26887982776E+04  0.58585329644E+04  0.65000000000E+04  0.15050000000E+03 0. -1.
     100001    1    1    2    0    0 -0.82176947920E+03  0.26887982776E+04 -0.58585329644E+04  0.65000000000E+04  0.15050000000E+03 0.  1.
</event>
<event>
 4    1  0.4630618E-004  0.6500000E+04  0.7818608E-02  0.7223770E-01
         52   -1    0    0    0    0  0.00000000000E+00  0.00000000000E+00  0.64930732323E+04  0.65000000000E+04  0.30000000000E+03 0. -1.
        -52   -1    0    0    0    0 -0.00000000000E+00 -0.00000000000E+00 -0.64930732323E+04  0.65000000000E+04  0.30000000000E+03 0.  1.
     100001    1    1    2    0    0 -0.36996410126E+03 -0.58563992276E+03 -0.64612307028E+04  0.65000000000E+04  0.15050000000E+03 0.  1.
     100001    1    1    2    0    0  0.36996410126E+03  0.58563992276E+03  0.64612307028E+04  0.65000000000E+04  0.15050000000E+03 0. -1.
</event>
<event>
 4    1  0.4630618E-004  0.6500000E+04  0.7818608E-02  0.7223770E-01
         52   -1    0    0    0    0  0.00000000000E+00  0.00000000000E+00  0.64930732323E+04  0.65000000000E+04  0.30000000000E+03 0.  1.
        -52   -1    0    0    0    0 -0.00000000000E+00 -0.00000000000E+00 -0.64930732323E+04  0.65000000000E+04  0.30000000000E+03 0. -1.
     100001    1    1    2    0    0  0.30021156868E+03  0.28029377314E+02 -0.64912585157E+04  0.65000000000E+04  0.15050000000E+03 0. -1.
     100001    1    1    2    0    0 -0.30021156868E+03 -0.28029377314E+02  0.64912585157E+04  0.65000000000E+04  0.15050000000E+03 0.  1.
</event>
<event>
 4    1  0.4630618E-004  0.6500000E+04  0.7818608E-02  0.7223770E-01
         52   -1    0    0    0    0  0.00000000000E+00  0.00000000000E+00  0.64930732323E+04  0.65000000000E+04  0.30000000000E+03 0.  1.
        -52   -1    0    0    0    0 -0.00000000000E+00 -0.00000000000E+00 -0.64930732323E+04  0.65000000000E+04  0.30000000000E+03 0. -1.
     100001    1    1    2    0    0  0.28919526606E+04  0.44277954270E+04 -0.37760544508E+04  0.65000000000E+04  0.15050000000E+03 0. -1.
     100001    1    1    2    0    0 -0.28919526606E+04 -0.44277954270E+04  0.37760544508E+04  0.65000000000E+04  0.15050000000E+03 0.  1.
</event>
<event>
 4    1  0.4630618E-004  0.6500000E+04  0.7818608E-02  0.7223770E-01
         52   -1    0    0    0    0  0.00000000000E+00  0.00000000000E+00  0.64930732323E+04  0.65000000000E+04  0.30000000000E+03 0.  1.
        -52   -1    0    0    0    0 -0.00000000000E+00 -0.00000000000E+00 -0.64930732323E+04  0.65000000000E+04  0.30000000000E+03 0. -1.
     100001    1    1    2    0    0 -0.46570483399E+04  0.72434842483E+03 -0.44737646193E+04  0.65000000000E+04  0.15050000000E+03 0. -1.
     100001    1    1    2    0    0  0.46570483399E+04 -0.72434842483E+03  0.44737646193E+04  0.65000000000E+04  0.15050000000E+03 0.  1.
</event>
<event>
 4    1  0.4630618E-004  0.6500000E+04  0.7818608E-02  0.7223770E-01
         52   -1    0    0    0    0  0.00000000000E+00  0.00000000000E+00  0.64930732323E+04  0.65000000000E+04  0.30000000000E+03 0. -1.
        -52   -1    0    0    0    0 -0.00000000000E+00 -0.00000000000E+00 -0.64930732323E+04  0.65000000000E+04  0.30000000000E+03 0.  1.
     100001    1    1    2    0    0 -0.56468368137E+04  0.20461581618E+04 -0.24806895265E+04  0.65000000000E+04  0.15050000000E+03 0.  1.
     100001    1    1    2    0    0  0.56468368137E+04 -0.20461581618E+04  0.24806895265E+04  0.65000000000E+04  0.15050000000E+03 0. -1.
</event>
<event>
 4    1  0.4630618E-004  0.6500000E+04  0.7818608E-02  0.7223770E-01
         52   -1    0    0    0    0  0.00000000000E+00  0.00000000000E+00  0.64930732323E+04  0.65000000000E+04  0.30000000000E+03 0.  1.
        -52   -1    0    0    0    0 -0.00000000000E+00 -0.00000000000E+00 -0.64930732323E+04  0.65000000000E+04  0.30000000000E+03 0. -1.
     100001    1    1    2    0    0 -0.13378599331E+04  0.30184927502E+04  0.55969797272E+04  0.65000000000E+04  0.15050000000E+03 0.  1.
     100001    1    1    2    0    0  0.13378599331E+04 -0.30184927502E+04 -0.55969797272E+04  0.65000000000E+04  0.15050000000E+03 0. -1.
</event>
<event>
 4    1  0.4630618E-004  0.6500000E+04  0.7818608E-02  0.7223770E-01
         52   -1    0    0    0    0  0.00000000000E+00  0.00000000000E+00  0.64930732323E+04  0.65000000000E+04  0.30000000000E+03 0. -1.
        -52   -1    0    0    0    0 -0.00000000000E+00 -0.00000000000E+00 -0.64930732323E+04  0.65000000000E+04  0.30000000000E+03 0.  1.
     100001    1    1    2    0    0  0.42259654289E+04 -0.26835497002E+04  0.41433231772E+04  0.65000000000E+04  0.15050000000E+03 0. -1.
     100001    1    1    2    0    0 -0.42259654289E+04  0.26835497002E+04 -0.41433231772E+04  0.65000000000E+04  0.15050000000E+03 0.  1.
</event>
<event>
 4    1  0.4630618E-004  0.6500000E+04  0.7818608E-02  0.7223770E-01
         52   -1    0    0    0    0  0.00000000000E+00  0.00000000000E+00  0.64930732323E+04  0.65000000000E+04  0.30000000000E+03 0.  1.
        -52   -1    0    0    0    0 -0.00000000000E+00 -0.00000000000E+00 -0.64930732323E+04  0.65000000000E+04  0.30000000000E+03 0. -1.
     100001    1    1    2    0    0  0.73076643957E+03  0.34828097807E+04 -0.54372204472E+04  0.65000000000E+04  0.15050000000E+03 0. -1.
     100001    1    1    2    0    0 -0.73076643957E+03 -0.34828097807E+04  0.54372204472E+04  0.65000000000E+04  0.15050000000E+03 0.  1.
</event>
<event>
 4    1  0.4630618E-004  0.6500000E+04  0.7818608E-02  0.7223770E-01
         52   -1    0    0    0    0  0.00000000000E+00  0.00000000000E+00  0.64930732323E+04  0.65000000000E+04  0.30000000000E+03 0.  1.
        -52   -1    0    0    0    0 -0.00000000000E+00 -0.00000000000E+00 -0.64930732323E+04  0.65000000000E+04  0.30000000000E+03 0.  1.
     100001    1    1    2    0    0  0.37993676369E+01  0.13616403253E+03 -0.64968295861E+04  0.65000000000E+04  0.15050000000E+03 0.  1.
     100001    1    1    2    0    0 -0.37993676369E+01 -0.13616403253E+03  0.64968295861E+04  0.65000000000E+04  0.15050000000E+03 0.  1.
</event>
<event>
 4    1  0.4630618E-004  0.6500000E+04  0.7818608E-02  0.7223770E-01
         52   -1    0    0    0    0  0.00000000000E+00  0.00000000000E+00  0.64930732323E+04  0.65000000000E+04  0.30000000000E+03 0. -1.
        -52   -1    0    0    0    0 -0.00000000000E+00 -0.00000000000E+00 -0.64930732323E+04  0.65000000000E+04  0.30000000000E+03 0.  1.
     100001    1    1    2    0    0  0.40097084766E+04  0.24030754108E+04 -0.45138471677E+04  0.65000000000E+04  0.15050000000E+03 0.  1.
     100001    1    1    2    0    0 -0.40097084766E+04 -0.24030754108E+04  0.45138471677E+04  0.65000000000E+04  0.15050000000E+03 0. -1.
</event>
<event>
 4    1  0.4630618E-004  0.6500000E+04  0.7818608E-02  0.7223770E-01
         52   -1    0    0    0    0  0.00000000000E+00  0.00000000000E+00  0.64930732323E+04  0.65000000000E+04  0.30000000000E+03 0.  1.
        -52   -1    0    0    0    0 -0.00000000000E+00 -0.00000000000E+00 -0.64930732323E+04  0.65000000000E+04  0.30000000000E+03 0. -1.
     100001    1    1    2    0    0 -0.62657223612E+04 -0.16821837237E+04 -0.37192870494E+03  0.65000000000E+04  0.15050000000E+03 0. -1.
     100001    1    1    2    0    0  0.62657223612E+04  0.16821837237E+04  0.37192870494E+03  0.65000000000E+04  0.15050000000E+03 0.  1.
</event>
<event>
 4    1  0.4630618E-004  0.6500000E+04  0.7818608E-02  0.7223770E-01
         52   -1    0    0    0    0  0.00000000000E+00  0.00000000000E+00  0.64930732323E+04  0.65000000000E+04  0.30000000000E+03 0.  1.
        -52   -1    0    0    0    0 -0.00000000000E+00 -0.00000000000E+00 -0.64930732323E+04  0.65000000000E+04  0.30000000000E+03 0. -1.
     100001    1    1    2    0    0  0.30921919082E+03 -0.83554729931E+03 -0.64368931910E+04  0.65000000000E+04  0.15050000000E+03 0. -1.
     100001    1    1    2    0    0 -0.30921919082E+03  0.83554729931E+03  0.64368931910E+04  0.65000000000E+04  0.15050000000E+03 0.  1.
</event>
<event>
 4    1  0.4630618E-004  0.6500000E+04  0.7818608E-02  0.7223770E-01
         52   -1    0    0    0    0  0.00000000000E+00  0.00000000000E+00  0.64930732323E+04  0.65000000000E+04  0.30000000000E+03 0.  1.
        -52   -1    0    0    0    0 -0.00000000000E+00 -0.00000000000E+00 -0.64930732323E+04  0.65000000000E+04  0.30000000000E+03 0. -1.
     100001    1    1    2    0    0  0.42377333847E+02 -0.25606120950E+03  0.64930721980E+04  0.65000000000E+04  0.15050000000E+03 0.  1.
     100001    1    1    2    0    0 -0.42377333847E+02  0.25606120950E+03 -0.64930721980E+04  0.65000000000E+04  0.15050000000E+03 0. -1.
</event>
<event>
 4    1  0.4630618E-004  0.6500000E+04  0.7818608E-02  0.7223770E-01
         52   -1    0    0    0    0  0.00000000000E+00  0.00000000000E+00  0.64930732323E+04  0.65000000000E+04  0.30000000000E+03 0. -1.
        -52   -1    0    0    0    0 -0.00000000000E+00 -0.00000000000E+00 -0.64930732323E+04  0.65000000000E+04  0.30000000000E+03 0.  1.
     100001    1    1    2    0    0 -0.89007581192E+03  0.88320307002E+03  0.63761326159E+04  0.65000000000E+04  0.15050000000E+03 0. -1.
     100001    1    1    2    0    0  0.89007581192E+03 -0.88320307002E+03 -0.63761326159E+04  0.65000000000E+04  0.15050000000E+03 0.  1.
</event>
<event>
 4    1  0.4630618E-004  0.6500000E+04  0.7818608E-02  0.7223770E-01
         52   -1    0    0    0    0  0.00000000000E+00  0.00000000000E+00  0.64930732323E+04  0.65000000000E+04  0.30000000000E+03 0.  1.
        -52   -1    0    0    0    0 -0.00000000000E+00 -0.00000000000E+00 -0.64930732323E+04  0.65000000000E+04  0.30000000000E+03 0. -1.
     100001    1    1    2    0    0 -0.66696206740E+03 -0.11374364805E+04 -0.63630770546E+04  0.65000000000E+04  0.15050000000E+03 0. -1.
     100001    1    1    2    0    0  0.66696206740E+03  0.11374364805E+04  0.63630770546E+04  0.65000000000E+04  0.15050000000E+03 0.  1.
</event>
<event>
 4    1  0.4630618E-004  0.6500000E+04  0.7818608E-02  0.7223770E-01
         52   -1    0    0    0    0  0.00000000000E+00  0.00000000000E+00  0.64930732323E+04  0.65000000000E+04  0.30000000000E+03 0.  1.
        -52   -1    0    0    0    0 -0.00000000000E+00 -0.00000000000E+00 -0.64930732323E+04  0.65000000000E+04  0.30000000000E+03 0. -1.
     100001    1    1    2    0    0 -0.14571812953E+04 -0.39273283761E+04  0.49679034057E+04  0.65000000000E+04  0.15050000000E+03 0.  1.
     100001    1    1    2    0    0  0.14571812953E+04  0.39273283761E+04 -0.49679034057E+04  0.65000000000E+04  0.15050000000E+03 0. -1.
</event>
<event>
 4    1  0.4630618E-004  0.6500000E+04  0.7818608E-02  0.7223770E-01
         52   -1    0    0    0    0  0.00000000000E+00  0.00000000000E+00  0.64930732323E+04  0.65000000000E+04  0.30000000000E+03 0. -1.
        -52   -1    0    0    0    0 -0.00000000000E+00 -0.00000000000E+00 -0.64930732323E+04  0.65000000000E+04  0.30000000000E+03 0.  1.
     100001    1    1    2    0    0  0.67256924557E+03  0.16307370804E+04  0.62542543068E+04  0.65000000000E+04  0.15050000000E+03 0. -1.
     100001    1    1    2    0    0 -0.67256924557E+03 -0.16307370804E+04 -0.62542543068E+04  0.65000000000E+04  0.15050000000E+03 0.  1.
</event>
<event>
 4    1  0.4630618E-004  0.6500000E+04  0.7818608E-02  0.7223770E-01
         52   -1    0    0    0    0  0.00000000000E+00  0.00000000000E+00  0.64930732323E+04  0.65000000000E+04  0.30000000000E+03 0. -1.
        -52   -1    0    0    0    0 -0.00000000000E+00 -0.00000000000E+00 -0.64930732323E+04  0.65000000000E+04  0.30000000000E+03 0.  1.
     100001    1    1    2    0    0 -0.78860655291E+03 -0.24509541294E+03 -0.64455703932E+04  0.65000000000E+04  0.15050000000E+03 0.  1.
     100001    1    1    2    0    0  0.78860655291E+03  0.24509541294E+03  0.64455703932E+04  0.65000000000E+04  0.15050000000E+03 0. -1.
</event>
<event>
 4    1  0.4630618E-004  0.6500000E+04  0.7818608E-02  0.7223770E-01
         52   -1    0    0    0    0  0.00000000000E+00  0.00000000000E+00  0.64930732323E+04  0.65000000000E+04  0.30000000000E+03 0. -1.
        -52   -1    0    0    0    0 -0.00000000000E+00 -0.00000000000E+00 -0.64930732323E+04  0.65000000000E+04  0.30000000000E+03 0.  1.
     100001    1    1    2    0    0  0.20533262675E+04 -0.54837637180E+03  0.61408862833E+04  0.65000000000E+04  0.15050000000E+03 0. -1.
     100001    1    1    2    0    0 -0.20533262675E+04  0.54837637180E+03 -0.61408862833E+04  0.65000000000E+04  0.15050000000E+03 0.  1.
</event>
<event>
 4    1  0.4630618E-004  0.6500000E+04  0.7818608E-02  0.7223770E-01
         52   -1    0    0    0    0  0.00000000000E+00  0.00000000000E+00  0.64930732323E+04  0.65000000000E+04  0.30000000000E+03 0. -1.
        -52   -1    0    0    0    0 -0.00000000000E+00 -0.00000000000E+00 -0.64930732323E+04  0.65000000000E+04  0.30000000000E+03 0.  1.
     100001    1    1    2    0    0  0.52988411331E+03  0.39985284816E+03 -0.64642625470E+04  0.65000000000E+04  0.15050000000E+03 0.  1.
     100001    1    1    2    0    0 -0.52988411331E+03 -0.39985284816E+03  0.64642625470E+04  0.65000000000E+04  0.15050000000E+03 0. -1.
</event>
<event>
 4    1  0.4630618E-004  0.6500000E+04  0.7818608E-02  0.7223770E-01
         52   -1    0    0    0    0  0.00000000000E+00  0.00000000000E+00  0.64930732323E+04  0.65000000000E+04  0.30000000000E+03 0.  1.
        -52   -1    0    0    0    0 -0.00000000000E+00 -0.00000000000E+00 -0.64930732323E+04  0.65000000000E+04  0.30000000000E+03 0. -1.
     100001    1    1    2    0    0 -0.27189602464E+03  0.36085618807E+04 -0.53973793136E+04  0.65000000000E+04  0.15050000000E+03 0. -1.
     100001    1    1    2    0    0  0.27189602464E+03 -0.36085618807E+04  0.53973793136E+04  0.65000000000E+04  0.15050000000E+03 0.  1.
</event>
<event>
 4    1  0.4630618E-004  0.6500000E+04  0.7818608E-02  0.7223770E-01
         52   -1    0    0    0    0  0.00000000000E+00  0.00000000000E+00  0.64930732323E+04  0.65000000000E+04  0.30000000000E+03 0. -1.
        -52   -1    0    0    0    0 -0.00000000000E+00 -0.00000000000E+00 -0.64930732323E+04  0.65000000000E+04  0.30000000000E+03 0.  1.
     100001    1    1    2    0    0  0.74964519507E+03 -0.40364317502E+03  0.64422398293E+04  0.65000000000E+04  0.15050000000E+03 0. -1.
     100001    1    1    2    0    0 -0.74964519507E+03  0.40364317502E+03 -0.64422398293E+04  0.65000000000E+04  0.15050000000E+03 0.  1.
</event>
<event>
 4    1  0.4630618E-004  0.6500000E+04  0.7818608E-02  0.7223770E-01
         52   -1    0    0    0    0  0.00000000000E+00  0.00000000000E+00  0.64930732323E+04  0.65000000000E+04  0.30000000000E+03 0.  1.
        -52   -1    0    0    0    0 -0.00000000000E+00 -0.00000000000E+00 -0.64930732323E+04  0.65000000000E+04  0.30000000000E+03 0. -1.
     100001    1    1    2    0    0  0.27497766795E+03 -0.53675748334E+03 -0.64702108494E+04  0.65000000000E+04  0.15050000000E+03 0. -1.
     100001    1    1    2    0    0 -0.27497766795E+03  0.53675748334E+03  0.64702108494E+04  0.65000000000E+04  0.15050000000E+03 0.  1.
</event>
<event>
 4    1  0.4630618E-004  0.6500000E+04  0.7818608E-02  0.7223770E-01
         52   -1    0    0    0    0  0.00000000000E+00  0.00000000000E+00  0.64930732323E+04  0.65000000000E+04  0.30000000000E+03 0. -1.
        -52   -1    0    0    0    0 -0.00000000000E+00 -0.00000000000E+00 -0.64930732323E+04  0.65000000000E+04  0.30000000000E+03 0. -1.
     100001    1    1    2    0    0 -0.17923013024E+03  0.38311345144E+03  0.64844776500E+04  0.65000000000E+04  0.15050000000E+03 0. -1.
     100001    1    1    2    0    0  0.17923013024E+03 -0.38311345144E+03 -0.64844776500E+04  0.65000000000E+04  0.15050000000E+03 0. -1.
</event>
<event>
 4    1  0.4630618E-004  0.6500000E+04  0.7818608E-02  0.7223770E-01
         52   -1    0    0    0    0  0.00000000000E+00  0.00000000000E+00  0.64930732323E+04  0.65000000000E+04  0.30000000000E+03 0.  1.
        -52   -1    0    0    0    0 -0.00000000000E+00 -0.00000000000E+00 -0.64930732323E+04  0.65000000000E+04  0.30000000000E+03 0. -1.
     100001    1    1    2    0    0  0.14025618341E+04  0.58387974220E+03  0.63181686032E+04  0.65000000000E+04  0.15050000000E+03 0.  1.
     100001    1    1    2    0    0 -0.14025618341E+04 -0.58387974220E+03 -0.63181686032E+04  0.65000000000E+04  0.15050000000E+03 0. -1.
</event>
<event>
 4    1  0.4630618E-004  0.6500000E+04  0.7818608E-02  0.7223770E-01
         52   -1    0    0    0    0  0.00000000000E+00  0.00000000000E+00  0.64930732323E+04  0.65000000000E+04  0.30000000000E+03 0. -1.
        -52   -1    0    0    0    0 -0.00000000000E+00 -0.00000000000E+00 -0.64930732323E+04  0.65000000000E+04  0.30000000000E+03 0.  1.
     100001    1    1    2    0    0 -0.53484796249E+03 -0.69278800953E+03 -0.64390474591E+04  0.65000000000E+04  0.15050000000E+03 0.  1.
     100001    1    1    2    0    0  0.53484796249E+03  0.69278800953E+03  0.64390474591E+04  0.65000000000E+04  0.15050000000E+03 0. -1.
</event>
<event>
 4    1  0.4630618E-004  0.6500000E+04  0.7818608E-02  0.7223770E-01
         52   -1    0    0    0    0  0.00000000000E+00  0.00000000000E+00  0.64930732323E+04  0.65000000000E+04  0.30000000000E+03 0. -1.
        -52   -1    0    0    0    0 -0.00000000000E+00 -0.00000000000E+00 -0.64930732323E+04  0.65000000000E+04  0.30000000000E+03 0.  1.
     100001    1    1    2    0    0  0.33669861053E+03  0.72716061093E+02  0.64891213712E+04  0.65000000000E+04  0.15050000000E+03 0. -1.
     100001    1    1    2    0    0 -0.33669861053E+03 -0.72716061093E+02 -0.64891213712E+04  0.65000000000E+04  0.15050000000E+03 0.  1.
</event>
<event>
 4    1  0.4630618E-004  0.6500000E+04  0.7818608E-02  0.7223770E-01
         52   -1    0    0    0    0  0.00000000000E+00  0.00000000000E+00  0.64930732323E+04  0.65000000000E+04  0.30000000000E+03 0.  1.
        -52   -1    0    0    0    0 -0.00000000000E+00 -0.00000000000E+00 -0.64930732323E+04  0.65000000000E+04  0.30000000000E+03 0. -1.
     100001    1    1    2    0    0  0.14019200451E+04  0.10473997512E+04 -0.62581885317E+04  0.65000000000E+04  0.15050000000E+03 0. -1.
     100001    1    1    2    0    0 -0.14019200451E+04 -0.10473997512E+04  0.62581885317E+04  0.65000000000E+04  0.15050000000E+03 0.  1.
</event>
<event>
 4    1  0.4630618E-004  0.6500000E+04  0.7818608E-02  0.7223770E-01
         52   -1    0    0    0    0  0.00000000000E+00  0.00000000000E+00  0.64930732323E+04  0.65000000000E+04  0.30000000000E+03 0.  1.
        -52   -1    0    0    0    0 -0.00000000000E+00 -0.00000000000E+00 -0.64930732323E+04  0.65000000000E+04  0.30000000000E+03 0. -1.
     100001    1    1    2    0    0  0.17018832374E+03  0.14209097156E+04 -0.63387223685E+04  0.65000000000E+04  0.15050000000E+03 0. -1.
     100001    1    1    2    0    0 -0.17018832374E+03 -0.14209097156E+04  0.63387223685E+04  0.65000000000E+04  0.15050000000E+03 0.  1.
</event>
<event>
 4    1  0.4630618E-004  0.6500000E+04  0.7818608E-02  0.7223770E-01
         52   -1    0    0    0    0  0.00000000000E+00  0.00000000000E+00  0.64930732323E+04  0.65000000000E+04  0.30000000000E+03 0.  1.
        -52   -1    0    0    0    0 -0.00000000000E+00 -0.00000000000E+00 -0.64930732323E+04  0.65000000000E+04  0.30000000000E+03 0. -1.
     100001    1    1    2    0    0 -0.70535526415E+03 -0.15553921517E+03 -0.64579897223E+04  0.65000000000E+04  0.15050000000E+03 0. -1.
     100001    1    1    2    0    0  0.70535526415E+03  0.15553921517E+03  0.64579897223E+04  0.65000000000E+04  0.15050000000E+03 0.  1.
</event>
<event>
 4    1  0.4630618E-004  0.6500000E+04  0.7818608E-02  0.7223770E-01
         52   -1    0    0    0    0  0.00000000000E+00  0.00000000000E+00  0.64930732323E+04  0.65000000000E+04  0.30000000000E+03 0. -1.
        -52   -1    0    0    0    0 -0.00000000000E+00 -0.00000000000E+00 -0.64930732323E+04  0.65000000000E+04  0.30000000000E+03 0. -1.
     100001    1    1    2    0    0 -0.22632644834E+04  0.35512116240E+03  0.60810256198E+04  0.65000000000E+04  0.15050000000E+03 0. -1.
     100001    1    1    2    0    0  0.22632644834E+04 -0.35512116240E+03 -0.60810256198E+04  0.65000000000E+04  0.15050000000E+03 0. -1.
</event>
<event>
 4    1  0.4630618E-004  0.6500000E+04  0.7818608E-02  0.7223770E-01
         52   -1    0    0    0    0  0.00000000000E+00  0.00000000000E+00  0.64930732323E+04  0.65000000000E+04  0.30000000000E+03 0. -1.
        -52   -1    0    0    0    0 -0.00000000000E+00 -0.00000000000E+00 -0.64930732323E+04  0.65000000000E+04  0.30000000000E+03 0.  1.
     100001    1    1    2    0    0 -0.11097815353E+04 -0.46508922878E+03 -0.63858771287E+04  0.65000000000E+04  0.15050000000E+03 0.  1.
     100001    1    1    2    0    0  0.11097815353E+04  0.46508922878E+03  0.63858771287E+04  0.65000000000E+04  0.15050000000E+03 0. -1.
</event>
<event>
 4    1  0.4630618E-004  0.6500000E+04  0.7818608E-02  0.7223770E-01
         52   -1    0    0    0    0  0.00000000000E+00  0.00000000000E+00  0.64930732323E+04  0.65000000000E+04  0.30000000000E+03 0.  1.
        -52   -1    0    0    0    0 -0.00000000000E+00 -0.00000000000E+00 -0.64930732323E+04  0.65000000000E+04  0.30000000000E+03 0. -1.
     100001    1    1    2    0    0 -0.44542356290E+03 -0.11604590781E+03 -0.64819349694E+04  0.65000000000E+04  0.15050000000E+03 0. -1.
     100001    1    1    2    0    0  0.44542356290E+03  0.11604590781E+03  0.64819349694E+04  0.65000000000E+04  0.15050000000E+03 0.  1.
</event>
<event>
 4    1  0.4630618E-004  0.6500000E+04  0.7818608E-02  0.7223770E-01
         52   -1    0    0    0    0  0.00000000000E+00  0.00000000000E+00  0.64930732323E+04  0.65000000000E+04  0.30000000000E+03 0.  1.
        -52   -1    0    0    0    0 -0.00000000000E+00 -0.00000000000E+00 -0.64930732323E+04  0.65000000000E+04  0.30000000000E+03 0. -1.
     100001    1    1    2    0    0  0.10173918423E+04  0.20733977254E+04  0.60739843152E+04  0.65000000000E+04  0.15050000000E+03 0.  1.
     100001    1    1    2    0    0 -0.10173918423E+04 -0.20733977254E+04 -0.60739843152E+04  0.65000000000E+04  0.15050000000E+03 0. -1.
</event>
<event>
 4    1  0.4630618E-004  0.6500000E+04  0.7818608E-02  0.7223770E-01
         52   -1    0    0    0    0  0.00000000000E+00  0.00000000000E+00  0.64930732323E+04  0.65000000000E+04  0.30000000000E+03 0. -1.
        -52   -1    0    0    0    0 -0.00000000000E+00 -0.00000000000E+00 -0.64930732323E+04  0.65000000000E+04  0.30000000000E+03 0.  1.
     100001    1    1    2    0    0  0.17501393325E+01  0.91082026914E+03  0.64341085726E+04  0.65000000000E+04  0.15050000000E+03 0. -1.
     100001    1    1    2    0    0 -0.17501393325E+01 -0.91082026914E+03 -0.64341085726E+04  0.65000000000E+04  0.15050000000E+03 0.  1.
</event>
<event>
 4    1  0.4630618E-004  0.6500000E+04  0.7818608E-02  0.7223770E-01
         52   -1    0    0    0    0  0.00000000000E+00  0.00000000000E+00  0.64930732323E+04  0.65000000000E+04  0.30000000000E+03 0.  1.
        -52   -1    0    0    0    0 -0.00000000000E+00 -0.00000000000E+00 -0.64930732323E+04  0.65000000000E+04  0.30000000000E+03 0. -1.
     100001    1    1    2    0    0  0.24200567343E+04 -0.17359106340E+04 -0.57755769776E+04  0.65000000000E+04  0.15050000000E+03 0. -1.
     100001    1    1    2    0    0 -0.24200567343E+04  0.17359106340E+04  0.57755769776E+04  0.65000000000E+04  0.15050000000E+03 0.  1.
</event>
<event>
 4    1  0.4630618E-004  0.6500000E+04  0.7818608E-02  0.7223770E-01
         52   -1    0    0    0    0  0.00000000000E+00  0.00000000000E+00  0.64930732323E+04  0.65000000000E+04  0.30000000000E+03 0. -1.
        -52   -1    0    0    0    0 -0.00000000000E+00 -0.00000000000E+00 -0.64930732323E+04  0.65000000000E+04  0.30000000000E+03 0.  1.
     100001    1    1    2    0    0  0.92010181108E+03 -0.21680376670E+04 -0.60564325376E+04  0.65000000000E+04  0.15050000000E+03 0.  1.
     100001    1    1    2    0    0 -0.92010181108E+03  0.21680376670E+04  0.60564325376E+04  0.65000000000E+04  0.15050000000E+03 0. -1.
</event>
<event>
 4    1  0.4630618E-004  0.6500000E+04  0.7818608E-02  0.7223770E-01
         52   -1    0    0    0    0  0.00000000000E+00  0.00000000000E+00  0.64930732323E+04  0.65000000000E+04  0.30000000000E+03 0. -1.
        -52   -1    0    0    0    0 -0.00000000000E+00 -0.00000000000E+00 -0.64930732323E+04  0.65000000000E+04  0.30000000000E+03 0. -1.
     100001    1    1    2    0    0 -0.26446868227E+04  0.78777959938E+03  0.58832291017E+04  0.65000000000E+04  0.15050000000E+03 0. -1.
     100001    1    1    2    0    0  0.26446868227E+04 -0.78777959938E+03 -0.58832291017E+04  0.65000000000E+04  0.15050000000E+03 0. -1.
</event>
<event>
 4    1  0.4630618E-004  0.6500000E+04  0.7818608E-02  0.7223770E-01
         52   -1    0    0    0    0  0.00000000000E+00  0.00000000000E+00  0.64930732323E+04  0.65000000000E+04  0.30000000000E+03 0. -1.
        -52   -1    0    0    0    0 -0.00000000000E+00 -0.00000000000E+00 -0.64930732323E+04  0.65000000000E+04  0.30000000000E+03 0.  1.
     100001    1    1    2    0    0  0.30879318311E+04  0.69935452507E+03 -0.56747625505E+04  0.65000000000E+04  0.15050000000E+03 0.  1.
     100001    1    1    2    0    0 -0.30879318311E+04 -0.69935452507E+03  0.56747625505E+04  0.65000000000E+04  0.15050000000E+03 0. -1.
</event>
<event>
 4    1  0.4630618E-004  0.6500000E+04  0.7818608E-02  0.7223770E-01
         52   -1    0    0    0    0  0.00000000000E+00  0.00000000000E+00  0.64930732323E+04  0.65000000000E+04  0.30000000000E+03 0. -1.
        -52   -1    0    0    0    0 -0.00000000000E+00 -0.00000000000E+00 -0.64930732323E+04  0.65000000000E+04  0.30000000000E+03 0.  1.
     100001    1    1    2    0    0 -0.10454232343E+03 -0.38480736075E+03  0.64860114051E+04  0.65000000000E+04  0.15050000000E+03 0. -1.
     100001    1    1    2    0    0  0.10454232343E+03  0.38480736075E+03 -0.64860114051E+04  0.65000000000E+04  0.15050000000E+03 0.  1.
</event>
<event>
 4    1  0.4630618E-004  0.6500000E+04  0.7818608E-02  0.7223770E-01
         52   -1    0    0    0    0  0.00000000000E+00  0.00000000000E+00  0.64930732323E+04  0.65000000000E+04  0.30000000000E+03 0.  1.
        -52   -1    0    0    0    0 -0.00000000000E+00 -0.00000000000E+00 -0.64930732323E+04  0.65000000000E+04  0.30000000000E+03 0. -1.
     100001    1    1    2    0    0  0.53280101946E+03 -0.10715450777E+04 -0.63871170312E+04  0.65000000000E+04  0.15050000000E+03 0. -1.
     100001    1    1    2    0    0 -0.53280101946E+03  0.10715450777E+04  0.63871170312E+04  0.65000000000E+04  0.15050000000E+03 0.  1.
</event>
<event>
 4    1  0.4630618E-004  0.6500000E+04  0.7818608E-02  0.7223770E-01
         52   -1    0    0    0    0  0.00000000000E+00  0.00000000000E+00  0.64930732323E+04  0.65000000000E+04  0.30000000000E+03 0. -1.
        -52   -1    0    0    0    0 -0.00000000000E+00 -0.00000000000E+00 -0.64930732323E+04  0.65000000000E+04  0.30000000000E+03 0.  1.
     100001    1    1    2    0    0 -0.14817848332E+04 -0.40374089498E+04  0.48714466465E+04  0.65000000000E+04  0.15050000000E+03 0. -1.
     100001    1    1    2    0    0  0.14817848332E+04  0.40374089498E+04 -0.48714466465E+04  0.65000000000E+04  0.15050000000E+03 0.  1.
</event>
<event>
 4    1  0.4630618E-004  0.6500000E+04  0.7818608E-02  0.7223770E-01
         52   -1    0    0    0    0  0.00000000000E+00  0.00000000000E+00  0.64930732323E+04  0.65000000000E+04  0.30000000000E+03 0. -1.
        -52   -1    0    0    0    0 -0.00000000000E+00 -0.00000000000E+00 -0.64930732323E+04  0.65000000000E+04  0.30000000000E+03 0.  1.
     100001    1    1    2    0    0 -0.84738920186E+03  0.10872035707E+04 -0.63503755548E+04  0.65000000000E+04  0.15050000000E+03 0.  1.
     100001    1    1    2    0    0  0.84738920186E+03 -0.10872035707E+04  0.63503755548E+04  0.65000000000E+04  0.15050000000E+03 0. -1.
</event>
<event>
 4    1  0.4630618E-004  0.6500000E+04  0.7818608E-02  0.7223770E-01
         52   -1    0    0    0    0  0.00000000000E+00  0.00000000000E+00  0.64930732323E+04  0.65000000000E+04  0.30000000000E+03 0.  1.
        -52   -1    0    0    0    0 -0.00000000000E+00 -0.00000000000E+00 -0.64930732323E+04  0.65000000000E+04  0.30000000000E+03 0. -1.
     100001    1    1    2    0    0 -0.35913184704E+03  0.45942035203E+03 -0.64720404052E+04  0.65000000000E+04  0.15050000000E+03 0. -1.
     100001    1    1    2    0    0  0.35913184704E+03 -0.45942035203E+03  0.64720404052E+04  0.65000000000E+04  0.15050000000E+03 0.  1.
</event>
<event>
 4    1  0.4630618E-004  0.6500000E+04  0.7818608E-02  0.7223770E-01
         52   -1    0    0    0    0  0.00000000000E+00  0.00000000000E+00  0.64930732323E+04  0.65000000000E+04  0.30000000000E+03 0. -1.
        -52   -1    0    0    0    0 -0.00000000000E+00 -0.00000000000E+00 -0.64930732323E+04  0.65000000000E+04  0.30000000000E+03 0.  1.
     100001    1    1    2    0    0  0.98905696273E+03 -0.61451323897E+04 -0.18672075373E+04  0.65000000000E+04  0.15050000000E+03 0.  1.
     100001    1    1    2    0    0 -0.98905696273E+03  0.61451323897E+04  0.18672075373E+04  0.65000000000E+04  0.15050000000E+03 0. -1.
</event>
<event>
 4    1  0.4630618E-004  0.6500000E+04  0.7818608E-02  0.7223770E-01
         52   -1    0    0    0    0  0.00000000000E+00  0.00000000000E+00  0.64930732323E+04  0.65000000000E+04  0.30000000000E+03 0. -1.
        -52   -1    0    0    0    0 -0.00000000000E+00 -0.00000000000E+00 -0.64930732323E+04  0.65000000000E+04  0.30000000000E+03 0.  1.
     100001    1    1    2    0    0 -0.46227281509E+04 -0.32577259763E+04  0.32007742277E+04  0.65000000000E+04  0.15050000000E+03 0. -1.
     100001    1    1    2    0    0  0.46227281509E+04  0.32577259763E+04 -0.32007742277E+04  0.65000000000E+04  0.15050000000E+03 0.  1.
</event>
<event>
 4    1  0.4630618E-004  0.6500000E+04  0.7818608E-02  0.7223770E-01
         52   -1    0    0    0    0  0.00000000000E+00  0.00000000000E+00  0.64930732323E+04  0.65000000000E+04  0.30000000000E+03 0. -1.
        -52   -1    0    0    0    0 -0.00000000000E+00 -0.00000000000E+00 -0.64930732323E+04  0.65000000000E+04  0.30000000000E+03 0.  1.
     100001    1    1    2    0    0  0.10983685559E+03 -0.18788132520E+03 -0.64946120918E+04  0.65000000000E+04  0.15050000000E+03 0.  1.
     100001    1    1    2    0    0 -0.10983685559E+03  0.18788132520E+03  0.64946120918E+04  0.65000000000E+04  0.15050000000E+03 0. -1.
</event>
<event>
 4    1  0.4630618E-004  0.6500000E+04  0.7818608E-02  0.7223770E-01
         52   -1    0    0    0    0  0.00000000000E+00  0.00000000000E+00  0.64930732323E+04  0.65000000000E+04  0.30000000000E+03 0.  1.
        -52   -1    0    0    0    0 -0.00000000000E+00 -0.00000000000E+00 -0.64930732323E+04  0.65000000000E+04  0.30000000000E+03 0. -1.
     100001    1    1    2    0    0  0.31464881302E+04  0.90011865130E+03 -0.56139779666E+04  0.65000000000E+04  0.15050000000E+03 0. -1.
     100001    1    1    2    0    0 -0.31464881302E+04 -0.90011865130E+03  0.56139779666E+04  0.65000000000E+04  0.15050000000E+03 0.  1.
</event>
<event>
 4    1  0.4630618E-004  0.6500000E+04  0.7818608E-02  0.7223770E-01
         52   -1    0    0    0    0  0.00000000000E+00  0.00000000000E+00  0.64930732323E+04  0.65000000000E+04  0.30000000000E+03 0.  1.
        -52   -1    0    0    0    0 -0.00000000000E+00 -0.00000000000E+00 -0.64930732323E+04  0.65000000000E+04  0.30000000000E+03 0. -1.
     100001    1    1    2    0    0 -0.87085307722E+03 -0.24135030595E+03 -0.64351157486E+04  0.65000000000E+04  0.15050000000E+03 0. -1.
     100001    1    1    2    0    0  0.87085307722E+03  0.24135030595E+03  0.64351157486E+04  0.65000000000E+04  0.15050000000E+03 0.  1.
</event>
<event>
 4    1  0.4630618E-004  0.6500000E+04  0.7818608E-02  0.7223770E-01
         52   -1    0    0    0    0  0.00000000000E+00  0.00000000000E+00  0.64930732323E+04  0.65000000000E+04  0.30000000000E+03 0.  1.
        -52   -1    0    0    0    0 -0.00000000000E+00 -0.00000000000E+00 -0.64930732323E+04  0.65000000000E+04  0.30000000000E+03 0.  1.
     100001    1    1    2    0    0 -0.34259758028E+03  0.44955926993E+03  0.64736290526E+04  0.65000000000E+04  0.15050000000E+03 0.  1.
     100001    1    1    2    0    0  0.34259758028E+03 -0.44955926993E+03 -0.64736290526E+04  0.65000000000E+04  0.15050000000E+03 0.  1.
</event>
<event>
 4    1  0.4630618E-004  0.6500000E+04  0.7818608E-02  0.7223770E-01
         52   -1    0    0    0    0  0.00000000000E+00  0.00000000000E+00  0.64930732323E+04  0.65000000000E+04  0.30000000000E+03 0. -1.
        -52   -1    0    0    0    0 -0.00000000000E+00 -0.00000000000E+00 -0.64930732323E+04  0.65000000000E+04  0.30000000000E+03 0.  1.
     100001    1    1    2    0    0 -0.78232670657E+01  0.55175948745E+03 -0.64747857119E+04  0.65000000000E+04  0.15050000000E+03 0.  1.
     100001    1    1    2    0    0  0.78232670657E+01 -0.55175948745E+03  0.64747857119E+04  0.65000000000E+04  0.15050000000E+03 0. -1.
</event>
<event>
 4    1  0.4630618E-004  0.6500000E+04  0.7818608E-02  0.7223770E-01
         52   -1    0    0    0    0  0.00000000000E+00  0.00000000000E+00  0.64930732323E+04  0.65000000000E+04  0.30000000000E+03 0.  1.
        -52   -1    0    0    0    0 -0.00000000000E+00 -0.00000000000E+00 -0.64930732323E+04  0.65000000000E+04  0.30000000000E+03 0. -1.
     100001    1    1    2    0    0 -0.29778797910E+04 -0.70325594827E+03  0.57328014767E+04  0.65000000000E+04  0.15050000000E+03 0.  1.
     100001    1    1    2    0    0  0.29778797910E+04  0.70325594827E+03 -0.57328014767E+04  0.65000000000E+04  0.15050000000E+03 0. -1.
</event>
<event>
 4    1  0.4630618E-004  0.6500000E+04  0.7818608E-02  0.7223770E-01
         52   -1    0    0    0    0  0.00000000000E+00  0.00000000000E+00  0.64930732323E+04  0.65000000000E+04  0.30000000000E+03 0. -1.
        -52   -1    0    0    0    0 -0.00000000000E+00 -0.00000000000E+00 -0.64930732323E+04  0.65000000000E+04  0.30000000000E+03 0.  1.
     100001    1    1    2    0    0  0.22232175282E+04  0.58356615189E+04  0.17971388952E+04  0.65000000000E+04  0.15050000000E+03 0. -1.
     100001    1    1    2    0    0 -0.22232175282E+04 -0.58356615189E+04 -0.17971388952E+04  0.65000000000E+04  0.15050000000E+03 0.  1.
</event>
<event>
 4    1  0.4630618E-004  0.6500000E+04  0.7818608E-02  0.7223770E-01
         52   -1    0    0    0    0  0.00000000000E+00  0.00000000000E+00  0.64930732323E+04  0.65000000000E+04  0.30000000000E+03 0.  1.
        -52   -1    0    0    0    0 -0.00000000000E+00 -0.00000000000E+00 -0.64930732323E+04  0.65000000000E+04  0.30000000000E+03 0. -1.
     100001    1    1    2    0    0 -0.15715229718E+04 -0.35713229513E+04  0.51964716565E+04  0.65000000000E+04  0.15050000000E+03 0.  1.
     100001    1    1    2    0    0  0.15715229718E+04  0.35713229513E+04 -0.51964716565E+04  0.65000000000E+04  0.15050000000E+03 0. -1.
</event>
<event>
 4    1  0.4630618E-004  0.6500000E+04  0.7818608E-02  0.7223770E-01
         52   -1    0    0    0    0  0.00000000000E+00  0.00000000000E+00  0.64930732323E+04  0.65000000000E+04  0.30000000000E+03 0.  1.
        -52   -1    0    0    0    0 -0.00000000000E+00 -0.00000000000E+00 -0.64930732323E+04  0.65000000000E+04  0.30000000000E+03 0. -1.
     100001    1    1    2    0    0 -0.24810342761E+04  0.15676366353E+03  0.60039356946E+04  0.65000000000E+04  0.15050000000E+03 0.  1.
     100001    1    1    2    0    0  0.24810342761E+04 -0.15676366353E+03 -0.60039356946E+04  0.65000000000E+04  0.15050000000E+03 0. -1.
</event>
<event>
 4    1  0.4630618E-004  0.6500000E+04  0.7818608E-02  0.7223770E-01
         52   -1    0    0    0    0  0.00000000000E+00  0.00000000000E+00  0.64930732323E+04  0.65000000000E+04  0.30000000000E+03 0. -1.
        -52   -1    0    0    0    0 -0.00000000000E+00 -0.00000000000E+00 -0.64930732323E+04  0.65000000000E+04  0.30000000000E+03 0. -1.
     100001    1    1    2    0    0 -0.23156163833E+03 -0.28444833688E+03 -0.64878978183E+04  0.65000000000E+04  0.15050000000E+03 0. -1.
     100001    1    1    2    0    0  0.23156163833E+03  0.28444833688E+03  0.64878978183E+04  0.65000000000E+04  0.15050000000E+03 0. -1.
</event>
<event>
 4    1  0.4630618E-004  0.6500000E+04  0.7818608E-02  0.7223770E-01
         52   -1    0    0    0    0  0.00000000000E+00  0.00000000000E+00  0.64930732323E+04  0.65000000000E+04  0.30000000000E+03 0. -1.
        -52   -1    0    0    0    0 -0.00000000000E+00 -0.00000000000E+00 -0.64930732323E+04  0.65000000000E+04  0.30000000000E+03 0.  1.
     100001    1    1    2    0    0 -0.80936641594E+02 -0.46259623152E+03  0.64812655968E+04  0.65000000000E+04  0.15050000000E+03 0. -1.
     100001    1    1    2    0    0  0.80936641594E+02  0.46259623152E+03 -0.64812655968E+04  0.65000000000E+04  0.15050000000E+03 0.  1.
</event>
<event>
 4    1  0.4630618E-004  0.6500000E+04  0.7818608E-02  0.7223770E-01
         52   -1    0    0    0    0  0.00000000000E+00  0.00000000000E+00  0.64930732323E+04  0.65000000000E+04  0.30000000000E+03 0. -1.
        -52   -1    0    0    0    0 -0.00000000000E+00 -0.00000000000E+00 -0.64930732323E+04  0.65000000000E+04  0.30000000000E+03 0.  1.
     100001    1    1    2    0    0 -0.60742570584E+04  0.72858298172E+03 -0.21908714654E+04  0.65000000000E+04  0.15050000000E+03 0. -1.
     100001    1    1    2    0    0  0.60742570584E+04 -0.72858298172E+03  0.21908714654E+04  0.65000000000E+04  0.15050000000E+03 0.  1.
</event>
<event>
 4    1  0.4630618E-004  0.6500000E+04  0.7818608E-02  0.7223770E-01
         52   -1    0    0    0    0  0.00000000000E+00  0.00000000000E+00  0.64930732323E+04  0.65000000000E+04  0.30000000000E+03 0. -1.
        -52   -1    0    0    0    0 -0.00000000000E+00 -0.00000000000E+00 -0.64930732323E+04  0.65000000000E+04  0.30000000000E+03 0. -1.
     100001    1    1    2    0    0  0.37773557553E+03  0.13612400149E+03  0.64858411822E+04  0.65000000000E+04  0.15050000000E+03 0. -1.
     100001    1    1    2    0    0 -0.37773557553E+03 -0.13612400149E+03 -0.64858411822E+04  0.65000000000E+04  0.15050000000E+03 0. -1.
</event>
<event>
 4    1  0.4630618E-004  0.6500000E+04  0.7818608E-02  0.7223770E-01
         52   -1    0    0    0    0  0.00000000000E+00  0.00000000000E+00  0.64930732323E+04  0.65000000000E+04  0.30000000000E+03 0.  1.
        -52   -1    0    0    0    0 -0.00000000000E+00 -0.00000000000E+00 -0.64930732323E+04  0.65000000000E+04  0.30000000000E+03 0.  1.
     100001    1    1    2    0    0 -0.13704780606E+04  0.99697969280E+03 -0.62733699977E+04  0.65000000000E+04  0.15050000000E+03 0.  1.
     100001    1    1    2    0    0  0.13704780606E+04 -0.99697969280E+03  0.62733699977E+04  0.65000000000E+04  0.15050000000E+03 0.  1.
</event>
<event>
 4    1  0.4630618E-004  0.6500000E+04  0.7818608E-02  0.7223770E-01
         52   -1    0    0    0    0  0.00000000000E+00  0.00000000000E+00  0.64930732323E+04  0.65000000000E+04  0.30000000000E+03 0. -1.
        -52   -1    0    0    0    0 -0.00000000000E+00 -0.00000000000E+00 -0.64930732323E+04  0.65000000000E+04  0.30000000000E+03 0.  1.
     100001    1    1    2    0    0 -0.19581421884E+03  0.25942081043E+03  0.64901238343E+04  0.65000000000E+04  0.15050000000E+03 0. -1.
     100001    1    1    2    0    0  0.19581421884E+03 -0.25942081043E+03 -0.64901238343E+04  0.65000000000E+04  0.15050000000E+03 0.  1.
</event>
<event>
 4    1  0.4630618E-004  0.6500000E+04  0.7818608E-02  0.7223770E-01
         52   -1    0    0    0    0  0.00000000000E+00  0.00000000000E+00  0.64930732323E+04  0.65000000000E+04  0.30000000000E+03 0. -1.
        -52   -1    0    0    0    0 -0.00000000000E+00 -0.00000000000E+00 -0.64930732323E+04  0.65000000000E+04  0.30000000000E+03 0.  1.
     100001    1    1    2    0    0 -0.30018334755E+03  0.61507866731E+03 -0.64621140458E+04  0.65000000000E+04  0.15050000000E+03 0.  1.
     100001    1    1    2    0    0  0.30018334755E+03 -0.61507866731E+03  0.64621140458E+04  0.65000000000E+04  0.15050000000E+03 0. -1.
</event>
<event>
 4    1  0.4630618E-004  0.6500000E+04  0.7818608E-02  0.7223770E-01
         52   -1    0    0    0    0  0.00000000000E+00  0.00000000000E+00  0.64930732323E+04  0.65000000000E+04  0.30000000000E+03 0. -1.
        -52   -1    0    0    0    0 -0.00000000000E+00 -0.00000000000E+00 -0.64930732323E+04  0.65000000000E+04  0.30000000000E+03 0.  1.
     100001    1    1    2    0    0  0.11499346748E+04 -0.42869485527E+03 -0.63813181017E+04  0.65000000000E+04  0.15050000000E+03 0.  1.
     100001    1    1    2    0    0 -0.11499346748E+04  0.42869485527E+03  0.63813181017E+04  0.65000000000E+04  0.15050000000E+03 0. -1.
</event>
<event>
 4    1  0.4630618E-004  0.6500000E+04  0.7818608E-02  0.7223770E-01
         52   -1    0    0    0    0  0.00000000000E+00  0.00000000000E+00  0.64930732323E+04  0.65000000000E+04  0.30000000000E+03 0.  1.
        -52   -1    0    0    0    0 -0.00000000000E+00 -0.00000000000E+00 -0.64930732323E+04  0.65000000000E+04  0.30000000000E+03 0. -1.
     100001    1    1    2    0    0  0.99355823516E+03 -0.14135904141E+04  0.62643398634E+04  0.65000000000E+04  0.15050000000E+03 0.  1.
     100001    1    1    2    0    0 -0.99355823516E+03  0.14135904141E+04 -0.62643398634E+04  0.65000000000E+04  0.15050000000E+03 0. -1.
</event>
<event>
 4    1  0.4630618E-004  0.6500000E+04  0.7818608E-02  0.7223770E-01
         52   -1    0    0    0    0  0.00000000000E+00  0.00000000000E+00  0.64930732323E+04  0.65000000000E+04  0.30000000000E+03 0. -1.
        -52   -1    0    0    0    0 -0.00000000000E+00 -0.00000000000E+00 -0.64930732323E+04  0.65000000000E+04  0.30000000000E+03 0.  1.
     100001    1    1    2    0    0  0.36419511940E+04 -0.51984503605E+04  0.13927150103E+04  0.65000000000E+04  0.15050000000E+03 0. -1.
     100001    1    1    2    0    0 -0.36419511940E+04  0.51984503605E+04 -0.13927150103E+04  0.65000000000E+04  0.15050000000E+03 0.  1.
</event>
<event>
 4    1  0.4630618E-004  0.6500000E+04  0.7818608E-02  0.7223770E-01
         52   -1    0    0    0    0  0.00000000000E+00  0.00000000000E+00  0.64930732323E+04  0.65000000000E+04  0.30000000000E+03 0. -1.
        -52   -1    0    0    0    0 -0.00000000000E+00 -0.00000000000E+00 -0.64930732323E+04  0.65000000000E+04  0.30000000000E+03 0.  1.
     100001    1    1    2    0    0  0.58848631177E+04 -0.12449581685E+04 -0.24588239047E+04  0.65000000000E+04  0.15050000000E+03 0.  1.
     100001    1    1    2    0    0 -0.58848631177E+04  0.12449581685E+04  0.24588239047E+04  0.65000000000E+04  0.15050000000E+03 0. -1.
</event>
<event>
 4    1  0.4630618E-004  0.6500000E+04  0.7818608E-02  0.7223770E-01
         52   -1    0    0    0    0  0.00000000000E+00  0.00000000000E+00  0.64930732323E+04  0.65000000000E+04  0.30000000000E+03 0.  1.
        -52   -1    0    0    0    0 -0.00000000000E+00 -0.00000000000E+00 -0.64930732323E+04  0.65000000000E+04  0.30000000000E+03 0. -1.
     100001    1    1    2    0    0 -0.17398752647E+03 -0.19612468437E+03  0.64929664406E+04  0.65000000000E+04  0.15050000000E+03 0.  1.
     100001    1    1    2    0    0  0.17398752647E+03  0.19612468437E+03 -0.64929664406E+04  0.65000000000E+04  0.15050000000E+03 0. -1.
</event>
<event>
 4    1  0.4630618E-004  0.6500000E+04  0.7818608E-02  0.7223770E-01
         52   -1    0    0    0    0  0.00000000000E+00  0.00000000000E+00  0.64930732323E+04  0.65000000000E+04  0.30000000000E+03 0. -1.
        -52   -1    0    0    0    0 -0.00000000000E+00 -0.00000000000E+00 -0.64930732323E+04  0.65000000000E+04  0.30000000000E+03 0.  1.
     100001    1    1    2    0    0  0.24164424139E+04 -0.18196439689E+03 -0.60295144720E+04  0.65000000000E+04  0.15050000000E+03 0.  1.
     100001    1    1    2    0    0 -0.24164424139E+04  0.18196439689E+03  0.60295144720E+04  0.65000000000E+04  0.15050000000E+03 0. -1.
</event>
<event>
 4    1  0.4630618E-004  0.6500000E+04  0.7818608E-02  0.7223770E-01
         52   -1    0    0    0    0  0.00000000000E+00  0.00000000000E+00  0.64930732323E+04  0.65000000000E+04  0.30000000000E+03 0. -1.
        -52   -1    0    0    0    0 -0.00000000000E+00 -0.00000000000E+00 -0.64930732323E+04  0.65000000000E+04  0.30000000000E+03 0.  1.
     100001    1    1    2    0    0  0.69373638407E+03 -0.78944912282E+03  0.64127100092E+04  0.65000000000E+04  0.15050000000E+03 0. -1.
     100001    1    1    2    0    0 -0.69373638407E+03  0.78944912282E+03 -0.64127100092E+04  0.65000000000E+04  0.15050000000E+03 0.  1.
</event>
<event>
 4    1  0.4630618E-004  0.6500000E+04  0.7818608E-02  0.7223770E-01
         52   -1    0    0    0    0  0.00000000000E+00  0.00000000000E+00  0.64930732323E+04  0.65000000000E+04  0.30000000000E+03 0. -1.
        -52   -1    0    0    0    0 -0.00000000000E+00 -0.00000000000E+00 -0.64930732323E+04  0.65000000000E+04  0.30000000000E+03 0.  1.
     100001    1    1    2    0    0  0.35866207039E+02  0.24896680289E+03 -0.64933873207E+04  0.65000000000E+04  0.15050000000E+03 0.  1.
     100001    1    1    2    0    0 -0.35866207039E+02 -0.24896680289E+03  0.64933873207E+04  0.65000000000E+04  0.15050000000E+03 0. -1.
</event>
<event>
 4    1  0.6421490E-004  0.6500000E+04  0.7818608E-02  0.7223770E-01
         52   -1    0    0    0    0  0.00000000000E+00  0.00000000000E+00  0.64930732323E+04  0.65000000000E+04  0.30000000000E+03 0.  1.
        -52   -1    0    0    0    0 -0.00000000000E+00 -0.00000000000E+00 -0.64930732323E+04  0.65000000000E+04  0.30000000000E+03 0. -1.
     100001    1    1    2    0    0 -0.11158824175E+03  0.12239169678E+03 -0.64961464028E+04  0.65000000000E+04  0.15050000000E+03 0. -1.
     100001    1    1    2    0    0  0.11158824175E+03 -0.12239169678E+03  0.64961464028E+04  0.65000000000E+04  0.15050000000E+03 0.  1.
</event>
<event>
 4    1  0.4630618E-004  0.6500000E+04  0.7818608E-02  0.7223770E-01
         52   -1    0    0    0    0  0.00000000000E+00  0.00000000000E+00  0.64930732323E+04  0.65000000000E+04  0.30000000000E+03 0.  1.
        -52   -1    0    0    0    0 -0.00000000000E+00 -0.00000000000E+00 -0.64930732323E+04  0.65000000000E+04  0.30000000000E+03 0.  1.
     100001    1    1    2    0    0  0.33437690913E+04  0.36659326653E+04  0.41961286571E+04  0.65000000000E+04  0.15050000000E+03 0. -1.
     100001    1    1    2    0    0 -0.33437690913E+04 -0.36659326653E+04 -0.41961286571E+04  0.65000000000E+04  0.15050000000E+03 0.  1.
</event>
<event>
 4    1  0.4630618E-004  0.6500000E+04  0.7818608E-02  0.7223770E-01
         52   -1    0    0    0    0  0.00000000000E+00  0.00000000000E+00  0.64930732323E+04  0.65000000000E+04  0.30000000000E+03 0. -1.
        -52   -1    0    0    0    0 -0.00000000000E+00 -0.00000000000E+00 -0.64930732323E+04  0.65000000000E+04  0.30000000000E+03 0.  1.
     100001    1    1    2    0    0  0.10410826425E+04  0.13433026740E+04 -0.62720837532E+04  0.65000000000E+04  0.15050000000E+03 0.  1.
     100001    1    1    2    0    0 -0.10410826425E+04 -0.13433026740E+04  0.62720837532E+04  0.65000000000E+04  0.15050000000E+03 0. -1.
</event>
<event>
 4    1  0.4630618E-004  0.6500000E+04  0.7818608E-02  0.7223770E-01
         52   -1    0    0    0    0  0.00000000000E+00  0.00000000000E+00  0.64930732323E+04  0.65000000000E+04  0.30000000000E+03 0. -1.
        -52   -1    0    0    0    0 -0.00000000000E+00 -0.00000000000E+00 -0.64930732323E+04  0.65000000000E+04  0.30000000000E+03 0. -1.
     100001    1    1    2    0    0  0.33720132198E+03 -0.65595919049E+03 -0.64562653724E+04  0.65000000000E+04  0.15050000000E+03 0. -1.
     100001    1    1    2    0    0 -0.33720132198E+03  0.65595919049E+03  0.64562653724E+04  0.65000000000E+04  0.15050000000E+03 0. -1.
</event>
<event>
 4    1  0.4630618E-004  0.6500000E+04  0.7818608E-02  0.7223770E-01
         52   -1    0    0    0    0  0.00000000000E+00  0.00000000000E+00  0.64930732323E+04  0.65000000000E+04  0.30000000000E+03 0. -1.
        -52   -1    0    0    0    0 -0.00000000000E+00 -0.00000000000E+00 -0.64930732323E+04  0.65000000000E+04  0.30000000000E+03 0.  1.
     100001    1    1    2    0    0  0.59577394625E+03 -0.42343567028E+03 -0.64570198535E+04  0.65000000000E+04  0.15050000000E+03 0.  1.
     100001    1    1    2    0    0 -0.59577394625E+03  0.42343567028E+03  0.64570198535E+04  0.65000000000E+04  0.15050000000E+03 0. -1.
</event>
<event>
 4    1  0.4630618E-004  0.6500000E+04  0.7818608E-02  0.7223770E-01
         52   -1    0    0    0    0  0.00000000000E+00  0.00000000000E+00  0.64930732323E+04  0.65000000000E+04  0.30000000000E+03 0.  1.
        -52   -1    0    0    0    0 -0.00000000000E+00 -0.00000000000E+00 -0.64930732323E+04  0.65000000000E+04  0.30000000000E+03 0. -1.
     100001    1    1    2    0    0 -0.18080307015E+04  0.57083228921E+04  0.25245642182E+04  0.65000000000E+04  0.15050000000E+03 0. -1.
     100001    1    1    2    0    0  0.18080307015E+04 -0.57083228921E+04 -0.25245642182E+04  0.65000000000E+04  0.15050000000E+03 0.  1.
</event>
<event>
 4    1  0.4630618E-004  0.6500000E+04  0.7818608E-02  0.7223770E-01
         52   -1    0    0    0    0  0.00000000000E+00  0.00000000000E+00  0.64930732323E+04  0.65000000000E+04  0.30000000000E+03 0. -1.
        -52   -1    0    0    0    0 -0.00000000000E+00 -0.00000000000E+00 -0.64930732323E+04  0.65000000000E+04  0.30000000000E+03 0.  1.
     100001    1    1    2    0    0 -0.13847054391E+04  0.10458813135E+04 -0.62622737783E+04  0.65000000000E+04  0.15050000000E+03 0.  1.
     100001    1    1    2    0    0  0.13847054391E+04 -0.10458813135E+04  0.62622737783E+04  0.65000000000E+04  0.15050000000E+03 0. -1.
</event>
<event>
 4    1  0.4630618E-004  0.6500000E+04  0.7818608E-02  0.7223770E-01
         52   -1    0    0    0    0  0.00000000000E+00  0.00000000000E+00  0.64930732323E+04  0.65000000000E+04  0.30000000000E+03 0. -1.
        -52   -1    0    0    0    0 -0.00000000000E+00 -0.00000000000E+00 -0.64930732323E+04  0.65000000000E+04  0.30000000000E+03 0.  1.
     100001    1    1    2    0    0  0.73174097694E+03  0.49399949813E+04 -0.41579267041E+04  0.65000000000E+04  0.15050000000E+03 0.  1.
     100001    1    1    2    0    0 -0.73174097694E+03 -0.49399949813E+04  0.41579267041E+04  0.65000000000E+04  0.15050000000E+03 0. -1.
</event>
<event>
 4    1  0.4630618E-004  0.6500000E+04  0.7818608E-02  0.7223770E-01
         52   -1    0    0    0    0  0.00000000000E+00  0.00000000000E+00  0.64930732323E+04  0.65000000000E+04  0.30000000000E+03 0.  1.
        -52   -1    0    0    0    0 -0.00000000000E+00 -0.00000000000E+00 -0.64930732323E+04  0.65000000000E+04  0.30000000000E+03 0.  1.
     100001    1    1    2    0    0 -0.34638772691E+03  0.41943884927E+01 -0.64890174680E+04  0.65000000000E+04  0.15050000000E+03 0.  1.
     100001    1    1    2    0    0  0.34638772691E+03 -0.41943884927E+01  0.64890174680E+04  0.65000000000E+04  0.15050000000E+03 0.  1.
</event>
<event>
 4    1  0.4630618E-004  0.6500000E+04  0.7818608E-02  0.7223770E-01
         52   -1    0    0    0    0  0.00000000000E+00  0.00000000000E+00  0.64930732323E+04  0.65000000000E+04  0.30000000000E+03 0. -1.
        -52   -1    0    0    0    0 -0.00000000000E+00 -0.00000000000E+00 -0.64930732323E+04  0.65000000000E+04  0.30000000000E+03 0.  1.
     100001    1    1    2    0    0  0.87107443690E+02 -0.34956623352E+04 -0.54772353319E+04  0.65000000000E+04  0.15050000000E+03 0.  1.
     100001    1    1    2    0    0 -0.87107443690E+02  0.34956623352E+04  0.54772353319E+04  0.65000000000E+04  0.15050000000E+03 0. -1.
</event>
<event>
 4    1  0.4630618E-004  0.6500000E+04  0.7818608E-02  0.7223770E-01
         52   -1    0    0    0    0  0.00000000000E+00  0.00000000000E+00  0.64930732323E+04  0.65000000000E+04  0.30000000000E+03 0.  1.
        -52   -1    0    0    0    0 -0.00000000000E+00 -0.00000000000E+00 -0.64930732323E+04  0.65000000000E+04  0.30000000000E+03 0. -1.
     100001    1    1    2    0    0  0.11927910679E+04  0.15226585323E+04 -0.62037174511E+04  0.65000000000E+04  0.15050000000E+03 0. -1.
     100001    1    1    2    0    0 -0.11927910679E+04 -0.15226585323E+04  0.62037174511E+04  0.65000000000E+04  0.15050000000E+03 0.  1.
</event>
<event>
 4    1  0.4630618E-004  0.6500000E+04  0.7818608E-02  0.7223770E-01
         52   -1    0    0    0    0  0.00000000000E+00  0.00000000000E+00  0.64930732323E+04  0.65000000000E+04  0.30000000000E+03 0. -1.
        -52   -1    0    0    0    0 -0.00000000000E+00 -0.00000000000E+00 -0.64930732323E+04  0.65000000000E+04  0.30000000000E+03 0.  1.
     100001    1    1    2    0    0  0.12375495765E+03 -0.69210814349E+03  0.64601099664E+04  0.65000000000E+04  0.15050000000E+03 0. -1.
     100001    1    1    2    0    0 -0.12375495765E+03  0.69210814349E+03 -0.64601099664E+04  0.65000000000E+04  0.15050000000E+03 0.  1.
</event>
<event>
 4    1  0.4630618E-004  0.6500000E+04  0.7818608E-02  0.7223770E-01
         52   -1    0    0    0    0  0.00000000000E+00  0.00000000000E+00  0.64930732323E+04  0.65000000000E+04  0.30000000000E+03 0.  1.
        -52   -1    0    0    0    0 -0.00000000000E+00 -0.00000000000E+00 -0.64930732323E+04  0.65000000000E+04  0.30000000000E+03 0. -1.
     100001    1    1    2    0    0 -0.35774722192E+04  0.19292330438E+04 -0.50702171683E+04  0.65000000000E+04  0.15050000000E+03 0. -1.
     100001    1    1    2    0    0  0.35774722192E+04 -0.19292330438E+04  0.50702171683E+04  0.65000000000E+04  0.15050000000E+03 0.  1.
</event>
<event>
 4    1  0.4630618E-004  0.6500000E+04  0.7818608E-02  0.7223770E-01
         52   -1    0    0    0    0  0.00000000000E+00  0.00000000000E+00  0.64930732323E+04  0.65000000000E+04  0.30000000000E+03 0. -1.
        -52   -1    0    0    0    0 -0.00000000000E+00 -0.00000000000E+00 -0.64930732323E+04  0.65000000000E+04  0.30000000000E+03 0.  1.
     100001    1    1    2    0    0  0.24753687264E+03 -0.56333175246E+04 -0.32298310968E+04  0.65000000000E+04  0.15050000000E+03 0.  1.
     100001    1    1    2    0    0 -0.24753687264E+03  0.56333175246E+04  0.32298310968E+04  0.65000000000E+04  0.15050000000E+03 0. -1.
</event>
<event>
 4    1  0.4630618E-004  0.6500000E+04  0.7818608E-02  0.7223770E-01
         52   -1    0    0    0    0  0.00000000000E+00  0.00000000000E+00  0.64930732323E+04  0.65000000000E+04  0.30000000000E+03 0. -1.
        -52   -1    0    0    0    0 -0.00000000000E+00 -0.00000000000E+00 -0.64930732323E+04  0.65000000000E+04  0.30000000000E+03 0.  1.
     100001    1    1    2    0    0 -0.10812794440E+03 -0.28960771111E+03  0.64909002050E+04  0.65000000000E+04  0.15050000000E+03 0. -1.
     100001    1    1    2    0    0  0.10812794440E+03  0.28960771111E+03 -0.64909002050E+04  0.65000000000E+04  0.15050000000E+03 0.  1.
</event>
<event>
 4    1  0.4630618E-004  0.6500000E+04  0.7818608E-02  0.7223770E-01
         52   -1    0    0    0    0  0.00000000000E+00  0.00000000000E+00  0.64930732323E+04  0.65000000000E+04  0.30000000000E+03 0.  1.
        -52   -1    0    0    0    0 -0.00000000000E+00 -0.00000000000E+00 -0.64930732323E+04  0.65000000000E+04  0.30000000000E+03 0. -1.
     100001    1    1    2    0    0  0.31789946929E+03  0.16443329261E+03  0.64883935893E+04  0.65000000000E+04  0.15050000000E+03 0.  1.
     100001    1    1    2    0    0 -0.31789946929E+03 -0.16443329261E+03 -0.64883935893E+04  0.65000000000E+04  0.15050000000E+03 0. -1.
</event>
<event>
 4    1  0.4630618E-004  0.6500000E+04  0.7818608E-02  0.7223770E-01
         52   -1    0    0    0    0  0.00000000000E+00  0.00000000000E+00  0.64930732323E+04  0.65000000000E+04  0.30000000000E+03 0. -1.
        -52   -1    0    0    0    0 -0.00000000000E+00 -0.00000000000E+00 -0.64930732323E+04  0.65000000000E+04  0.30000000000E+03 0.  1.
     100001    1    1    2    0    0  0.29787671177E+03 -0.21233766250E+04 -0.61343207385E+04  0.65000000000E+04  0.15050000000E+03 0.  1.
     100001    1    1    2    0    0 -0.29787671177E+03  0.21233766250E+04  0.61343207385E+04  0.65000000000E+04  0.15050000000E+03 0. -1.
</event>
<event>
 4    1  0.4630618E-004  0.6500000E+04  0.7818608E-02  0.7223770E-01
         52   -1    0    0    0    0  0.00000000000E+00  0.00000000000E+00  0.64930732323E+04  0.65000000000E+04  0.30000000000E+03 0.  1.
        -52   -1    0    0    0    0 -0.00000000000E+00 -0.00000000000E+00 -0.64930732323E+04  0.65000000000E+04  0.30000000000E+03 0. -1.
     100001    1    1    2    0    0  0.84898307234E+03 -0.74036796130E+03  0.63998775594E+04  0.65000000000E+04  0.15050000000E+03 0.  1.
     100001    1    1    2    0    0 -0.84898307234E+03  0.74036796130E+03 -0.63998775594E+04  0.65000000000E+04  0.15050000000E+03 0. -1.
</event>
<event>
 4    1  0.4630618E-004  0.6500000E+04  0.7818608E-02  0.7223770E-01
         52   -1    0    0    0    0  0.00000000000E+00  0.00000000000E+00  0.64930732323E+04  0.65000000000E+04  0.30000000000E+03 0.  1.
        -52   -1    0    0    0    0 -0.00000000000E+00 -0.00000000000E+00 -0.64930732323E+04  0.65000000000E+04  0.30000000000E+03 0. -1.
     100001    1    1    2    0    0 -0.22241033473E+04  0.47137174186E+03  0.60875711685E+04  0.65000000000E+04  0.15050000000E+03 0.  1.
     100001    1    1    2    0    0  0.22241033473E+04 -0.47137174186E+03 -0.60875711685E+04  0.65000000000E+04  0.15050000000E+03 0. -1.
</event>
<event>
 4    1  0.4630618E-004  0.6500000E+04  0.7818608E-02  0.7223770E-01
         52   -1    0    0    0    0  0.00000000000E+00  0.00000000000E+00  0.64930732323E+04  0.65000000000E+04  0.30000000000E+03 0. -1.
        -52   -1    0    0    0    0 -0.00000000000E+00 -0.00000000000E+00 -0.64930732323E+04  0.65000000000E+04  0.30000000000E+03 0. -1.
     100001    1    1    2    0    0 -0.69405986166E+02 -0.16814486752E+03 -0.64957108820E+04  0.65000000000E+04  0.15050000000E+03 0. -1.
     100001    1    1    2    0    0  0.69405986166E+02  0.16814486752E+03  0.64957108820E+04  0.65000000000E+04  0.15050000000E+03 0. -1.
</event>
<event>
 4    1  0.4630618E-004  0.6500000E+04  0.7818608E-02  0.7223770E-01
         52   -1    0    0    0    0  0.00000000000E+00  0.00000000000E+00  0.64930732323E+04  0.65000000000E+04  0.30000000000E+03 0. -1.
        -52   -1    0    0    0    0 -0.00000000000E+00 -0.00000000000E+00 -0.64930732323E+04  0.65000000000E+04  0.30000000000E+03 0.  1.
     100001    1    1    2    0    0 -0.32966688396E+04 -0.85224756487E+02 -0.55992911206E+04  0.65000000000E+04  0.15050000000E+03 0.  1.
     100001    1    1    2    0    0  0.32966688396E+04  0.85224756487E+02  0.55992911206E+04  0.65000000000E+04  0.15050000000E+03 0. -1.
</event>
<event>
 4    1  0.4630618E-004  0.6500000E+04  0.7818608E-02  0.7223770E-01
         52   -1    0    0    0    0  0.00000000000E+00  0.00000000000E+00  0.64930732323E+04  0.65000000000E+04  0.30000000000E+03 0.  1.
        -52   -1    0    0    0    0 -0.00000000000E+00 -0.00000000000E+00 -0.64930732323E+04  0.65000000000E+04  0.30000000000E+03 0. -1.
     100001    1    1    2    0    0 -0.64412275325E+03 -0.34415276542E+03  0.64570902505E+04  0.65000000000E+04  0.15050000000E+03 0.  1.
     100001    1    1    2    0    0  0.64412275325E+03  0.34415276542E+03 -0.64570902505E+04  0.65000000000E+04  0.15050000000E+03 0. -1.
</event>
<event>
 4    1  0.4630618E-004  0.6500000E+04  0.7818608E-02  0.7223770E-01
         52   -1    0    0    0    0  0.00000000000E+00  0.00000000000E+00  0.64930732323E+04  0.65000000000E+04  0.30000000000E+03 0. -1.
        -52   -1    0    0    0    0 -0.00000000000E+00 -0.00000000000E+00 -0.64930732323E+04  0.65000000000E+04  0.30000000000E+03 0.  1.
     100001    1    1    2    0    0 -0.40961740084E+03 -0.27665204508E+03 -0.64794310692E+04  0.65000000000E+04  0.15050000000E+03 0.  1.
     100001    1    1    2    0    0  0.40961740084E+03  0.27665204508E+03  0.64794310692E+04  0.65000000000E+04  0.15050000000E+03 0. -1.
</event>
<event>
 4    1  0.4630618E-004  0.6500000E+04  0.7818608E-02  0.7223770E-01
         52   -1    0    0    0    0  0.00000000000E+00  0.00000000000E+00  0.64930732323E+04  0.65000000000E+04  0.30000000000E+03 0. -1.
        -52   -1    0    0    0    0 -0.00000000000E+00 -0.00000000000E+00 -0.64930732323E+04  0.65000000000E+04  0.30000000000E+03 0. -1.
     100001    1    1    2    0    0  0.15580887898E+03  0.24851821113E+03  0.64916340040E+04  0.65000000000E+04  0.15050000000E+03 0. -1.
     100001    1    1    2    0    0 -0.15580887898E+03 -0.24851821113E+03 -0.64916340040E+04  0.65000000000E+04  0.15050000000E+03 0. -1.
</event>
<event>
 4    1  0.4630618E-004  0.6500000E+04  0.7818608E-02  0.7223770E-01
         52   -1    0    0    0    0  0.00000000000E+00  0.00000000000E+00  0.64930732323E+04  0.65000000000E+04  0.30000000000E+03 0. -1.
        -52   -1    0    0    0    0 -0.00000000000E+00 -0.00000000000E+00 -0.64930732323E+04  0.65000000000E+04  0.30000000000E+03 0.  1.
     100001    1    1    2    0    0  0.20279574584E+03  0.32547764591E+03 -0.64869320898E+04  0.65000000000E+04  0.15050000000E+03 0.  1.
     100001    1    1    2    0    0 -0.20279574584E+03 -0.32547764591E+03  0.64869320898E+04  0.65000000000E+04  0.15050000000E+03 0. -1.
</event>
<event>
 4    1  0.4630618E-004  0.6500000E+04  0.7818608E-02  0.7223770E-01
         52   -1    0    0    0    0  0.00000000000E+00  0.00000000000E+00  0.64930732323E+04  0.65000000000E+04  0.30000000000E+03 0. -1.
        -52   -1    0    0    0    0 -0.00000000000E+00 -0.00000000000E+00 -0.64930732323E+04  0.65000000000E+04  0.30000000000E+03 0.  1.
     100001    1    1    2    0    0 -0.32190693087E+03  0.10876507759E+04  0.63984952503E+04  0.65000000000E+04  0.15050000000E+03 0. -1.
     100001    1    1    2    0    0  0.32190693087E+03 -0.10876507759E+04 -0.63984952503E+04  0.65000000000E+04  0.15050000000E+03 0.  1.
</event>
<event>
 4    1  0.4630618E-004  0.6500000E+04  0.7818608E-02  0.7223770E-01
         52   -1    0    0    0    0  0.00000000000E+00  0.00000000000E+00  0.64930732323E+04  0.65000000000E+04  0.30000000000E+03 0.  1.
        -52   -1    0    0    0    0 -0.00000000000E+00 -0.00000000000E+00 -0.64930732323E+04  0.65000000000E+04  0.30000000000E+03 0. -1.
     100001    1    1    2    0    0  0.11805411707E+04 -0.30612234448E+04  0.56091517465E+04  0.65000000000E+04  0.15050000000E+03 0.  1.
     100001    1    1    2    0    0 -0.11805411707E+04  0.30612234448E+04 -0.56091517465E+04  0.65000000000E+04  0.15050000000E+03 0. -1.
</event>
<event>
 4    1  0.4630618E-004  0.6500000E+04  0.7818608E-02  0.7223770E-01
         52   -1    0    0    0    0  0.00000000000E+00  0.00000000000E+00  0.64930732323E+04  0.65000000000E+04  0.30000000000E+03 0.  1.
        -52   -1    0    0    0    0 -0.00000000000E+00 -0.00000000000E+00 -0.64930732323E+04  0.65000000000E+04  0.30000000000E+03 0.  1.
     100001    1    1    2    0    0 -0.21701476841E+03 -0.30285726694E+03  0.64875674807E+04  0.65000000000E+04  0.15050000000E+03 0.  1.
     100001    1    1    2    0    0  0.21701476841E+03  0.30285726694E+03 -0.64875674807E+04  0.65000000000E+04  0.15050000000E+03 0.  1.
</event>
<event>
 4    1  0.4630618E-004  0.6500000E+04  0.7818608E-02  0.7223770E-01
         52   -1    0    0    0    0  0.00000000000E+00  0.00000000000E+00  0.64930732323E+04  0.65000000000E+04  0.30000000000E+03 0.  1.
        -52   -1    0    0    0    0 -0.00000000000E+00 -0.00000000000E+00 -0.64930732323E+04  0.65000000000E+04  0.30000000000E+03 0.  1.
     100001    1    1    2    0    0  0.19895849355E+03 -0.20447651377E+03 -0.64919915760E+04  0.65000000000E+04  0.15050000000E+03 0.  1.
     100001    1    1    2    0    0 -0.19895849355E+03  0.20447651377E+03  0.64919915760E+04  0.65000000000E+04  0.15050000000E+03 0.  1.
</event>
<event>
 4    1  0.4630618E-004  0.6500000E+04  0.7818608E-02  0.7223770E-01
         52   -1    0    0    0    0  0.00000000000E+00  0.00000000000E+00  0.64930732323E+04  0.65000000000E+04  0.30000000000E+03 0.  1.
        -52   -1    0    0    0    0 -0.00000000000E+00 -0.00000000000E+00 -0.64930732323E+04  0.65000000000E+04  0.30000000000E+03 0. -1.
     100001    1    1    2    0    0 -0.39944747266E+03  0.39440228304E+04  0.51490266439E+04  0.65000000000E+04  0.15050000000E+03 0.  1.
     100001    1    1    2    0    0  0.39944747266E+03 -0.39440228304E+04 -0.51490266439E+04  0.65000000000E+04  0.15050000000E+03 0. -1.
</event>
<event>
 4    1  0.4630618E-004  0.6500000E+04  0.7818608E-02  0.7223770E-01
         52   -1    0    0    0    0  0.00000000000E+00  0.00000000000E+00  0.64930732323E+04  0.65000000000E+04  0.30000000000E+03 0.  1.
        -52   -1    0    0    0    0 -0.00000000000E+00 -0.00000000000E+00 -0.64930732323E+04  0.65000000000E+04  0.30000000000E+03 0. -1.
     100001    1    1    2    0    0 -0.33947018143E+04 -0.65495429900E+01  0.55410564377E+04  0.65000000000E+04  0.15050000000E+03 0.  1.
     100001    1    1    2    0    0  0.33947018143E+04  0.65495429900E+01 -0.55410564377E+04  0.65000000000E+04  0.15050000000E+03 0. -1.
</event>
<event>
 4    1  0.4630618E-004  0.6500000E+04  0.7818608E-02  0.7223770E-01
         52   -1    0    0    0    0  0.00000000000E+00  0.00000000000E+00  0.64930732323E+04  0.65000000000E+04  0.30000000000E+03 0.  1.
        -52   -1    0    0    0    0 -0.00000000000E+00 -0.00000000000E+00 -0.64930732323E+04  0.65000000000E+04  0.30000000000E+03 0. -1.
     100001    1    1    2    0    0 -0.95704893905E+03  0.43784791728E+04 -0.47053509127E+04  0.65000000000E+04  0.15050000000E+03 0. -1.
     100001    1    1    2    0    0  0.95704893905E+03 -0.43784791728E+04  0.47053509127E+04  0.65000000000E+04  0.15050000000E+03 0.  1.
</event>
<event>
 4    1  0.4630618E-004  0.6500000E+04  0.7818608E-02  0.7223770E-01
         52   -1    0    0    0    0  0.00000000000E+00  0.00000000000E+00  0.64930732323E+04  0.65000000000E+04  0.30000000000E+03 0. -1.
        -52   -1    0    0    0    0 -0.00000000000E+00 -0.00000000000E+00 -0.64930732323E+04  0.65000000000E+04  0.30000000000E+03 0.  1.
     100001    1    1    2    0    0 -0.38861486904E+03  0.18696550038E+03 -0.64839318423E+04  0.65000000000E+04  0.15050000000E+03 0.  1.
     100001    1    1    2    0    0  0.38861486904E+03 -0.18696550038E+03  0.64839318423E+04  0.65000000000E+04  0.15050000000E+03 0. -1.
</event>
<event>
 4    1  0.4630618E-004  0.6500000E+04  0.7818608E-02  0.7223770E-01
         52   -1    0    0    0    0  0.00000000000E+00  0.00000000000E+00  0.64930732323E+04  0.65000000000E+04  0.30000000000E+03 0. -1.
        -52   -1    0    0    0    0 -0.00000000000E+00 -0.00000000000E+00 -0.64930732323E+04  0.65000000000E+04  0.30000000000E+03 0.  1.
     100001    1    1    2    0    0  0.35546005870E+03 -0.61006658179E+04 -0.22097227144E+04  0.65000000000E+04  0.15050000000E+03 0.  1.
     100001    1    1    2    0    0 -0.35546005870E+03  0.61006658179E+04  0.22097227144E+04  0.65000000000E+04  0.15050000000E+03 0. -1.
</event>
<event>
 4    1  0.4630618E-004  0.6500000E+04  0.7818608E-02  0.7223770E-01
         52   -1    0    0    0    0  0.00000000000E+00  0.00000000000E+00  0.64930732323E+04  0.65000000000E+04  0.30000000000E+03 0. -1.
        -52   -1    0    0    0    0 -0.00000000000E+00 -0.00000000000E+00 -0.64930732323E+04  0.65000000000E+04  0.30000000000E+03 0.  1.
     100001    1    1    2    0    0  0.54234467515E+03 -0.25035115172E+03  0.64707446484E+04  0.65000000000E+04  0.15050000000E+03 0. -1.
     100001    1    1    2    0    0 -0.54234467515E+03  0.25035115172E+03 -0.64707446484E+04  0.65000000000E+04  0.15050000000E+03 0.  1.
</event>
<event>
 4    1  0.4630618E-004  0.6500000E+04  0.7818608E-02  0.7223770E-01
         52   -1    0    0    0    0  0.00000000000E+00  0.00000000000E+00  0.64930732323E+04  0.65000000000E+04  0.30000000000E+03 0. -1.
        -52   -1    0    0    0    0 -0.00000000000E+00 -0.00000000000E+00 -0.64930732323E+04  0.65000000000E+04  0.30000000000E+03 0.  1.
     100001    1    1    2    0    0  0.18668999461E+03  0.19882249281E+04  0.61838061282E+04  0.65000000000E+04  0.15050000000E+03 0. -1.
     100001    1    1    2    0    0 -0.18668999461E+03 -0.19882249281E+04 -0.61838061282E+04  0.65000000000E+04  0.15050000000E+03 0.  1.
</event>
<event>
 4    1  0.4630618E-004  0.6500000E+04  0.7818608E-02  0.7223770E-01
         52   -1    0    0    0    0  0.00000000000E+00  0.00000000000E+00  0.64930732323E+04  0.65000000000E+04  0.30000000000E+03 0. -1.
        -52   -1    0    0    0    0 -0.00000000000E+00 -0.00000000000E+00 -0.64930732323E+04  0.65000000000E+04  0.30000000000E+03 0.  1.
     100001    1    1    2    0    0 -0.68456588209E+03 -0.38625480293E+03  0.64505446693E+04  0.65000000000E+04  0.15050000000E+03 0. -1.
     100001    1    1    2    0    0  0.68456588209E+03  0.38625480293E+03 -0.64505446693E+04  0.65000000000E+04  0.15050000000E+03 0.  1.
</event>
<event>
 4    1  0.4630618E-004  0.6500000E+04  0.7818608E-02  0.7223770E-01
         52   -1    0    0    0    0  0.00000000000E+00  0.00000000000E+00  0.64930732323E+04  0.65000000000E+04  0.30000000000E+03 0. -1.
        -52   -1    0    0    0    0 -0.00000000000E+00 -0.00000000000E+00 -0.64930732323E+04  0.65000000000E+04  0.30000000000E+03 0.  1.
     100001    1    1    2    0    0 -0.17781225839E+04 -0.30316780245E+04 -0.54657623606E+04  0.65000000000E+04  0.15050000000E+03 0.  1.
     100001    1    1    2    0    0  0.17781225839E+04  0.30316780245E+04  0.54657623606E+04  0.65000000000E+04  0.15050000000E+03 0. -1.
</event>
<event>
 4    1  0.5464650E-004  0.6500000E+04  0.7818608E-02  0.7223770E-01
         52   -1    0    0    0    0  0.00000000000E+00  0.00000000000E+00  0.64930732323E+04  0.65000000000E+04  0.30000000000E+03 0. -1.
        -52   -1    0    0    0    0 -0.00000000000E+00 -0.00000000000E+00 -0.64930732323E+04  0.65000000000E+04  0.30000000000E+03 0. -1.
     100001    1    1    2    0    0  0.37449293825E+02 -0.16563662454E+03  0.64960381625E+04  0.65000000000E+04  0.15050000000E+03 0. -1.
     100001    1    1    2    0    0 -0.37449293825E+02  0.16563662454E+03 -0.64960381625E+04  0.65000000000E+04  0.15050000000E+03 0. -1.
</event>
<event>
 4    1  0.4630618E-004  0.6500000E+04  0.7818608E-02  0.7223770E-01
         52   -1    0    0    0    0  0.00000000000E+00  0.00000000000E+00  0.64930732323E+04  0.65000000000E+04  0.30000000000E+03 0. -1.
        -52   -1    0    0    0    0 -0.00000000000E+00 -0.00000000000E+00 -0.64930732323E+04  0.65000000000E+04  0.30000000000E+03 0.  1.
     100001    1    1    2    0    0 -0.20537870905E+02 -0.78641003870E+03  0.64504641071E+04  0.65000000000E+04  0.15050000000E+03 0. -1.
     100001    1    1    2    0    0  0.20537870905E+02  0.78641003870E+03 -0.64504641071E+04  0.65000000000E+04  0.15050000000E+03 0.  1.
</event>
<event>
 4    1  0.4630618E-004  0.6500000E+04  0.7818608E-02  0.7223770E-01
         52   -1    0    0    0    0  0.00000000000E+00  0.00000000000E+00  0.64930732323E+04  0.65000000000E+04  0.30000000000E+03 0.  1.
        -52   -1    0    0    0    0 -0.00000000000E+00 -0.00000000000E+00 -0.64930732323E+04  0.65000000000E+04  0.30000000000E+03 0. -1.
     100001    1    1    2    0    0  0.26779350086E+03  0.97190378517E+03 -0.64195824960E+04  0.65000000000E+04  0.15050000000E+03 0. -1.
     100001    1    1    2    0    0 -0.26779350086E+03 -0.97190378517E+03  0.64195824960E+04  0.65000000000E+04  0.15050000000E+03 0.  1.
</event>
<event>
 4    1  0.4630618E-004  0.6500000E+04  0.7818608E-02  0.7223770E-01
         52   -1    0    0    0    0  0.00000000000E+00  0.00000000000E+00  0.64930732323E+04  0.65000000000E+04  0.30000000000E+03 0.  1.
        -52   -1    0    0    0    0 -0.00000000000E+00 -0.00000000000E+00 -0.64930732323E+04  0.65000000000E+04  0.30000000000E+03 0. -1.
     100001    1    1    2    0    0  0.34561011273E+04  0.19385215264E+04  0.51502280571E+04  0.65000000000E+04  0.15050000000E+03 0. -1.
     100001    1    1    2    0    0 -0.34561011273E+04 -0.19385215264E+04 -0.51502280571E+04  0.65000000000E+04  0.15050000000E+03 0.  1.
</event>
<event>
 4    1  0.4630618E-004  0.6500000E+04  0.7818608E-02  0.7223770E-01
         52   -1    0    0    0    0  0.00000000000E+00  0.00000000000E+00  0.64930732323E+04  0.65000000000E+04  0.30000000000E+03 0. -1.
        -52   -1    0    0    0    0 -0.00000000000E+00 -0.00000000000E+00 -0.64930732323E+04  0.65000000000E+04  0.30000000000E+03 0.  1.
     100001    1    1    2    0    0 -0.23750140738E+04 -0.24134242856E+04 -0.55463538579E+04  0.65000000000E+04  0.15050000000E+03 0.  1.
     100001    1    1    2    0    0  0.23750140738E+04  0.24134242856E+04  0.55463538579E+04  0.65000000000E+04  0.15050000000E+03 0. -1.
</event>
<event>
 4    1  0.4630618E-004  0.6500000E+04  0.7818608E-02  0.7223770E-01
         52   -1    0    0    0    0  0.00000000000E+00  0.00000000000E+00  0.64930732323E+04  0.65000000000E+04  0.30000000000E+03 0. -1.
        -52   -1    0    0    0    0 -0.00000000000E+00 -0.00000000000E+00 -0.64930732323E+04  0.65000000000E+04  0.30000000000E+03 0.  1.
     100001    1    1    2    0    0 -0.43924068624E+03  0.32289102872E+03 -0.64753500873E+04  0.65000000000E+04  0.15050000000E+03 0.  1.
     100001    1    1    2    0    0  0.43924068624E+03 -0.32289102872E+03  0.64753500873E+04  0.65000000000E+04  0.15050000000E+03 0. -1.
</event>
<event>
 4    1  0.4630618E-004  0.6500000E+04  0.7818608E-02  0.7223770E-01
         52   -1    0    0    0    0  0.00000000000E+00  0.00000000000E+00  0.64930732323E+04  0.65000000000E+04  0.30000000000E+03 0. -1.
        -52   -1    0    0    0    0 -0.00000000000E+00 -0.00000000000E+00 -0.64930732323E+04  0.65000000000E+04  0.30000000000E+03 0.  1.
     100001    1    1    2    0    0 -0.12681347532E+04 -0.13372082200E+04  0.62314571469E+04  0.65000000000E+04  0.15050000000E+03 0. -1.
     100001    1    1    2    0    0  0.12681347532E+04  0.13372082200E+04 -0.62314571469E+04  0.65000000000E+04  0.15050000000E+03 0.  1.
</event>
<event>
 4    1  0.4630618E-004  0.6500000E+04  0.7818608E-02  0.7223770E-01
         52   -1    0    0    0    0  0.00000000000E+00  0.00000000000E+00  0.64930732323E+04  0.65000000000E+04  0.30000000000E+03 0.  1.
        -52   -1    0    0    0    0 -0.00000000000E+00 -0.00000000000E+00 -0.64930732323E+04  0.65000000000E+04  0.30000000000E+03 0. -1.
     100001    1    1    2    0    0 -0.36225466586E+04 -0.21531855339E+04 -0.49465439969E+04  0.65000000000E+04  0.15050000000E+03 0. -1.
     100001    1    1    2    0    0  0.36225466586E+04  0.21531855339E+04  0.49465439969E+04  0.65000000000E+04  0.15050000000E+03 0.  1.
</event>
<event>
 4    1  0.4630618E-004  0.6500000E+04  0.7818608E-02  0.7223770E-01
         52   -1    0    0    0    0  0.00000000000E+00  0.00000000000E+00  0.64930732323E+04  0.65000000000E+04  0.30000000000E+03 0.  1.
        -52   -1    0    0    0    0 -0.00000000000E+00 -0.00000000000E+00 -0.64930732323E+04  0.65000000000E+04  0.30000000000E+03 0. -1.
     100001    1    1    2    0    0  0.35966703644E+04  0.44247267039E+04 -0.31165855733E+04  0.65000000000E+04  0.15050000000E+03 0. -1.
     100001    1    1    2    0    0 -0.35966703644E+04 -0.44247267039E+04  0.31165855733E+04  0.65000000000E+04  0.15050000000E+03 0.  1.
</event>
<event>
 4    1  0.4630618E-004  0.6500000E+04  0.7818608E-02  0.7223770E-01
         52   -1    0    0    0    0  0.00000000000E+00  0.00000000000E+00  0.64930732323E+04  0.65000000000E+04  0.30000000000E+03 0.  1.
        -52   -1    0    0    0    0 -0.00000000000E+00 -0.00000000000E+00 -0.64930732323E+04  0.65000000000E+04  0.30000000000E+03 0. -1.
     100001    1    1    2    0    0  0.26444170719E+03 -0.46616963880E+04  0.45195140358E+04  0.65000000000E+04  0.15050000000E+03 0.  1.
     100001    1    1    2    0    0 -0.26444170719E+03  0.46616963880E+04 -0.45195140358E+04  0.65000000000E+04  0.15050000000E+03 0. -1.
</event>
<event>
 4    1  0.4630618E-004  0.6500000E+04  0.7818608E-02  0.7223770E-01
         52   -1    0    0    0    0  0.00000000000E+00  0.00000000000E+00  0.64930732323E+04  0.65000000000E+04  0.30000000000E+03 0.  1.
        -52   -1    0    0    0    0 -0.00000000000E+00 -0.00000000000E+00 -0.64930732323E+04  0.65000000000E+04  0.30000000000E+03 0. -1.
     100001    1    1    2    0    0 -0.10906182689E+03  0.15430810740E+03  0.64955095471E+04  0.65000000000E+04  0.15050000000E+03 0.  1.
     100001    1    1    2    0    0  0.10906182689E+03 -0.15430810740E+03 -0.64955095471E+04  0.65000000000E+04  0.15050000000E+03 0. -1.
</event>
<event>
 4    1  0.4630618E-004  0.6500000E+04  0.7818608E-02  0.7223770E-01
         52   -1    0    0    0    0  0.00000000000E+00  0.00000000000E+00  0.64930732323E+04  0.65000000000E+04  0.30000000000E+03 0.  1.
        -52   -1    0    0    0    0 -0.00000000000E+00 -0.00000000000E+00 -0.64930732323E+04  0.65000000000E+04  0.30000000000E+03 0. -1.
     100001    1    1    2    0    0 -0.61312082099E+03 -0.48331973545E+04  0.43001902215E+04  0.65000000000E+04  0.15050000000E+03 0.  1.
     100001    1    1    2    0    0  0.61312082099E+03  0.48331973545E+04 -0.43001902215E+04  0.65000000000E+04  0.15050000000E+03 0. -1.
</event>
<event>
 4    1  0.4630618E-004  0.6500000E+04  0.7818608E-02  0.7223770E-01
         52   -1    0    0    0    0  0.00000000000E+00  0.00000000000E+00  0.64930732323E+04  0.65000000000E+04  0.30000000000E+03 0. -1.
        -52   -1    0    0    0    0 -0.00000000000E+00 -0.00000000000E+00 -0.64930732323E+04  0.65000000000E+04  0.30000000000E+03 0.  1.
     100001    1    1    2    0    0 -0.54670245642E+03 -0.27580065678E+03  0.64693431020E+04  0.65000000000E+04  0.15050000000E+03 0. -1.
     100001    1    1    2    0    0  0.54670245642E+03  0.27580065678E+03 -0.64693431020E+04  0.65000000000E+04  0.15050000000E+03 0.  1.
</event>
<event>
 4    1  0.4630618E-004  0.6500000E+04  0.7818608E-02  0.7223770E-01
         52   -1    0    0    0    0  0.00000000000E+00  0.00000000000E+00  0.64930732323E+04  0.65000000000E+04  0.30000000000E+03 0. -1.
        -52   -1    0    0    0    0 -0.00000000000E+00 -0.00000000000E+00 -0.64930732323E+04  0.65000000000E+04  0.30000000000E+03 0. -1.
     100001    1    1    2    0    0 -0.17835602550E+03  0.15077076504E+03 -0.64940593664E+04  0.65000000000E+04  0.15050000000E+03 0. -1.
     100001    1    1    2    0    0  0.17835602550E+03 -0.15077076504E+03  0.64940593664E+04  0.65000000000E+04  0.15050000000E+03 0. -1.
</event>
<event>
 4    1  0.4630618E-004  0.6500000E+04  0.7818608E-02  0.7223770E-01
         52   -1    0    0    0    0  0.00000000000E+00  0.00000000000E+00  0.64930732323E+04  0.65000000000E+04  0.30000000000E+03 0.  1.
        -52   -1    0    0    0    0 -0.00000000000E+00 -0.00000000000E+00 -0.64930732323E+04  0.65000000000E+04  0.30000000000E+03 0. -1.
     100001    1    1    2    0    0 -0.35292762331E+04  0.18072654869E+04 -0.51483347288E+04  0.65000000000E+04  0.15050000000E+03 0. -1.
     100001    1    1    2    0    0  0.35292762331E+04 -0.18072654869E+04  0.51483347288E+04  0.65000000000E+04  0.15050000000E+03 0.  1.
</event>
<event>
 4    1  0.4630618E-004  0.6500000E+04  0.7818608E-02  0.7223770E-01
         52   -1    0    0    0    0  0.00000000000E+00  0.00000000000E+00  0.64930732323E+04  0.65000000000E+04  0.30000000000E+03 0.  1.
        -52   -1    0    0    0    0 -0.00000000000E+00 -0.00000000000E+00 -0.64930732323E+04  0.65000000000E+04  0.30000000000E+03 0. -1.
     100001    1    1    2    0    0 -0.61691201067E+03  0.20570679087E+03 -0.64656363985E+04  0.65000000000E+04  0.15050000000E+03 0. -1.
     100001    1    1    2    0    0  0.61691201067E+03 -0.20570679087E+03  0.64656363985E+04  0.65000000000E+04  0.15050000000E+03 0.  1.
</event>
<event>
 4    1  0.5258546E-004  0.6500000E+04  0.7818608E-02  0.7223770E-01
         52   -1    0    0    0    0  0.00000000000E+00  0.00000000000E+00  0.64930732323E+04  0.65000000000E+04  0.30000000000E+03 0.  1.
        -52   -1    0    0    0    0 -0.00000000000E+00 -0.00000000000E+00 -0.64930732323E+04  0.65000000000E+04  0.30000000000E+03 0.  1.
     100001    1    1    2    0    0 -0.65628974592E+02 -0.18795711552E+03  0.64952070568E+04  0.65000000000E+04  0.15050000000E+03 0.  1.
     100001    1    1    2    0    0  0.65628974592E+02  0.18795711552E+03 -0.64952070568E+04  0.65000000000E+04  0.15050000000E+03 0.  1.
</event>
<event>
 4    1  0.5826966E-004  0.6500000E+04  0.7818608E-02  0.7223770E-01
         52   -1    0    0    0    0  0.00000000000E+00  0.00000000000E+00  0.64930732323E+04  0.65000000000E+04  0.30000000000E+03 0. -1.
        -52   -1    0    0    0    0 -0.00000000000E+00 -0.00000000000E+00 -0.64930732323E+04  0.65000000000E+04  0.30000000000E+03 0. -1.
     100001    1    1    2    0    0  0.52424722487E+02  0.14262581989E+03  0.64964805298E+04  0.65000000000E+04  0.15050000000E+03 0. -1.
     100001    1    1    2    0    0 -0.52424722487E+02 -0.14262581989E+03 -0.64964805298E+04  0.65000000000E+04  0.15050000000E+03 0. -1.
</event>
<event>
 4    1  0.4630618E-004  0.6500000E+04  0.7818608E-02  0.7223770E-01
         52   -1    0    0    0    0  0.00000000000E+00  0.00000000000E+00  0.64930732323E+04  0.65000000000E+04  0.30000000000E+03 0.  1.
        -52   -1    0    0    0    0 -0.00000000000E+00 -0.00000000000E+00 -0.64930732323E+04  0.65000000000E+04  0.30000000000E+03 0.  1.
     100001    1    1    2    0    0 -0.62038403513E+02  0.19142491746E+03 -0.64951410676E+04  0.65000000000E+04  0.15050000000E+03 0.  1.
     100001    1    1    2    0    0  0.62038403513E+02 -0.19142491746E+03  0.64951410676E+04  0.65000000000E+04  0.15050000000E+03 0.  1.
</event>
<event>
 4    1  0.4630618E-004  0.6500000E+04  0.7818608E-02  0.7223770E-01
         52   -1    0    0    0    0  0.00000000000E+00  0.00000000000E+00  0.64930732323E+04  0.65000000000E+04  0.30000000000E+03 0.  1.
        -52   -1    0    0    0    0 -0.00000000000E+00 -0.00000000000E+00 -0.64930732323E+04  0.65000000000E+04  0.30000000000E+03 0.  1.
     100001    1    1    2    0    0 -0.38169434024E+03  0.11770853418E+03  0.64859697719E+04  0.65000000000E+04  0.15050000000E+03 0.  1.
     100001    1    1    2    0    0  0.38169434024E+03 -0.11770853418E+03 -0.64859697719E+04  0.65000000000E+04  0.15050000000E+03 0.  1.
</event>
<event>
 4    1  0.4630618E-004  0.6500000E+04  0.7818608E-02  0.7223770E-01
         52   -1    0    0    0    0  0.00000000000E+00  0.00000000000E+00  0.64930732323E+04  0.65000000000E+04  0.30000000000E+03 0.  1.
        -52   -1    0    0    0    0 -0.00000000000E+00 -0.00000000000E+00 -0.64930732323E+04  0.65000000000E+04  0.30000000000E+03 0. -1.
     100001    1    1    2    0    0  0.19300226793E+04  0.11465785760E+03 -0.62039677452E+04  0.65000000000E+04  0.15050000000E+03 0. -1.
     100001    1    1    2    0    0 -0.19300226793E+04 -0.11465785760E+03  0.62039677452E+04  0.65000000000E+04  0.15050000000E+03 0.  1.
</event>
<event>
 4    1  0.4630618E-004  0.6500000E+04  0.7818608E-02  0.7223770E-01
         52   -1    0    0    0    0  0.00000000000E+00  0.00000000000E+00  0.64930732323E+04  0.65000000000E+04  0.30000000000E+03 0. -1.
        -52   -1    0    0    0    0 -0.00000000000E+00 -0.00000000000E+00 -0.64930732323E+04  0.65000000000E+04  0.30000000000E+03 0.  1.
     100001    1    1    2    0    0  0.74555593040E+03  0.37979845772E+03  0.64441639672E+04  0.65000000000E+04  0.15050000000E+03 0. -1.
     100001    1    1    2    0    0 -0.74555593040E+03 -0.37979845772E+03 -0.64441639672E+04  0.65000000000E+04  0.15050000000E+03 0.  1.
</event>
<event>
 4    1  0.4630618E-004  0.6500000E+04  0.7818608E-02  0.7223770E-01
         52   -1    0    0    0    0  0.00000000000E+00  0.00000000000E+00  0.64930732323E+04  0.65000000000E+04  0.30000000000E+03 0.  1.
        -52   -1    0    0    0    0 -0.00000000000E+00 -0.00000000000E+00 -0.64930732323E+04  0.65000000000E+04  0.30000000000E+03 0. -1.
     100001    1    1    2    0    0  0.40080959374E+04  0.29460717672E+04  0.41812890176E+04  0.65000000000E+04  0.15050000000E+03 0.  1.
     100001    1    1    2    0    0 -0.40080959374E+04 -0.29460717672E+04 -0.41812890176E+04  0.65000000000E+04  0.15050000000E+03 0. -1.
</event>
<event>
 4    1  0.4630618E-004  0.6500000E+04  0.7818608E-02  0.7223770E-01
         52   -1    0    0    0    0  0.00000000000E+00  0.00000000000E+00  0.64930732323E+04  0.65000000000E+04  0.30000000000E+03 0. -1.
        -52   -1    0    0    0    0 -0.00000000000E+00 -0.00000000000E+00 -0.64930732323E+04  0.65000000000E+04  0.30000000000E+03 0.  1.
     100001    1    1    2    0    0 -0.30741397244E+04 -0.24528353314E+04 -0.51730661645E+04  0.65000000000E+04  0.15050000000E+03 0.  1.
     100001    1    1    2    0    0  0.30741397244E+04  0.24528353314E+04  0.51730661645E+04  0.65000000000E+04  0.15050000000E+03 0. -1.
</event>
<event>
 4    1  0.4630618E-004  0.6500000E+04  0.7818608E-02  0.7223770E-01
         52   -1    0    0    0    0  0.00000000000E+00  0.00000000000E+00  0.64930732323E+04  0.65000000000E+04  0.30000000000E+03 0. -1.
        -52   -1    0    0    0    0 -0.00000000000E+00 -0.00000000000E+00 -0.64930732323E+04  0.65000000000E+04  0.30000000000E+03 0.  1.
     100001    1    1    2    0    0  0.44477615043E+04  0.47365656288E+04  0.98556553994E+02  0.65000000000E+04  0.15050000000E+03 0. -1.
     100001    1    1    2    0    0 -0.44477615043E+04 -0.47365656288E+04 -0.98556553994E+02  0.65000000000E+04  0.15050000000E+03 0.  1.
</event>
<event>
 4    1  0.4630618E-004  0.6500000E+04  0.7818608E-02  0.7223770E-01
         52   -1    0    0    0    0  0.00000000000E+00  0.00000000000E+00  0.64930732323E+04  0.65000000000E+04  0.30000000000E+03 0.  1.
        -52   -1    0    0    0    0 -0.00000000000E+00 -0.00000000000E+00 -0.64930732323E+04  0.65000000000E+04  0.30000000000E+03 0. -1.
     100001    1    1    2    0    0 -0.11022480745E+04  0.40116117557E+03 -0.63915153636E+04  0.65000000000E+04  0.15050000000E+03 0. -1.
     100001    1    1    2    0    0  0.11022480745E+04 -0.40116117557E+03  0.63915153636E+04  0.65000000000E+04  0.15050000000E+03 0.  1.
</event>
<event>
 4    1  0.4630618E-004  0.6500000E+04  0.7818608E-02  0.7223770E-01
         52   -1    0    0    0    0  0.00000000000E+00  0.00000000000E+00  0.64930732323E+04  0.65000000000E+04  0.30000000000E+03 0. -1.
        -52   -1    0    0    0    0 -0.00000000000E+00 -0.00000000000E+00 -0.64930732323E+04  0.65000000000E+04  0.30000000000E+03 0.  1.
     100001    1    1    2    0    0 -0.42783381792E+04 -0.12886016411E+03  0.48894342446E+04  0.65000000000E+04  0.15050000000E+03 0.  1.
     100001    1    1    2    0    0  0.42783381792E+04  0.12886016411E+03 -0.48894342446E+04  0.65000000000E+04  0.15050000000E+03 0. -1.
</event>
<event>
 4    1  0.4630618E-004  0.6500000E+04  0.7818608E-02  0.7223770E-01
         52   -1    0    0    0    0  0.00000000000E+00  0.00000000000E+00  0.64930732323E+04  0.65000000000E+04  0.30000000000E+03 0.  1.
        -52   -1    0    0    0    0 -0.00000000000E+00 -0.00000000000E+00 -0.64930732323E+04  0.65000000000E+04  0.30000000000E+03 0. -1.
     100001    1    1    2    0    0  0.11741409305E+04 -0.14961996810E+04  0.62137049608E+04  0.65000000000E+04  0.15050000000E+03 0.  1.
     100001    1    1    2    0    0 -0.11741409305E+04  0.14961996810E+04 -0.62137049608E+04  0.65000000000E+04  0.15050000000E+03 0. -1.
</event>
<event>
 4    1  0.4630618E-004  0.6500000E+04  0.7818608E-02  0.7223770E-01
         52   -1    0    0    0    0  0.00000000000E+00  0.00000000000E+00  0.64930732323E+04  0.65000000000E+04  0.30000000000E+03 0. -1.
        -52   -1    0    0    0    0 -0.00000000000E+00 -0.00000000000E+00 -0.64930732323E+04  0.65000000000E+04  0.30000000000E+03 0.  1.
     100001    1    1    2    0    0  0.10109829914E+04  0.11176266864E+04  0.63210896000E+04  0.65000000000E+04  0.15050000000E+03 0. -1.
     100001    1    1    2    0    0 -0.10109829914E+04 -0.11176266864E+04 -0.63210896000E+04  0.65000000000E+04  0.15050000000E+03 0.  1.
</event>
<event>
 4    1  0.4630618E-004  0.6500000E+04  0.7818608E-02  0.7223770E-01
         52   -1    0    0    0    0  0.00000000000E+00  0.00000000000E+00  0.64930732323E+04  0.65000000000E+04  0.30000000000E+03 0. -1.
        -52   -1    0    0    0    0 -0.00000000000E+00 -0.00000000000E+00 -0.64930732323E+04  0.65000000000E+04  0.30000000000E+03 0.  1.
     100001    1    1    2    0    0  0.16540611993E+04  0.58204659242E+04  0.23693053253E+04  0.65000000000E+04  0.15050000000E+03 0. -1.
     100001    1    1    2    0    0 -0.16540611993E+04 -0.58204659242E+04 -0.23693053253E+04  0.65000000000E+04  0.15050000000E+03 0.  1.
</event>
<event>
 4    1  0.4630618E-004  0.6500000E+04  0.7818608E-02  0.7223770E-01
         52   -1    0    0    0    0  0.00000000000E+00  0.00000000000E+00  0.64930732323E+04  0.65000000000E+04  0.30000000000E+03 0.  1.
        -52   -1    0    0    0    0 -0.00000000000E+00 -0.00000000000E+00 -0.64930732323E+04  0.65000000000E+04  0.30000000000E+03 0. -1.
     100001    1    1    2    0    0 -0.16376028839E+03  0.29077547114E+03 -0.64896827306E+04  0.65000000000E+04  0.15050000000E+03 0. -1.
     100001    1    1    2    0    0  0.16376028839E+03 -0.29077547114E+03  0.64896827306E+04  0.65000000000E+04  0.15050000000E+03 0.  1.
</event>
<event>
 4    1  0.4630618E-004  0.6500000E+04  0.7818608E-02  0.7223770E-01
         52   -1    0    0    0    0  0.00000000000E+00  0.00000000000E+00  0.64930732323E+04  0.65000000000E+04  0.30000000000E+03 0.  1.
        -52   -1    0    0    0    0 -0.00000000000E+00 -0.00000000000E+00 -0.64930732323E+04  0.65000000000E+04  0.30000000000E+03 0.  1.
     100001    1    1    2    0    0  0.18158230453E+03 -0.23506050214E+03  0.64914654876E+04  0.65000000000E+04  0.15050000000E+03 0.  1.
     100001    1    1    2    0    0 -0.18158230453E+03  0.23506050214E+03 -0.64914654876E+04  0.65000000000E+04  0.15050000000E+03 0.  1.
</event>
<event>
 4    1  0.6337758E-004  0.6500000E+04  0.7818608E-02  0.7223770E-01
         52   -1    0    0    0    0  0.00000000000E+00  0.00000000000E+00  0.64930732323E+04  0.65000000000E+04  0.30000000000E+03 0. -1.
        -52   -1    0    0    0    0 -0.00000000000E+00 -0.00000000000E+00 -0.64930732323E+04  0.65000000000E+04  0.30000000000E+03 0.  1.
     100001    1    1    2    0    0 -0.10005719945E+03  0.12196609251E+03 -0.64963422462E+04  0.65000000000E+04  0.15050000000E+03 0.  1.
     100001    1    1    2    0    0  0.10005719945E+03 -0.12196609251E+03  0.64963422462E+04  0.65000000000E+04  0.15050000000E+03 0. -1.
</event>
<event>
 4    1  0.4630618E-004  0.6500000E+04  0.7818608E-02  0.7223770E-01
         52   -1    0    0    0    0  0.00000000000E+00  0.00000000000E+00  0.64930732323E+04  0.65000000000E+04  0.30000000000E+03 0.  1.
        -52   -1    0    0    0    0 -0.00000000000E+00 -0.00000000000E+00 -0.64930732323E+04  0.65000000000E+04  0.30000000000E+03 0. -1.
     100001    1    1    2    0    0  0.11078641332E+04  0.52688779859E+03 -0.63814086266E+04  0.65000000000E+04  0.15050000000E+03 0. -1.
     100001    1    1    2    0    0 -0.11078641332E+04 -0.52688779859E+03  0.63814086266E+04  0.65000000000E+04  0.15050000000E+03 0.  1.
</event>
<event>
 4    1  0.4630618E-004  0.6500000E+04  0.7818608E-02  0.7223770E-01
         52   -1    0    0    0    0  0.00000000000E+00  0.00000000000E+00  0.64930732323E+04  0.65000000000E+04  0.30000000000E+03 0. -1.
        -52   -1    0    0    0    0 -0.00000000000E+00 -0.00000000000E+00 -0.64930732323E+04  0.65000000000E+04  0.30000000000E+03 0.  1.
     100001    1    1    2    0    0 -0.11320006347E+04 -0.39699441958E+04  0.50185124683E+04  0.65000000000E+04  0.15050000000E+03 0. -1.
     100001    1    1    2    0    0  0.11320006347E+04  0.39699441958E+04 -0.50185124683E+04  0.65000000000E+04  0.15050000000E+03 0.  1.
</event>
<event>
 4    1  0.4630618E-004  0.6500000E+04  0.7818608E-02  0.7223770E-01
         52   -1    0    0    0    0  0.00000000000E+00  0.00000000000E+00  0.64930732323E+04  0.65000000000E+04  0.30000000000E+03 0.  1.
        -52   -1    0    0    0    0 -0.00000000000E+00 -0.00000000000E+00 -0.64930732323E+04  0.65000000000E+04  0.30000000000E+03 0. -1.
     100001    1    1    2    0    0  0.11291758093E+04 -0.62020950013E+03  0.63692740495E+04  0.65000000000E+04  0.15050000000E+03 0.  1.
     100001    1    1    2    0    0 -0.11291758093E+04  0.62020950013E+03 -0.63692740495E+04  0.65000000000E+04  0.15050000000E+03 0. -1.
</event>
<event>
 4    1  0.4630618E-004  0.6500000E+04  0.7818608E-02  0.7223770E-01
         52   -1    0    0    0    0  0.00000000000E+00  0.00000000000E+00  0.64930732323E+04  0.65000000000E+04  0.30000000000E+03 0.  1.
        -52   -1    0    0    0    0 -0.00000000000E+00 -0.00000000000E+00 -0.64930732323E+04  0.65000000000E+04  0.30000000000E+03 0. -1.
     100001    1    1    2    0    0  0.13959218415E+04  0.52886920247E+03 -0.63244801628E+04  0.65000000000E+04  0.15050000000E+03 0. -1.
     100001    1    1    2    0    0 -0.13959218415E+04 -0.52886920247E+03  0.63244801628E+04  0.65000000000E+04  0.15050000000E+03 0.  1.
</event>
<event>
 4    1  0.4630618E-004  0.6500000E+04  0.7818608E-02  0.7223770E-01
         52   -1    0    0    0    0  0.00000000000E+00  0.00000000000E+00  0.64930732323E+04  0.65000000000E+04  0.30000000000E+03 0. -1.
        -52   -1    0    0    0    0 -0.00000000000E+00 -0.00000000000E+00 -0.64930732323E+04  0.65000000000E+04  0.30000000000E+03 0.  1.
     100001    1    1    2    0    0 -0.17639653199E+04 -0.51613478551E+03 -0.62329271601E+04  0.65000000000E+04  0.15050000000E+03 0.  1.
     100001    1    1    2    0    0  0.17639653199E+04  0.51613478551E+03  0.62329271601E+04  0.65000000000E+04  0.15050000000E+03 0. -1.
</event>
<event>
 4    1  0.4630618E-004  0.6500000E+04  0.7818608E-02  0.7223770E-01
         52   -1    0    0    0    0  0.00000000000E+00  0.00000000000E+00  0.64930732323E+04  0.65000000000E+04  0.30000000000E+03 0. -1.
        -52   -1    0    0    0    0 -0.00000000000E+00 -0.00000000000E+00 -0.64930732323E+04  0.65000000000E+04  0.30000000000E+03 0. -1.
     100001    1    1    2    0    0 -0.56104782085E+03 -0.90759318550E+02 -0.64733559951E+04  0.65000000000E+04  0.15050000000E+03 0. -1.
     100001    1    1    2    0    0  0.56104782085E+03  0.90759318550E+02  0.64733559951E+04  0.65000000000E+04  0.15050000000E+03 0. -1.
</event>
<event>
 4    1  0.4630618E-004  0.6500000E+04  0.7818608E-02  0.7223770E-01
         52   -1    0    0    0    0  0.00000000000E+00  0.00000000000E+00  0.64930732323E+04  0.65000000000E+04  0.30000000000E+03 0.  1.
        -52   -1    0    0    0    0 -0.00000000000E+00 -0.00000000000E+00 -0.64930732323E+04  0.65000000000E+04  0.30000000000E+03 0. -1.
     100001    1    1    2    0    0  0.35002750283E+04  0.12786865680E+04 -0.53235688346E+04  0.65000000000E+04  0.15050000000E+03 0. -1.
     100001    1    1    2    0    0 -0.35002750283E+04 -0.12786865680E+04  0.53235688346E+04  0.65000000000E+04  0.15050000000E+03 0.  1.
</event>
<event>
 4    1  0.4630618E-004  0.6500000E+04  0.7818608E-02  0.7223770E-01
         52   -1    0    0    0    0  0.00000000000E+00  0.00000000000E+00  0.64930732323E+04  0.65000000000E+04  0.30000000000E+03 0. -1.
        -52   -1    0    0    0    0 -0.00000000000E+00 -0.00000000000E+00 -0.64930732323E+04  0.65000000000E+04  0.30000000000E+03 0.  1.
     100001    1    1    2    0    0 -0.11012233808E+04 -0.55712380320E+03 -0.63799898028E+04  0.65000000000E+04  0.15050000000E+03 0.  1.
     100001    1    1    2    0    0  0.11012233808E+04  0.55712380320E+03  0.63799898028E+04  0.65000000000E+04  0.15050000000E+03 0. -1.
</event>
<event>
 4    1  0.4630618E-004  0.6500000E+04  0.7818608E-02  0.7223770E-01
         52   -1    0    0    0    0  0.00000000000E+00  0.00000000000E+00  0.64930732323E+04  0.65000000000E+04  0.30000000000E+03 0.  1.
        -52   -1    0    0    0    0 -0.00000000000E+00 -0.00000000000E+00 -0.64930732323E+04  0.65000000000E+04  0.30000000000E+03 0. -1.
     100001    1    1    2    0    0  0.43093109275E+03  0.23495550564E+04 -0.60432804982E+04  0.65000000000E+04  0.15050000000E+03 0. -1.
     100001    1    1    2    0    0 -0.43093109275E+03 -0.23495550564E+04  0.60432804982E+04  0.65000000000E+04  0.15050000000E+03 0.  1.
</event>
<event>
 4    1  0.4630618E-004  0.6500000E+04  0.7818608E-02  0.7223770E-01
         52   -1    0    0    0    0  0.00000000000E+00  0.00000000000E+00  0.64930732323E+04  0.65000000000E+04  0.30000000000E+03 0.  1.
        -52   -1    0    0    0    0 -0.00000000000E+00 -0.00000000000E+00 -0.64930732323E+04  0.65000000000E+04  0.30000000000E+03 0. -1.
     100001    1    1    2    0    0 -0.22771293952E+02 -0.11971545200E+04 -0.63869908622E+04  0.65000000000E+04  0.15050000000E+03 0. -1.
     100001    1    1    2    0    0  0.22771293952E+02  0.11971545200E+04  0.63869908622E+04  0.65000000000E+04  0.15050000000E+03 0.  1.
</event>
<event>
 4    1  0.4630618E-004  0.6500000E+04  0.7818608E-02  0.7223770E-01
         52   -1    0    0    0    0  0.00000000000E+00  0.00000000000E+00  0.64930732323E+04  0.65000000000E+04  0.30000000000E+03 0.  1.
        -52   -1    0    0    0    0 -0.00000000000E+00 -0.00000000000E+00 -0.64930732323E+04  0.65000000000E+04  0.30000000000E+03 0. -1.
     100001    1    1    2    0    0  0.68452435025E+03 -0.48045817284E+03  0.64442172611E+04  0.65000000000E+04  0.15050000000E+03 0.  1.
     100001    1    1    2    0    0 -0.68452435025E+03  0.48045817284E+03 -0.64442172611E+04  0.65000000000E+04  0.15050000000E+03 0. -1.
</event>
<event>
 4    1  0.4630618E-004  0.6500000E+04  0.7818608E-02  0.7223770E-01
         52   -1    0    0    0    0  0.00000000000E+00  0.00000000000E+00  0.64930732323E+04  0.65000000000E+04  0.30000000000E+03 0. -1.
        -52   -1    0    0    0    0 -0.00000000000E+00 -0.00000000000E+00 -0.64930732323E+04  0.65000000000E+04  0.30000000000E+03 0. -1.
     100001    1    1    2    0    0  0.60953209089E+02  0.58141142638E+03  0.64719081583E+04  0.65000000000E+04  0.15050000000E+03 0. -1.
     100001    1    1    2    0    0 -0.60953209089E+02 -0.58141142638E+03 -0.64719081583E+04  0.65000000000E+04  0.15050000000E+03 0. -1.
</event>
<event>
 4    1  0.4630618E-004  0.6500000E+04  0.7818608E-02  0.7223770E-01
         52   -1    0    0    0    0  0.00000000000E+00  0.00000000000E+00  0.64930732323E+04  0.65000000000E+04  0.30000000000E+03 0.  1.
        -52   -1    0    0    0    0 -0.00000000000E+00 -0.00000000000E+00 -0.64930732323E+04  0.65000000000E+04  0.30000000000E+03 0. -1.
     100001    1    1    2    0    0  0.82678446135E+03  0.19793531278E+03 -0.64424062909E+04  0.65000000000E+04  0.15050000000E+03 0. -1.
     100001    1    1    2    0    0 -0.82678446135E+03 -0.19793531278E+03  0.64424062909E+04  0.65000000000E+04  0.15050000000E+03 0.  1.
</event>
<event>
 4    1  0.4630618E-004  0.6500000E+04  0.7818608E-02  0.7223770E-01
         52   -1    0    0    0    0  0.00000000000E+00  0.00000000000E+00  0.64930732323E+04  0.65000000000E+04  0.30000000000E+03 0. -1.
        -52   -1    0    0    0    0 -0.00000000000E+00 -0.00000000000E+00 -0.64930732323E+04  0.65000000000E+04  0.30000000000E+03 0.  1.
     100001    1    1    2    0    0  0.90409907749E+03 -0.46195159370E+04 -0.44799583833E+04  0.65000000000E+04  0.15050000000E+03 0.  1.
     100001    1    1    2    0    0 -0.90409907749E+03  0.46195159370E+04  0.44799583833E+04  0.65000000000E+04  0.15050000000E+03 0. -1.
</event>
<event>
 4    1  0.4630618E-004  0.6500000E+04  0.7818608E-02  0.7223770E-01
         52   -1    0    0    0    0  0.00000000000E+00  0.00000000000E+00  0.64930732323E+04  0.65000000000E+04  0.30000000000E+03 0. -1.
        -52   -1    0    0    0    0 -0.00000000000E+00 -0.00000000000E+00 -0.64930732323E+04  0.65000000000E+04  0.30000000000E+03 0.  1.
     100001    1    1    2    0    0  0.18184686549E+04  0.46492434467E+04 -0.41599347199E+04  0.65000000000E+04  0.15050000000E+03 0.  1.
     100001    1    1    2    0    0 -0.18184686549E+04 -0.46492434467E+04  0.41599347199E+04  0.65000000000E+04  0.15050000000E+03 0. -1.
</event>
<event>
 4    1  0.4630618E-004  0.6500000E+04  0.7818608E-02  0.7223770E-01
         52   -1    0    0    0    0  0.00000000000E+00  0.00000000000E+00  0.64930732323E+04  0.65000000000E+04  0.30000000000E+03 0. -1.
        -52   -1    0    0    0    0 -0.00000000000E+00 -0.00000000000E+00 -0.64930732323E+04  0.65000000000E+04  0.30000000000E+03 0.  1.
     100001    1    1    2    0    0  0.14574847483E+04 -0.14313933713E+04 -0.61688087160E+04  0.65000000000E+04  0.15050000000E+03 0.  1.
     100001    1    1    2    0    0 -0.14574847483E+04  0.14313933713E+04  0.61688087160E+04  0.65000000000E+04  0.15050000000E+03 0. -1.
</event>
<event>
 4    1  0.4630618E-004  0.6500000E+04  0.7818608E-02  0.7223770E-01
         52   -1    0    0    0    0  0.00000000000E+00  0.00000000000E+00  0.64930732323E+04  0.65000000000E+04  0.30000000000E+03 0. -1.
        -52   -1    0    0    0    0 -0.00000000000E+00 -0.00000000000E+00 -0.64930732323E+04  0.65000000000E+04  0.30000000000E+03 0.  1.
     100001    1    1    2    0    0 -0.12977939860E+04  0.26361142111E+04  0.57960316067E+04  0.65000000000E+04  0.15050000000E+03 0. -1.
     100001    1    1    2    0    0  0.12977939860E+04 -0.26361142111E+04 -0.57960316067E+04  0.65000000000E+04  0.15050000000E+03 0.  1.
</event>
<event>
 4    1  0.4630618E-004  0.6500000E+04  0.7818608E-02  0.7223770E-01
         52   -1    0    0    0    0  0.00000000000E+00  0.00000000000E+00  0.64930732323E+04  0.65000000000E+04  0.30000000000E+03 0. -1.
        -52   -1    0    0    0    0 -0.00000000000E+00 -0.00000000000E+00 -0.64930732323E+04  0.65000000000E+04  0.30000000000E+03 0.  1.
     100001    1    1    2    0    0 -0.99436738063E+03  0.26532670854E+04 -0.58479703347E+04  0.65000000000E+04  0.15050000000E+03 0.  1.
     100001    1    1    2    0    0  0.99436738063E+03 -0.26532670854E+04  0.58479703347E+04  0.65000000000E+04  0.15050000000E+03 0. -1.
</event>
<event>
 4    1  0.4630618E-004  0.6500000E+04  0.7818608E-02  0.7223770E-01
         52   -1    0    0    0    0  0.00000000000E+00  0.00000000000E+00  0.64930732323E+04  0.65000000000E+04  0.30000000000E+03 0.  1.
        -52   -1    0    0    0    0 -0.00000000000E+00 -0.00000000000E+00 -0.64930732323E+04  0.65000000000E+04  0.30000000000E+03 0.  1.
     100001    1    1    2    0    0 -0.80150655779E+02 -0.36439444172E+03  0.64875374614E+04  0.65000000000E+04  0.15050000000E+03 0.  1.
     100001    1    1    2    0    0  0.80150655779E+02  0.36439444172E+03 -0.64875374614E+04  0.65000000000E+04  0.15050000000E+03 0.  1.
</event>
<event>
 4    1  0.4630618E-004  0.6500000E+04  0.7818608E-02  0.7223770E-01
         52   -1    0    0    0    0  0.00000000000E+00  0.00000000000E+00  0.64930732323E+04  0.65000000000E+04  0.30000000000E+03 0.  1.
        -52   -1    0    0    0    0 -0.00000000000E+00 -0.00000000000E+00 -0.64930732323E+04  0.65000000000E+04  0.30000000000E+03 0. -1.
     100001    1    1    2    0    0  0.59629759762E+03  0.30698227428E+04 -0.56963117236E+04  0.65000000000E+04  0.15050000000E+03 0. -1.
     100001    1    1    2    0    0 -0.59629759762E+03 -0.30698227428E+04  0.56963117236E+04  0.65000000000E+04  0.15050000000E+03 0.  1.
</event>
<event>
 4    1  0.4630618E-004  0.6500000E+04  0.7818608E-02  0.7223770E-01
         52   -1    0    0    0    0  0.00000000000E+00  0.00000000000E+00  0.64930732323E+04  0.65000000000E+04  0.30000000000E+03 0.  1.
        -52   -1    0    0    0    0 -0.00000000000E+00 -0.00000000000E+00 -0.64930732323E+04  0.65000000000E+04  0.30000000000E+03 0. -1.
     100001    1    1    2    0    0  0.11553123017E+04  0.38578062485E+03 -0.63830851902E+04  0.65000000000E+04  0.15050000000E+03 0. -1.
     100001    1    1    2    0    0 -0.11553123017E+04 -0.38578062485E+03  0.63830851902E+04  0.65000000000E+04  0.15050000000E+03 0.  1.
</event>
<event>
 4    1  0.6010369E-004  0.6500000E+04  0.7818608E-02  0.7223770E-01
         52   -1    0    0    0    0  0.00000000000E+00  0.00000000000E+00  0.64930732323E+04  0.65000000000E+04  0.30000000000E+03 0. -1.
        -52   -1    0    0    0    0 -0.00000000000E+00 -0.00000000000E+00 -0.64930732323E+04  0.65000000000E+04  0.30000000000E+03 0. -1.
     100001    1    1    2    0    0  0.16446113528E+03 -0.56248554043E+02  0.64959324492E+04  0.65000000000E+04  0.15050000000E+03 0. -1.
     100001    1    1    2    0    0 -0.16446113528E+03  0.56248554043E+02 -0.64959324492E+04  0.65000000000E+04  0.15050000000E+03 0. -1.
</event>
<event>
 4    1  0.4630618E-004  0.6500000E+04  0.7818608E-02  0.7223770E-01
         52   -1    0    0    0    0  0.00000000000E+00  0.00000000000E+00  0.64930732323E+04  0.65000000000E+04  0.30000000000E+03 0.  1.
        -52   -1    0    0    0    0 -0.00000000000E+00 -0.00000000000E+00 -0.64930732323E+04  0.65000000000E+04  0.30000000000E+03 0. -1.
     100001    1    1    2    0    0  0.45022493955E+03 -0.20794329143E+04  0.61400819220E+04  0.65000000000E+04  0.15050000000E+03 0.  1.
     100001    1    1    2    0    0 -0.45022493955E+03  0.20794329143E+04 -0.61400819220E+04  0.65000000000E+04  0.15050000000E+03 0. -1.
</event>
<event>
 4    1  0.4630618E-004  0.6500000E+04  0.7818608E-02  0.7223770E-01
         52   -1    0    0    0    0  0.00000000000E+00  0.00000000000E+00  0.64930732323E+04  0.65000000000E+04  0.30000000000E+03 0. -1.
        -52   -1    0    0    0    0 -0.00000000000E+00 -0.00000000000E+00 -0.64930732323E+04  0.65000000000E+04  0.30000000000E+03 0.  1.
     100001    1    1    2    0    0 -0.27086143069E+03  0.11801581094E+04  0.63844506946E+04  0.65000000000E+04  0.15050000000E+03 0. -1.
     100001    1    1    2    0    0  0.27086143069E+03 -0.11801581094E+04 -0.63844506946E+04  0.65000000000E+04  0.15050000000E+03 0.  1.
</event>
<event>
 4    1  0.4630618E-004  0.6500000E+04  0.7818608E-02  0.7223770E-01
         52   -1    0    0    0    0  0.00000000000E+00  0.00000000000E+00  0.64930732323E+04  0.65000000000E+04  0.30000000000E+03 0.  1.
        -52   -1    0    0    0    0 -0.00000000000E+00 -0.00000000000E+00 -0.64930732323E+04  0.65000000000E+04  0.30000000000E+03 0. -1.
     100001    1    1    2    0    0  0.48814567047E+04  0.17278215583E+04  0.39259855900E+04  0.65000000000E+04  0.15050000000E+03 0.  1.
     100001    1    1    2    0    0 -0.48814567047E+04 -0.17278215583E+04 -0.39259855900E+04  0.65000000000E+04  0.15050000000E+03 0. -1.
</event>
<event>
 4    1  0.4630618E-004  0.6500000E+04  0.7818608E-02  0.7223770E-01
         52   -1    0    0    0    0  0.00000000000E+00  0.00000000000E+00  0.64930732323E+04  0.65000000000E+04  0.30000000000E+03 0.  1.
        -52   -1    0    0    0    0 -0.00000000000E+00 -0.00000000000E+00 -0.64930732323E+04  0.65000000000E+04  0.30000000000E+03 0.  1.
     100001    1    1    2    0    0 -0.80283289742E+02  0.41220494128E+03  0.64846735793E+04  0.65000000000E+04  0.15050000000E+03 0.  1.
     100001    1    1    2    0    0  0.80283289742E+02 -0.41220494128E+03 -0.64846735793E+04  0.65000000000E+04  0.15050000000E+03 0.  1.
</event>
<event>
 4    1  0.4630618E-004  0.6500000E+04  0.7818608E-02  0.7223770E-01
         52   -1    0    0    0    0  0.00000000000E+00  0.00000000000E+00  0.64930732323E+04  0.65000000000E+04  0.30000000000E+03 0. -1.
        -52   -1    0    0    0    0 -0.00000000000E+00 -0.00000000000E+00 -0.64930732323E+04  0.65000000000E+04  0.30000000000E+03 0.  1.
     100001    1    1    2    0    0 -0.56575661063E+04  0.30313671471E+04 -0.10149427187E+04  0.65000000000E+04  0.15050000000E+03 0.  1.
     100001    1    1    2    0    0  0.56575661063E+04 -0.30313671471E+04  0.10149427187E+04  0.65000000000E+04  0.15050000000E+03 0. -1.
</event>
<event>
 4    1  0.4630618E-004  0.6500000E+04  0.7818608E-02  0.7223770E-01
         52   -1    0    0    0    0  0.00000000000E+00  0.00000000000E+00  0.64930732323E+04  0.65000000000E+04  0.30000000000E+03 0. -1.
        -52   -1    0    0    0    0 -0.00000000000E+00 -0.00000000000E+00 -0.64930732323E+04  0.65000000000E+04  0.30000000000E+03 0.  1.
     100001    1    1    2    0    0  0.17461129704E+04 -0.42461896004E+04  0.45987295117E+04  0.65000000000E+04  0.15050000000E+03 0. -1.
     100001    1    1    2    0    0 -0.17461129704E+04  0.42461896004E+04 -0.45987295117E+04  0.65000000000E+04  0.15050000000E+03 0.  1.
</event>
<event>
 4    1  0.4630618E-004  0.6500000E+04  0.7818608E-02  0.7223770E-01
         52   -1    0    0    0    0  0.00000000000E+00  0.00000000000E+00  0.64930732323E+04  0.65000000000E+04  0.30000000000E+03 0. -1.
        -52   -1    0    0    0    0 -0.00000000000E+00 -0.00000000000E+00 -0.64930732323E+04  0.65000000000E+04  0.30000000000E+03 0.  1.
     100001    1    1    2    0    0  0.20995906263E+03  0.34324648057E+03 -0.64857882170E+04  0.65000000000E+04  0.15050000000E+03 0.  1.
     100001    1    1    2    0    0 -0.20995906263E+03 -0.34324648057E+03  0.64857882170E+04  0.65000000000E+04  0.15050000000E+03 0. -1.
</event>
<event>
 4    1  0.4630618E-004  0.6500000E+04  0.7818608E-02  0.7223770E-01
         52   -1    0    0    0    0  0.00000000000E+00  0.00000000000E+00  0.64930732323E+04  0.65000000000E+04  0.30000000000E+03 0.  1.
        -52   -1    0    0    0    0 -0.00000000000E+00 -0.00000000000E+00 -0.64930732323E+04  0.65000000000E+04  0.30000000000E+03 0. -1.
     100001    1    1    2    0    0 -0.15940093613E+04 -0.41523138993E+04 -0.47375914965E+04  0.65000000000E+04  0.15050000000E+03 0. -1.
     100001    1    1    2    0    0  0.15940093613E+04  0.41523138993E+04  0.47375914965E+04  0.65000000000E+04  0.15050000000E+03 0.  1.
</event>
<event>
 4    1  0.4630618E-004  0.6500000E+04  0.7818608E-02  0.7223770E-01
         52   -1    0    0    0    0  0.00000000000E+00  0.00000000000E+00  0.64930732323E+04  0.65000000000E+04  0.30000000000E+03 0. -1.
        -52   -1    0    0    0    0 -0.00000000000E+00 -0.00000000000E+00 -0.64930732323E+04  0.65000000000E+04  0.30000000000E+03 0.  1.
     100001    1    1    2    0    0 -0.39921840382E+04 -0.51019790759E+04  0.50953494903E+03  0.65000000000E+04  0.15050000000E+03 0.  1.
     100001    1    1    2    0    0  0.39921840382E+04  0.51019790759E+04 -0.50953494903E+03  0.65000000000E+04  0.15050000000E+03 0. -1.
</event>
<event>
 4    1  0.4630618E-004  0.6500000E+04  0.7818608E-02  0.7223770E-01
         52   -1    0    0    0    0  0.00000000000E+00  0.00000000000E+00  0.64930732323E+04  0.65000000000E+04  0.30000000000E+03 0.  1.
        -52   -1    0    0    0    0 -0.00000000000E+00 -0.00000000000E+00 -0.64930732323E+04  0.65000000000E+04  0.30000000000E+03 0. -1.
     100001    1    1    2    0    0 -0.59742926880E+03 -0.10498503901E+04  0.63850013451E+04  0.65000000000E+04  0.15050000000E+03 0.  1.
     100001    1    1    2    0    0  0.59742926880E+03  0.10498503901E+04 -0.63850013451E+04  0.65000000000E+04  0.15050000000E+03 0. -1.
</event>
<event>
 4    1  0.4630618E-004  0.6500000E+04  0.7818608E-02  0.7223770E-01
         52   -1    0    0    0    0  0.00000000000E+00  0.00000000000E+00  0.64930732323E+04  0.65000000000E+04  0.30000000000E+03 0.  1.
        -52   -1    0    0    0    0 -0.00000000000E+00 -0.00000000000E+00 -0.64930732323E+04  0.65000000000E+04  0.30000000000E+03 0. -1.
     100001    1    1    2    0    0 -0.32098013070E+04  0.40604193885E+03  0.56355705357E+04  0.65000000000E+04  0.15050000000E+03 0.  1.
     100001    1    1    2    0    0  0.32098013070E+04 -0.40604193885E+03 -0.56355705357E+04  0.65000000000E+04  0.15050000000E+03 0. -1.
</event>
<event>
 4    1  0.4630618E-004  0.6500000E+04  0.7818608E-02  0.7223770E-01
         52   -1    0    0    0    0  0.00000000000E+00  0.00000000000E+00  0.64930732323E+04  0.65000000000E+04  0.30000000000E+03 0. -1.
        -52   -1    0    0    0    0 -0.00000000000E+00 -0.00000000000E+00 -0.64930732323E+04  0.65000000000E+04  0.30000000000E+03 0.  1.
     100001    1    1    2    0    0  0.28577887134E+03 -0.86326384775E+03 -0.64343185899E+04  0.65000000000E+04  0.15050000000E+03 0.  1.
     100001    1    1    2    0    0 -0.28577887134E+03  0.86326384775E+03  0.64343185899E+04  0.65000000000E+04  0.15050000000E+03 0. -1.
</event>
<event>
 4    1  0.4630618E-004  0.6500000E+04  0.7818608E-02  0.7223770E-01
         52   -1    0    0    0    0  0.00000000000E+00  0.00000000000E+00  0.64930732323E+04  0.65000000000E+04  0.30000000000E+03 0.  1.
        -52   -1    0    0    0    0 -0.00000000000E+00 -0.00000000000E+00 -0.64930732323E+04  0.65000000000E+04  0.30000000000E+03 0. -1.
     100001    1    1    2    0    0  0.38538867065E+03  0.14065931223E+03  0.64852941553E+04  0.65000000000E+04  0.15050000000E+03 0.  1.
     100001    1    1    2    0    0 -0.38538867065E+03 -0.14065931223E+03 -0.64852941553E+04  0.65000000000E+04  0.15050000000E+03 0. -1.
</event>
<event>
 4    1  0.4630618E-004  0.6500000E+04  0.7818608E-02  0.7223770E-01
         52   -1    0    0    0    0  0.00000000000E+00  0.00000000000E+00  0.64930732323E+04  0.65000000000E+04  0.30000000000E+03 0.  1.
        -52   -1    0    0    0    0 -0.00000000000E+00 -0.00000000000E+00 -0.64930732323E+04  0.65000000000E+04  0.30000000000E+03 0. -1.
     100001    1    1    2    0    0 -0.11061118136E+04 -0.10044240635E+04 -0.63241599210E+04  0.65000000000E+04  0.15050000000E+03 0. -1.
     100001    1    1    2    0    0  0.11061118136E+04  0.10044240635E+04  0.63241599210E+04  0.65000000000E+04  0.15050000000E+03 0.  1.
</event>
<event>
 4    1  0.4630618E-004  0.6500000E+04  0.7818608E-02  0.7223770E-01
         52   -1    0    0    0    0  0.00000000000E+00  0.00000000000E+00  0.64930732323E+04  0.65000000000E+04  0.30000000000E+03 0.  1.
        -52   -1    0    0    0    0 -0.00000000000E+00 -0.00000000000E+00 -0.64930732323E+04  0.65000000000E+04  0.30000000000E+03 0. -1.
     100001    1    1    2    0    0 -0.13654224900E+04 -0.27036567091E+03  0.63474304705E+04  0.65000000000E+04  0.15050000000E+03 0.  1.
     100001    1    1    2    0    0  0.13654224900E+04  0.27036567091E+03 -0.63474304705E+04  0.65000000000E+04  0.15050000000E+03 0. -1.
</event>
<event>
 4    1  0.4630618E-004  0.6500000E+04  0.7818608E-02  0.7223770E-01
         52   -1    0    0    0    0  0.00000000000E+00  0.00000000000E+00  0.64930732323E+04  0.65000000000E+04  0.30000000000E+03 0.  1.
        -52   -1    0    0    0    0 -0.00000000000E+00 -0.00000000000E+00 -0.64930732323E+04  0.65000000000E+04  0.30000000000E+03 0. -1.
     100001    1    1    2    0    0  0.75495943626E+02  0.96552298346E+03 -0.64256840477E+04  0.65000000000E+04  0.15050000000E+03 0. -1.
     100001    1    1    2    0    0 -0.75495943626E+02 -0.96552298346E+03  0.64256840477E+04  0.65000000000E+04  0.15050000000E+03 0.  1.
</event>
<event>
 4    1  0.4630618E-004  0.6500000E+04  0.7818608E-02  0.7223770E-01
         52   -1    0    0    0    0  0.00000000000E+00  0.00000000000E+00  0.64930732323E+04  0.65000000000E+04  0.30000000000E+03 0.  1.
        -52   -1    0    0    0    0 -0.00000000000E+00 -0.00000000000E+00 -0.64930732323E+04  0.65000000000E+04  0.30000000000E+03 0. -1.
     100001    1    1    2    0    0 -0.13259668026E+04  0.43230972771E+03 -0.63468314999E+04  0.65000000000E+04  0.15050000000E+03 0. -1.
     100001    1    1    2    0    0  0.13259668026E+04 -0.43230972771E+03  0.63468314999E+04  0.65000000000E+04  0.15050000000E+03 0.  1.
</event>
<event>
 4    1  0.4630618E-004  0.6500000E+04  0.7818608E-02  0.7223770E-01
         52   -1    0    0    0    0  0.00000000000E+00  0.00000000000E+00  0.64930732323E+04  0.65000000000E+04  0.30000000000E+03 0.  1.
        -52   -1    0    0    0    0 -0.00000000000E+00 -0.00000000000E+00 -0.64930732323E+04  0.65000000000E+04  0.30000000000E+03 0. -1.
     100001    1    1    2    0    0  0.28060215716E+04  0.39236881050E+04  0.43541089036E+04  0.65000000000E+04  0.15050000000E+03 0. -1.
     100001    1    1    2    0    0 -0.28060215716E+04 -0.39236881050E+04 -0.43541089036E+04  0.65000000000E+04  0.15050000000E+03 0.  1.
</event>
<event>
 4    1  0.4630618E-004  0.6500000E+04  0.7818608E-02  0.7223770E-01
         52   -1    0    0    0    0  0.00000000000E+00  0.00000000000E+00  0.64930732323E+04  0.65000000000E+04  0.30000000000E+03 0.  1.
        -52   -1    0    0    0    0 -0.00000000000E+00 -0.00000000000E+00 -0.64930732323E+04  0.65000000000E+04  0.30000000000E+03 0. -1.
     100001    1    1    2    0    0  0.14176358289E+04  0.35325739906E+04  0.52667427702E+04  0.65000000000E+04  0.15050000000E+03 0.  1.
     100001    1    1    2    0    0 -0.14176358289E+04 -0.35325739906E+04 -0.52667427702E+04  0.65000000000E+04  0.15050000000E+03 0. -1.
</event>
<event>
 4    1  0.4630618E-004  0.6500000E+04  0.7818608E-02  0.7223770E-01
         52   -1    0    0    0    0  0.00000000000E+00  0.00000000000E+00  0.64930732323E+04  0.65000000000E+04  0.30000000000E+03 0.  1.
        -52   -1    0    0    0    0 -0.00000000000E+00 -0.00000000000E+00 -0.64930732323E+04  0.65000000000E+04  0.30000000000E+03 0. -1.
     100001    1    1    2    0    0  0.22546585969E+04 -0.60771667198E+04 -0.46033576955E+03  0.65000000000E+04  0.15050000000E+03 0. -1.
     100001    1    1    2    0    0 -0.22546585969E+04  0.60771667198E+04  0.46033576955E+03  0.65000000000E+04  0.15050000000E+03 0.  1.
</event>
<event>
 4    1  0.4630618E-004  0.6500000E+04  0.7818608E-02  0.7223770E-01
         52   -1    0    0    0    0  0.00000000000E+00  0.00000000000E+00  0.64930732323E+04  0.65000000000E+04  0.30000000000E+03 0. -1.
        -52   -1    0    0    0    0 -0.00000000000E+00 -0.00000000000E+00 -0.64930732323E+04  0.65000000000E+04  0.30000000000E+03 0.  1.
     100001    1    1    2    0    0  0.17159105467E+03  0.46080189068E+04 -0.45786535154E+04  0.65000000000E+04  0.15050000000E+03 0.  1.
     100001    1    1    2    0    0 -0.17159105467E+03 -0.46080189068E+04  0.45786535154E+04  0.65000000000E+04  0.15050000000E+03 0. -1.
</event>
<event>
 4    1  0.4630618E-004  0.6500000E+04  0.7818608E-02  0.7223770E-01
         52   -1    0    0    0    0  0.00000000000E+00  0.00000000000E+00  0.64930732323E+04  0.65000000000E+04  0.30000000000E+03 0.  1.
        -52   -1    0    0    0    0 -0.00000000000E+00 -0.00000000000E+00 -0.64930732323E+04  0.65000000000E+04  0.30000000000E+03 0. -1.
     100001    1    1    2    0    0  0.53392394664E+03 -0.36037366021E+03  0.64662512938E+04  0.65000000000E+04  0.15050000000E+03 0.  1.
     100001    1    1    2    0    0 -0.53392394664E+03  0.36037366021E+03 -0.64662512938E+04  0.65000000000E+04  0.15050000000E+03 0. -1.
</event>
<event>
 4    1  0.4630618E-004  0.6500000E+04  0.7818608E-02  0.7223770E-01
         52   -1    0    0    0    0  0.00000000000E+00  0.00000000000E+00  0.64930732323E+04  0.65000000000E+04  0.30000000000E+03 0. -1.
        -52   -1    0    0    0    0 -0.00000000000E+00 -0.00000000000E+00 -0.64930732323E+04  0.65000000000E+04  0.30000000000E+03 0.  1.
     100001    1    1    2    0    0  0.11083749750E+02  0.60527813281E+03 -0.64699973170E+04  0.65000000000E+04  0.15050000000E+03 0.  1.
     100001    1    1    2    0    0 -0.11083749750E+02 -0.60527813281E+03  0.64699973170E+04  0.65000000000E+04  0.15050000000E+03 0. -1.
</event>
<event>
 4    1  0.4630618E-004  0.6500000E+04  0.7818608E-02  0.7223770E-01
         52   -1    0    0    0    0  0.00000000000E+00  0.00000000000E+00  0.64930732323E+04  0.65000000000E+04  0.30000000000E+03 0.  1.
        -52   -1    0    0    0    0 -0.00000000000E+00 -0.00000000000E+00 -0.64930732323E+04  0.65000000000E+04  0.30000000000E+03 0. -1.
     100001    1    1    2    0    0  0.25587580723E+04  0.32649544677E+03 -0.59643530748E+04  0.65000000000E+04  0.15050000000E+03 0. -1.
     100001    1    1    2    0    0 -0.25587580723E+04 -0.32649544677E+03  0.59643530748E+04  0.65000000000E+04  0.15050000000E+03 0.  1.
</event>
<event>
 4    1  0.4630618E-004  0.6500000E+04  0.7818608E-02  0.7223770E-01
         52   -1    0    0    0    0  0.00000000000E+00  0.00000000000E+00  0.64930732323E+04  0.65000000000E+04  0.30000000000E+03 0. -1.
        -52   -1    0    0    0    0 -0.00000000000E+00 -0.00000000000E+00 -0.64930732323E+04  0.65000000000E+04  0.30000000000E+03 0.  1.
     100001    1    1    2    0    0 -0.40701659041E+04  0.13144650930E+04  0.48921652448E+04  0.65000000000E+04  0.15050000000E+03 0. -1.
     100001    1    1    2    0    0  0.40701659041E+04 -0.13144650930E+04 -0.48921652448E+04  0.65000000000E+04  0.15050000000E+03 0.  1.
</event>
<event>
 4    1  0.4630618E-004  0.6500000E+04  0.7818608E-02  0.7223770E-01
         52   -1    0    0    0    0  0.00000000000E+00  0.00000000000E+00  0.64930732323E+04  0.65000000000E+04  0.30000000000E+03 0.  1.
        -52   -1    0    0    0    0 -0.00000000000E+00 -0.00000000000E+00 -0.64930732323E+04  0.65000000000E+04  0.30000000000E+03 0. -1.
     100001    1    1    2    0    0  0.55103458728E+03  0.33483254457E+04  0.55418794053E+04  0.65000000000E+04  0.15050000000E+03 0.  1.
     100001    1    1    2    0    0 -0.55103458728E+03 -0.33483254457E+04 -0.55418794053E+04  0.65000000000E+04  0.15050000000E+03 0. -1.
</event>
<event>
 4    1  0.4630618E-004  0.6500000E+04  0.7818608E-02  0.7223770E-01
         52   -1    0    0    0    0  0.00000000000E+00  0.00000000000E+00  0.64930732323E+04  0.65000000000E+04  0.30000000000E+03 0.  1.
        -52   -1    0    0    0    0 -0.00000000000E+00 -0.00000000000E+00 -0.64930732323E+04  0.65000000000E+04  0.30000000000E+03 0. -1.
     100001    1    1    2    0    0  0.45760885504E+04  0.42821776614E+04 -0.17174742515E+04  0.65000000000E+04  0.15050000000E+03 0.  1.
     100001    1    1    2    0    0 -0.45760885504E+04 -0.42821776614E+04  0.17174742515E+04  0.65000000000E+04  0.15050000000E+03 0. -1.
</event>
<event>
 4    1  0.4630618E-004  0.6500000E+04  0.7818608E-02  0.7223770E-01
         52   -1    0    0    0    0  0.00000000000E+00  0.00000000000E+00  0.64930732323E+04  0.65000000000E+04  0.30000000000E+03 0.  1.
        -52   -1    0    0    0    0 -0.00000000000E+00 -0.00000000000E+00 -0.64930732323E+04  0.65000000000E+04  0.30000000000E+03 0. -1.
     100001    1    1    2    0    0 -0.22106926730E+04  0.16533218196E+03 -0.61084247499E+04  0.65000000000E+04  0.15050000000E+03 0. -1.
     100001    1    1    2    0    0  0.22106926730E+04 -0.16533218196E+03  0.61084247499E+04  0.65000000000E+04  0.15050000000E+03 0.  1.
</event>
<event>
 4    1  0.4630618E-004  0.6500000E+04  0.7818608E-02  0.7223770E-01
         52   -1    0    0    0    0  0.00000000000E+00  0.00000000000E+00  0.64930732323E+04  0.65000000000E+04  0.30000000000E+03 0. -1.
        -52   -1    0    0    0    0 -0.00000000000E+00 -0.00000000000E+00 -0.64930732323E+04  0.65000000000E+04  0.30000000000E+03 0.  1.
     100001    1    1    2    0    0  0.52608224874E+03  0.44634643761E+04  0.46934073955E+04  0.65000000000E+04  0.15050000000E+03 0. -1.
     100001    1    1    2    0    0 -0.52608224874E+03 -0.44634643761E+04 -0.46934073955E+04  0.65000000000E+04  0.15050000000E+03 0.  1.
</event>
<event>
 4    1  0.4630618E-004  0.6500000E+04  0.7818608E-02  0.7223770E-01
         52   -1    0    0    0    0  0.00000000000E+00  0.00000000000E+00  0.64930732323E+04  0.65000000000E+04  0.30000000000E+03 0. -1.
        -52   -1    0    0    0    0 -0.00000000000E+00 -0.00000000000E+00 -0.64930732323E+04  0.65000000000E+04  0.30000000000E+03 0.  1.
     100001    1    1    2    0    0 -0.31434225947E+04  0.48583598220E+04 -0.29567860899E+04  0.65000000000E+04  0.15050000000E+03 0.  1.
     100001    1    1    2    0    0  0.31434225947E+04 -0.48583598220E+04  0.29567860899E+04  0.65000000000E+04  0.15050000000E+03 0. -1.
</event>
<event>
 4    1  0.4630618E-004  0.6500000E+04  0.7818608E-02  0.7223770E-01
         52   -1    0    0    0    0  0.00000000000E+00  0.00000000000E+00  0.64930732323E+04  0.65000000000E+04  0.30000000000E+03 0.  1.
        -52   -1    0    0    0    0 -0.00000000000E+00 -0.00000000000E+00 -0.64930732323E+04  0.65000000000E+04  0.30000000000E+03 0. -1.
     100001    1    1    2    0    0  0.68049076871E+03  0.90355746582E+03 -0.63990519587E+04  0.65000000000E+04  0.15050000000E+03 0. -1.
     100001    1    1    2    0    0 -0.68049076871E+03 -0.90355746582E+03  0.63990519587E+04  0.65000000000E+04  0.15050000000E+03 0.  1.
</event>
<event>
 4    1  0.4630618E-004  0.6500000E+04  0.7818608E-02  0.7223770E-01
         52   -1    0    0    0    0  0.00000000000E+00  0.00000000000E+00  0.64930732323E+04  0.65000000000E+04  0.30000000000E+03 0.  1.
        -52   -1    0    0    0    0 -0.00000000000E+00 -0.00000000000E+00 -0.64930732323E+04  0.65000000000E+04  0.30000000000E+03 0. -1.
     100001    1    1    2    0    0 -0.24431336475E+03  0.32643116523E+03  0.64854532166E+04  0.65000000000E+04  0.15050000000E+03 0.  1.
     100001    1    1    2    0    0  0.24431336475E+03 -0.32643116523E+03 -0.64854532166E+04  0.65000000000E+04  0.15050000000E+03 0. -1.
</event>
<event>
 4    1  0.4967747E-004  0.6500000E+04  0.7818608E-02  0.7223770E-01
         52   -1    0    0    0    0  0.00000000000E+00  0.00000000000E+00  0.64930732323E+04  0.65000000000E+04  0.30000000000E+03 0.  1.
        -52   -1    0    0    0    0 -0.00000000000E+00 -0.00000000000E+00 -0.64930732323E+04  0.65000000000E+04  0.30000000000E+03 0.  1.
     100001    1    1    2    0    0 -0.10838489093E+02 -0.21702170391E+03  0.64946234577E+04  0.65000000000E+04  0.15050000000E+03 0.  1.
     100001    1    1    2    0    0  0.10838489093E+02  0.21702170391E+03 -0.64946234577E+04  0.65000000000E+04  0.15050000000E+03 0.  1.
</event>
<event>
 4    1  0.4630618E-004  0.6500000E+04  0.7818608E-02  0.7223770E-01
         52   -1    0    0    0    0  0.00000000000E+00  0.00000000000E+00  0.64930732323E+04  0.65000000000E+04  0.30000000000E+03 0. -1.
        -52   -1    0    0    0    0 -0.00000000000E+00 -0.00000000000E+00 -0.64930732323E+04  0.65000000000E+04  0.30000000000E+03 0.  1.
     100001    1    1    2    0    0  0.22699528394E+04  0.24860257302E+03 -0.60838195747E+04  0.65000000000E+04  0.15050000000E+03 0.  1.
     100001    1    1    2    0    0 -0.22699528394E+04 -0.24860257302E+03  0.60838195747E+04  0.65000000000E+04  0.15050000000E+03 0. -1.
</event>
<event>
 4    1  0.4630618E-004  0.6500000E+04  0.7818608E-02  0.7223770E-01
         52   -1    0    0    0    0  0.00000000000E+00  0.00000000000E+00  0.64930732323E+04  0.65000000000E+04  0.30000000000E+03 0. -1.
        -52   -1    0    0    0    0 -0.00000000000E+00 -0.00000000000E+00 -0.64930732323E+04  0.65000000000E+04  0.30000000000E+03 0.  1.
     100001    1    1    2    0    0 -0.39337878184E+04 -0.82378026608E+03  0.51062754747E+04  0.65000000000E+04  0.15050000000E+03 0. -1.
     100001    1    1    2    0    0  0.39337878184E+04  0.82378026608E+03 -0.51062754747E+04  0.65000000000E+04  0.15050000000E+03 0.  1.
</event>
<event>
 4    1  0.4630618E-004  0.6500000E+04  0.7818608E-02  0.7223770E-01
         52   -1    0    0    0    0  0.00000000000E+00  0.00000000000E+00  0.64930732323E+04  0.65000000000E+04  0.30000000000E+03 0.  1.
        -52   -1    0    0    0    0 -0.00000000000E+00 -0.00000000000E+00 -0.64930732323E+04  0.65000000000E+04  0.30000000000E+03 0. -1.
     100001    1    1    2    0    0  0.13274184921E+04 -0.64987897720E+03 -0.63279512650E+04  0.65000000000E+04  0.15050000000E+03 0. -1.
     100001    1    1    2    0    0 -0.13274184921E+04  0.64987897720E+03  0.63279512650E+04  0.65000000000E+04  0.15050000000E+03 0.  1.
</event>
<event>
 4    1  0.4630618E-004  0.6500000E+04  0.7818608E-02  0.7223770E-01
         52   -1    0    0    0    0  0.00000000000E+00  0.00000000000E+00  0.64930732323E+04  0.65000000000E+04  0.30000000000E+03 0.  1.
        -52   -1    0    0    0    0 -0.00000000000E+00 -0.00000000000E+00 -0.64930732323E+04  0.65000000000E+04  0.30000000000E+03 0. -1.
     100001    1    1    2    0    0  0.28278621130E+04 -0.39440299845E+03 -0.58373788548E+04  0.65000000000E+04  0.15050000000E+03 0. -1.
     100001    1    1    2    0    0 -0.28278621130E+04  0.39440299845E+03  0.58373788548E+04  0.65000000000E+04  0.15050000000E+03 0.  1.
</event>
<event>
 4    1  0.4630618E-004  0.6500000E+04  0.7818608E-02  0.7223770E-01
         52   -1    0    0    0    0  0.00000000000E+00  0.00000000000E+00  0.64930732323E+04  0.65000000000E+04  0.30000000000E+03 0.  1.
        -52   -1    0    0    0    0 -0.00000000000E+00 -0.00000000000E+00 -0.64930732323E+04  0.65000000000E+04  0.30000000000E+03 0. -1.
     100001    1    1    2    0    0 -0.15291136592E+04  0.48178727454E+03  0.62973837575E+04  0.65000000000E+04  0.15050000000E+03 0.  1.
     100001    1    1    2    0    0  0.15291136592E+04 -0.48178727454E+03 -0.62973837575E+04  0.65000000000E+04  0.15050000000E+03 0. -1.
</event>
<event>
 4    1  0.4630618E-004  0.6500000E+04  0.7818608E-02  0.7223770E-01
         52   -1    0    0    0    0  0.00000000000E+00  0.00000000000E+00  0.64930732323E+04  0.65000000000E+04  0.30000000000E+03 0.  1.
        -52   -1    0    0    0    0 -0.00000000000E+00 -0.00000000000E+00 -0.64930732323E+04  0.65000000000E+04  0.30000000000E+03 0. -1.
     100001    1    1    2    0    0  0.24440169704E+04  0.20673790334E+04  0.56550928136E+04  0.65000000000E+04  0.15050000000E+03 0.  1.
     100001    1    1    2    0    0 -0.24440169704E+04 -0.20673790334E+04 -0.56550928136E+04  0.65000000000E+04  0.15050000000E+03 0. -1.
</event>
<event>
 4    1  0.4630618E-004  0.6500000E+04  0.7818608E-02  0.7223770E-01
         52   -1    0    0    0    0  0.00000000000E+00  0.00000000000E+00  0.64930732323E+04  0.65000000000E+04  0.30000000000E+03 0.  1.
        -52   -1    0    0    0    0 -0.00000000000E+00 -0.00000000000E+00 -0.64930732323E+04  0.65000000000E+04  0.30000000000E+03 0. -1.
     100001    1    1    2    0    0 -0.37145083746E+03 -0.59432374064E+03  0.64603524143E+04  0.65000000000E+04  0.15050000000E+03 0.  1.
     100001    1    1    2    0    0  0.37145083746E+03  0.59432374064E+03 -0.64603524143E+04  0.65000000000E+04  0.15050000000E+03 0. -1.
</event>
<event>
 4    1  0.4630618E-004  0.6500000E+04  0.7818608E-02  0.7223770E-01
         52   -1    0    0    0    0  0.00000000000E+00  0.00000000000E+00  0.64930732323E+04  0.65000000000E+04  0.30000000000E+03 0.  1.
        -52   -1    0    0    0    0 -0.00000000000E+00 -0.00000000000E+00 -0.64930732323E+04  0.65000000000E+04  0.30000000000E+03 0. -1.
     100001    1    1    2    0    0  0.15208676363E+04  0.75582023783E+03 -0.62724036183E+04  0.65000000000E+04  0.15050000000E+03 0. -1.
     100001    1    1    2    0    0 -0.15208676363E+04 -0.75582023783E+03  0.62724036183E+04  0.65000000000E+04  0.15050000000E+03 0.  1.
</event>
<event>
 4    1  0.4630618E-004  0.6500000E+04  0.7818608E-02  0.7223770E-01
         52   -1    0    0    0    0  0.00000000000E+00  0.00000000000E+00  0.64930732323E+04  0.65000000000E+04  0.30000000000E+03 0.  1.
        -52   -1    0    0    0    0 -0.00000000000E+00 -0.00000000000E+00 -0.64930732323E+04  0.65000000000E+04  0.30000000000E+03 0. -1.
     100001    1    1    2    0    0 -0.46128665278E+04 -0.97902683473E+03  0.44710534109E+04  0.65000000000E+04  0.15050000000E+03 0.  1.
     100001    1    1    2    0    0  0.46128665278E+04  0.97902683473E+03 -0.44710534109E+04  0.65000000000E+04  0.15050000000E+03 0. -1.
</event>
<event>
 4    1  0.4630618E-004  0.6500000E+04  0.7818608E-02  0.7223770E-01
         52   -1    0    0    0    0  0.00000000000E+00  0.00000000000E+00  0.64930732323E+04  0.65000000000E+04  0.30000000000E+03 0.  1.
        -52   -1    0    0    0    0 -0.00000000000E+00 -0.00000000000E+00 -0.64930732323E+04  0.65000000000E+04  0.30000000000E+03 0. -1.
     100001    1    1    2    0    0  0.36534849491E+04 -0.19417045311E+03 -0.53704464723E+04  0.65000000000E+04  0.15050000000E+03 0. -1.
     100001    1    1    2    0    0 -0.36534849491E+04  0.19417045311E+03  0.53704464723E+04  0.65000000000E+04  0.15050000000E+03 0.  1.
</event>
<event>
 4    1  0.4630618E-004  0.6500000E+04  0.7818608E-02  0.7223770E-01
         52   -1    0    0    0    0  0.00000000000E+00  0.00000000000E+00  0.64930732323E+04  0.65000000000E+04  0.30000000000E+03 0.  1.
        -52   -1    0    0    0    0 -0.00000000000E+00 -0.00000000000E+00 -0.64930732323E+04  0.65000000000E+04  0.30000000000E+03 0. -1.
     100001    1    1    2    0    0 -0.46160487095E+04 -0.32992510242E+02 -0.45736588806E+04  0.65000000000E+04  0.15050000000E+03 0. -1.
     100001    1    1    2    0    0  0.46160487095E+04  0.32992510242E+02  0.45736588806E+04  0.65000000000E+04  0.15050000000E+03 0.  1.
</event>
<event>
 4    1  0.4630618E-004  0.6500000E+04  0.7818608E-02  0.7223770E-01
         52   -1    0    0    0    0  0.00000000000E+00  0.00000000000E+00  0.64930732323E+04  0.65000000000E+04  0.30000000000E+03 0.  1.
        -52   -1    0    0    0    0 -0.00000000000E+00 -0.00000000000E+00 -0.64930732323E+04  0.65000000000E+04  0.30000000000E+03 0. -1.
     100001    1    1    2    0    0 -0.55181614705E+03 -0.61830072344E+03 -0.64451961107E+04  0.65000000000E+04  0.15050000000E+03 0. -1.
     100001    1    1    2    0    0  0.55181614705E+03  0.61830072344E+03  0.64451961107E+04  0.65000000000E+04  0.15050000000E+03 0.  1.
</event>
<event>
 4    1  0.4630618E-004  0.6500000E+04  0.7818608E-02  0.7223770E-01
         52   -1    0    0    0    0  0.00000000000E+00  0.00000000000E+00  0.64930732323E+04  0.65000000000E+04  0.30000000000E+03 0. -1.
        -52   -1    0    0    0    0 -0.00000000000E+00 -0.00000000000E+00 -0.64930732323E+04  0.65000000000E+04  0.30000000000E+03 0.  1.
     100001    1    1    2    0    0  0.97199442382E+03  0.16675252483E+04  0.62049928393E+04  0.65000000000E+04  0.15050000000E+03 0. -1.
     100001    1    1    2    0    0 -0.97199442382E+03 -0.16675252483E+04 -0.62049928393E+04  0.65000000000E+04  0.15050000000E+03 0.  1.
</event>
<event>
 4    1  0.4630618E-004  0.6500000E+04  0.7818608E-02  0.7223770E-01
         52   -1    0    0    0    0  0.00000000000E+00  0.00000000000E+00  0.64930732323E+04  0.65000000000E+04  0.30000000000E+03 0.  1.
        -52   -1    0    0    0    0 -0.00000000000E+00 -0.00000000000E+00 -0.64930732323E+04  0.65000000000E+04  0.30000000000E+03 0. -1.
     100001    1    1    2    0    0 -0.16365322113E+03 -0.95203540039E+03  0.64260560198E+04  0.65000000000E+04  0.15050000000E+03 0.  1.
     100001    1    1    2    0    0  0.16365322113E+03  0.95203540039E+03 -0.64260560198E+04  0.65000000000E+04  0.15050000000E+03 0. -1.
</event>
<event>
 4    1  0.4630618E-004  0.6500000E+04  0.7818608E-02  0.7223770E-01
         52   -1    0    0    0    0  0.00000000000E+00  0.00000000000E+00  0.64930732323E+04  0.65000000000E+04  0.30000000000E+03 0.  1.
        -52   -1    0    0    0    0 -0.00000000000E+00 -0.00000000000E+00 -0.64930732323E+04  0.65000000000E+04  0.30000000000E+03 0. -1.
     100001    1    1    2    0    0  0.71652080322E+02  0.98531288056E+03 -0.64227232742E+04  0.65000000000E+04  0.15050000000E+03 0. -1.
     100001    1    1    2    0    0 -0.71652080322E+02 -0.98531288056E+03  0.64227232742E+04  0.65000000000E+04  0.15050000000E+03 0.  1.
</event>
<event>
 4    1  0.4630618E-004  0.6500000E+04  0.7818608E-02  0.7223770E-01
         52   -1    0    0    0    0  0.00000000000E+00  0.00000000000E+00  0.64930732323E+04  0.65000000000E+04  0.30000000000E+03 0.  1.
        -52   -1    0    0    0    0 -0.00000000000E+00 -0.00000000000E+00 -0.64930732323E+04  0.65000000000E+04  0.30000000000E+03 0. -1.
     100001    1    1    2    0    0 -0.30601981334E+02 -0.46447626907E+03 -0.64815642452E+04  0.65000000000E+04  0.15050000000E+03 0. -1.
     100001    1    1    2    0    0  0.30601981334E+02  0.46447626907E+03  0.64815642452E+04  0.65000000000E+04  0.15050000000E+03 0.  1.
</event>
<event>
 4    1  0.4630618E-004  0.6500000E+04  0.7818608E-02  0.7223770E-01
         52   -1    0    0    0    0  0.00000000000E+00  0.00000000000E+00  0.64930732323E+04  0.65000000000E+04  0.30000000000E+03 0.  1.
        -52   -1    0    0    0    0 -0.00000000000E+00 -0.00000000000E+00 -0.64930732323E+04  0.65000000000E+04  0.30000000000E+03 0. -1.
     100001    1    1    2    0    0  0.17598024365E+04 -0.11587507561E+04 -0.61471734822E+04  0.65000000000E+04  0.15050000000E+03 0. -1.
     100001    1    1    2    0    0 -0.17598024365E+04  0.11587507561E+04  0.61471734822E+04  0.65000000000E+04  0.15050000000E+03 0.  1.
</event>
<event>
 4    1  0.4630618E-004  0.6500000E+04  0.7818608E-02  0.7223770E-01
         52   -1    0    0    0    0  0.00000000000E+00  0.00000000000E+00  0.64930732323E+04  0.65000000000E+04  0.30000000000E+03 0. -1.
        -52   -1    0    0    0    0 -0.00000000000E+00 -0.00000000000E+00 -0.64930732323E+04  0.65000000000E+04  0.30000000000E+03 0.  1.
     100001    1    1    2    0    0 -0.91064865301E+03 -0.48359420976E+03 -0.64159337139E+04  0.65000000000E+04  0.15050000000E+03 0.  1.
     100001    1    1    2    0    0  0.91064865301E+03  0.48359420976E+03  0.64159337139E+04  0.65000000000E+04  0.15050000000E+03 0. -1.
</event>
<event>
 4    1  0.4630618E-004  0.6500000E+04  0.7818608E-02  0.7223770E-01
         52   -1    0    0    0    0  0.00000000000E+00  0.00000000000E+00  0.64930732323E+04  0.65000000000E+04  0.30000000000E+03 0. -1.
        -52   -1    0    0    0    0 -0.00000000000E+00 -0.00000000000E+00 -0.64930732323E+04  0.65000000000E+04  0.30000000000E+03 0.  1.
     100001    1    1    2    0    0  0.23298623276E+04 -0.20406708929E+04  0.57126835718E+04  0.65000000000E+04  0.15050000000E+03 0. -1.
     100001    1    1    2    0    0 -0.23298623276E+04  0.20406708929E+04 -0.57126835718E+04  0.65000000000E+04  0.15050000000E+03 0.  1.
</event>
<event>
 4    1  0.4630618E-004  0.6500000E+04  0.7818608E-02  0.7223770E-01
         52   -1    0    0    0    0  0.00000000000E+00  0.00000000000E+00  0.64930732323E+04  0.65000000000E+04  0.30000000000E+03 0. -1.
        -52   -1    0    0    0    0 -0.00000000000E+00 -0.00000000000E+00 -0.64930732323E+04  0.65000000000E+04  0.30000000000E+03 0. -1.
     100001    1    1    2    0    0  0.22927255980E+03  0.31357322375E+03 -0.64866366999E+04  0.65000000000E+04  0.15050000000E+03 0. -1.
     100001    1    1    2    0    0 -0.22927255980E+03 -0.31357322375E+03  0.64866366999E+04  0.65000000000E+04  0.15050000000E+03 0. -1.
</event>
<event>
 4    1  0.4630618E-004  0.6500000E+04  0.7818608E-02  0.7223770E-01
         52   -1    0    0    0    0  0.00000000000E+00  0.00000000000E+00  0.64930732323E+04  0.65000000000E+04  0.30000000000E+03 0. -1.
        -52   -1    0    0    0    0 -0.00000000000E+00 -0.00000000000E+00 -0.64930732323E+04  0.65000000000E+04  0.30000000000E+03 0.  1.
     100001    1    1    2    0    0 -0.17835962652E+04  0.10886640067E+04  0.61531247991E+04  0.65000000000E+04  0.15050000000E+03 0. -1.
     100001    1    1    2    0    0  0.17835962652E+04 -0.10886640067E+04 -0.61531247991E+04  0.65000000000E+04  0.15050000000E+03 0.  1.
</event>
<event>
 4    1  0.4630618E-004  0.6500000E+04  0.7818608E-02  0.7223770E-01
         52   -1    0    0    0    0  0.00000000000E+00  0.00000000000E+00  0.64930732323E+04  0.65000000000E+04  0.30000000000E+03 0.  1.
        -52   -1    0    0    0    0 -0.00000000000E+00 -0.00000000000E+00 -0.64930732323E+04  0.65000000000E+04  0.30000000000E+03 0. -1.
     100001    1    1    2    0    0  0.45049627485E+03  0.28212747589E+03 -0.64764810618E+04  0.65000000000E+04  0.15050000000E+03 0. -1.
     100001    1    1    2    0    0 -0.45049627485E+03 -0.28212747589E+03  0.64764810618E+04  0.65000000000E+04  0.15050000000E+03 0.  1.
</event>
<event>
 4    1  0.4630618E-004  0.6500000E+04  0.7818608E-02  0.7223770E-01
         52   -1    0    0    0    0  0.00000000000E+00  0.00000000000E+00  0.64930732323E+04  0.65000000000E+04  0.30000000000E+03 0.  1.
        -52   -1    0    0    0    0 -0.00000000000E+00 -0.00000000000E+00 -0.64930732323E+04  0.65000000000E+04  0.30000000000E+03 0. -1.
     100001    1    1    2    0    0 -0.10299992789E+04 -0.91640502386E+03  0.63503270048E+04  0.65000000000E+04  0.15050000000E+03 0.  1.
     100001    1    1    2    0    0  0.10299992789E+04  0.91640502386E+03 -0.63503270048E+04  0.65000000000E+04  0.15050000000E+03 0. -1.
</event>
<event>
 4    1  0.4630618E-004  0.6500000E+04  0.7818608E-02  0.7223770E-01
         52   -1    0    0    0    0  0.00000000000E+00  0.00000000000E+00  0.64930732323E+04  0.65000000000E+04  0.30000000000E+03 0. -1.
        -52   -1    0    0    0    0 -0.00000000000E+00 -0.00000000000E+00 -0.64930732323E+04  0.65000000000E+04  0.30000000000E+03 0.  1.
     100001    1    1    2    0    0 -0.10359053382E+04 -0.42280885741E+03 -0.64012094600E+04  0.65000000000E+04  0.15050000000E+03 0.  1.
     100001    1    1    2    0    0  0.10359053382E+04  0.42280885741E+03  0.64012094600E+04  0.65000000000E+04  0.15050000000E+03 0. -1.
</event>
<event>
 4    1  0.4630618E-004  0.6500000E+04  0.7818608E-02  0.7223770E-01
         52   -1    0    0    0    0  0.00000000000E+00  0.00000000000E+00  0.64930732323E+04  0.65000000000E+04  0.30000000000E+03 0. -1.
        -52   -1    0    0    0    0 -0.00000000000E+00 -0.00000000000E+00 -0.64930732323E+04  0.65000000000E+04  0.30000000000E+03 0. -1.
     100001    1    1    2    0    0  0.11809531696E+03  0.59735895402E+01 -0.64971815091E+04  0.65000000000E+04  0.15050000000E+03 0. -1.
     100001    1    1    2    0    0 -0.11809531696E+03 -0.59735895402E+01  0.64971815091E+04  0.65000000000E+04  0.15050000000E+03 0. -1.
</event>
<event>
 4    1  0.4630618E-004  0.6500000E+04  0.7818608E-02  0.7223770E-01
         52   -1    0    0    0    0  0.00000000000E+00  0.00000000000E+00  0.64930732323E+04  0.65000000000E+04  0.30000000000E+03 0. -1.
        -52   -1    0    0    0    0 -0.00000000000E+00 -0.00000000000E+00 -0.64930732323E+04  0.65000000000E+04  0.30000000000E+03 0.  1.
     100001    1    1    2    0    0  0.28779499427E+03 -0.11758709033E+04 -0.63845008740E+04  0.65000000000E+04  0.15050000000E+03 0.  1.
     100001    1    1    2    0    0 -0.28779499427E+03  0.11758709033E+04  0.63845008740E+04  0.65000000000E+04  0.15050000000E+03 0. -1.
</event>
<event>
 4    1  0.4630618E-004  0.6500000E+04  0.7818608E-02  0.7223770E-01
         52   -1    0    0    0    0  0.00000000000E+00  0.00000000000E+00  0.64930732323E+04  0.65000000000E+04  0.30000000000E+03 0.  1.
        -52   -1    0    0    0    0 -0.00000000000E+00 -0.00000000000E+00 -0.64930732323E+04  0.65000000000E+04  0.30000000000E+03 0. -1.
     100001    1    1    2    0    0 -0.45215139099E+04  0.41815437673E+04 -0.20731506058E+04  0.65000000000E+04  0.15050000000E+03 0. -1.
     100001    1    1    2    0    0  0.45215139099E+04 -0.41815437673E+04  0.20731506058E+04  0.65000000000E+04  0.15050000000E+03 0.  1.
</event>
<event>
 4    1  0.4630618E-004  0.6500000E+04  0.7818608E-02  0.7223770E-01
         52   -1    0    0    0    0  0.00000000000E+00  0.00000000000E+00  0.64930732323E+04  0.65000000000E+04  0.30000000000E+03 0. -1.
        -52   -1    0    0    0    0 -0.00000000000E+00 -0.00000000000E+00 -0.64930732323E+04  0.65000000000E+04  0.30000000000E+03 0.  1.
     100001    1    1    2    0    0 -0.90950153046E+02 -0.46830399960E+04 -0.45042440227E+04  0.65000000000E+04  0.15050000000E+03 0.  1.
     100001    1    1    2    0    0  0.90950153046E+02  0.46830399960E+04  0.45042440227E+04  0.65000000000E+04  0.15050000000E+03 0. -1.
</event>
<event>
 4    1  0.4630618E-004  0.6500000E+04  0.7818608E-02  0.7223770E-01
         52   -1    0    0    0    0  0.00000000000E+00  0.00000000000E+00  0.64930732323E+04  0.65000000000E+04  0.30000000000E+03 0.  1.
        -52   -1    0    0    0    0 -0.00000000000E+00 -0.00000000000E+00 -0.64930732323E+04  0.65000000000E+04  0.30000000000E+03 0.  1.
     100001    1    1    2    0    0 -0.44347266032E+03  0.30765862298E+03  0.64758032646E+04  0.65000000000E+04  0.15050000000E+03 0.  1.
     100001    1    1    2    0    0  0.44347266032E+03 -0.30765862298E+03 -0.64758032646E+04  0.65000000000E+04  0.15050000000E+03 0.  1.
</event>
<event>
 4    1  0.4630618E-004  0.6500000E+04  0.7818608E-02  0.7223770E-01
         52   -1    0    0    0    0  0.00000000000E+00  0.00000000000E+00  0.64930732323E+04  0.65000000000E+04  0.30000000000E+03 0. -1.
        -52   -1    0    0    0    0 -0.00000000000E+00 -0.00000000000E+00 -0.64930732323E+04  0.65000000000E+04  0.30000000000E+03 0.  1.
     100001    1    1    2    0    0  0.38200431998E+04  0.11589996554E+04 -0.51275081180E+04  0.65000000000E+04  0.15050000000E+03 0.  1.
     100001    1    1    2    0    0 -0.38200431998E+04 -0.11589996554E+04  0.51275081180E+04  0.65000000000E+04  0.15050000000E+03 0. -1.
</event>
<event>
 4    1  0.4630618E-004  0.6500000E+04  0.7818608E-02  0.7223770E-01
         52   -1    0    0    0    0  0.00000000000E+00  0.00000000000E+00  0.64930732323E+04  0.65000000000E+04  0.30000000000E+03 0.  1.
        -52   -1    0    0    0    0 -0.00000000000E+00 -0.00000000000E+00 -0.64930732323E+04  0.65000000000E+04  0.30000000000E+03 0. -1.
     100001    1    1    2    0    0  0.29226559678E+04 -0.83025416730E+03  0.57442240435E+04  0.65000000000E+04  0.15050000000E+03 0.  1.
     100001    1    1    2    0    0 -0.29226559678E+04  0.83025416730E+03 -0.57442240435E+04  0.65000000000E+04  0.15050000000E+03 0. -1.
</event>
<event>
 4    1  0.4630618E-004  0.6500000E+04  0.7818608E-02  0.7223770E-01
         52   -1    0    0    0    0  0.00000000000E+00  0.00000000000E+00  0.64930732323E+04  0.65000000000E+04  0.30000000000E+03 0. -1.
        -52   -1    0    0    0    0 -0.00000000000E+00 -0.00000000000E+00 -0.64930732323E+04  0.65000000000E+04  0.30000000000E+03 0.  1.
     100001    1    1    2    0    0 -0.52165525174E+03  0.23262530849E+04 -0.60451445089E+04  0.65000000000E+04  0.15050000000E+03 0.  1.
     100001    1    1    2    0    0  0.52165525174E+03 -0.23262530849E+04  0.60451445089E+04  0.65000000000E+04  0.15050000000E+03 0. -1.
</event>
<event>
 4    1  0.4630618E-004  0.6500000E+04  0.7818608E-02  0.7223770E-01
         52   -1    0    0    0    0  0.00000000000E+00  0.00000000000E+00  0.64930732323E+04  0.65000000000E+04  0.30000000000E+03 0.  1.
        -52   -1    0    0    0    0 -0.00000000000E+00 -0.00000000000E+00 -0.64930732323E+04  0.65000000000E+04  0.30000000000E+03 0. -1.
     100001    1    1    2    0    0  0.44075338053E+04 -0.46089692789E+04 -0.12483579980E+04  0.65000000000E+04  0.15050000000E+03 0. -1.
     100001    1    1    2    0    0 -0.44075338053E+04  0.46089692789E+04  0.12483579980E+04  0.65000000000E+04  0.15050000000E+03 0.  1.
</event>
<event>
 4    1  0.4630618E-004  0.6500000E+04  0.7818608E-02  0.7223770E-01
         52   -1    0    0    0    0  0.00000000000E+00  0.00000000000E+00  0.64930732323E+04  0.65000000000E+04  0.30000000000E+03 0.  1.
        -52   -1    0    0    0    0 -0.00000000000E+00 -0.00000000000E+00 -0.64930732323E+04  0.65000000000E+04  0.30000000000E+03 0. -1.
     100001    1    1    2    0    0 -0.58632359656E+03  0.97132045972E+01 -0.64717447449E+04  0.65000000000E+04  0.15050000000E+03 0. -1.
     100001    1    1    2    0    0  0.58632359656E+03 -0.97132045972E+01  0.64717447449E+04  0.65000000000E+04  0.15050000000E+03 0.  1.
</event>
<event>
 4    1  0.4630618E-004  0.6500000E+04  0.7818608E-02  0.7223770E-01
         52   -1    0    0    0    0  0.00000000000E+00  0.00000000000E+00  0.64930732323E+04  0.65000000000E+04  0.30000000000E+03 0. -1.
        -52   -1    0    0    0    0 -0.00000000000E+00 -0.00000000000E+00 -0.64930732323E+04  0.65000000000E+04  0.30000000000E+03 0.  1.
     100001    1    1    2    0    0  0.15658782984E+03  0.45220826694E+03 -0.64806124467E+04  0.65000000000E+04  0.15050000000E+03 0.  1.
     100001    1    1    2    0    0 -0.15658782984E+03 -0.45220826694E+03  0.64806124467E+04  0.65000000000E+04  0.15050000000E+03 0. -1.
</event>
<event>
 4    1  0.4630618E-004  0.6500000E+04  0.7818608E-02  0.7223770E-01
         52   -1    0    0    0    0  0.00000000000E+00  0.00000000000E+00  0.64930732323E+04  0.65000000000E+04  0.30000000000E+03 0. -1.
        -52   -1    0    0    0    0 -0.00000000000E+00 -0.00000000000E+00 -0.64930732323E+04  0.65000000000E+04  0.30000000000E+03 0.  1.
     100001    1    1    2    0    0 -0.19303016881E+03 -0.45694583186E+03 -0.64792969997E+04  0.65000000000E+04  0.15050000000E+03 0.  1.
     100001    1    1    2    0    0  0.19303016881E+03  0.45694583186E+03  0.64792969997E+04  0.65000000000E+04  0.15050000000E+03 0. -1.
</event>
<event>
 4    1  0.4630618E-004  0.6500000E+04  0.7818608E-02  0.7223770E-01
         52   -1    0    0    0    0  0.00000000000E+00  0.00000000000E+00  0.64930732323E+04  0.65000000000E+04  0.30000000000E+03 0. -1.
        -52   -1    0    0    0    0 -0.00000000000E+00 -0.00000000000E+00 -0.64930732323E+04  0.65000000000E+04  0.30000000000E+03 0.  1.
     100001    1    1    2    0    0 -0.10222277622E+03  0.28672067465E+03 -0.64911240559E+04  0.65000000000E+04  0.15050000000E+03 0.  1.
     100001    1    1    2    0    0  0.10222277622E+03 -0.28672067465E+03  0.64911240559E+04  0.65000000000E+04  0.15050000000E+03 0. -1.
</event>
<event>
 4    1  0.4630618E-004  0.6500000E+04  0.7818608E-02  0.7223770E-01
         52   -1    0    0    0    0  0.00000000000E+00  0.00000000000E+00  0.64930732323E+04  0.65000000000E+04  0.30000000000E+03 0. -1.
        -52   -1    0    0    0    0 -0.00000000000E+00 -0.00000000000E+00 -0.64930732323E+04  0.65000000000E+04  0.30000000000E+03 0.  1.
     100001    1    1    2    0    0 -0.72827007362E+03  0.92729104019E+03  0.63903915198E+04  0.65000000000E+04  0.15050000000E+03 0. -1.
     100001    1    1    2    0    0  0.72827007362E+03 -0.92729104019E+03 -0.63903915198E+04  0.65000000000E+04  0.15050000000E+03 0.  1.
</event>
<event>
 4    1  0.4630618E-004  0.6500000E+04  0.7818608E-02  0.7223770E-01
         52   -1    0    0    0    0  0.00000000000E+00  0.00000000000E+00  0.64930732323E+04  0.65000000000E+04  0.30000000000E+03 0. -1.
        -52   -1    0    0    0    0 -0.00000000000E+00 -0.00000000000E+00 -0.64930732323E+04  0.65000000000E+04  0.30000000000E+03 0.  1.
     100001    1    1    2    0    0 -0.20158352963E+04 -0.10670380773E+04 -0.60848325819E+04  0.65000000000E+04  0.15050000000E+03 0.  1.
     100001    1    1    2    0    0  0.20158352963E+04  0.10670380773E+04  0.60848325819E+04  0.65000000000E+04  0.15050000000E+03 0. -1.
</event>
<event>
 4    1  0.4630618E-004  0.6500000E+04  0.7818608E-02  0.7223770E-01
         52   -1    0    0    0    0  0.00000000000E+00  0.00000000000E+00  0.64930732323E+04  0.65000000000E+04  0.30000000000E+03 0.  1.
        -52   -1    0    0    0    0 -0.00000000000E+00 -0.00000000000E+00 -0.64930732323E+04  0.65000000000E+04  0.30000000000E+03 0. -1.
     100001    1    1    2    0    0  0.41170504845E+04  0.44775950121E+02  0.50274486743E+04  0.65000000000E+04  0.15050000000E+03 0.  1.
     100001    1    1    2    0    0 -0.41170504845E+04 -0.44775950121E+02 -0.50274486743E+04  0.65000000000E+04  0.15050000000E+03 0. -1.
</event>
<event>
 4    1  0.4630618E-004  0.6500000E+04  0.7818608E-02  0.7223770E-01
         52   -1    0    0    0    0  0.00000000000E+00  0.00000000000E+00  0.64930732323E+04  0.65000000000E+04  0.30000000000E+03 0. -1.
        -52   -1    0    0    0    0 -0.00000000000E+00 -0.00000000000E+00 -0.64930732323E+04  0.65000000000E+04  0.30000000000E+03 0.  1.
     100001    1    1    2    0    0 -0.18728282305E+04  0.28497684802E+04  0.55316077028E+04  0.65000000000E+04  0.15050000000E+03 0. -1.
     100001    1    1    2    0    0  0.18728282305E+04 -0.28497684802E+04 -0.55316077028E+04  0.65000000000E+04  0.15050000000E+03 0.  1.
</event>
<event>
 4    1  0.4630618E-004  0.6500000E+04  0.7818608E-02  0.7223770E-01
         52   -1    0    0    0    0  0.00000000000E+00  0.00000000000E+00  0.64930732323E+04  0.65000000000E+04  0.30000000000E+03 0. -1.
        -52   -1    0    0    0    0 -0.00000000000E+00 -0.00000000000E+00 -0.64930732323E+04  0.65000000000E+04  0.30000000000E+03 0.  1.
     100001    1    1    2    0    0 -0.15182898223E+02  0.31252033507E+03 -0.64907203198E+04  0.65000000000E+04  0.15050000000E+03 0.  1.
     100001    1    1    2    0    0  0.15182898223E+02 -0.31252033507E+03  0.64907203198E+04  0.65000000000E+04  0.15050000000E+03 0. -1.
</event>
<event>
 4    1  0.4630618E-004  0.6500000E+04  0.7818608E-02  0.7223770E-01
         52   -1    0    0    0    0  0.00000000000E+00  0.00000000000E+00  0.64930732323E+04  0.65000000000E+04  0.30000000000E+03 0.  1.
        -52   -1    0    0    0    0 -0.00000000000E+00 -0.00000000000E+00 -0.64930732323E+04  0.65000000000E+04  0.30000000000E+03 0. -1.
     100001    1    1    2    0    0  0.30918640660E+04  0.22629901946E+04 -0.52484856603E+04  0.65000000000E+04  0.15050000000E+03 0. -1.
     100001    1    1    2    0    0 -0.30918640660E+04 -0.22629901946E+04  0.52484856603E+04  0.65000000000E+04  0.15050000000E+03 0.  1.
</event>
<event>
 4    1  0.4630618E-004  0.6500000E+04  0.7818608E-02  0.7223770E-01
         52   -1    0    0    0    0  0.00000000000E+00  0.00000000000E+00  0.64930732323E+04  0.65000000000E+04  0.30000000000E+03 0. -1.
        -52   -1    0    0    0    0 -0.00000000000E+00 -0.00000000000E+00 -0.64930732323E+04  0.65000000000E+04  0.30000000000E+03 0.  1.
     100001    1    1    2    0    0  0.11272174396E+04 -0.20805578990E+04 -0.60521078495E+04  0.65000000000E+04  0.15050000000E+03 0.  1.
     100001    1    1    2    0    0 -0.11272174396E+04  0.20805578990E+04  0.60521078495E+04  0.65000000000E+04  0.15050000000E+03 0. -1.
</event>
<event>
 4    1  0.4630618E-004  0.6500000E+04  0.7818608E-02  0.7223770E-01
         52   -1    0    0    0    0  0.00000000000E+00  0.00000000000E+00  0.64930732323E+04  0.65000000000E+04  0.30000000000E+03 0. -1.
        -52   -1    0    0    0    0 -0.00000000000E+00 -0.00000000000E+00 -0.64930732323E+04  0.65000000000E+04  0.30000000000E+03 0.  1.
     100001    1    1    2    0    0 -0.14297380895E+04 -0.15838609501E+04  0.61379624662E+04  0.65000000000E+04  0.15050000000E+03 0. -1.
     100001    1    1    2    0    0  0.14297380895E+04  0.15838609501E+04 -0.61379624662E+04  0.65000000000E+04  0.15050000000E+03 0.  1.
</event>
<event>
 4    1  0.4630618E-004  0.6500000E+04  0.7818608E-02  0.7223770E-01
         52   -1    0    0    0    0  0.00000000000E+00  0.00000000000E+00  0.64930732323E+04  0.65000000000E+04  0.30000000000E+03 0.  1.
        -52   -1    0    0    0    0 -0.00000000000E+00 -0.00000000000E+00 -0.64930732323E+04  0.65000000000E+04  0.30000000000E+03 0. -1.
     100001    1    1    2    0    0 -0.52891701035E+04  0.21906479827E+04 -0.30745879045E+04  0.65000000000E+04  0.15050000000E+03 0. -1.
     100001    1    1    2    0    0  0.52891701035E+04 -0.21906479827E+04  0.30745879045E+04  0.65000000000E+04  0.15050000000E+03 0.  1.
</event>
<event>
 4    1  0.4630618E-004  0.6500000E+04  0.7818608E-02  0.7223770E-01
         52   -1    0    0    0    0  0.00000000000E+00  0.00000000000E+00  0.64930732323E+04  0.65000000000E+04  0.30000000000E+03 0. -1.
        -52   -1    0    0    0    0 -0.00000000000E+00 -0.00000000000E+00 -0.64930732323E+04  0.65000000000E+04  0.30000000000E+03 0. -1.
     100001    1    1    2    0    0 -0.78486945887E+03  0.34525939442E+03  0.64414381650E+04  0.65000000000E+04  0.15050000000E+03 0. -1.
     100001    1    1    2    0    0  0.78486945887E+03 -0.34525939442E+03 -0.64414381650E+04  0.65000000000E+04  0.15050000000E+03 0. -1.
</event>
<event>
 4    1  0.4630618E-004  0.6500000E+04  0.7818608E-02  0.7223770E-01
         52   -1    0    0    0    0  0.00000000000E+00  0.00000000000E+00  0.64930732323E+04  0.65000000000E+04  0.30000000000E+03 0. -1.
        -52   -1    0    0    0    0 -0.00000000000E+00 -0.00000000000E+00 -0.64930732323E+04  0.65000000000E+04  0.30000000000E+03 0.  1.
     100001    1    1    2    0    0  0.42365814876E+03 -0.32323152595E+04 -0.56213878701E+04  0.65000000000E+04  0.15050000000E+03 0.  1.
     100001    1    1    2    0    0 -0.42365814876E+03  0.32323152595E+04  0.56213878701E+04  0.65000000000E+04  0.15050000000E+03 0. -1.
</event>
<event>
 4    1  0.4630618E-004  0.6500000E+04  0.7818608E-02  0.7223770E-01
         52   -1    0    0    0    0  0.00000000000E+00  0.00000000000E+00  0.64930732323E+04  0.65000000000E+04  0.30000000000E+03 0. -1.
        -52   -1    0    0    0    0 -0.00000000000E+00 -0.00000000000E+00 -0.64930732323E+04  0.65000000000E+04  0.30000000000E+03 0.  1.
     100001    1    1    2    0    0  0.31702357966E+04  0.66993021432E+03  0.56327744720E+04  0.65000000000E+04  0.15050000000E+03 0. -1.
     100001    1    1    2    0    0 -0.31702357966E+04 -0.66993021432E+03 -0.56327744720E+04  0.65000000000E+04  0.15050000000E+03 0.  1.
</event>
<event>
 4    1  0.4630618E-004  0.6500000E+04  0.7818608E-02  0.7223770E-01
         52   -1    0    0    0    0  0.00000000000E+00  0.00000000000E+00  0.64930732323E+04  0.65000000000E+04  0.30000000000E+03 0. -1.
        -52   -1    0    0    0    0 -0.00000000000E+00 -0.00000000000E+00 -0.64930732323E+04  0.65000000000E+04  0.30000000000E+03 0.  1.
     100001    1    1    2    0    0 -0.26322965305E+03  0.45355322520E+03 -0.64770633293E+04  0.65000000000E+04  0.15050000000E+03 0.  1.
     100001    1    1    2    0    0  0.26322965305E+03 -0.45355322520E+03  0.64770633293E+04  0.65000000000E+04  0.15050000000E+03 0. -1.
</event>
<event>
 4    1  0.4630618E-004  0.6500000E+04  0.7818608E-02  0.7223770E-01
         52   -1    0    0    0    0  0.00000000000E+00  0.00000000000E+00  0.64930732323E+04  0.65000000000E+04  0.30000000000E+03 0.  1.
        -52   -1    0    0    0    0 -0.00000000000E+00 -0.00000000000E+00 -0.64930732323E+04  0.65000000000E+04  0.30000000000E+03 0. -1.
     100001    1    1    2    0    0  0.43829388574E+04  0.41362108568E+04 -0.24308345214E+04  0.65000000000E+04  0.15050000000E+03 0. -1.
     100001    1    1    2    0    0 -0.43829388574E+04 -0.41362108568E+04  0.24308345214E+04  0.65000000000E+04  0.15050000000E+03 0.  1.
</event>
<event>
 4    1  0.4630618E-004  0.6500000E+04  0.7818608E-02  0.7223770E-01
         52   -1    0    0    0    0  0.00000000000E+00  0.00000000000E+00  0.64930732323E+04  0.65000000000E+04  0.30000000000E+03 0. -1.
        -52   -1    0    0    0    0 -0.00000000000E+00 -0.00000000000E+00 -0.64930732323E+04  0.65000000000E+04  0.30000000000E+03 0.  1.
     100001    1    1    2    0    0  0.51267478940E+03 -0.10775815275E+04 -0.63877486145E+04  0.65000000000E+04  0.15050000000E+03 0.  1.
     100001    1    1    2    0    0 -0.51267478940E+03  0.10775815275E+04  0.63877486145E+04  0.65000000000E+04  0.15050000000E+03 0. -1.
</event>
<event>
 4    1  0.4630618E-004  0.6500000E+04  0.7818608E-02  0.7223770E-01
         52   -1    0    0    0    0  0.00000000000E+00  0.00000000000E+00  0.64930732323E+04  0.65000000000E+04  0.30000000000E+03 0. -1.
        -52   -1    0    0    0    0 -0.00000000000E+00 -0.00000000000E+00 -0.64930732323E+04  0.65000000000E+04  0.30000000000E+03 0.  1.
     100001    1    1    2    0    0  0.38138026641E+04 -0.55055658367E+02 -0.52611051941E+04  0.65000000000E+04  0.15050000000E+03 0.  1.
     100001    1    1    2    0    0 -0.38138026641E+04  0.55055658367E+02  0.52611051941E+04  0.65000000000E+04  0.15050000000E+03 0. -1.
</event>
<event>
 4    1  0.4630618E-004  0.6500000E+04  0.7818608E-02  0.7223770E-01
         52   -1    0    0    0    0  0.00000000000E+00  0.00000000000E+00  0.64930732323E+04  0.65000000000E+04  0.30000000000E+03 0. -1.
        -52   -1    0    0    0    0 -0.00000000000E+00 -0.00000000000E+00 -0.64930732323E+04  0.65000000000E+04  0.30000000000E+03 0.  1.
     100001    1    1    2    0    0 -0.12376273239E+04  0.12167222991E+03 -0.63781521012E+04  0.65000000000E+04  0.15050000000E+03 0.  1.
     100001    1    1    2    0    0  0.12376273239E+04 -0.12167222991E+03  0.63781521012E+04  0.65000000000E+04  0.15050000000E+03 0. -1.
</event>
<event>
 4    1  0.4630618E-004  0.6500000E+04  0.7818608E-02  0.7223770E-01
         52   -1    0    0    0    0  0.00000000000E+00  0.00000000000E+00  0.64930732323E+04  0.65000000000E+04  0.30000000000E+03 0. -1.
        -52   -1    0    0    0    0 -0.00000000000E+00 -0.00000000000E+00 -0.64930732323E+04  0.65000000000E+04  0.30000000000E+03 0.  1.
     100001    1    1    2    0    0  0.34084125507E+04 -0.53441158520E+04 -0.14319564919E+04  0.65000000000E+04  0.15050000000E+03 0.  1.
     100001    1    1    2    0    0 -0.34084125507E+04  0.53441158520E+04  0.14319564919E+04  0.65000000000E+04  0.15050000000E+03 0. -1.
</event>
<event>
 4    1  0.4630618E-004  0.6500000E+04  0.7818608E-02  0.7223770E-01
         52   -1    0    0    0    0  0.00000000000E+00  0.00000000000E+00  0.64930732323E+04  0.65000000000E+04  0.30000000000E+03 0.  1.
        -52   -1    0    0    0    0 -0.00000000000E+00 -0.00000000000E+00 -0.64930732323E+04  0.65000000000E+04  0.30000000000E+03 0. -1.
     100001    1    1    2    0    0  0.33569880734E+04  0.30882963869E+02 -0.55639039412E+04  0.65000000000E+04  0.15050000000E+03 0. -1.
     100001    1    1    2    0    0 -0.33569880734E+04 -0.30882963869E+02  0.55639039412E+04  0.65000000000E+04  0.15050000000E+03 0.  1.
</event>
<event>
 4    1  0.4630618E-004  0.6500000E+04  0.7818608E-02  0.7223770E-01
         52   -1    0    0    0    0  0.00000000000E+00  0.00000000000E+00  0.64930732323E+04  0.65000000000E+04  0.30000000000E+03 0.  1.
        -52   -1    0    0    0    0 -0.00000000000E+00 -0.00000000000E+00 -0.64930732323E+04  0.65000000000E+04  0.30000000000E+03 0. -1.
     100001    1    1    2    0    0 -0.43566103582E+03 -0.23516792611E+03  0.64793707456E+04  0.65000000000E+04  0.15050000000E+03 0.  1.
     100001    1    1    2    0    0  0.43566103582E+03  0.23516792611E+03 -0.64793707456E+04  0.65000000000E+04  0.15050000000E+03 0. -1.
</event>
<event>
 4    1  0.4630618E-004  0.6500000E+04  0.7818608E-02  0.7223770E-01
         52   -1    0    0    0    0  0.00000000000E+00  0.00000000000E+00  0.64930732323E+04  0.65000000000E+04  0.30000000000E+03 0.  1.
        -52   -1    0    0    0    0 -0.00000000000E+00 -0.00000000000E+00 -0.64930732323E+04  0.65000000000E+04  0.30000000000E+03 0. -1.
     100001    1    1    2    0    0  0.56881915084E+04 -0.30867736200E+04 -0.58622157290E+03  0.65000000000E+04  0.15050000000E+03 0. -1.
     100001    1    1    2    0    0 -0.56881915084E+04  0.30867736200E+04  0.58622157290E+03  0.65000000000E+04  0.15050000000E+03 0.  1.
</event>
<event>
 4    1  0.4630618E-004  0.6500000E+04  0.7818608E-02  0.7223770E-01
         52   -1    0    0    0    0  0.00000000000E+00  0.00000000000E+00  0.64930732323E+04  0.65000000000E+04  0.30000000000E+03 0. -1.
        -52   -1    0    0    0    0 -0.00000000000E+00 -0.00000000000E+00 -0.64930732323E+04  0.65000000000E+04  0.30000000000E+03 0.  1.
     100001    1    1    2    0    0 -0.43557831531E+03 -0.19368758758E+03 -0.64807489073E+04  0.65000000000E+04  0.15050000000E+03 0.  1.
     100001    1    1    2    0    0  0.43557831531E+03  0.19368758758E+03  0.64807489073E+04  0.65000000000E+04  0.15050000000E+03 0. -1.
</event>
<event>
 4    1  0.4630618E-004  0.6500000E+04  0.7818608E-02  0.7223770E-01
         52   -1    0    0    0    0  0.00000000000E+00  0.00000000000E+00  0.64930732323E+04  0.65000000000E+04  0.30000000000E+03 0.  1.
        -52   -1    0    0    0    0 -0.00000000000E+00 -0.00000000000E+00 -0.64930732323E+04  0.65000000000E+04  0.30000000000E+03 0. -1.
     100001    1    1    2    0    0  0.55781898126E+04 -0.22399411480E+04  0.24685647284E+04  0.65000000000E+04  0.15050000000E+03 0. -1.
     100001    1    1    2    0    0 -0.55781898126E+04  0.22399411480E+04 -0.24685647284E+04  0.65000000000E+04  0.15050000000E+03 0.  1.
</event>
<event>
 4    1  0.4630618E-004  0.6500000E+04  0.7818608E-02  0.7223770E-01
         52   -1    0    0    0    0  0.00000000000E+00  0.00000000000E+00  0.64930732323E+04  0.65000000000E+04  0.30000000000E+03 0.  1.
        -52   -1    0    0    0    0 -0.00000000000E+00 -0.00000000000E+00 -0.64930732323E+04  0.65000000000E+04  0.30000000000E+03 0. -1.
     100001    1    1    2    0    0  0.38678956092E+04 -0.10462348568E+04 -0.51158700073E+04  0.65000000000E+04  0.15050000000E+03 0. -1.
     100001    1    1    2    0    0 -0.38678956092E+04  0.10462348568E+04  0.51158700073E+04  0.65000000000E+04  0.15050000000E+03 0.  1.
</event>
<event>
 4    1  0.4630618E-004  0.6500000E+04  0.7818608E-02  0.7223770E-01
         52   -1    0    0    0    0  0.00000000000E+00  0.00000000000E+00  0.64930732323E+04  0.65000000000E+04  0.30000000000E+03 0.  1.
        -52   -1    0    0    0    0 -0.00000000000E+00 -0.00000000000E+00 -0.64930732323E+04  0.65000000000E+04  0.30000000000E+03 0. -1.
     100001    1    1    2    0    0 -0.80382050801E+03 -0.88881554756E+03  0.63868011761E+04  0.65000000000E+04  0.15050000000E+03 0.  1.
     100001    1    1    2    0    0  0.80382050801E+03  0.88881554756E+03 -0.63868011761E+04  0.65000000000E+04  0.15050000000E+03 0. -1.
</event>
<event>
 4    1  0.4630618E-004  0.6500000E+04  0.7818608E-02  0.7223770E-01
         52   -1    0    0    0    0  0.00000000000E+00  0.00000000000E+00  0.64930732323E+04  0.65000000000E+04  0.30000000000E+03 0. -1.
        -52   -1    0    0    0    0 -0.00000000000E+00 -0.00000000000E+00 -0.64930732323E+04  0.65000000000E+04  0.30000000000E+03 0.  1.
     100001    1    1    2    0    0 -0.27018832191E+03  0.15624164754E+03  0.64907577807E+04  0.65000000000E+04  0.15050000000E+03 0. -1.
     100001    1    1    2    0    0  0.27018832191E+03 -0.15624164754E+03 -0.64907577807E+04  0.65000000000E+04  0.15050000000E+03 0.  1.
</event>
<event>
 4    1  0.4630618E-004  0.6500000E+04  0.7818608E-02  0.7223770E-01
         52   -1    0    0    0    0  0.00000000000E+00  0.00000000000E+00  0.64930732323E+04  0.65000000000E+04  0.30000000000E+03 0.  1.
        -52   -1    0    0    0    0 -0.00000000000E+00 -0.00000000000E+00 -0.64930732323E+04  0.65000000000E+04  0.30000000000E+03 0. -1.
     100001    1    1    2    0    0  0.27095494426E+04  0.27942543095E+04  0.52036366536E+04  0.65000000000E+04  0.15050000000E+03 0.  1.
     100001    1    1    2    0    0 -0.27095494426E+04 -0.27942543095E+04 -0.52036366536E+04  0.65000000000E+04  0.15050000000E+03 0. -1.
</event>
<event>
 4    1  0.4630618E-004  0.6500000E+04  0.7818608E-02  0.7223770E-01
         52   -1    0    0    0    0  0.00000000000E+00  0.00000000000E+00  0.64930732323E+04  0.65000000000E+04  0.30000000000E+03 0.  1.
        -52   -1    0    0    0    0 -0.00000000000E+00 -0.00000000000E+00 -0.64930732323E+04  0.65000000000E+04  0.30000000000E+03 0. -1.
     100001    1    1    2    0    0  0.69297177136E+03 -0.13056850425E+03  0.64598832605E+04  0.65000000000E+04  0.15050000000E+03 0.  1.
     100001    1    1    2    0    0 -0.69297177136E+03  0.13056850425E+03 -0.64598832605E+04  0.65000000000E+04  0.15050000000E+03 0. -1.
</event>
<event>
 4    1  0.4630618E-004  0.6500000E+04  0.7818608E-02  0.7223770E-01
         52   -1    0    0    0    0  0.00000000000E+00  0.00000000000E+00  0.64930732323E+04  0.65000000000E+04  0.30000000000E+03 0.  1.
        -52   -1    0    0    0    0 -0.00000000000E+00 -0.00000000000E+00 -0.64930732323E+04  0.65000000000E+04  0.30000000000E+03 0. -1.
     100001    1    1    2    0    0 -0.55254717029E+02  0.10377422586E+04  0.64146229563E+04  0.65000000000E+04  0.15050000000E+03 0.  1.
     100001    1    1    2    0    0  0.55254717029E+02 -0.10377422586E+04 -0.64146229563E+04  0.65000000000E+04  0.15050000000E+03 0. -1.
</event>
<event>
 4    1  0.4630618E-004  0.6500000E+04  0.7818608E-02  0.7223770E-01
         52   -1    0    0    0    0  0.00000000000E+00  0.00000000000E+00  0.64930732323E+04  0.65000000000E+04  0.30000000000E+03 0.  1.
        -52   -1    0    0    0    0 -0.00000000000E+00 -0.00000000000E+00 -0.64930732323E+04  0.65000000000E+04  0.30000000000E+03 0. -1.
     100001    1    1    2    0    0 -0.15453213350E+04  0.13667203932E+04  0.61620943752E+04  0.65000000000E+04  0.15050000000E+03 0.  1.
     100001    1    1    2    0    0  0.15453213350E+04 -0.13667203932E+04 -0.61620943752E+04  0.65000000000E+04  0.15050000000E+03 0. -1.
</event>
<event>
 4    1  0.4630618E-004  0.6500000E+04  0.7818608E-02  0.7223770E-01
         52   -1    0    0    0    0  0.00000000000E+00  0.00000000000E+00  0.64930732323E+04  0.65000000000E+04  0.30000000000E+03 0.  1.
        -52   -1    0    0    0    0 -0.00000000000E+00 -0.00000000000E+00 -0.64930732323E+04  0.65000000000E+04  0.30000000000E+03 0. -1.
     100001    1    1    2    0    0  0.24902857596E+04  0.21090728151E+04  0.56193984061E+04  0.65000000000E+04  0.15050000000E+03 0.  1.
     100001    1    1    2    0    0 -0.24902857596E+04 -0.21090728151E+04 -0.56193984061E+04  0.65000000000E+04  0.15050000000E+03 0. -1.
</event>
<event>
 4    1  0.4630618E-004  0.6500000E+04  0.7818608E-02  0.7223770E-01
         52   -1    0    0    0    0  0.00000000000E+00  0.00000000000E+00  0.64930732323E+04  0.65000000000E+04  0.30000000000E+03 0. -1.
        -52   -1    0    0    0    0 -0.00000000000E+00 -0.00000000000E+00 -0.64930732323E+04  0.65000000000E+04  0.30000000000E+03 0.  1.
     100001    1    1    2    0    0  0.25371816699E+03 -0.13719744993E+03  0.64918528712E+04  0.65000000000E+04  0.15050000000E+03 0. -1.
     100001    1    1    2    0    0 -0.25371816699E+03  0.13719744993E+03 -0.64918528712E+04  0.65000000000E+04  0.15050000000E+03 0.  1.
</event>
<event>
 4    1  0.4630618E-004  0.6500000E+04  0.7818608E-02  0.7223770E-01
         52   -1    0    0    0    0  0.00000000000E+00  0.00000000000E+00  0.64930732323E+04  0.65000000000E+04  0.30000000000E+03 0.  1.
        -52   -1    0    0    0    0 -0.00000000000E+00 -0.00000000000E+00 -0.64930732323E+04  0.65000000000E+04  0.30000000000E+03 0. -1.
     100001    1    1    2    0    0 -0.49358344367E+03  0.21780888832E+03  0.64758230691E+04  0.65000000000E+04  0.15050000000E+03 0.  1.
     100001    1    1    2    0    0  0.49358344367E+03 -0.21780888832E+03 -0.64758230691E+04  0.65000000000E+04  0.15050000000E+03 0. -1.
</event>
<event>
 4    1  0.4630618E-004  0.6500000E+04  0.7818608E-02  0.7223770E-01
         52   -1    0    0    0    0  0.00000000000E+00  0.00000000000E+00  0.64930732323E+04  0.65000000000E+04  0.30000000000E+03 0.  1.
        -52   -1    0    0    0    0 -0.00000000000E+00 -0.00000000000E+00 -0.64930732323E+04  0.65000000000E+04  0.30000000000E+03 0. -1.
     100001    1    1    2    0    0  0.51337605967E+04 -0.32378459064E+04 -0.23212509066E+04  0.65000000000E+04  0.15050000000E+03 0.  1.
     100001    1    1    2    0    0 -0.51337605967E+04  0.32378459064E+04  0.23212509066E+04  0.65000000000E+04  0.15050000000E+03 0. -1.
</event>
<event>
 4    1  0.4630618E-004  0.6500000E+04  0.7818608E-02  0.7223770E-01
         52   -1    0    0    0    0  0.00000000000E+00  0.00000000000E+00  0.64930732323E+04  0.65000000000E+04  0.30000000000E+03 0. -1.
        -52   -1    0    0    0    0 -0.00000000000E+00 -0.00000000000E+00 -0.64930732323E+04  0.65000000000E+04  0.30000000000E+03 0.  1.
     100001    1    1    2    0    0 -0.23403547458E+04  0.13283400882E+04 -0.59148628069E+04  0.65000000000E+04  0.15050000000E+03 0.  1.
     100001    1    1    2    0    0  0.23403547458E+04 -0.13283400882E+04  0.59148628069E+04  0.65000000000E+04  0.15050000000E+03 0. -1.
</event>
<event>
 4    1  0.4630618E-004  0.6500000E+04  0.7818608E-02  0.7223770E-01
         52   -1    0    0    0    0  0.00000000000E+00  0.00000000000E+00  0.64930732323E+04  0.65000000000E+04  0.30000000000E+03 0.  1.
        -52   -1    0    0    0    0 -0.00000000000E+00 -0.00000000000E+00 -0.64930732323E+04  0.65000000000E+04  0.30000000000E+03 0.  1.
     100001    1    1    2    0    0  0.69752263214E+02  0.15129513020E+03 -0.64961214702E+04  0.65000000000E+04  0.15050000000E+03 0.  1.
     100001    1    1    2    0    0 -0.69752263214E+02 -0.15129513020E+03  0.64961214702E+04  0.65000000000E+04  0.15050000000E+03 0.  1.
</event>
<event>
 4    1  0.4630618E-004  0.6500000E+04  0.7818608E-02  0.7223770E-01
         52   -1    0    0    0    0  0.00000000000E+00  0.00000000000E+00  0.64930732323E+04  0.65000000000E+04  0.30000000000E+03 0.  1.
        -52   -1    0    0    0    0 -0.00000000000E+00 -0.00000000000E+00 -0.64930732323E+04  0.65000000000E+04  0.30000000000E+03 0. -1.
     100001    1    1    2    0    0  0.44937930665E+03  0.42995906597E+03  0.64684266395E+04  0.65000000000E+04  0.15050000000E+03 0.  1.
     100001    1    1    2    0    0 -0.44937930665E+03 -0.42995906597E+03 -0.64684266395E+04  0.65000000000E+04  0.15050000000E+03 0. -1.
</event>
<event>
 4    1  0.4630618E-004  0.6500000E+04  0.7818608E-02  0.7223770E-01
         52   -1    0    0    0    0  0.00000000000E+00  0.00000000000E+00  0.64930732323E+04  0.65000000000E+04  0.30000000000E+03 0.  1.
        -52   -1    0    0    0    0 -0.00000000000E+00 -0.00000000000E+00 -0.64930732323E+04  0.65000000000E+04  0.30000000000E+03 0. -1.
     100001    1    1    2    0    0  0.55145489220E+04  0.30373285142E+04 -0.16098867768E+04  0.65000000000E+04  0.15050000000E+03 0.  1.
     100001    1    1    2    0    0 -0.55145489220E+04 -0.30373285142E+04  0.16098867768E+04  0.65000000000E+04  0.15050000000E+03 0. -1.
</event>
<event>
 4    1  0.4630618E-004  0.6500000E+04  0.7818608E-02  0.7223770E-01
         52   -1    0    0    0    0  0.00000000000E+00  0.00000000000E+00  0.64930732323E+04  0.65000000000E+04  0.30000000000E+03 0.  1.
        -52   -1    0    0    0    0 -0.00000000000E+00 -0.00000000000E+00 -0.64930732323E+04  0.65000000000E+04  0.30000000000E+03 0. -1.
     100001    1    1    2    0    0 -0.30668327853E+03  0.80201701053E+03  0.64412781210E+04  0.65000000000E+04  0.15050000000E+03 0.  1.
     100001    1    1    2    0    0  0.30668327853E+03 -0.80201701053E+03 -0.64412781210E+04  0.65000000000E+04  0.15050000000E+03 0. -1.
</event>
<event>
 4    1  0.4630618E-004  0.6500000E+04  0.7818608E-02  0.7223770E-01
         52   -1    0    0    0    0  0.00000000000E+00  0.00000000000E+00  0.64930732323E+04  0.65000000000E+04  0.30000000000E+03 0. -1.
        -52   -1    0    0    0    0 -0.00000000000E+00 -0.00000000000E+00 -0.64930732323E+04  0.65000000000E+04  0.30000000000E+03 0.  1.
     100001    1    1    2    0    0  0.36143796423E+03  0.25166148779E+04 -0.59802476457E+04  0.65000000000E+04  0.15050000000E+03 0.  1.
     100001    1    1    2    0    0 -0.36143796423E+03 -0.25166148779E+04  0.59802476457E+04  0.65000000000E+04  0.15050000000E+03 0. -1.
</event>
<event>
 4    1  0.4630618E-004  0.6500000E+04  0.7818608E-02  0.7223770E-01
         52   -1    0    0    0    0  0.00000000000E+00  0.00000000000E+00  0.64930732323E+04  0.65000000000E+04  0.30000000000E+03 0.  1.
        -52   -1    0    0    0    0 -0.00000000000E+00 -0.00000000000E+00 -0.64930732323E+04  0.65000000000E+04  0.30000000000E+03 0. -1.
     100001    1    1    2    0    0  0.18380365830E+04  0.21494221791E+03 -0.62291870346E+04  0.65000000000E+04  0.15050000000E+03 0. -1.
     100001    1    1    2    0    0 -0.18380365830E+04 -0.21494221791E+03  0.62291870346E+04  0.65000000000E+04  0.15050000000E+03 0.  1.
</event>
<event>
 4    1  0.4630618E-004  0.6500000E+04  0.7818608E-02  0.7223770E-01
         52   -1    0    0    0    0  0.00000000000E+00  0.00000000000E+00  0.64930732323E+04  0.65000000000E+04  0.30000000000E+03 0. -1.
        -52   -1    0    0    0    0 -0.00000000000E+00 -0.00000000000E+00 -0.64930732323E+04  0.65000000000E+04  0.30000000000E+03 0.  1.
     100001    1    1    2    0    0  0.11241303670E+04 -0.15539817165E+04 -0.62087697246E+04  0.65000000000E+04  0.15050000000E+03 0.  1.
     100001    1    1    2    0    0 -0.11241303670E+04  0.15539817165E+04  0.62087697246E+04  0.65000000000E+04  0.15050000000E+03 0. -1.
</event>
<event>
 4    1  0.4630618E-004  0.6500000E+04  0.7818608E-02  0.7223770E-01
         52   -1    0    0    0    0  0.00000000000E+00  0.00000000000E+00  0.64930732323E+04  0.65000000000E+04  0.30000000000E+03 0. -1.
        -52   -1    0    0    0    0 -0.00000000000E+00 -0.00000000000E+00 -0.64930732323E+04  0.65000000000E+04  0.30000000000E+03 0. -1.
     100001    1    1    2    0    0  0.31072120640E+03  0.17577757395E+02  0.64908006520E+04  0.65000000000E+04  0.15050000000E+03 0. -1.
     100001    1    1    2    0    0 -0.31072120640E+03 -0.17577757395E+02 -0.64908006520E+04  0.65000000000E+04  0.15050000000E+03 0. -1.
</event>
<event>
 4    1  0.4630618E-004  0.6500000E+04  0.7818608E-02  0.7223770E-01
         52   -1    0    0    0    0  0.00000000000E+00  0.00000000000E+00  0.64930732323E+04  0.65000000000E+04  0.30000000000E+03 0. -1.
        -52   -1    0    0    0    0 -0.00000000000E+00 -0.00000000000E+00 -0.64930732323E+04  0.65000000000E+04  0.30000000000E+03 0.  1.
     100001    1    1    2    0    0  0.69061928587E+02 -0.36281489137E+03  0.64877535060E+04  0.65000000000E+04  0.15050000000E+03 0. -1.
     100001    1    1    2    0    0 -0.69061928587E+02  0.36281489137E+03 -0.64877535060E+04  0.65000000000E+04  0.15050000000E+03 0.  1.
</event>
<event>
 4    1  0.4630618E-004  0.6500000E+04  0.7818608E-02  0.7223770E-01
         52   -1    0    0    0    0  0.00000000000E+00  0.00000000000E+00  0.64930732323E+04  0.65000000000E+04  0.30000000000E+03 0.  1.
        -52   -1    0    0    0    0 -0.00000000000E+00 -0.00000000000E+00 -0.64930732323E+04  0.65000000000E+04  0.30000000000E+03 0. -1.
     100001    1    1    2    0    0 -0.61131013359E+03  0.97989201191E+03 -0.63947995524E+04  0.65000000000E+04  0.15050000000E+03 0. -1.
     100001    1    1    2    0    0  0.61131013359E+03 -0.97989201191E+03  0.63947995524E+04  0.65000000000E+04  0.15050000000E+03 0.  1.
</event>
<event>
 4    1  0.4630618E-004  0.6500000E+04  0.7818608E-02  0.7223770E-01
         52   -1    0    0    0    0  0.00000000000E+00  0.00000000000E+00  0.64930732323E+04  0.65000000000E+04  0.30000000000E+03 0.  1.
        -52   -1    0    0    0    0 -0.00000000000E+00 -0.00000000000E+00 -0.64930732323E+04  0.65000000000E+04  0.30000000000E+03 0. -1.
     100001    1    1    2    0    0 -0.12455889752E+04  0.69841044269E+02  0.63773803465E+04  0.65000000000E+04  0.15050000000E+03 0.  1.
     100001    1    1    2    0    0  0.12455889752E+04 -0.69841044269E+02 -0.63773803465E+04  0.65000000000E+04  0.15050000000E+03 0. -1.
</event>
<event>
 4    1  0.4630618E-004  0.6500000E+04  0.7818608E-02  0.7223770E-01
         52   -1    0    0    0    0  0.00000000000E+00  0.00000000000E+00  0.64930732323E+04  0.65000000000E+04  0.30000000000E+03 0.  1.
        -52   -1    0    0    0    0 -0.00000000000E+00 -0.00000000000E+00 -0.64930732323E+04  0.65000000000E+04  0.30000000000E+03 0. -1.
     100001    1    1    2    0    0  0.18371006243E+04 -0.17551066792E+04 -0.59809707900E+04  0.65000000000E+04  0.15050000000E+03 0. -1.
     100001    1    1    2    0    0 -0.18371006243E+04  0.17551066792E+04  0.59809707900E+04  0.65000000000E+04  0.15050000000E+03 0.  1.
</event>
<event>
 4    1  0.4630618E-004  0.6500000E+04  0.7818608E-02  0.7223770E-01
         52   -1    0    0    0    0  0.00000000000E+00  0.00000000000E+00  0.64930732323E+04  0.65000000000E+04  0.30000000000E+03 0.  1.
        -52   -1    0    0    0    0 -0.00000000000E+00 -0.00000000000E+00 -0.64930732323E+04  0.65000000000E+04  0.30000000000E+03 0. -1.
     100001    1    1    2    0    0 -0.49998044225E+02  0.18253734985E+04 -0.62364141569E+04  0.65000000000E+04  0.15050000000E+03 0. -1.
     100001    1    1    2    0    0  0.49998044225E+02 -0.18253734985E+04  0.62364141569E+04  0.65000000000E+04  0.15050000000E+03 0.  1.
</event>
<event>
 4    1  0.4630618E-004  0.6500000E+04  0.7818608E-02  0.7223770E-01
         52   -1    0    0    0    0  0.00000000000E+00  0.00000000000E+00  0.64930732323E+04  0.65000000000E+04  0.30000000000E+03 0. -1.
        -52   -1    0    0    0    0 -0.00000000000E+00 -0.00000000000E+00 -0.64930732323E+04  0.65000000000E+04  0.30000000000E+03 0.  1.
     100001    1    1    2    0    0 -0.34120481041E+04  0.23252702043E+04  0.50178078841E+04  0.65000000000E+04  0.15050000000E+03 0. -1.
     100001    1    1    2    0    0  0.34120481041E+04 -0.23252702043E+04 -0.50178078841E+04  0.65000000000E+04  0.15050000000E+03 0.  1.
</event>
<event>
 4    1  0.4630618E-004  0.6500000E+04  0.7818608E-02  0.7223770E-01
         52   -1    0    0    0    0  0.00000000000E+00  0.00000000000E+00  0.64930732323E+04  0.65000000000E+04  0.30000000000E+03 0.  1.
        -52   -1    0    0    0    0 -0.00000000000E+00 -0.00000000000E+00 -0.64930732323E+04  0.65000000000E+04  0.30000000000E+03 0. -1.
     100001    1    1    2    0    0 -0.13381389516E+04 -0.37446519278E+03 -0.63479531910E+04  0.65000000000E+04  0.15050000000E+03 0. -1.
     100001    1    1    2    0    0  0.13381389516E+04  0.37446519278E+03  0.63479531910E+04  0.65000000000E+04  0.15050000000E+03 0.  1.
</event>
<event>
 4    1  0.4630618E-004  0.6500000E+04  0.7818608E-02  0.7223770E-01
         52   -1    0    0    0    0  0.00000000000E+00  0.00000000000E+00  0.64930732323E+04  0.65000000000E+04  0.30000000000E+03 0. -1.
        -52   -1    0    0    0    0 -0.00000000000E+00 -0.00000000000E+00 -0.64930732323E+04  0.65000000000E+04  0.30000000000E+03 0.  1.
     100001    1    1    2    0    0  0.27580592699E+04  0.96172450405E+03  0.58047863692E+04  0.65000000000E+04  0.15050000000E+03 0. -1.
     100001    1    1    2    0    0 -0.27580592699E+04 -0.96172450405E+03 -0.58047863692E+04  0.65000000000E+04  0.15050000000E+03 0.  1.
</event>
<event>
 4    1  0.4630618E-004  0.6500000E+04  0.7818608E-02  0.7223770E-01
         52   -1    0    0    0    0  0.00000000000E+00  0.00000000000E+00  0.64930732323E+04  0.65000000000E+04  0.30000000000E+03 0.  1.
        -52   -1    0    0    0    0 -0.00000000000E+00 -0.00000000000E+00 -0.64930732323E+04  0.65000000000E+04  0.30000000000E+03 0. -1.
     100001    1    1    2    0    0 -0.43160546790E+04  0.14626496418E+04  0.46324591507E+04  0.65000000000E+04  0.15050000000E+03 0.  1.
     100001    1    1    2    0    0  0.43160546790E+04 -0.14626496418E+04 -0.46324591507E+04  0.65000000000E+04  0.15050000000E+03 0. -1.
</event>
<event>
 4    1  0.4630618E-004  0.6500000E+04  0.7818608E-02  0.7223770E-01
         52   -1    0    0    0    0  0.00000000000E+00  0.00000000000E+00  0.64930732323E+04  0.65000000000E+04  0.30000000000E+03 0.  1.
        -52   -1    0    0    0    0 -0.00000000000E+00 -0.00000000000E+00 -0.64930732323E+04  0.65000000000E+04  0.30000000000E+03 0. -1.
     100001    1    1    2    0    0 -0.77514356432E+03 -0.61697190655E+03  0.64222930384E+04  0.65000000000E+04  0.15050000000E+03 0.  1.
     100001    1    1    2    0    0  0.77514356432E+03  0.61697190655E+03 -0.64222930384E+04  0.65000000000E+04  0.15050000000E+03 0. -1.
</event>
<event>
 4    1  0.4630618E-004  0.6500000E+04  0.7818608E-02  0.7223770E-01
         52   -1    0    0    0    0  0.00000000000E+00  0.00000000000E+00  0.64930732323E+04  0.65000000000E+04  0.30000000000E+03 0.  1.
        -52   -1    0    0    0    0 -0.00000000000E+00 -0.00000000000E+00 -0.64930732323E+04  0.65000000000E+04  0.30000000000E+03 0. -1.
     100001    1    1    2    0    0  0.21178620131E+03  0.40645782002E+03 -0.64820743898E+04  0.65000000000E+04  0.15050000000E+03 0. -1.
     100001    1    1    2    0    0 -0.21178620131E+03 -0.40645782002E+03  0.64820743898E+04  0.65000000000E+04  0.15050000000E+03 0.  1.
</event>
<event>
 4    1  0.4630618E-004  0.6500000E+04  0.7818608E-02  0.7223770E-01
         52   -1    0    0    0    0  0.00000000000E+00  0.00000000000E+00  0.64930732323E+04  0.65000000000E+04  0.30000000000E+03 0.  1.
        -52   -1    0    0    0    0 -0.00000000000E+00 -0.00000000000E+00 -0.64930732323E+04  0.65000000000E+04  0.30000000000E+03 0. -1.
     100001    1    1    2    0    0 -0.29430594386E+04 -0.30220225798E+04  0.49429880051E+04  0.65000000000E+04  0.15050000000E+03 0.  1.
     100001    1    1    2    0    0  0.29430594386E+04  0.30220225798E+04 -0.49429880051E+04  0.65000000000E+04  0.15050000000E+03 0. -1.
</event>
<event>
 4    1  0.4630618E-004  0.6500000E+04  0.7818608E-02  0.7223770E-01
         52   -1    0    0    0    0  0.00000000000E+00  0.00000000000E+00  0.64930732323E+04  0.65000000000E+04  0.30000000000E+03 0.  1.
        -52   -1    0    0    0    0 -0.00000000000E+00 -0.00000000000E+00 -0.64930732323E+04  0.65000000000E+04  0.30000000000E+03 0. -1.
     100001    1    1    2    0    0 -0.49897686712E+04  0.31792064748E+04  0.26874159613E+04  0.65000000000E+04  0.15050000000E+03 0.  1.
     100001    1    1    2    0    0  0.49897686712E+04 -0.31792064748E+04 -0.26874159613E+04  0.65000000000E+04  0.15050000000E+03 0. -1.
</event>
<event>
 4    1  0.4630618E-004  0.6500000E+04  0.7818608E-02  0.7223770E-01
         52   -1    0    0    0    0  0.00000000000E+00  0.00000000000E+00  0.64930732323E+04  0.65000000000E+04  0.30000000000E+03 0. -1.
        -52   -1    0    0    0    0 -0.00000000000E+00 -0.00000000000E+00 -0.64930732323E+04  0.65000000000E+04  0.30000000000E+03 0.  1.
     100001    1    1    2    0    0  0.50155928596E+04 -0.43599498149E+03  0.41086599266E+04  0.65000000000E+04  0.15050000000E+03 0. -1.
     100001    1    1    2    0    0 -0.50155928596E+04  0.43599498149E+03 -0.41086599266E+04  0.65000000000E+04  0.15050000000E+03 0.  1.
</event>
<event>
 4    1  0.4630618E-004  0.6500000E+04  0.7818608E-02  0.7223770E-01
         52   -1    0    0    0    0  0.00000000000E+00  0.00000000000E+00  0.64930732323E+04  0.65000000000E+04  0.30000000000E+03 0.  1.
        -52   -1    0    0    0    0 -0.00000000000E+00 -0.00000000000E+00 -0.64930732323E+04  0.65000000000E+04  0.30000000000E+03 0. -1.
     100001    1    1    2    0    0 -0.65317737567E+03 -0.84843898744E+03  0.64094352599E+04  0.65000000000E+04  0.15050000000E+03 0.  1.
     100001    1    1    2    0    0  0.65317737567E+03  0.84843898744E+03 -0.64094352599E+04  0.65000000000E+04  0.15050000000E+03 0. -1.
</event>
<event>
 4    1  0.4630618E-004  0.6500000E+04  0.7818608E-02  0.7223770E-01
         52   -1    0    0    0    0  0.00000000000E+00  0.00000000000E+00  0.64930732323E+04  0.65000000000E+04  0.30000000000E+03 0. -1.
        -52   -1    0    0    0    0 -0.00000000000E+00 -0.00000000000E+00 -0.64930732323E+04  0.65000000000E+04  0.30000000000E+03 0.  1.
     100001    1    1    2    0    0 -0.26876900930E+03 -0.99064329854E+03 -0.64166766184E+04  0.65000000000E+04  0.15050000000E+03 0.  1.
     100001    1    1    2    0    0  0.26876900930E+03  0.99064329854E+03  0.64166766184E+04  0.65000000000E+04  0.15050000000E+03 0. -1.
</event>
<event>
 4    1  0.4630618E-004  0.6500000E+04  0.7818608E-02  0.7223770E-01
         52   -1    0    0    0    0  0.00000000000E+00  0.00000000000E+00  0.64930732323E+04  0.65000000000E+04  0.30000000000E+03 0.  1.
        -52   -1    0    0    0    0 -0.00000000000E+00 -0.00000000000E+00 -0.64930732323E+04  0.65000000000E+04  0.30000000000E+03 0. -1.
     100001    1    1    2    0    0 -0.15674599242E+04  0.25707293134E+03 -0.63011374087E+04  0.65000000000E+04  0.15050000000E+03 0. -1.
     100001    1    1    2    0    0  0.15674599242E+04 -0.25707293134E+03  0.63011374087E+04  0.65000000000E+04  0.15050000000E+03 0.  1.
</event>
<event>
 4    1  0.4630618E-004  0.6500000E+04  0.7818608E-02  0.7223770E-01
         52   -1    0    0    0    0  0.00000000000E+00  0.00000000000E+00  0.64930732323E+04  0.65000000000E+04  0.30000000000E+03 0.  1.
        -52   -1    0    0    0    0 -0.00000000000E+00 -0.00000000000E+00 -0.64930732323E+04  0.65000000000E+04  0.30000000000E+03 0. -1.
     100001    1    1    2    0    0 -0.21335186971E+04  0.60656502687E+04  0.93985878558E+03  0.65000000000E+04  0.15050000000E+03 0.  1.
     100001    1    1    2    0    0  0.21335186971E+04 -0.60656502687E+04 -0.93985878558E+03  0.65000000000E+04  0.15050000000E+03 0. -1.
</event>
<event>
 4    1  0.4630618E-004  0.6500000E+04  0.7818608E-02  0.7223770E-01
         52   -1    0    0    0    0  0.00000000000E+00  0.00000000000E+00  0.64930732323E+04  0.65000000000E+04  0.30000000000E+03 0. -1.
        -52   -1    0    0    0    0 -0.00000000000E+00 -0.00000000000E+00 -0.64930732323E+04  0.65000000000E+04  0.30000000000E+03 0.  1.
     100001    1    1    2    0    0  0.54172488242E+04 -0.18671649026E+04 -0.30650383609E+04  0.65000000000E+04  0.15050000000E+03 0.  1.
     100001    1    1    2    0    0 -0.54172488242E+04  0.18671649026E+04  0.30650383609E+04  0.65000000000E+04  0.15050000000E+03 0. -1.
</event>
<event>
 4    1  0.4630618E-004  0.6500000E+04  0.7818608E-02  0.7223770E-01
         52   -1    0    0    0    0  0.00000000000E+00  0.00000000000E+00  0.64930732323E+04  0.65000000000E+04  0.30000000000E+03 0. -1.
        -52   -1    0    0    0    0 -0.00000000000E+00 -0.00000000000E+00 -0.64930732323E+04  0.65000000000E+04  0.30000000000E+03 0. -1.
     100001    1    1    2    0    0 -0.62828778561E+02 -0.16853013562E+03  0.64957678444E+04  0.65000000000E+04  0.15050000000E+03 0. -1.
     100001    1    1    2    0    0  0.62828778561E+02  0.16853013562E+03 -0.64957678444E+04  0.65000000000E+04  0.15050000000E+03 0. -1.
</event>
<event>
 4    1  0.4630618E-004  0.6500000E+04  0.7818608E-02  0.7223770E-01
         52   -1    0    0    0    0  0.00000000000E+00  0.00000000000E+00  0.64930732323E+04  0.65000000000E+04  0.30000000000E+03 0.  1.
        -52   -1    0    0    0    0 -0.00000000000E+00 -0.00000000000E+00 -0.64930732323E+04  0.65000000000E+04  0.30000000000E+03 0. -1.
     100001    1    1    2    0    0  0.32759620130E+03  0.69462368276E+03 -0.64527148099E+04  0.65000000000E+04  0.15050000000E+03 0. -1.
     100001    1    1    2    0    0 -0.32759620130E+03 -0.69462368276E+03  0.64527148099E+04  0.65000000000E+04  0.15050000000E+03 0.  1.
</event>
<event>
 4    1  0.4630618E-004  0.6500000E+04  0.7818608E-02  0.7223770E-01
         52   -1    0    0    0    0  0.00000000000E+00  0.00000000000E+00  0.64930732323E+04  0.65000000000E+04  0.30000000000E+03 0.  1.
        -52   -1    0    0    0    0 -0.00000000000E+00 -0.00000000000E+00 -0.64930732323E+04  0.65000000000E+04  0.30000000000E+03 0. -1.
     100001    1    1    2    0    0 -0.11632782943E+04 -0.36134636738E+04  0.52741836940E+04  0.65000000000E+04  0.15050000000E+03 0.  1.
     100001    1    1    2    0    0  0.11632782943E+04  0.36134636738E+04 -0.52741836940E+04  0.65000000000E+04  0.15050000000E+03 0. -1.
</event>
<event>
 4    1  0.4630618E-004  0.6500000E+04  0.7818608E-02  0.7223770E-01
         52   -1    0    0    0    0  0.00000000000E+00  0.00000000000E+00  0.64930732323E+04  0.65000000000E+04  0.30000000000E+03 0. -1.
        -52   -1    0    0    0    0 -0.00000000000E+00 -0.00000000000E+00 -0.64930732323E+04  0.65000000000E+04  0.30000000000E+03 0.  1.
     100001    1    1    2    0    0 -0.13885830771E+04  0.27767307586E+02  0.63481033203E+04  0.65000000000E+04  0.15050000000E+03 0. -1.
     100001    1    1    2    0    0  0.13885830771E+04 -0.27767307586E+02 -0.63481033203E+04  0.65000000000E+04  0.15050000000E+03 0.  1.
</event>
<event>
 4    1  0.4630618E-004  0.6500000E+04  0.7818608E-02  0.7223770E-01
         52   -1    0    0    0    0  0.00000000000E+00  0.00000000000E+00  0.64930732323E+04  0.65000000000E+04  0.30000000000E+03 0.  1.
        -52   -1    0    0    0    0 -0.00000000000E+00 -0.00000000000E+00 -0.64930732323E+04  0.65000000000E+04  0.30000000000E+03 0.  1.
     100001    1    1    2    0    0 -0.41475482629E+02 -0.13489816700E+03 -0.64967247147E+04  0.65000000000E+04  0.15050000000E+03 0.  1.
     100001    1    1    2    0    0  0.41475482629E+02  0.13489816700E+03  0.64967247147E+04  0.65000000000E+04  0.15050000000E+03 0.  1.
</event>
<event>
 4    1  0.4630618E-004  0.6500000E+04  0.7818608E-02  0.7223770E-01
         52   -1    0    0    0    0  0.00000000000E+00  0.00000000000E+00  0.64930732323E+04  0.65000000000E+04  0.30000000000E+03 0. -1.
        -52   -1    0    0    0    0 -0.00000000000E+00 -0.00000000000E+00 -0.64930732323E+04  0.65000000000E+04  0.30000000000E+03 0.  1.
     100001    1    1    2    0    0  0.45957171938E+03 -0.84091577629E+03  0.64272081219E+04  0.65000000000E+04  0.15050000000E+03 0. -1.
     100001    1    1    2    0    0 -0.45957171938E+03  0.84091577629E+03 -0.64272081219E+04  0.65000000000E+04  0.15050000000E+03 0.  1.
</event>
<event>
 4    1  0.4630618E-004  0.6500000E+04  0.7818608E-02  0.7223770E-01
         52   -1    0    0    0    0  0.00000000000E+00  0.00000000000E+00  0.64930732323E+04  0.65000000000E+04  0.30000000000E+03 0. -1.
        -52   -1    0    0    0    0 -0.00000000000E+00 -0.00000000000E+00 -0.64930732323E+04  0.65000000000E+04  0.30000000000E+03 0.  1.
     100001    1    1    2    0    0 -0.31080229258E+04 -0.45551013451E+04 -0.34378183457E+04  0.65000000000E+04  0.15050000000E+03 0.  1.
     100001    1    1    2    0    0  0.31080229258E+04  0.45551013451E+04  0.34378183457E+04  0.65000000000E+04  0.15050000000E+03 0. -1.
</event>
<event>
 4    1  0.4630618E-004  0.6500000E+04  0.7818608E-02  0.7223770E-01
         52   -1    0    0    0    0  0.00000000000E+00  0.00000000000E+00  0.64930732323E+04  0.65000000000E+04  0.30000000000E+03 0.  1.
        -52   -1    0    0    0    0 -0.00000000000E+00 -0.00000000000E+00 -0.64930732323E+04  0.65000000000E+04  0.30000000000E+03 0. -1.
     100001    1    1    2    0    0  0.29517101239E+04  0.21293294681E+04 -0.53833737666E+04  0.65000000000E+04  0.15050000000E+03 0. -1.
     100001    1    1    2    0    0 -0.29517101239E+04 -0.21293294681E+04  0.53833737666E+04  0.65000000000E+04  0.15050000000E+03 0.  1.
</event>
<event>
 4    1  0.4630618E-004  0.6500000E+04  0.7818608E-02  0.7223770E-01
         52   -1    0    0    0    0  0.00000000000E+00  0.00000000000E+00  0.64930732323E+04  0.65000000000E+04  0.30000000000E+03 0.  1.
        -52   -1    0    0    0    0 -0.00000000000E+00 -0.00000000000E+00 -0.64930732323E+04  0.65000000000E+04  0.30000000000E+03 0. -1.
     100001    1    1    2    0    0 -0.13385433563E+04  0.17235764343E+04  0.61208607000E+04  0.65000000000E+04  0.15050000000E+03 0.  1.
     100001    1    1    2    0    0  0.13385433563E+04 -0.17235764343E+04 -0.61208607000E+04  0.65000000000E+04  0.15050000000E+03 0. -1.
</event>
<event>
 4    1  0.4630618E-004  0.6500000E+04  0.7818608E-02  0.7223770E-01
         52   -1    0    0    0    0  0.00000000000E+00  0.00000000000E+00  0.64930732323E+04  0.65000000000E+04  0.30000000000E+03 0.  1.
        -52   -1    0    0    0    0 -0.00000000000E+00 -0.00000000000E+00 -0.64930732323E+04  0.65000000000E+04  0.30000000000E+03 0.  1.
     100001    1    1    2    0    0  0.19880109430E+04  0.17080547982E+04  0.59462350313E+04  0.65000000000E+04  0.15050000000E+03 0.  1.
     100001    1    1    2    0    0 -0.19880109430E+04 -0.17080547982E+04 -0.59462350313E+04  0.65000000000E+04  0.15050000000E+03 0.  1.
</event>
<event>
 4    1  0.4630618E-004  0.6500000E+04  0.7818608E-02  0.7223770E-01
         52   -1    0    0    0    0  0.00000000000E+00  0.00000000000E+00  0.64930732323E+04  0.65000000000E+04  0.30000000000E+03 0. -1.
        -52   -1    0    0    0    0 -0.00000000000E+00 -0.00000000000E+00 -0.64930732323E+04  0.65000000000E+04  0.30000000000E+03 0.  1.
     100001    1    1    2    0    0  0.11888841425E+04  0.12380449556E+04 -0.62674675056E+04  0.65000000000E+04  0.15050000000E+03 0.  1.
     100001    1    1    2    0    0 -0.11888841425E+04 -0.12380449556E+04  0.62674675056E+04  0.65000000000E+04  0.15050000000E+03 0. -1.
</event>
<event>
 4    1  0.4630618E-004  0.6500000E+04  0.7818608E-02  0.7223770E-01
         52   -1    0    0    0    0  0.00000000000E+00  0.00000000000E+00  0.64930732323E+04  0.65000000000E+04  0.30000000000E+03 0. -1.
        -52   -1    0    0    0    0 -0.00000000000E+00 -0.00000000000E+00 -0.64930732323E+04  0.65000000000E+04  0.30000000000E+03 0.  1.
     100001    1    1    2    0    0 -0.62727677271E+03  0.12981647845E+03 -0.64666081745E+04  0.65000000000E+04  0.15050000000E+03 0.  1.
     100001    1    1    2    0    0  0.62727677271E+03 -0.12981647845E+03  0.64666081745E+04  0.65000000000E+04  0.15050000000E+03 0. -1.
</event>
<event>
 4    1  0.4630618E-004  0.6500000E+04  0.7818608E-02  0.7223770E-01
         52   -1    0    0    0    0  0.00000000000E+00  0.00000000000E+00  0.64930732323E+04  0.65000000000E+04  0.30000000000E+03 0. -1.
        -52   -1    0    0    0    0 -0.00000000000E+00 -0.00000000000E+00 -0.64930732323E+04  0.65000000000E+04  0.30000000000E+03 0.  1.
     100001    1    1    2    0    0 -0.28602354522E+04  0.51068529033E+04  0.28224911571E+04  0.65000000000E+04  0.15050000000E+03 0. -1.
     100001    1    1    2    0    0  0.28602354522E+04 -0.51068529033E+04 -0.28224911571E+04  0.65000000000E+04  0.15050000000E+03 0.  1.
</event>
<event>
 4    1  0.4630618E-004  0.6500000E+04  0.7818608E-02  0.7223770E-01
         52   -1    0    0    0    0  0.00000000000E+00  0.00000000000E+00  0.64930732323E+04  0.65000000000E+04  0.30000000000E+03 0. -1.
        -52   -1    0    0    0    0 -0.00000000000E+00 -0.00000000000E+00 -0.64930732323E+04  0.65000000000E+04  0.30000000000E+03 0.  1.
     100001    1    1    2    0    0  0.57829929083E+04 -0.80787819477E+03  0.28516092992E+04  0.65000000000E+04  0.15050000000E+03 0. -1.
     100001    1    1    2    0    0 -0.57829929083E+04  0.80787819477E+03 -0.28516092992E+04  0.65000000000E+04  0.15050000000E+03 0.  1.
</event>
<event>
 4    1  0.4630618E-004  0.6500000E+04  0.7818608E-02  0.7223770E-01
         52   -1    0    0    0    0  0.00000000000E+00  0.00000000000E+00  0.64930732323E+04  0.65000000000E+04  0.30000000000E+03 0. -1.
        -52   -1    0    0    0    0 -0.00000000000E+00 -0.00000000000E+00 -0.64930732323E+04  0.65000000000E+04  0.30000000000E+03 0.  1.
     100001    1    1    2    0    0  0.35214603221E+03 -0.10382162108E+04  0.64051112419E+04  0.65000000000E+04  0.15050000000E+03 0. -1.
     100001    1    1    2    0    0 -0.35214603221E+03  0.10382162108E+04 -0.64051112419E+04  0.65000000000E+04  0.15050000000E+03 0.  1.
</event>
<event>
 4    1  0.4630618E-004  0.6500000E+04  0.7818608E-02  0.7223770E-01
         52   -1    0    0    0    0  0.00000000000E+00  0.00000000000E+00  0.64930732323E+04  0.65000000000E+04  0.30000000000E+03 0.  1.
        -52   -1    0    0    0    0 -0.00000000000E+00 -0.00000000000E+00 -0.64930732323E+04  0.65000000000E+04  0.30000000000E+03 0.  1.
     100001    1    1    2    0    0  0.19735243614E+03  0.32009161540E+02 -0.64951810737E+04  0.65000000000E+04  0.15050000000E+03 0.  1.
     100001    1    1    2    0    0 -0.19735243614E+03 -0.32009161540E+02  0.64951810737E+04  0.65000000000E+04  0.15050000000E+03 0.  1.
</event>
<event>
 4    1  0.4630618E-004  0.6500000E+04  0.7818608E-02  0.7223770E-01
         52   -1    0    0    0    0  0.00000000000E+00  0.00000000000E+00  0.64930732323E+04  0.65000000000E+04  0.30000000000E+03 0.  1.
        -52   -1    0    0    0    0 -0.00000000000E+00 -0.00000000000E+00 -0.64930732323E+04  0.65000000000E+04  0.30000000000E+03 0. -1.
     100001    1    1    2    0    0 -0.51180141305E+03  0.68680771539E+03  0.64415606980E+04  0.65000000000E+04  0.15050000000E+03 0.  1.
     100001    1    1    2    0    0  0.51180141305E+03 -0.68680771539E+03 -0.64415606980E+04  0.65000000000E+04  0.15050000000E+03 0. -1.
</event>
<event>
 4    1  0.4630618E-004  0.6500000E+04  0.7818608E-02  0.7223770E-01
         52   -1    0    0    0    0  0.00000000000E+00  0.00000000000E+00  0.64930732323E+04  0.65000000000E+04  0.30000000000E+03 0. -1.
        -52   -1    0    0    0    0 -0.00000000000E+00 -0.00000000000E+00 -0.64930732323E+04  0.65000000000E+04  0.30000000000E+03 0.  1.
     100001    1    1    2    0    0  0.41303672370E+03 -0.10902673823E+03  0.64842010753E+04  0.65000000000E+04  0.15050000000E+03 0. -1.
     100001    1    1    2    0    0 -0.41303672370E+03  0.10902673823E+03 -0.64842010753E+04  0.65000000000E+04  0.15050000000E+03 0.  1.
</event>
<event>
 4    1  0.4630618E-004  0.6500000E+04  0.7818608E-02  0.7223770E-01
         52   -1    0    0    0    0  0.00000000000E+00  0.00000000000E+00  0.64930732323E+04  0.65000000000E+04  0.30000000000E+03 0. -1.
        -52   -1    0    0    0    0 -0.00000000000E+00 -0.00000000000E+00 -0.64930732323E+04  0.65000000000E+04  0.30000000000E+03 0.  1.
     100001    1    1    2    0    0  0.45483591932E+04  0.70709525132E+03  0.45869155983E+04  0.65000000000E+04  0.15050000000E+03 0. -1.
     100001    1    1    2    0    0 -0.45483591932E+04 -0.70709525132E+03 -0.45869155983E+04  0.65000000000E+04  0.15050000000E+03 0.  1.
</event>
<event>
 4    1  0.4630618E-004  0.6500000E+04  0.7818608E-02  0.7223770E-01
         52   -1    0    0    0    0  0.00000000000E+00  0.00000000000E+00  0.64930732323E+04  0.65000000000E+04  0.30000000000E+03 0. -1.
        -52   -1    0    0    0    0 -0.00000000000E+00 -0.00000000000E+00 -0.64930732323E+04  0.65000000000E+04  0.30000000000E+03 0.  1.
     100001    1    1    2    0    0 -0.13906426469E+04  0.55014627246E+03  0.63238281015E+04  0.65000000000E+04  0.15050000000E+03 0. -1.
     100001    1    1    2    0    0  0.13906426469E+04 -0.55014627246E+03 -0.63238281015E+04  0.65000000000E+04  0.15050000000E+03 0.  1.
</event>
<event>
 4    1  0.4630618E-004  0.6500000E+04  0.7818608E-02  0.7223770E-01
         52   -1    0    0    0    0  0.00000000000E+00  0.00000000000E+00  0.64930732323E+04  0.65000000000E+04  0.30000000000E+03 0. -1.
        -52   -1    0    0    0    0 -0.00000000000E+00 -0.00000000000E+00 -0.64930732323E+04  0.65000000000E+04  0.30000000000E+03 0.  1.
     100001    1    1    2    0    0  0.31665679021E+03  0.18252307346E+03 -0.64879706808E+04  0.65000000000E+04  0.15050000000E+03 0.  1.
     100001    1    1    2    0    0 -0.31665679021E+03 -0.18252307346E+03  0.64879706808E+04  0.65000000000E+04  0.15050000000E+03 0. -1.
</event>
<event>
 4    1  0.4630618E-004  0.6500000E+04  0.7818608E-02  0.7223770E-01
         52   -1    0    0    0    0  0.00000000000E+00  0.00000000000E+00  0.64930732323E+04  0.65000000000E+04  0.30000000000E+03 0. -1.
        -52   -1    0    0    0    0 -0.00000000000E+00 -0.00000000000E+00 -0.64930732323E+04  0.65000000000E+04  0.30000000000E+03 0. -1.
     100001    1    1    2    0    0 -0.16216179772E+03 -0.15609552204E+03  0.64943581276E+04  0.65000000000E+04  0.15050000000E+03 0. -1.
     100001    1    1    2    0    0  0.16216179772E+03  0.15609552204E+03 -0.64943581276E+04  0.65000000000E+04  0.15050000000E+03 0. -1.
</event>
<event>
 4    1  0.4630618E-004  0.6500000E+04  0.7818608E-02  0.7223770E-01
         52   -1    0    0    0    0  0.00000000000E+00  0.00000000000E+00  0.64930732323E+04  0.65000000000E+04  0.30000000000E+03 0. -1.
        -52   -1    0    0    0    0 -0.00000000000E+00 -0.00000000000E+00 -0.64930732323E+04  0.65000000000E+04  0.30000000000E+03 0.  1.
     100001    1    1    2    0    0  0.35409921200E+03 -0.27197200078E+04 -0.58911023227E+04  0.65000000000E+04  0.15050000000E+03 0.  1.
     100001    1    1    2    0    0 -0.35409921200E+03  0.27197200078E+04  0.58911023227E+04  0.65000000000E+04  0.15050000000E+03 0. -1.
</event>
<event>
 4    1  0.4630618E-004  0.6500000E+04  0.7818608E-02  0.7223770E-01
         52   -1    0    0    0    0  0.00000000000E+00  0.00000000000E+00  0.64930732323E+04  0.65000000000E+04  0.30000000000E+03 0. -1.
        -52   -1    0    0    0    0 -0.00000000000E+00 -0.00000000000E+00 -0.64930732323E+04  0.65000000000E+04  0.30000000000E+03 0.  1.
     100001    1    1    2    0    0  0.23274895771E+04  0.87211130363E+03  0.60041289037E+04  0.65000000000E+04  0.15050000000E+03 0. -1.
     100001    1    1    2    0    0 -0.23274895771E+04 -0.87211130363E+03 -0.60041289037E+04  0.65000000000E+04  0.15050000000E+03 0.  1.
</event>
<event>
 4    1  0.4630618E-004  0.6500000E+04  0.7818608E-02  0.7223770E-01
         52   -1    0    0    0    0  0.00000000000E+00  0.00000000000E+00  0.64930732323E+04  0.65000000000E+04  0.30000000000E+03 0.  1.
        -52   -1    0    0    0    0 -0.00000000000E+00 -0.00000000000E+00 -0.64930732323E+04  0.65000000000E+04  0.30000000000E+03 0.  1.
     100001    1    1    2    0    0 -0.13277938492E+03  0.26544245005E+03  0.64914759254E+04  0.65000000000E+04  0.15050000000E+03 0.  1.
     100001    1    1    2    0    0  0.13277938492E+03 -0.26544245005E+03 -0.64914759254E+04  0.65000000000E+04  0.15050000000E+03 0.  1.
</event>
<event>
 4    1  0.4630618E-004  0.6500000E+04  0.7818608E-02  0.7223770E-01
         52   -1    0    0    0    0  0.00000000000E+00  0.00000000000E+00  0.64930732323E+04  0.65000000000E+04  0.30000000000E+03 0.  1.
        -52   -1    0    0    0    0 -0.00000000000E+00 -0.00000000000E+00 -0.64930732323E+04  0.65000000000E+04  0.30000000000E+03 0. -1.
     100001    1    1    2    0    0 -0.31467463631E+04 -0.48092982522E+03  0.56651605078E+04  0.65000000000E+04  0.15050000000E+03 0.  1.
     100001    1    1    2    0    0  0.31467463631E+04  0.48092982522E+03 -0.56651605078E+04  0.65000000000E+04  0.15050000000E+03 0. -1.
</event>
<event>
 4    1  0.4630618E-004  0.6500000E+04  0.7818608E-02  0.7223770E-01
         52   -1    0    0    0    0  0.00000000000E+00  0.00000000000E+00  0.64930732323E+04  0.65000000000E+04  0.30000000000E+03 0. -1.
        -52   -1    0    0    0    0 -0.00000000000E+00 -0.00000000000E+00 -0.64930732323E+04  0.65000000000E+04  0.30000000000E+03 0.  1.
     100001    1    1    2    0    0  0.26596912608E+04  0.16619865079E+03 -0.59266997693E+04  0.65000000000E+04  0.15050000000E+03 0.  1.
     100001    1    1    2    0    0 -0.26596912608E+04 -0.16619865079E+03  0.59266997693E+04  0.65000000000E+04  0.15050000000E+03 0. -1.
</event>
<event>
 4    1  0.4630618E-004  0.6500000E+04  0.7818608E-02  0.7223770E-01
         52   -1    0    0    0    0  0.00000000000E+00  0.00000000000E+00  0.64930732323E+04  0.65000000000E+04  0.30000000000E+03 0. -1.
        -52   -1    0    0    0    0 -0.00000000000E+00 -0.00000000000E+00 -0.64930732323E+04  0.65000000000E+04  0.30000000000E+03 0.  1.
     100001    1    1    2    0    0  0.24958873614E+04  0.55058299482E+02  0.59995720358E+04  0.65000000000E+04  0.15050000000E+03 0. -1.
     100001    1    1    2    0    0 -0.24958873614E+04 -0.55058299482E+02 -0.59995720358E+04  0.65000000000E+04  0.15050000000E+03 0.  1.
</event>
<event>
 4    1  0.4630618E-004  0.6500000E+04  0.7818608E-02  0.7223770E-01
         52   -1    0    0    0    0  0.00000000000E+00  0.00000000000E+00  0.64930732323E+04  0.65000000000E+04  0.30000000000E+03 0. -1.
        -52   -1    0    0    0    0 -0.00000000000E+00 -0.00000000000E+00 -0.64930732323E+04  0.65000000000E+04  0.30000000000E+03 0.  1.
     100001    1    1    2    0    0 -0.17487131521E+03  0.86803535858E+03 -0.64376458733E+04  0.65000000000E+04  0.15050000000E+03 0.  1.
     100001    1    1    2    0    0  0.17487131521E+03 -0.86803535858E+03  0.64376458733E+04  0.65000000000E+04  0.15050000000E+03 0. -1.
</event>
<event>
 4    1  0.4630618E-004  0.6500000E+04  0.7818608E-02  0.7223770E-01
         52   -1    0    0    0    0  0.00000000000E+00  0.00000000000E+00  0.64930732323E+04  0.65000000000E+04  0.30000000000E+03 0. -1.
        -52   -1    0    0    0    0 -0.00000000000E+00 -0.00000000000E+00 -0.64930732323E+04  0.65000000000E+04  0.30000000000E+03 0.  1.
     100001    1    1    2    0    0  0.17938593053E+04 -0.62073297513E+04 -0.69171952516E+03  0.65000000000E+04  0.15050000000E+03 0. -1.
     100001    1    1    2    0    0 -0.17938593053E+04  0.62073297513E+04  0.69171952516E+03  0.65000000000E+04  0.15050000000E+03 0.  1.
</event>
<event>
 4    1  0.4689918E-004  0.6500000E+04  0.7818608E-02  0.7223770E-01
         52   -1    0    0    0    0  0.00000000000E+00  0.00000000000E+00  0.64930732323E+04  0.65000000000E+04  0.30000000000E+03 0.  1.
        -52   -1    0    0    0    0 -0.00000000000E+00 -0.00000000000E+00 -0.64930732323E+04  0.65000000000E+04  0.30000000000E+03 0.  1.
     100001    1    1    2    0    0 -0.20850265963E+03 -0.32837170224E+02 -0.64948285667E+04  0.65000000000E+04  0.15050000000E+03 0.  1.
     100001    1    1    2    0    0  0.20850265963E+03  0.32837170224E+02  0.64948285667E+04  0.65000000000E+04  0.15050000000E+03 0.  1.
</event>
<event>
 4    1  0.4994332E-004  0.6500000E+04  0.7818608E-02  0.7223770E-01
         52   -1    0    0    0    0  0.00000000000E+00  0.00000000000E+00  0.64930732323E+04  0.65000000000E+04  0.30000000000E+03 0. -1.
        -52   -1    0    0    0    0 -0.00000000000E+00 -0.00000000000E+00 -0.64930732323E+04  0.65000000000E+04  0.30000000000E+03 0. -1.
     100001    1    1    2    0    0 -0.12739100994E+03 -0.20463866460E+03  0.64937850517E+04  0.65000000000E+04  0.15050000000E+03 0. -1.
     100001    1    1    2    0    0  0.12739100994E+03  0.20463866460E+03 -0.64937850517E+04  0.65000000000E+04  0.15050000000E+03 0. -1.
</event>
<event>
 4    1  0.4630618E-004  0.6500000E+04  0.7818608E-02  0.7223770E-01
         52   -1    0    0    0    0  0.00000000000E+00  0.00000000000E+00  0.64930732323E+04  0.65000000000E+04  0.30000000000E+03 0.  1.
        -52   -1    0    0    0    0 -0.00000000000E+00 -0.00000000000E+00 -0.64930732323E+04  0.65000000000E+04  0.30000000000E+03 0. -1.
     100001    1    1    2    0    0 -0.79437217996E+03  0.25408313742E+04 -0.59279421824E+04  0.65000000000E+04  0.15050000000E+03 0. -1.
     100001    1    1    2    0    0  0.79437217996E+03 -0.25408313742E+04  0.59279421824E+04  0.65000000000E+04  0.15050000000E+03 0.  1.
</event>
<event>
 4    1  0.4630618E-004  0.6500000E+04  0.7818608E-02  0.7223770E-01
         52   -1    0    0    0    0  0.00000000000E+00  0.00000000000E+00  0.64930732323E+04  0.65000000000E+04  0.30000000000E+03 0. -1.
        -52   -1    0    0    0    0 -0.00000000000E+00 -0.00000000000E+00 -0.64930732323E+04  0.65000000000E+04  0.30000000000E+03 0.  1.
     100001    1    1    2    0    0 -0.11778509658E+04 -0.33041315340E+04  0.54701674251E+04  0.65000000000E+04  0.15050000000E+03 0. -1.
     100001    1    1    2    0    0  0.11778509658E+04  0.33041315340E+04 -0.54701674251E+04  0.65000000000E+04  0.15050000000E+03 0.  1.
</event>
<event>
 4    1  0.4630618E-004  0.6500000E+04  0.7818608E-02  0.7223770E-01
         52   -1    0    0    0    0  0.00000000000E+00  0.00000000000E+00  0.64930732323E+04  0.65000000000E+04  0.30000000000E+03 0.  1.
        -52   -1    0    0    0    0 -0.00000000000E+00 -0.00000000000E+00 -0.64930732323E+04  0.65000000000E+04  0.30000000000E+03 0. -1.
     100001    1    1    2    0    0  0.34681736030E+04  0.20626999744E+04 -0.50935636273E+04  0.65000000000E+04  0.15050000000E+03 0. -1.
     100001    1    1    2    0    0 -0.34681736030E+04 -0.20626999744E+04  0.50935636273E+04  0.65000000000E+04  0.15050000000E+03 0.  1.
</event>
<event>
 4    1  0.4630618E-004  0.6500000E+04  0.7818608E-02  0.7223770E-01
         52   -1    0    0    0    0  0.00000000000E+00  0.00000000000E+00  0.64930732323E+04  0.65000000000E+04  0.30000000000E+03 0.  1.
        -52   -1    0    0    0    0 -0.00000000000E+00 -0.00000000000E+00 -0.64930732323E+04  0.65000000000E+04  0.30000000000E+03 0. -1.
     100001    1    1    2    0    0  0.51601649419E+04  0.24567204438E+04  0.30926642533E+04  0.65000000000E+04  0.15050000000E+03 0.  1.
     100001    1    1    2    0    0 -0.51601649419E+04 -0.24567204438E+04 -0.30926642533E+04  0.65000000000E+04  0.15050000000E+03 0. -1.
</event>
<event>
 4    1  0.4630618E-004  0.6500000E+04  0.7818608E-02  0.7223770E-01
         52   -1    0    0    0    0  0.00000000000E+00  0.00000000000E+00  0.64930732323E+04  0.65000000000E+04  0.30000000000E+03 0. -1.
        -52   -1    0    0    0    0 -0.00000000000E+00 -0.00000000000E+00 -0.64930732323E+04  0.65000000000E+04  0.30000000000E+03 0.  1.
     100001    1    1    2    0    0  0.18674332353E+04 -0.19473840582E+04  0.59116612041E+04  0.65000000000E+04  0.15050000000E+03 0. -1.
     100001    1    1    2    0    0 -0.18674332353E+04  0.19473840582E+04 -0.59116612041E+04  0.65000000000E+04  0.15050000000E+03 0.  1.
</event>
<event>
 4    1  0.4630618E-004  0.6500000E+04  0.7818608E-02  0.7223770E-01
         52   -1    0    0    0    0  0.00000000000E+00  0.00000000000E+00  0.64930732323E+04  0.65000000000E+04  0.30000000000E+03 0. -1.
        -52   -1    0    0    0    0 -0.00000000000E+00 -0.00000000000E+00 -0.64930732323E+04  0.65000000000E+04  0.30000000000E+03 0.  1.
     100001    1    1    2    0    0  0.25027585820E+04  0.38821209696E+03  0.59843830591E+04  0.65000000000E+04  0.15050000000E+03 0. -1.
     100001    1    1    2    0    0 -0.25027585820E+04 -0.38821209696E+03 -0.59843830591E+04  0.65000000000E+04  0.15050000000E+03 0.  1.
</event>
<event>
 4    1  0.4630618E-004  0.6500000E+04  0.7818608E-02  0.7223770E-01
         52   -1    0    0    0    0  0.00000000000E+00  0.00000000000E+00  0.64930732323E+04  0.65000000000E+04  0.30000000000E+03 0. -1.
        -52   -1    0    0    0    0 -0.00000000000E+00 -0.00000000000E+00 -0.64930732323E+04  0.65000000000E+04  0.30000000000E+03 0.  1.
     100001    1    1    2    0    0 -0.32546726425E+04 -0.26103412585E+04  0.49820251158E+04  0.65000000000E+04  0.15050000000E+03 0. -1.
     100001    1    1    2    0    0  0.32546726425E+04  0.26103412585E+04 -0.49820251158E+04  0.65000000000E+04  0.15050000000E+03 0.  1.
</event>
<event>
 4    1  0.4630618E-004  0.6500000E+04  0.7818608E-02  0.7223770E-01
         52   -1    0    0    0    0  0.00000000000E+00  0.00000000000E+00  0.64930732323E+04  0.65000000000E+04  0.30000000000E+03 0.  1.
        -52   -1    0    0    0    0 -0.00000000000E+00 -0.00000000000E+00 -0.64930732323E+04  0.65000000000E+04  0.30000000000E+03 0. -1.
     100001    1    1    2    0    0 -0.46189503461E+03 -0.19944474538E+04 -0.61673480590E+04  0.65000000000E+04  0.15050000000E+03 0. -1.
     100001    1    1    2    0    0  0.46189503461E+03  0.19944474538E+04  0.61673480590E+04  0.65000000000E+04  0.15050000000E+03 0.  1.
</event>
<event>
 4    1  0.4630618E-004  0.6500000E+04  0.7818608E-02  0.7223770E-01
         52   -1    0    0    0    0  0.00000000000E+00  0.00000000000E+00  0.64930732323E+04  0.65000000000E+04  0.30000000000E+03 0.  1.
        -52   -1    0    0    0    0 -0.00000000000E+00 -0.00000000000E+00 -0.64930732323E+04  0.65000000000E+04  0.30000000000E+03 0. -1.
     100001    1    1    2    0    0  0.38567253644E+04  0.42007037986E+04  0.31156230212E+04  0.65000000000E+04  0.15050000000E+03 0.  1.
     100001    1    1    2    0    0 -0.38567253644E+04 -0.42007037986E+04 -0.31156230212E+04  0.65000000000E+04  0.15050000000E+03 0. -1.
</event>
<event>
 4    1  0.4630618E-004  0.6500000E+04  0.7818608E-02  0.7223770E-01
         52   -1    0    0    0    0  0.00000000000E+00  0.00000000000E+00  0.64930732323E+04  0.65000000000E+04  0.30000000000E+03 0.  1.
        -52   -1    0    0    0    0 -0.00000000000E+00 -0.00000000000E+00 -0.64930732323E+04  0.65000000000E+04  0.30000000000E+03 0. -1.
     100001    1    1    2    0    0  0.94064015575E+03  0.23544538652E+02  0.64297738298E+04  0.65000000000E+04  0.15050000000E+03 0.  1.
     100001    1    1    2    0    0 -0.94064015575E+03 -0.23544538652E+02 -0.64297738298E+04  0.65000000000E+04  0.15050000000E+03 0. -1.
</event>
<event>
 4    1  0.4630618E-004  0.6500000E+04  0.7818608E-02  0.7223770E-01
         52   -1    0    0    0    0  0.00000000000E+00  0.00000000000E+00  0.64930732323E+04  0.65000000000E+04  0.30000000000E+03 0.  1.
        -52   -1    0    0    0    0 -0.00000000000E+00 -0.00000000000E+00 -0.64930732323E+04  0.65000000000E+04  0.30000000000E+03 0. -1.
     100001    1    1    2    0    0  0.41669961490E+04  0.28220827418E+04  0.41108809084E+04  0.65000000000E+04  0.15050000000E+03 0.  1.
     100001    1    1    2    0    0 -0.41669961490E+04 -0.28220827418E+04 -0.41108809084E+04  0.65000000000E+04  0.15050000000E+03 0. -1.
</event>
<event>
 4    1  0.7167367E-004  0.6500000E+04  0.7818608E-02  0.7223770E-01
         52   -1    0    0    0    0  0.00000000000E+00  0.00000000000E+00  0.64930732323E+04  0.65000000000E+04  0.30000000000E+03 0.  1.
        -52   -1    0    0    0    0 -0.00000000000E+00 -0.00000000000E+00 -0.64930732323E+04  0.65000000000E+04  0.30000000000E+03 0.  1.
     100001    1    1    2    0    0  0.64602486522E+02  0.50855628490E+02  0.64977372965E+04  0.65000000000E+04  0.15050000000E+03 0.  1.
     100001    1    1    2    0    0 -0.64602486522E+02 -0.50855628490E+02 -0.64977372965E+04  0.65000000000E+04  0.15050000000E+03 0.  1.
</event>
<event>
 4    1  0.4630618E-004  0.6500000E+04  0.7818608E-02  0.7223770E-01
         52   -1    0    0    0    0  0.00000000000E+00  0.00000000000E+00  0.64930732323E+04  0.65000000000E+04  0.30000000000E+03 0.  1.
        -52   -1    0    0    0    0 -0.00000000000E+00 -0.00000000000E+00 -0.64930732323E+04  0.65000000000E+04  0.30000000000E+03 0. -1.
     100001    1    1    2    0    0  0.33391540855E+03  0.30602726954E+03  0.64824530511E+04  0.65000000000E+04  0.15050000000E+03 0.  1.
     100001    1    1    2    0    0 -0.33391540855E+03 -0.30602726954E+03 -0.64824530511E+04  0.65000000000E+04  0.15050000000E+03 0. -1.
</event>
<event>
 4    1  0.4630618E-004  0.6500000E+04  0.7818608E-02  0.7223770E-01
         52   -1    0    0    0    0  0.00000000000E+00  0.00000000000E+00  0.64930732323E+04  0.65000000000E+04  0.30000000000E+03 0. -1.
        -52   -1    0    0    0    0 -0.00000000000E+00 -0.00000000000E+00 -0.64930732323E+04  0.65000000000E+04  0.30000000000E+03 0.  1.
     100001    1    1    2    0    0  0.24787256874E+04 -0.58821525347E+04 -0.12180107863E+04  0.65000000000E+04  0.15050000000E+03 0. -1.
     100001    1    1    2    0    0 -0.24787256874E+04  0.58821525347E+04  0.12180107863E+04  0.65000000000E+04  0.15050000000E+03 0.  1.
</event>
<event>
 4    1  0.4630618E-004  0.6500000E+04  0.7818608E-02  0.7223770E-01
         52   -1    0    0    0    0  0.00000000000E+00  0.00000000000E+00  0.64930732323E+04  0.65000000000E+04  0.30000000000E+03 0.  1.
        -52   -1    0    0    0    0 -0.00000000000E+00 -0.00000000000E+00 -0.64930732323E+04  0.65000000000E+04  0.30000000000E+03 0. -1.
     100001    1    1    2    0    0 -0.11151128426E+04 -0.22490840179E+04 -0.59937879658E+04  0.65000000000E+04  0.15050000000E+03 0. -1.
     100001    1    1    2    0    0  0.11151128426E+04  0.22490840179E+04  0.59937879658E+04  0.65000000000E+04  0.15050000000E+03 0.  1.
</event>
<event>
 4    1  0.4630618E-004  0.6500000E+04  0.7818608E-02  0.7223770E-01
         52   -1    0    0    0    0  0.00000000000E+00  0.00000000000E+00  0.64930732323E+04  0.65000000000E+04  0.30000000000E+03 0. -1.
        -52   -1    0    0    0    0 -0.00000000000E+00 -0.00000000000E+00 -0.64930732323E+04  0.65000000000E+04  0.30000000000E+03 0.  1.
     100001    1    1    2    0    0 -0.47528038560E+04  0.77215439748E+03  0.43637120486E+04  0.65000000000E+04  0.15050000000E+03 0. -1.
     100001    1    1    2    0    0  0.47528038560E+04 -0.77215439748E+03 -0.43637120486E+04  0.65000000000E+04  0.15050000000E+03 0.  1.
</event>
<event>
 4    1  0.4630618E-004  0.6500000E+04  0.7818608E-02  0.7223770E-01
         52   -1    0    0    0    0  0.00000000000E+00  0.00000000000E+00  0.64930732323E+04  0.65000000000E+04  0.30000000000E+03 0. -1.
        -52   -1    0    0    0    0 -0.00000000000E+00 -0.00000000000E+00 -0.64930732323E+04  0.65000000000E+04  0.30000000000E+03 0.  1.
     100001    1    1    2    0    0  0.10702954006E+04  0.90311156521E+03 -0.63455659327E+04  0.65000000000E+04  0.15050000000E+03 0.  1.
     100001    1    1    2    0    0 -0.10702954006E+04 -0.90311156521E+03  0.63455659327E+04  0.65000000000E+04  0.15050000000E+03 0. -1.
</event>
<event>
 4    1  0.4630618E-004  0.6500000E+04  0.7818608E-02  0.7223770E-01
         52   -1    0    0    0    0  0.00000000000E+00  0.00000000000E+00  0.64930732323E+04  0.65000000000E+04  0.30000000000E+03 0.  1.
        -52   -1    0    0    0    0 -0.00000000000E+00 -0.00000000000E+00 -0.64930732323E+04  0.65000000000E+04  0.30000000000E+03 0. -1.
     100001    1    1    2    0    0 -0.29877869685E+03  0.17618934914E+03 -0.64889936318E+04  0.65000000000E+04  0.15050000000E+03 0. -1.
     100001    1    1    2    0    0  0.29877869685E+03 -0.17618934914E+03  0.64889936318E+04  0.65000000000E+04  0.15050000000E+03 0.  1.
</event>
<event>
 4    1  0.4630618E-004  0.6500000E+04  0.7818608E-02  0.7223770E-01
         52   -1    0    0    0    0  0.00000000000E+00  0.00000000000E+00  0.64930732323E+04  0.65000000000E+04  0.30000000000E+03 0.  1.
        -52   -1    0    0    0    0 -0.00000000000E+00 -0.00000000000E+00 -0.64930732323E+04  0.65000000000E+04  0.30000000000E+03 0. -1.
     100001    1    1    2    0    0 -0.47260901958E+03  0.70055230921E+03  0.64430751142E+04  0.65000000000E+04  0.15050000000E+03 0.  1.
     100001    1    1    2    0    0  0.47260901958E+03 -0.70055230921E+03 -0.64430751142E+04  0.65000000000E+04  0.15050000000E+03 0. -1.
</event>
<event>
 4    1  0.4630618E-004  0.6500000E+04  0.7818608E-02  0.7223770E-01
         52   -1    0    0    0    0  0.00000000000E+00  0.00000000000E+00  0.64930732323E+04  0.65000000000E+04  0.30000000000E+03 0.  1.
        -52   -1    0    0    0    0 -0.00000000000E+00 -0.00000000000E+00 -0.64930732323E+04  0.65000000000E+04  0.30000000000E+03 0. -1.
     100001    1    1    2    0    0 -0.32160248055E+03 -0.33480820705E+01 -0.64902935515E+04  0.65000000000E+04  0.15050000000E+03 0. -1.
     100001    1    1    2    0    0  0.32160248055E+03  0.33480820705E+01  0.64902935515E+04  0.65000000000E+04  0.15050000000E+03 0.  1.
</event>
<event>
 4    1  0.4630618E-004  0.6500000E+04  0.7818608E-02  0.7223770E-01
         52   -1    0    0    0    0  0.00000000000E+00  0.00000000000E+00  0.64930732323E+04  0.65000000000E+04  0.30000000000E+03 0. -1.
        -52   -1    0    0    0    0 -0.00000000000E+00 -0.00000000000E+00 -0.64930732323E+04  0.65000000000E+04  0.30000000000E+03 0.  1.
     100001    1    1    2    0    0 -0.26696466646E+03 -0.24670184169E+04 -0.60058221542E+04  0.65000000000E+04  0.15050000000E+03 0.  1.
     100001    1    1    2    0    0  0.26696466646E+03  0.24670184169E+04  0.60058221542E+04  0.65000000000E+04  0.15050000000E+03 0. -1.
</event>
<event>
 4    1  0.4630618E-004  0.6500000E+04  0.7818608E-02  0.7223770E-01
         52   -1    0    0    0    0  0.00000000000E+00  0.00000000000E+00  0.64930732323E+04  0.65000000000E+04  0.30000000000E+03 0.  1.
        -52   -1    0    0    0    0 -0.00000000000E+00 -0.00000000000E+00 -0.64930732323E+04  0.65000000000E+04  0.30000000000E+03 0. -1.
     100001    1    1    2    0    0  0.52108437464E+04 -0.71600440909E+03  0.38159919925E+04  0.65000000000E+04  0.15050000000E+03 0.  1.
     100001    1    1    2    0    0 -0.52108437464E+04  0.71600440909E+03 -0.38159919925E+04  0.65000000000E+04  0.15050000000E+03 0. -1.
</event>
<event>
 4    1  0.4630618E-004  0.6500000E+04  0.7818608E-02  0.7223770E-01
         52   -1    0    0    0    0  0.00000000000E+00  0.00000000000E+00  0.64930732323E+04  0.65000000000E+04  0.30000000000E+03 0. -1.
        -52   -1    0    0    0    0 -0.00000000000E+00 -0.00000000000E+00 -0.64930732323E+04  0.65000000000E+04  0.30000000000E+03 0.  1.
     100001    1    1    2    0    0 -0.14552686217E+04 -0.12113462781E+04 -0.62162837116E+04  0.65000000000E+04  0.15050000000E+03 0.  1.
     100001    1    1    2    0    0  0.14552686217E+04  0.12113462781E+04  0.62162837116E+04  0.65000000000E+04  0.15050000000E+03 0. -1.
</event>
<event>
 4    1  0.4630618E-004  0.6500000E+04  0.7818608E-02  0.7223770E-01
         52   -1    0    0    0    0  0.00000000000E+00  0.00000000000E+00  0.64930732323E+04  0.65000000000E+04  0.30000000000E+03 0.  1.
        -52   -1    0    0    0    0 -0.00000000000E+00 -0.00000000000E+00 -0.64930732323E+04  0.65000000000E+04  0.30000000000E+03 0. -1.
     100001    1    1    2    0    0 -0.25296007453E+04 -0.70969523055E+03 -0.59434672119E+04  0.65000000000E+04  0.15050000000E+03 0. -1.
     100001    1    1    2    0    0  0.25296007453E+04  0.70969523055E+03  0.59434672119E+04  0.65000000000E+04  0.15050000000E+03 0.  1.
</event>
<event>
 4    1  0.6219768E-004  0.6500000E+04  0.7818608E-02  0.7223770E-01
         52   -1    0    0    0    0  0.00000000000E+00  0.00000000000E+00  0.64930732323E+04  0.65000000000E+04  0.30000000000E+03 0. -1.
        -52   -1    0    0    0    0 -0.00000000000E+00 -0.00000000000E+00 -0.64930732323E+04  0.65000000000E+04  0.30000000000E+03 0. -1.
     100001    1    1    2    0    0 -0.58238312276E+02 -0.81749591845E+02 -0.64974822088E+04  0.65000000000E+04  0.15050000000E+03 0. -1.
     100001    1    1    2    0    0  0.58238312276E+02  0.81749591845E+02  0.64974822088E+04  0.65000000000E+04  0.15050000000E+03 0. -1.
</event>
<event>
 4    1  0.4630618E-004  0.6500000E+04  0.7818608E-02  0.7223770E-01
         52   -1    0    0    0    0  0.00000000000E+00  0.00000000000E+00  0.64930732323E+04  0.65000000000E+04  0.30000000000E+03 0.  1.
        -52   -1    0    0    0    0 -0.00000000000E+00 -0.00000000000E+00 -0.64930732323E+04  0.65000000000E+04  0.30000000000E+03 0. -1.
     100001    1    1    2    0    0 -0.16587189982E+04 -0.23810942205E+04 -0.58143263882E+04  0.65000000000E+04  0.15050000000E+03 0. -1.
     100001    1    1    2    0    0  0.16587189982E+04  0.23810942205E+04  0.58143263882E+04  0.65000000000E+04  0.15050000000E+03 0.  1.
</event>
<event>
 4    1  0.4630618E-004  0.6500000E+04  0.7818608E-02  0.7223770E-01
         52   -1    0    0    0    0  0.00000000000E+00  0.00000000000E+00  0.64930732323E+04  0.65000000000E+04  0.30000000000E+03 0.  1.
        -52   -1    0    0    0    0 -0.00000000000E+00 -0.00000000000E+00 -0.64930732323E+04  0.65000000000E+04  0.30000000000E+03 0. -1.
     100001    1    1    2    0    0  0.27939583860E+04  0.69013683090E+03 -0.58262215408E+04  0.65000000000E+04  0.15050000000E+03 0. -1.
     100001    1    1    2    0    0 -0.27939583860E+04 -0.69013683090E+03  0.58262215408E+04  0.65000000000E+04  0.15050000000E+03 0.  1.
</event>
<event>
 4    1  0.4630618E-004  0.6500000E+04  0.7818608E-02  0.7223770E-01
         52   -1    0    0    0    0  0.00000000000E+00  0.00000000000E+00  0.64930732323E+04  0.65000000000E+04  0.30000000000E+03 0.  1.
        -52   -1    0    0    0    0 -0.00000000000E+00 -0.00000000000E+00 -0.64930732323E+04  0.65000000000E+04  0.30000000000E+03 0.  1.
     100001    1    1    2    0    0  0.32698559641E+03  0.95752459871E+02  0.64893190426E+04  0.65000000000E+04  0.15050000000E+03 0.  1.
     100001    1    1    2    0    0 -0.32698559641E+03 -0.95752459871E+02 -0.64893190426E+04  0.65000000000E+04  0.15050000000E+03 0.  1.
</event>
<event>
 4    1  0.4630618E-004  0.6500000E+04  0.7818608E-02  0.7223770E-01
         52   -1    0    0    0    0  0.00000000000E+00  0.00000000000E+00  0.64930732323E+04  0.65000000000E+04  0.30000000000E+03 0. -1.
        -52   -1    0    0    0    0 -0.00000000000E+00 -0.00000000000E+00 -0.64930732323E+04  0.65000000000E+04  0.30000000000E+03 0.  1.
     100001    1    1    2    0    0 -0.66196160798E+03 -0.37541942711E+03  0.64535429675E+04  0.65000000000E+04  0.15050000000E+03 0. -1.
     100001    1    1    2    0    0  0.66196160798E+03  0.37541942711E+03 -0.64535429675E+04  0.65000000000E+04  0.15050000000E+03 0.  1.
</event>
<event>
 4    1  0.4630618E-004  0.6500000E+04  0.7818608E-02  0.7223770E-01
         52   -1    0    0    0    0  0.00000000000E+00  0.00000000000E+00  0.64930732323E+04  0.65000000000E+04  0.30000000000E+03 0. -1.
        -52   -1    0    0    0    0 -0.00000000000E+00 -0.00000000000E+00 -0.64930732323E+04  0.65000000000E+04  0.30000000000E+03 0.  1.
     100001    1    1    2    0    0 -0.54688940102E+03 -0.11618716088E+04 -0.63701111527E+04  0.65000000000E+04  0.15050000000E+03 0.  1.
     100001    1    1    2    0    0  0.54688940102E+03  0.11618716088E+04  0.63701111527E+04  0.65000000000E+04  0.15050000000E+03 0. -1.
</event>
<event>
 4    1  0.4630618E-004  0.6500000E+04  0.7818608E-02  0.7223770E-01
         52   -1    0    0    0    0  0.00000000000E+00  0.00000000000E+00  0.64930732323E+04  0.65000000000E+04  0.30000000000E+03 0.  1.
        -52   -1    0    0    0    0 -0.00000000000E+00 -0.00000000000E+00 -0.64930732323E+04  0.65000000000E+04  0.30000000000E+03 0.  1.
     100001    1    1    2    0    0  0.23983410702E+03 -0.53120855136E+03 -0.64720666580E+04  0.65000000000E+04  0.15050000000E+03 0.  1.
     100001    1    1    2    0    0 -0.23983410702E+03  0.53120855136E+03  0.64720666580E+04  0.65000000000E+04  0.15050000000E+03 0.  1.
</event>
<event>
 4    1  0.4630618E-004  0.6500000E+04  0.7818608E-02  0.7223770E-01
         52   -1    0    0    0    0  0.00000000000E+00  0.00000000000E+00  0.64930732323E+04  0.65000000000E+04  0.30000000000E+03 0. -1.
        -52   -1    0    0    0    0 -0.00000000000E+00 -0.00000000000E+00 -0.64930732323E+04  0.65000000000E+04  0.30000000000E+03 0.  1.
     100001    1    1    2    0    0  0.16637461706E+04 -0.29459148651E+04 -0.55480522742E+04  0.65000000000E+04  0.15050000000E+03 0.  1.
     100001    1    1    2    0    0 -0.16637461706E+04  0.29459148651E+04  0.55480522742E+04  0.65000000000E+04  0.15050000000E+03 0. -1.
</event>
<event>
 4    1  0.4630618E-004  0.6500000E+04  0.7818608E-02  0.7223770E-01
         52   -1    0    0    0    0  0.00000000000E+00  0.00000000000E+00  0.64930732323E+04  0.65000000000E+04  0.30000000000E+03 0. -1.
        -52   -1    0    0    0    0 -0.00000000000E+00 -0.00000000000E+00 -0.64930732323E+04  0.65000000000E+04  0.30000000000E+03 0.  1.
     100001    1    1    2    0    0  0.56930844457E+04 -0.23072424552E+04  0.21196158844E+04  0.65000000000E+04  0.15050000000E+03 0. -1.
     100001    1    1    2    0    0 -0.56930844457E+04  0.23072424552E+04 -0.21196158844E+04  0.65000000000E+04  0.15050000000E+03 0.  1.
</event>
<event>
 4    1  0.4630618E-004  0.6500000E+04  0.7818608E-02  0.7223770E-01
         52   -1    0    0    0    0  0.00000000000E+00  0.00000000000E+00  0.64930732323E+04  0.65000000000E+04  0.30000000000E+03 0. -1.
        -52   -1    0    0    0    0 -0.00000000000E+00 -0.00000000000E+00 -0.64930732323E+04  0.65000000000E+04  0.30000000000E+03 0.  1.
     100001    1    1    2    0    0  0.31208824705E+03 -0.81700859399E+03 -0.64391340748E+04  0.65000000000E+04  0.15050000000E+03 0.  1.
     100001    1    1    2    0    0 -0.31208824705E+03  0.81700859399E+03  0.64391340748E+04  0.65000000000E+04  0.15050000000E+03 0. -1.
</event>
<event>
 4    1  0.4630618E-004  0.6500000E+04  0.7818608E-02  0.7223770E-01
         52   -1    0    0    0    0  0.00000000000E+00  0.00000000000E+00  0.64930732323E+04  0.65000000000E+04  0.30000000000E+03 0.  1.
        -52   -1    0    0    0    0 -0.00000000000E+00 -0.00000000000E+00 -0.64930732323E+04  0.65000000000E+04  0.30000000000E+03 0. -1.
     100001    1    1    2    0    0  0.24322469882E+04  0.93874780324E+03  0.59523337356E+04  0.65000000000E+04  0.15050000000E+03 0.  1.
     100001    1    1    2    0    0 -0.24322469882E+04 -0.93874780324E+03 -0.59523337356E+04  0.65000000000E+04  0.15050000000E+03 0. -1.
</event>
<event>
 4    1  0.4630618E-004  0.6500000E+04  0.7818608E-02  0.7223770E-01
         52   -1    0    0    0    0  0.00000000000E+00  0.00000000000E+00  0.64930732323E+04  0.65000000000E+04  0.30000000000E+03 0.  1.
        -52   -1    0    0    0    0 -0.00000000000E+00 -0.00000000000E+00 -0.64930732323E+04  0.65000000000E+04  0.30000000000E+03 0. -1.
     100001    1    1    2    0    0 -0.13900669366E+04  0.55320390718E+03  0.63236879350E+04  0.65000000000E+04  0.15050000000E+03 0.  1.
     100001    1    1    2    0    0  0.13900669366E+04 -0.55320390718E+03 -0.63236879350E+04  0.65000000000E+04  0.15050000000E+03 0. -1.
</event>
<event>
 4    1  0.4630618E-004  0.6500000E+04  0.7818608E-02  0.7223770E-01
         52   -1    0    0    0    0  0.00000000000E+00  0.00000000000E+00  0.64930732323E+04  0.65000000000E+04  0.30000000000E+03 0.  1.
        -52   -1    0    0    0    0 -0.00000000000E+00 -0.00000000000E+00 -0.64930732323E+04  0.65000000000E+04  0.30000000000E+03 0. -1.
     100001    1    1    2    0    0 -0.92052585028E+03  0.25180669712E+02 -0.64326781237E+04  0.65000000000E+04  0.15050000000E+03 0. -1.
     100001    1    1    2    0    0  0.92052585028E+03 -0.25180669712E+02  0.64326781237E+04  0.65000000000E+04  0.15050000000E+03 0.  1.
</event>
<event>
 4    1  0.4630618E-004  0.6500000E+04  0.7818608E-02  0.7223770E-01
         52   -1    0    0    0    0  0.00000000000E+00  0.00000000000E+00  0.64930732323E+04  0.65000000000E+04  0.30000000000E+03 0.  1.
        -52   -1    0    0    0    0 -0.00000000000E+00 -0.00000000000E+00 -0.64930732323E+04  0.65000000000E+04  0.30000000000E+03 0.  1.
     100001    1    1    2    0    0  0.77879943065E+03 -0.16162295543E+04 -0.62456883708E+04  0.65000000000E+04  0.15050000000E+03 0.  1.
     100001    1    1    2    0    0 -0.77879943065E+03  0.16162295543E+04  0.62456883708E+04  0.65000000000E+04  0.15050000000E+03 0.  1.
</event>
<event>
 4    1  0.4630618E-004  0.6500000E+04  0.7818608E-02  0.7223770E-01
         52   -1    0    0    0    0  0.00000000000E+00  0.00000000000E+00  0.64930732323E+04  0.65000000000E+04  0.30000000000E+03 0.  1.
        -52   -1    0    0    0    0 -0.00000000000E+00 -0.00000000000E+00 -0.64930732323E+04  0.65000000000E+04  0.30000000000E+03 0. -1.
     100001    1    1    2    0    0  0.40028900256E+03  0.18108715360E+04  0.62279902653E+04  0.65000000000E+04  0.15050000000E+03 0.  1.
     100001    1    1    2    0    0 -0.40028900256E+03 -0.18108715360E+04 -0.62279902653E+04  0.65000000000E+04  0.15050000000E+03 0. -1.
</event>
<event>
 4    1  0.4630618E-004  0.6500000E+04  0.7818608E-02  0.7223770E-01
         52   -1    0    0    0    0  0.00000000000E+00  0.00000000000E+00  0.64930732323E+04  0.65000000000E+04  0.30000000000E+03 0. -1.
        -52   -1    0    0    0    0 -0.00000000000E+00 -0.00000000000E+00 -0.64930732323E+04  0.65000000000E+04  0.30000000000E+03 0.  1.
     100001    1    1    2    0    0 -0.50881690820E+03 -0.15896143710E+04 -0.62802532796E+04  0.65000000000E+04  0.15050000000E+03 0.  1.
     100001    1    1    2    0    0  0.50881690820E+03  0.15896143710E+04  0.62802532796E+04  0.65000000000E+04  0.15050000000E+03 0. -1.
</event>
<event>
 4    1  0.4630618E-004  0.6500000E+04  0.7818608E-02  0.7223770E-01
         52   -1    0    0    0    0  0.00000000000E+00  0.00000000000E+00  0.64930732323E+04  0.65000000000E+04  0.30000000000E+03 0. -1.
        -52   -1    0    0    0    0 -0.00000000000E+00 -0.00000000000E+00 -0.64930732323E+04  0.65000000000E+04  0.30000000000E+03 0.  1.
     100001    1    1    2    0    0  0.15393308692E+03  0.54523150074E+04  0.35321261890E+04  0.65000000000E+04  0.15050000000E+03 0. -1.
     100001    1    1    2    0    0 -0.15393308692E+03 -0.54523150074E+04 -0.35321261890E+04  0.65000000000E+04  0.15050000000E+03 0.  1.
</event>
<event>
 4    1  0.4630618E-004  0.6500000E+04  0.7818608E-02  0.7223770E-01
         52   -1    0    0    0    0  0.00000000000E+00  0.00000000000E+00  0.64930732323E+04  0.65000000000E+04  0.30000000000E+03 0.  1.
        -52   -1    0    0    0    0 -0.00000000000E+00 -0.00000000000E+00 -0.64930732323E+04  0.65000000000E+04  0.30000000000E+03 0.  1.
     100001    1    1    2    0    0  0.11548203268E+03 -0.24076782130E+03 -0.64927686318E+04  0.65000000000E+04  0.15050000000E+03 0.  1.
     100001    1    1    2    0    0 -0.11548203268E+03  0.24076782130E+03  0.64927686318E+04  0.65000000000E+04  0.15050000000E+03 0.  1.
</event>
<event>
 4    1  0.6609853E-004  0.6500000E+04  0.7818608E-02  0.7223770E-01
         52   -1    0    0    0    0  0.00000000000E+00  0.00000000000E+00  0.64930732323E+04  0.65000000000E+04  0.30000000000E+03 0. -1.
        -52   -1    0    0    0    0 -0.00000000000E+00 -0.00000000000E+00 -0.64930732323E+04  0.65000000000E+04  0.30000000000E+03 0. -1.
     100001    1    1    2    0    0  0.99792830528E+02  0.75463800521E+02  0.64970528977E+04  0.65000000000E+04  0.15050000000E+03 0. -1.
     100001    1    1    2    0    0 -0.99792830528E+02 -0.75463800521E+02 -0.64970528977E+04  0.65000000000E+04  0.15050000000E+03 0. -1.
</event>
<event>
 4    1  0.4751549E-004  0.6500000E+04  0.7818608E-02  0.7223770E-01
         52   -1    0    0    0    0  0.00000000000E+00  0.00000000000E+00  0.64930732323E+04  0.65000000000E+04  0.30000000000E+03 0.  1.
        -52   -1    0    0    0    0 -0.00000000000E+00 -0.00000000000E+00 -0.64930732323E+04  0.65000000000E+04  0.30000000000E+03 0.  1.
     100001    1    1    2    0    0  0.10339965541E+03 -0.18154691213E+03  0.64948979191E+04  0.65000000000E+04  0.15050000000E+03 0.  1.
     100001    1    1    2    0    0 -0.10339965541E+03  0.18154691213E+03 -0.64948979191E+04  0.65000000000E+04  0.15050000000E+03 0.  1.
</event>
<event>
 4    1  0.4630618E-004  0.6500000E+04  0.7818608E-02  0.7223770E-01
         52   -1    0    0    0    0  0.00000000000E+00  0.00000000000E+00  0.64930732323E+04  0.65000000000E+04  0.30000000000E+03 0. -1.
        -52   -1    0    0    0    0 -0.00000000000E+00 -0.00000000000E+00 -0.64930732323E+04  0.65000000000E+04  0.30000000000E+03 0.  1.
     100001    1    1    2    0    0  0.25584528258E+04  0.33605226633E+04 -0.49384771253E+04  0.65000000000E+04  0.15050000000E+03 0.  1.
     100001    1    1    2    0    0 -0.25584528258E+04 -0.33605226633E+04  0.49384771253E+04  0.65000000000E+04  0.15050000000E+03 0. -1.
</event>
<event>
 4    1  0.4630618E-004  0.6500000E+04  0.7818608E-02  0.7223770E-01
         52   -1    0    0    0    0  0.00000000000E+00  0.00000000000E+00  0.64930732323E+04  0.65000000000E+04  0.30000000000E+03 0.  1.
        -52   -1    0    0    0    0 -0.00000000000E+00 -0.00000000000E+00 -0.64930732323E+04  0.65000000000E+04  0.30000000000E+03 0. -1.
     100001    1    1    2    0    0  0.19269143051E+04  0.33225207504E+04 -0.52416797760E+04  0.65000000000E+04  0.15050000000E+03 0. -1.
     100001    1    1    2    0    0 -0.19269143051E+04 -0.33225207504E+04  0.52416797760E+04  0.65000000000E+04  0.15050000000E+03 0.  1.
</event>
<event>
 4    1  0.4630618E-004  0.6500000E+04  0.7818608E-02  0.7223770E-01
         52   -1    0    0    0    0  0.00000000000E+00  0.00000000000E+00  0.64930732323E+04  0.65000000000E+04  0.30000000000E+03 0.  1.
        -52   -1    0    0    0    0 -0.00000000000E+00 -0.00000000000E+00 -0.64930732323E+04  0.65000000000E+04  0.30000000000E+03 0.  1.
     100001    1    1    2    0    0 -0.51634672037E+02 -0.21529008877E+03  0.64944848747E+04  0.65000000000E+04  0.15050000000E+03 0.  1.
     100001    1    1    2    0    0  0.51634672037E+02  0.21529008877E+03 -0.64944848747E+04  0.65000000000E+04  0.15050000000E+03 0.  1.
</event>
<event>
 4    1  0.4630618E-004  0.6500000E+04  0.7818608E-02  0.7223770E-01
         52   -1    0    0    0    0  0.00000000000E+00  0.00000000000E+00  0.64930732323E+04  0.65000000000E+04  0.30000000000E+03 0.  1.
        -52   -1    0    0    0    0 -0.00000000000E+00 -0.00000000000E+00 -0.64930732323E+04  0.65000000000E+04  0.30000000000E+03 0. -1.
     100001    1    1    2    0    0  0.16616222625E+04  0.20705114269E+04 -0.59312177196E+04  0.65000000000E+04  0.15050000000E+03 0. -1.
     100001    1    1    2    0    0 -0.16616222625E+04 -0.20705114269E+04  0.59312177196E+04  0.65000000000E+04  0.15050000000E+03 0.  1.
</event>
<event>
 4    1  0.4630618E-004  0.6500000E+04  0.7818608E-02  0.7223770E-01
         52   -1    0    0    0    0  0.00000000000E+00  0.00000000000E+00  0.64930732323E+04  0.65000000000E+04  0.30000000000E+03 0. -1.
        -52   -1    0    0    0    0 -0.00000000000E+00 -0.00000000000E+00 -0.64930732323E+04  0.65000000000E+04  0.30000000000E+03 0.  1.
     100001    1    1    2    0    0 -0.92553169642E+03 -0.36844431940E+03  0.64214476259E+04  0.65000000000E+04  0.15050000000E+03 0. -1.
     100001    1    1    2    0    0  0.92553169642E+03  0.36844431940E+03 -0.64214476259E+04  0.65000000000E+04  0.15050000000E+03 0.  1.
</event>
<event>
 4    1  0.4630618E-004  0.6500000E+04  0.7818608E-02  0.7223770E-01
         52   -1    0    0    0    0  0.00000000000E+00  0.00000000000E+00  0.64930732323E+04  0.65000000000E+04  0.30000000000E+03 0.  1.
        -52   -1    0    0    0    0 -0.00000000000E+00 -0.00000000000E+00 -0.64930732323E+04  0.65000000000E+04  0.30000000000E+03 0. -1.
     100001    1    1    2    0    0 -0.57339795600E+03  0.14230339719E+04 -0.63145497740E+04  0.65000000000E+04  0.15050000000E+03 0. -1.
     100001    1    1    2    0    0  0.57339795600E+03 -0.14230339719E+04  0.63145497740E+04  0.65000000000E+04  0.15050000000E+03 0.  1.
</event>
<event>
 4    1  0.4630618E-004  0.6500000E+04  0.7818608E-02  0.7223770E-01
         52   -1    0    0    0    0  0.00000000000E+00  0.00000000000E+00  0.64930732323E+04  0.65000000000E+04  0.30000000000E+03 0. -1.
        -52   -1    0    0    0    0 -0.00000000000E+00 -0.00000000000E+00 -0.64930732323E+04  0.65000000000E+04  0.30000000000E+03 0.  1.
     100001    1    1    2    0    0  0.12915689107E+04  0.37884501777E+03  0.63573324556E+04  0.65000000000E+04  0.15050000000E+03 0. -1.
     100001    1    1    2    0    0 -0.12915689107E+04 -0.37884501777E+03 -0.63573324556E+04  0.65000000000E+04  0.15050000000E+03 0.  1.
</event>
<event>
 4    1  0.4630618E-004  0.6500000E+04  0.7818608E-02  0.7223770E-01
         52   -1    0    0    0    0  0.00000000000E+00  0.00000000000E+00  0.64930732323E+04  0.65000000000E+04  0.30000000000E+03 0.  1.
        -52   -1    0    0    0    0 -0.00000000000E+00 -0.00000000000E+00 -0.64930732323E+04  0.65000000000E+04  0.30000000000E+03 0. -1.
     100001    1    1    2    0    0  0.30827308889E+04 -0.12060652532E+04 -0.55919161851E+04  0.65000000000E+04  0.15050000000E+03 0. -1.
     100001    1    1    2    0    0 -0.30827308889E+04  0.12060652532E+04  0.55919161851E+04  0.65000000000E+04  0.15050000000E+03 0.  1.
</event>
<event>
 4    1  0.4630618E-004  0.6500000E+04  0.7818608E-02  0.7223770E-01
         52   -1    0    0    0    0  0.00000000000E+00  0.00000000000E+00  0.64930732323E+04  0.65000000000E+04  0.30000000000E+03 0. -1.
        -52   -1    0    0    0    0 -0.00000000000E+00 -0.00000000000E+00 -0.64930732323E+04  0.65000000000E+04  0.30000000000E+03 0.  1.
     100001    1    1    2    0    0  0.48335583874E+04 -0.11589313172E+04  0.41858023446E+04  0.65000000000E+04  0.15050000000E+03 0. -1.
     100001    1    1    2    0    0 -0.48335583874E+04  0.11589313172E+04 -0.41858023446E+04  0.65000000000E+04  0.15050000000E+03 0.  1.
</event>
<event>
 4    1  0.4630618E-004  0.6500000E+04  0.7818608E-02  0.7223770E-01
         52   -1    0    0    0    0  0.00000000000E+00  0.00000000000E+00  0.64930732323E+04  0.65000000000E+04  0.30000000000E+03 0. -1.
        -52   -1    0    0    0    0 -0.00000000000E+00 -0.00000000000E+00 -0.64930732323E+04  0.65000000000E+04  0.30000000000E+03 0.  1.
     100001    1    1    2    0    0  0.37950954140E+03  0.22675522130E+03  0.64832017034E+04  0.65000000000E+04  0.15050000000E+03 0. -1.
     100001    1    1    2    0    0 -0.37950954140E+03 -0.22675522130E+03 -0.64832017034E+04  0.65000000000E+04  0.15050000000E+03 0.  1.
</event>
<event>
 4    1  0.4630618E-004  0.6500000E+04  0.7818608E-02  0.7223770E-01
         52   -1    0    0    0    0  0.00000000000E+00  0.00000000000E+00  0.64930732323E+04  0.65000000000E+04  0.30000000000E+03 0. -1.
        -52   -1    0    0    0    0 -0.00000000000E+00 -0.00000000000E+00 -0.64930732323E+04  0.65000000000E+04  0.30000000000E+03 0.  1.
     100001    1    1    2    0    0  0.15371279803E+03  0.79397529829E+03 -0.64477380027E+04  0.65000000000E+04  0.15050000000E+03 0.  1.
     100001    1    1    2    0    0 -0.15371279803E+03 -0.79397529829E+03  0.64477380027E+04  0.65000000000E+04  0.15050000000E+03 0. -1.
</event>
<event>
 4    1  0.4630618E-004  0.6500000E+04  0.7818608E-02  0.7223770E-01
         52   -1    0    0    0    0  0.00000000000E+00  0.00000000000E+00  0.64930732323E+04  0.65000000000E+04  0.30000000000E+03 0.  1.
        -52   -1    0    0    0    0 -0.00000000000E+00 -0.00000000000E+00 -0.64930732323E+04  0.65000000000E+04  0.30000000000E+03 0. -1.
     100001    1    1    2    0    0 -0.23688530267E+03 -0.65884229768E+03  0.64604304756E+04  0.65000000000E+04  0.15050000000E+03 0.  1.
     100001    1    1    2    0    0  0.23688530267E+03  0.65884229768E+03 -0.64604304756E+04  0.65000000000E+04  0.15050000000E+03 0. -1.
</event>
<event>
 4    1  0.4630618E-004  0.6500000E+04  0.7818608E-02  0.7223770E-01
         52   -1    0    0    0    0  0.00000000000E+00  0.00000000000E+00  0.64930732323E+04  0.65000000000E+04  0.30000000000E+03 0. -1.
        -52   -1    0    0    0    0 -0.00000000000E+00 -0.00000000000E+00 -0.64930732323E+04  0.65000000000E+04  0.30000000000E+03 0. -1.
     100001    1    1    2    0    0  0.23796099301E+03 -0.94518500854E+02  0.64932111138E+04  0.65000000000E+04  0.15050000000E+03 0. -1.
     100001    1    1    2    0    0 -0.23796099301E+03  0.94518500854E+02 -0.64932111138E+04  0.65000000000E+04  0.15050000000E+03 0. -1.
</event>
<event>
 4    1  0.4630618E-004  0.6500000E+04  0.7818608E-02  0.7223770E-01
         52   -1    0    0    0    0  0.00000000000E+00  0.00000000000E+00  0.64930732323E+04  0.65000000000E+04  0.30000000000E+03 0.  1.
        -52   -1    0    0    0    0 -0.00000000000E+00 -0.00000000000E+00 -0.64930732323E+04  0.65000000000E+04  0.30000000000E+03 0.  1.
     100001    1    1    2    0    0  0.21688050203E+03 -0.13366817152E+03 -0.64932615393E+04  0.65000000000E+04  0.15050000000E+03 0.  1.
     100001    1    1    2    0    0 -0.21688050203E+03  0.13366817152E+03  0.64932615393E+04  0.65000000000E+04  0.15050000000E+03 0.  1.
</event>
<event>
 4    1  0.4630618E-004  0.6500000E+04  0.7818608E-02  0.7223770E-01
         52   -1    0    0    0    0  0.00000000000E+00  0.00000000000E+00  0.64930732323E+04  0.65000000000E+04  0.30000000000E+03 0.  1.
        -52   -1    0    0    0    0 -0.00000000000E+00 -0.00000000000E+00 -0.64930732323E+04  0.65000000000E+04  0.30000000000E+03 0. -1.
     100001    1    1    2    0    0  0.53656074072E+03  0.30009459213E+03 -0.64691108784E+04  0.65000000000E+04  0.15050000000E+03 0. -1.
     100001    1    1    2    0    0 -0.53656074072E+03 -0.30009459213E+03  0.64691108784E+04  0.65000000000E+04  0.15050000000E+03 0.  1.
</event>
<event>
 4    1  0.4630618E-004  0.6500000E+04  0.7818608E-02  0.7223770E-01
         52   -1    0    0    0    0  0.00000000000E+00  0.00000000000E+00  0.64930732323E+04  0.65000000000E+04  0.30000000000E+03 0. -1.
        -52   -1    0    0    0    0 -0.00000000000E+00 -0.00000000000E+00 -0.64930732323E+04  0.65000000000E+04  0.30000000000E+03 0.  1.
     100001    1    1    2    0    0 -0.24478253194E+03 -0.22805820335E+03 -0.64896394906E+04  0.65000000000E+04  0.15050000000E+03 0.  1.
     100001    1    1    2    0    0  0.24478253194E+03  0.22805820335E+03  0.64896394906E+04  0.65000000000E+04  0.15050000000E+03 0. -1.
</event>
<event>
 4    1  0.4630618E-004  0.6500000E+04  0.7818608E-02  0.7223770E-01
         52   -1    0    0    0    0  0.00000000000E+00  0.00000000000E+00  0.64930732323E+04  0.65000000000E+04  0.30000000000E+03 0.  1.
        -52   -1    0    0    0    0 -0.00000000000E+00 -0.00000000000E+00 -0.64930732323E+04  0.65000000000E+04  0.30000000000E+03 0. -1.
     100001    1    1    2    0    0  0.43202046041E+03 -0.18000175799E+04  0.62290163576E+04  0.65000000000E+04  0.15050000000E+03 0.  1.
     100001    1    1    2    0    0 -0.43202046041E+03  0.18000175799E+04 -0.62290163576E+04  0.65000000000E+04  0.15050000000E+03 0. -1.
</event>
<event>
 4    1  0.4630618E-004  0.6500000E+04  0.7818608E-02  0.7223770E-01
         52   -1    0    0    0    0  0.00000000000E+00  0.00000000000E+00  0.64930732323E+04  0.65000000000E+04  0.30000000000E+03 0.  1.
        -52   -1    0    0    0    0 -0.00000000000E+00 -0.00000000000E+00 -0.64930732323E+04  0.65000000000E+04  0.30000000000E+03 0. -1.
     100001    1    1    2    0    0  0.23692667625E+03 -0.81747450608E+03  0.64422783960E+04  0.65000000000E+04  0.15050000000E+03 0.  1.
     100001    1    1    2    0    0 -0.23692667625E+03  0.81747450608E+03 -0.64422783960E+04  0.65000000000E+04  0.15050000000E+03 0. -1.
</event>
<event>
 4    1  0.4630618E-004  0.6500000E+04  0.7818608E-02  0.7223770E-01
         52   -1    0    0    0    0  0.00000000000E+00  0.00000000000E+00  0.64930732323E+04  0.65000000000E+04  0.30000000000E+03 0. -1.
        -52   -1    0    0    0    0 -0.00000000000E+00 -0.00000000000E+00 -0.64930732323E+04  0.65000000000E+04  0.30000000000E+03 0.  1.
     100001    1    1    2    0    0  0.60133875910E+03 -0.31990391500E+04  0.56242234987E+04  0.65000000000E+04  0.15050000000E+03 0. -1.
     100001    1    1    2    0    0 -0.60133875910E+03  0.31990391500E+04 -0.56242234987E+04  0.65000000000E+04  0.15050000000E+03 0.  1.
</event>
<event>
 4    1  0.4630618E-004  0.6500000E+04  0.7818608E-02  0.7223770E-01
         52   -1    0    0    0    0  0.00000000000E+00  0.00000000000E+00  0.64930732323E+04  0.65000000000E+04  0.30000000000E+03 0. -1.
        -52   -1    0    0    0    0 -0.00000000000E+00 -0.00000000000E+00 -0.64930732323E+04  0.65000000000E+04  0.30000000000E+03 0.  1.
     100001    1    1    2    0    0  0.16604322751E+04 -0.78462440697E+02 -0.62820504658E+04  0.65000000000E+04  0.15050000000E+03 0.  1.
     100001    1    1    2    0    0 -0.16604322751E+04  0.78462440697E+02  0.62820504658E+04  0.65000000000E+04  0.15050000000E+03 0. -1.
</event>
<event>
 4    1  0.4630618E-004  0.6500000E+04  0.7818608E-02  0.7223770E-01
         52   -1    0    0    0    0  0.00000000000E+00  0.00000000000E+00  0.64930732323E+04  0.65000000000E+04  0.30000000000E+03 0.  1.
        -52   -1    0    0    0    0 -0.00000000000E+00 -0.00000000000E+00 -0.64930732323E+04  0.65000000000E+04  0.30000000000E+03 0. -1.
     100001    1    1    2    0    0  0.14843200731E+04  0.14306063844E+04  0.61625894755E+04  0.65000000000E+04  0.15050000000E+03 0.  1.
     100001    1    1    2    0    0 -0.14843200731E+04 -0.14306063844E+04 -0.61625894755E+04  0.65000000000E+04  0.15050000000E+03 0. -1.
</event>
<event>
 4    1  0.4630618E-004  0.6500000E+04  0.7818608E-02  0.7223770E-01
         52   -1    0    0    0    0  0.00000000000E+00  0.00000000000E+00  0.64930732323E+04  0.65000000000E+04  0.30000000000E+03 0. -1.
        -52   -1    0    0    0    0 -0.00000000000E+00 -0.00000000000E+00 -0.64930732323E+04  0.65000000000E+04  0.30000000000E+03 0. -1.
     100001    1    1    2    0    0 -0.25373837621E+03  0.45746340534E+02 -0.64931405236E+04  0.65000000000E+04  0.15050000000E+03 0. -1.
     100001    1    1    2    0    0  0.25373837621E+03 -0.45746340534E+02  0.64931405236E+04  0.65000000000E+04  0.15050000000E+03 0. -1.
</event>
<event>
 4    1  0.4630618E-004  0.6500000E+04  0.7818608E-02  0.7223770E-01
         52   -1    0    0    0    0  0.00000000000E+00  0.00000000000E+00  0.64930732323E+04  0.65000000000E+04  0.30000000000E+03 0. -1.
        -52   -1    0    0    0    0 -0.00000000000E+00 -0.00000000000E+00 -0.64930732323E+04  0.65000000000E+04  0.30000000000E+03 0.  1.
     100001    1    1    2    0    0 -0.20625880181E+04 -0.43515352750E+04  0.43631664154E+04  0.65000000000E+04  0.15050000000E+03 0. -1.
     100001    1    1    2    0    0  0.20625880181E+04  0.43515352750E+04 -0.43631664154E+04  0.65000000000E+04  0.15050000000E+03 0.  1.
</event>
<event>
 4    1  0.4630618E-004  0.6500000E+04  0.7818608E-02  0.7223770E-01
         52   -1    0    0    0    0  0.00000000000E+00  0.00000000000E+00  0.64930732323E+04  0.65000000000E+04  0.30000000000E+03 0.  1.
        -52   -1    0    0    0    0 -0.00000000000E+00 -0.00000000000E+00 -0.64930732323E+04  0.65000000000E+04  0.30000000000E+03 0.  1.
     100001    1    1    2    0    0  0.93244779633E+03  0.20489149518E+03  0.64277453537E+04  0.65000000000E+04  0.15050000000E+03 0.  1.
     100001    1    1    2    0    0 -0.93244779633E+03 -0.20489149518E+03 -0.64277453537E+04  0.65000000000E+04  0.15050000000E+03 0.  1.
</event>
<event>
 4    1  0.4630618E-004  0.6500000E+04  0.7818608E-02  0.7223770E-01
         52   -1    0    0    0    0  0.00000000000E+00  0.00000000000E+00  0.64930732323E+04  0.65000000000E+04  0.30000000000E+03 0. -1.
        -52   -1    0    0    0    0 -0.00000000000E+00 -0.00000000000E+00 -0.64930732323E+04  0.65000000000E+04  0.30000000000E+03 0.  1.
     100001    1    1    2    0    0  0.16571207617E+04  0.93783984253E+03 -0.62130312216E+04  0.65000000000E+04  0.15050000000E+03 0.  1.
     100001    1    1    2    0    0 -0.16571207617E+04 -0.93783984253E+03  0.62130312216E+04  0.65000000000E+04  0.15050000000E+03 0. -1.
</event>
<event>
 4    1  0.4630618E-004  0.6500000E+04  0.7818608E-02  0.7223770E-01
         52   -1    0    0    0    0  0.00000000000E+00  0.00000000000E+00  0.64930732323E+04  0.65000000000E+04  0.30000000000E+03 0.  1.
        -52   -1    0    0    0    0 -0.00000000000E+00 -0.00000000000E+00 -0.64930732323E+04  0.65000000000E+04  0.30000000000E+03 0. -1.
     100001    1    1    2    0    0 -0.88737229091E+03 -0.32089609052E+03  0.64293814529E+04  0.65000000000E+04  0.15050000000E+03 0.  1.
     100001    1    1    2    0    0  0.88737229091E+03  0.32089609052E+03 -0.64293814529E+04  0.65000000000E+04  0.15050000000E+03 0. -1.
</event>
<event>
 4    1  0.4630618E-004  0.6500000E+04  0.7818608E-02  0.7223770E-01
         52   -1    0    0    0    0  0.00000000000E+00  0.00000000000E+00  0.64930732323E+04  0.65000000000E+04  0.30000000000E+03 0.  1.
        -52   -1    0    0    0    0 -0.00000000000E+00 -0.00000000000E+00 -0.64930732323E+04  0.65000000000E+04  0.30000000000E+03 0. -1.
     100001    1    1    2    0    0  0.12307872656E+04  0.54125789817E+03  0.63576373241E+04  0.65000000000E+04  0.15050000000E+03 0.  1.
     100001    1    1    2    0    0 -0.12307872656E+04 -0.54125789817E+03 -0.63576373241E+04  0.65000000000E+04  0.15050000000E+03 0. -1.
</event>
<event>
 4    1  0.4630618E-004  0.6500000E+04  0.7818608E-02  0.7223770E-01
         52   -1    0    0    0    0  0.00000000000E+00  0.00000000000E+00  0.64930732323E+04  0.65000000000E+04  0.30000000000E+03 0.  1.
        -52   -1    0    0    0    0 -0.00000000000E+00 -0.00000000000E+00 -0.64930732323E+04  0.65000000000E+04  0.30000000000E+03 0. -1.
     100001    1    1    2    0    0 -0.48484697786E+04  0.29025457530E+04  0.32085695735E+04  0.65000000000E+04  0.15050000000E+03 0.  1.
     100001    1    1    2    0    0  0.48484697786E+04 -0.29025457530E+04 -0.32085695735E+04  0.65000000000E+04  0.15050000000E+03 0. -1.
</event>
<event>
 4    1  0.4630618E-004  0.6500000E+04  0.7818608E-02  0.7223770E-01
         52   -1    0    0    0    0  0.00000000000E+00  0.00000000000E+00  0.64930732323E+04  0.65000000000E+04  0.30000000000E+03 0.  1.
        -52   -1    0    0    0    0 -0.00000000000E+00 -0.00000000000E+00 -0.64930732323E+04  0.65000000000E+04  0.30000000000E+03 0. -1.
     100001    1    1    2    0    0 -0.77279326190E+03 -0.47728052670E+03  0.64344652943E+04  0.65000000000E+04  0.15050000000E+03 0.  1.
     100001    1    1    2    0    0  0.77279326190E+03  0.47728052670E+03 -0.64344652943E+04  0.65000000000E+04  0.15050000000E+03 0. -1.
</event>
<event>
 4    1  0.4630618E-004  0.6500000E+04  0.7818608E-02  0.7223770E-01
         52   -1    0    0    0    0  0.00000000000E+00  0.00000000000E+00  0.64930732323E+04  0.65000000000E+04  0.30000000000E+03 0. -1.
        -52   -1    0    0    0    0 -0.00000000000E+00 -0.00000000000E+00 -0.64930732323E+04  0.65000000000E+04  0.30000000000E+03 0.  1.
     100001    1    1    2    0    0  0.36843901059E+03 -0.33441239602E+03  0.64791797934E+04  0.65000000000E+04  0.15050000000E+03 0. -1.
     100001    1    1    2    0    0 -0.36843901059E+03  0.33441239602E+03 -0.64791797934E+04  0.65000000000E+04  0.15050000000E+03 0.  1.
</event>
<event>
 4    1  0.4630618E-004  0.6500000E+04  0.7818608E-02  0.7223770E-01
         52   -1    0    0    0    0  0.00000000000E+00  0.00000000000E+00  0.64930732323E+04  0.65000000000E+04  0.30000000000E+03 0. -1.
        -52   -1    0    0    0    0 -0.00000000000E+00 -0.00000000000E+00 -0.64930732323E+04  0.65000000000E+04  0.30000000000E+03 0. -1.
     100001    1    1    2    0    0 -0.16440703189E+03 -0.10755777422E+03  0.64952868607E+04  0.65000000000E+04  0.15050000000E+03 0. -1.
     100001    1    1    2    0    0  0.16440703189E+03  0.10755777422E+03 -0.64952868607E+04  0.65000000000E+04  0.15050000000E+03 0. -1.
</event>
<event>
 4    1  0.4630618E-004  0.6500000E+04  0.7818608E-02  0.7223770E-01
         52   -1    0    0    0    0  0.00000000000E+00  0.00000000000E+00  0.64930732323E+04  0.65000000000E+04  0.30000000000E+03 0. -1.
        -52   -1    0    0    0    0 -0.00000000000E+00 -0.00000000000E+00 -0.64930732323E+04  0.65000000000E+04  0.30000000000E+03 0. -1.
     100001    1    1    2    0    0 -0.15903273617E+03 -0.20535822128E+03 -0.64930644799E+04  0.65000000000E+04  0.15050000000E+03 0. -1.
     100001    1    1    2    0    0  0.15903273617E+03  0.20535822128E+03  0.64930644799E+04  0.65000000000E+04  0.15050000000E+03 0. -1.
</event>
<event>
 4    1  0.4630618E-004  0.6500000E+04  0.7818608E-02  0.7223770E-01
         52   -1    0    0    0    0  0.00000000000E+00  0.00000000000E+00  0.64930732323E+04  0.65000000000E+04  0.30000000000E+03 0.  1.
        -52   -1    0    0    0    0 -0.00000000000E+00 -0.00000000000E+00 -0.64930732323E+04  0.65000000000E+04  0.30000000000E+03 0. -1.
     100001    1    1    2    0    0  0.38345031289E+03 -0.57527746145E+03  0.64613753528E+04  0.65000000000E+04  0.15050000000E+03 0.  1.
     100001    1    1    2    0    0 -0.38345031289E+03  0.57527746145E+03 -0.64613753528E+04  0.65000000000E+04  0.15050000000E+03 0. -1.
</event>
<event>
 4    1  0.4630618E-004  0.6500000E+04  0.7818608E-02  0.7223770E-01
         52   -1    0    0    0    0  0.00000000000E+00  0.00000000000E+00  0.64930732323E+04  0.65000000000E+04  0.30000000000E+03 0.  1.
        -52   -1    0    0    0    0 -0.00000000000E+00 -0.00000000000E+00 -0.64930732323E+04  0.65000000000E+04  0.30000000000E+03 0. -1.
     100001    1    1    2    0    0 -0.19345413491E+03  0.63552419279E+04 -0.13419483171E+04  0.65000000000E+04  0.15050000000E+03 0. -1.
     100001    1    1    2    0    0  0.19345413491E+03 -0.63552419279E+04  0.13419483171E+04  0.65000000000E+04  0.15050000000E+03 0.  1.
</event>
<event>
 4    1  0.4630618E-004  0.6500000E+04  0.7818608E-02  0.7223770E-01
         52   -1    0    0    0    0  0.00000000000E+00  0.00000000000E+00  0.64930732323E+04  0.65000000000E+04  0.30000000000E+03 0. -1.
        -52   -1    0    0    0    0 -0.00000000000E+00 -0.00000000000E+00 -0.64930732323E+04  0.65000000000E+04  0.30000000000E+03 0.  1.
     100001    1    1    2    0    0  0.28933571999E+04 -0.30522266102E+04  0.49537608525E+04  0.65000000000E+04  0.15050000000E+03 0. -1.
     100001    1    1    2    0    0 -0.28933571999E+04  0.30522266102E+04 -0.49537608525E+04  0.65000000000E+04  0.15050000000E+03 0.  1.
</event>
<event>
 4    1  0.4630618E-004  0.6500000E+04  0.7818608E-02  0.7223770E-01
         52   -1    0    0    0    0  0.00000000000E+00  0.00000000000E+00  0.64930732323E+04  0.65000000000E+04  0.30000000000E+03 0. -1.
        -52   -1    0    0    0    0 -0.00000000000E+00 -0.00000000000E+00 -0.64930732323E+04  0.65000000000E+04  0.30000000000E+03 0.  1.
     100001    1    1    2    0    0  0.14668650446E+04 -0.23148262736E+04 -0.58921334009E+04  0.65000000000E+04  0.15050000000E+03 0.  1.
     100001    1    1    2    0    0 -0.14668650446E+04  0.23148262736E+04  0.58921334009E+04  0.65000000000E+04  0.15050000000E+03 0. -1.
</event>
<event>
 4    1  0.4630618E-004  0.6500000E+04  0.7818608E-02  0.7223770E-01
         52   -1    0    0    0    0  0.00000000000E+00  0.00000000000E+00  0.64930732323E+04  0.65000000000E+04  0.30000000000E+03 0.  1.
        -52   -1    0    0    0    0 -0.00000000000E+00 -0.00000000000E+00 -0.64930732323E+04  0.65000000000E+04  0.30000000000E+03 0. -1.
     100001    1    1    2    0    0 -0.59873945240E+03  0.91899397669E+03  0.64050223176E+04  0.65000000000E+04  0.15050000000E+03 0.  1.
     100001    1    1    2    0    0  0.59873945240E+03 -0.91899397669E+03 -0.64050223176E+04  0.65000000000E+04  0.15050000000E+03 0. -1.
</event>
<event>
 4    1  0.4630618E-004  0.6500000E+04  0.7818608E-02  0.7223770E-01
         52   -1    0    0    0    0  0.00000000000E+00  0.00000000000E+00  0.64930732323E+04  0.65000000000E+04  0.30000000000E+03 0.  1.
        -52   -1    0    0    0    0 -0.00000000000E+00 -0.00000000000E+00 -0.64930732323E+04  0.65000000000E+04  0.30000000000E+03 0. -1.
     100001    1    1    2    0    0  0.54566753172E+03 -0.10517995968E+04  0.63893125063E+04  0.65000000000E+04  0.15050000000E+03 0.  1.
     100001    1    1    2    0    0 -0.54566753172E+03  0.10517995968E+04 -0.63893125063E+04  0.65000000000E+04  0.15050000000E+03 0. -1.
</event>
<event>
 4    1  0.4630618E-004  0.6500000E+04  0.7818608E-02  0.7223770E-01
         52   -1    0    0    0    0  0.00000000000E+00  0.00000000000E+00  0.64930732323E+04  0.65000000000E+04  0.30000000000E+03 0.  1.
        -52   -1    0    0    0    0 -0.00000000000E+00 -0.00000000000E+00 -0.64930732323E+04  0.65000000000E+04  0.30000000000E+03 0. -1.
     100001    1    1    2    0    0  0.49722036892E+04  0.41530662172E+04 -0.50653846690E+03  0.65000000000E+04  0.15050000000E+03 0. -1.
     100001    1    1    2    0    0 -0.49722036892E+04 -0.41530662172E+04  0.50653846690E+03  0.65000000000E+04  0.15050000000E+03 0.  1.
</event>
<event>
 4    1  0.4630618E-004  0.6500000E+04  0.7818608E-02  0.7223770E-01
         52   -1    0    0    0    0  0.00000000000E+00  0.00000000000E+00  0.64930732323E+04  0.65000000000E+04  0.30000000000E+03 0.  1.
        -52   -1    0    0    0    0 -0.00000000000E+00 -0.00000000000E+00 -0.64930732323E+04  0.65000000000E+04  0.30000000000E+03 0. -1.
     100001    1    1    2    0    0 -0.23472487580E+04  0.12521328979E+04  0.59287381646E+04  0.65000000000E+04  0.15050000000E+03 0.  1.
     100001    1    1    2    0    0  0.23472487580E+04 -0.12521328979E+04 -0.59287381646E+04  0.65000000000E+04  0.15050000000E+03 0. -1.
</event>
<event>
 4    1  0.4630618E-004  0.6500000E+04  0.7818608E-02  0.7223770E-01
         52   -1    0    0    0    0  0.00000000000E+00  0.00000000000E+00  0.64930732323E+04  0.65000000000E+04  0.30000000000E+03 0. -1.
        -52   -1    0    0    0    0 -0.00000000000E+00 -0.00000000000E+00 -0.64930732323E+04  0.65000000000E+04  0.30000000000E+03 0. -1.
     100001    1    1    2    0    0  0.59612582928E+03  0.48336000046E+02 -0.64706759598E+04  0.65000000000E+04  0.15050000000E+03 0. -1.
     100001    1    1    2    0    0 -0.59612582928E+03 -0.48336000046E+02  0.64706759598E+04  0.65000000000E+04  0.15050000000E+03 0. -1.
</event>
<event>
 4    1  0.4630618E-004  0.6500000E+04  0.7818608E-02  0.7223770E-01
         52   -1    0    0    0    0  0.00000000000E+00  0.00000000000E+00  0.64930732323E+04  0.65000000000E+04  0.30000000000E+03 0.  1.
        -52   -1    0    0    0    0 -0.00000000000E+00 -0.00000000000E+00 -0.64930732323E+04  0.65000000000E+04  0.30000000000E+03 0. -1.
     100001    1    1    2    0    0 -0.12925834374E+04  0.41224214520E+04  0.48540930337E+04  0.65000000000E+04  0.15050000000E+03 0.  1.
     100001    1    1    2    0    0  0.12925834374E+04 -0.41224214520E+04 -0.48540930337E+04  0.65000000000E+04  0.15050000000E+03 0. -1.
</event>
<event>
 4    1  0.4630620E-004  0.6500000E+04  0.7818608E-02  0.7223770E-01
         52   -1    0    0    0    0  0.00000000000E+00  0.00000000000E+00  0.64930732323E+04  0.65000000000E+04  0.30000000000E+03 0. -1.
        -52   -1    0    0    0    0 -0.00000000000E+00 -0.00000000000E+00 -0.64930732323E+04  0.65000000000E+04  0.30000000000E+03 0.  1.
     100001    1    1    2    0    0 -0.12795514093E+03  0.20207883860E+03 -0.64938541233E+04  0.65000000000E+04  0.15050000000E+03 0.  1.
     100001    1    1    2    0    0  0.12795514093E+03 -0.20207883860E+03  0.64938541233E+04  0.65000000000E+04  0.15050000000E+03 0. -1.
</event>
<event>
 4    1  0.4630618E-004  0.6500000E+04  0.7818608E-02  0.7223770E-01
         52   -1    0    0    0    0  0.00000000000E+00  0.00000000000E+00  0.64930732323E+04  0.65000000000E+04  0.30000000000E+03 0.  1.
        -52   -1    0    0    0    0 -0.00000000000E+00 -0.00000000000E+00 -0.64930732323E+04  0.65000000000E+04  0.30000000000E+03 0. -1.
     100001    1    1    2    0    0  0.19667709866E+04  0.16028576843E+04  0.59824751466E+04  0.65000000000E+04  0.15050000000E+03 0.  1.
     100001    1    1    2    0    0 -0.19667709866E+04 -0.16028576843E+04 -0.59824751466E+04  0.65000000000E+04  0.15050000000E+03 0. -1.
</event>
<event>
 4    1  0.4630618E-004  0.6500000E+04  0.7818608E-02  0.7223770E-01
         52   -1    0    0    0    0  0.00000000000E+00  0.00000000000E+00  0.64930732323E+04  0.65000000000E+04  0.30000000000E+03 0. -1.
        -52   -1    0    0    0    0 -0.00000000000E+00 -0.00000000000E+00 -0.64930732323E+04  0.65000000000E+04  0.30000000000E+03 0.  1.
     100001    1    1    2    0    0  0.21000833976E+03 -0.19543216371E+04  0.61938576982E+04  0.65000000000E+04  0.15050000000E+03 0. -1.
     100001    1    1    2    0    0 -0.21000833976E+03  0.19543216371E+04 -0.61938576982E+04  0.65000000000E+04  0.15050000000E+03 0.  1.
</event>
<event>
 4    1  0.4630618E-004  0.6500000E+04  0.7818608E-02  0.7223770E-01
         52   -1    0    0    0    0  0.00000000000E+00  0.00000000000E+00  0.64930732323E+04  0.65000000000E+04  0.30000000000E+03 0.  1.
        -52   -1    0    0    0    0 -0.00000000000E+00 -0.00000000000E+00 -0.64930732323E+04  0.65000000000E+04  0.30000000000E+03 0. -1.
     100001    1    1    2    0    0 -0.20673097939E+04  0.24535388005E+04  0.56509934809E+04  0.65000000000E+04  0.15050000000E+03 0.  1.
     100001    1    1    2    0    0  0.20673097939E+04 -0.24535388005E+04 -0.56509934809E+04  0.65000000000E+04  0.15050000000E+03 0. -1.
</event>
<event>
 4    1  0.4630618E-004  0.6500000E+04  0.7818608E-02  0.7223770E-01
         52   -1    0    0    0    0  0.00000000000E+00  0.00000000000E+00  0.64930732323E+04  0.65000000000E+04  0.30000000000E+03 0.  1.
        -52   -1    0    0    0    0 -0.00000000000E+00 -0.00000000000E+00 -0.64930732323E+04  0.65000000000E+04  0.30000000000E+03 0. -1.
     100001    1    1    2    0    0  0.28032160522E+04  0.35201394138E+04 -0.46880644217E+04  0.65000000000E+04  0.15050000000E+03 0. -1.
     100001    1    1    2    0    0 -0.28032160522E+04 -0.35201394138E+04  0.46880644217E+04  0.65000000000E+04  0.15050000000E+03 0.  1.
</event>
<event>
 4    1  0.4630618E-004  0.6500000E+04  0.7818608E-02  0.7223770E-01
         52   -1    0    0    0    0  0.00000000000E+00  0.00000000000E+00  0.64930732323E+04  0.65000000000E+04  0.30000000000E+03 0. -1.
        -52   -1    0    0    0    0 -0.00000000000E+00 -0.00000000000E+00 -0.64930732323E+04  0.65000000000E+04  0.30000000000E+03 0.  1.
     100001    1    1    2    0    0  0.45260891016E+02 -0.55043792656E+03  0.64747447278E+04  0.65000000000E+04  0.15050000000E+03 0. -1.
     100001    1    1    2    0    0 -0.45260891016E+02  0.55043792656E+03 -0.64747447278E+04  0.65000000000E+04  0.15050000000E+03 0.  1.
</event>
<event>
 4    1  0.4630618E-004  0.6500000E+04  0.7818608E-02  0.7223770E-01
         52   -1    0    0    0    0  0.00000000000E+00  0.00000000000E+00  0.64930732323E+04  0.65000000000E+04  0.30000000000E+03 0. -1.
        -52   -1    0    0    0    0 -0.00000000000E+00 -0.00000000000E+00 -0.64930732323E+04  0.65000000000E+04  0.30000000000E+03 0.  1.
     100001    1    1    2    0    0  0.27233797039E+03  0.41233011184E+03  0.64794417706E+04  0.65000000000E+04  0.15050000000E+03 0. -1.
     100001    1    1    2    0    0 -0.27233797039E+03 -0.41233011184E+03 -0.64794417706E+04  0.65000000000E+04  0.15050000000E+03 0.  1.
</event>
<event>
 4    1  0.4630618E-004  0.6500000E+04  0.7818608E-02  0.7223770E-01
         52   -1    0    0    0    0  0.00000000000E+00  0.00000000000E+00  0.64930732323E+04  0.65000000000E+04  0.30000000000E+03 0.  1.
        -52   -1    0    0    0    0 -0.00000000000E+00 -0.00000000000E+00 -0.64930732323E+04  0.65000000000E+04  0.30000000000E+03 0. -1.
     100001    1    1    2    0    0 -0.12725427374E+04  0.27097298003E+03  0.63666756141E+04  0.65000000000E+04  0.15050000000E+03 0.  1.
     100001    1    1    2    0    0  0.12725427374E+04 -0.27097298003E+03 -0.63666756141E+04  0.65000000000E+04  0.15050000000E+03 0. -1.
</event>
<event>
 4    1  0.4630618E-004  0.6500000E+04  0.7818608E-02  0.7223770E-01
         52   -1    0    0    0    0  0.00000000000E+00  0.00000000000E+00  0.64930732323E+04  0.65000000000E+04  0.30000000000E+03 0.  1.
        -52   -1    0    0    0    0 -0.00000000000E+00 -0.00000000000E+00 -0.64930732323E+04  0.65000000000E+04  0.30000000000E+03 0. -1.
     100001    1    1    2    0    0 -0.26908511936E+03  0.38592442558E+04 -0.52212236806E+04  0.65000000000E+04  0.15050000000E+03 0. -1.
     100001    1    1    2    0    0  0.26908511936E+03 -0.38592442558E+04  0.52212236806E+04  0.65000000000E+04  0.15050000000E+03 0.  1.
</event>
<event>
 4    1  0.4630618E-004  0.6500000E+04  0.7818608E-02  0.7223770E-01
         52   -1    0    0    0    0  0.00000000000E+00  0.00000000000E+00  0.64930732323E+04  0.65000000000E+04  0.30000000000E+03 0.  1.
        -52   -1    0    0    0    0 -0.00000000000E+00 -0.00000000000E+00 -0.64930732323E+04  0.65000000000E+04  0.30000000000E+03 0. -1.
     100001    1    1    2    0    0  0.40690213410E+03  0.11280556523E+04 -0.63866478569E+04  0.65000000000E+04  0.15050000000E+03 0. -1.
     100001    1    1    2    0    0 -0.40690213410E+03 -0.11280556523E+04  0.63866478569E+04  0.65000000000E+04  0.15050000000E+03 0.  1.
</event>
<event>
 4    1  0.5068690E-004  0.6500000E+04  0.7818608E-02  0.7223770E-01
         52   -1    0    0    0    0  0.00000000000E+00  0.00000000000E+00  0.64930732323E+04  0.65000000000E+04  0.30000000000E+03 0.  1.
        -52   -1    0    0    0    0 -0.00000000000E+00 -0.00000000000E+00 -0.64930732323E+04  0.65000000000E+04  0.30000000000E+03 0. -1.
     100001    1    1    2    0    0  0.17279755184E+03 -0.15816281698E+03  0.64940338219E+04  0.65000000000E+04  0.15050000000E+03 0.  1.
     100001    1    1    2    0    0 -0.17279755184E+03  0.15816281698E+03 -0.64940338219E+04  0.65000000000E+04  0.15050000000E+03 0. -1.
</event>
<event>
 4    1  0.4630618E-004  0.6500000E+04  0.7818608E-02  0.7223770E-01
         52   -1    0    0    0    0  0.00000000000E+00  0.00000000000E+00  0.64930732323E+04  0.65000000000E+04  0.30000000000E+03 0. -1.
        -52   -1    0    0    0    0 -0.00000000000E+00 -0.00000000000E+00 -0.64930732323E+04  0.65000000000E+04  0.30000000000E+03 0. -1.
     100001    1    1    2    0    0  0.82328757807E+02  0.14491999266E+03  0.64961196049E+04  0.65000000000E+04  0.15050000000E+03 0. -1.
     100001    1    1    2    0    0 -0.82328757807E+02 -0.14491999266E+03 -0.64961196049E+04  0.65000000000E+04  0.15050000000E+03 0. -1.
</event>
<event>
 4    1  0.4630618E-004  0.6500000E+04  0.7818608E-02  0.7223770E-01
         52   -1    0    0    0    0  0.00000000000E+00  0.00000000000E+00  0.64930732323E+04  0.65000000000E+04  0.30000000000E+03 0. -1.
        -52   -1    0    0    0    0 -0.00000000000E+00 -0.00000000000E+00 -0.64930732323E+04  0.65000000000E+04  0.30000000000E+03 0. -1.
     100001    1    1    2    0    0  0.19110890942E+03 -0.47948146764E+01  0.64954448766E+04  0.65000000000E+04  0.15050000000E+03 0. -1.
     100001    1    1    2    0    0 -0.19110890942E+03  0.47948146764E+01 -0.64954448766E+04  0.65000000000E+04  0.15050000000E+03 0. -1.
</event>
<event>
 4    1  0.6972076E-004  0.6500000E+04  0.7818608E-02  0.7223770E-01
         52   -1    0    0    0    0  0.00000000000E+00  0.00000000000E+00  0.64930732323E+04  0.65000000000E+04  0.30000000000E+03 0. -1.
        -52   -1    0    0    0    0 -0.00000000000E+00 -0.00000000000E+00 -0.64930732323E+04  0.65000000000E+04  0.30000000000E+03 0. -1.
     100001    1    1    2    0    0  0.95206885407E+02  0.20296668430E+02  0.64975282565E+04  0.65000000000E+04  0.15050000000E+03 0. -1.
     100001    1    1    2    0    0 -0.95206885407E+02 -0.20296668430E+02 -0.64975282565E+04  0.65000000000E+04  0.15050000000E+03 0. -1.
</event>
<event>
 4    1  0.4630618E-004  0.6500000E+04  0.7818608E-02  0.7223770E-01
         52   -1    0    0    0    0  0.00000000000E+00  0.00000000000E+00  0.64930732323E+04  0.65000000000E+04  0.30000000000E+03 0. -1.
        -52   -1    0    0    0    0 -0.00000000000E+00 -0.00000000000E+00 -0.64930732323E+04  0.65000000000E+04  0.30000000000E+03 0.  1.
     100001    1    1    2    0    0 -0.17653984270E+04 -0.61202229994E+03 -0.62238369876E+04  0.65000000000E+04  0.15050000000E+03 0.  1.
     100001    1    1    2    0    0  0.17653984270E+04  0.61202229994E+03  0.62238369876E+04  0.65000000000E+04  0.15050000000E+03 0. -1.
</event>
<event>
 4    1  0.5245533E-004  0.6500000E+04  0.7818608E-02  0.7223770E-01
         52   -1    0    0    0    0  0.00000000000E+00  0.00000000000E+00  0.64930732323E+04  0.65000000000E+04  0.30000000000E+03 0. -1.
        -52   -1    0    0    0    0 -0.00000000000E+00 -0.00000000000E+00 -0.64930732323E+04  0.65000000000E+04  0.30000000000E+03 0. -1.
     100001    1    1    2    0    0 -0.93094127952E+02  0.13960395390E+03  0.64960906682E+04  0.65000000000E+04  0.15050000000E+03 0. -1.
     100001    1    1    2    0    0  0.93094127952E+02 -0.13960395390E+03 -0.64960906682E+04  0.65000000000E+04  0.15050000000E+03 0. -1.
</event>
<event>
 4    1  0.4630618E-004  0.6500000E+04  0.7818608E-02  0.7223770E-01
         52   -1    0    0    0    0  0.00000000000E+00  0.00000000000E+00  0.64930732323E+04  0.65000000000E+04  0.30000000000E+03 0. -1.
        -52   -1    0    0    0    0 -0.00000000000E+00 -0.00000000000E+00 -0.64930732323E+04  0.65000000000E+04  0.30000000000E+03 0.  1.
     100001    1    1    2    0    0  0.35468106815E+03  0.34505389603E+04 -0.54950279320E+04  0.65000000000E+04  0.15050000000E+03 0.  1.
     100001    1    1    2    0    0 -0.35468106815E+03 -0.34505389603E+04  0.54950279320E+04  0.65000000000E+04  0.15050000000E+03 0. -1.
</event>
<event>
 4    1  0.4630618E-004  0.6500000E+04  0.7818608E-02  0.7223770E-01
         52   -1    0    0    0    0  0.00000000000E+00  0.00000000000E+00  0.64930732323E+04  0.65000000000E+04  0.30000000000E+03 0. -1.
        -52   -1    0    0    0    0 -0.00000000000E+00 -0.00000000000E+00 -0.64930732323E+04  0.65000000000E+04  0.30000000000E+03 0.  1.
     100001    1    1    2    0    0 -0.21075814028E+04  0.17838291423E+04 -0.58824658071E+04  0.65000000000E+04  0.15050000000E+03 0.  1.
     100001    1    1    2    0    0  0.21075814028E+04 -0.17838291423E+04  0.58824658071E+04  0.65000000000E+04  0.15050000000E+03 0. -1.
</event>
<event>
 4    1  0.4630618E-004  0.6500000E+04  0.7818608E-02  0.7223770E-01
         52   -1    0    0    0    0  0.00000000000E+00  0.00000000000E+00  0.64930732323E+04  0.65000000000E+04  0.30000000000E+03 0.  1.
        -52   -1    0    0    0    0 -0.00000000000E+00 -0.00000000000E+00 -0.64930732323E+04  0.65000000000E+04  0.30000000000E+03 0. -1.
     100001    1    1    2    0    0  0.59616164379E+03  0.56707627277E+03 -0.64459573025E+04  0.65000000000E+04  0.15050000000E+03 0. -1.
     100001    1    1    2    0    0 -0.59616164379E+03 -0.56707627277E+03  0.64459573025E+04  0.65000000000E+04  0.15050000000E+03 0.  1.
</event>
<event>
 4    1  0.4630618E-004  0.6500000E+04  0.7818608E-02  0.7223770E-01
         52   -1    0    0    0    0  0.00000000000E+00  0.00000000000E+00  0.64930732323E+04  0.65000000000E+04  0.30000000000E+03 0.  1.
        -52   -1    0    0    0    0 -0.00000000000E+00 -0.00000000000E+00 -0.64930732323E+04  0.65000000000E+04  0.30000000000E+03 0. -1.
     100001    1    1    2    0    0 -0.62387857124E+03  0.37669011747E+04 -0.52581917822E+04  0.65000000000E+04  0.15050000000E+03 0. -1.
     100001    1    1    2    0    0  0.62387857124E+03 -0.37669011747E+04  0.52581917822E+04  0.65000000000E+04  0.15050000000E+03 0.  1.
</event>
<event>
 4    1  0.4630618E-004  0.6500000E+04  0.7818608E-02  0.7223770E-01
         52   -1    0    0    0    0  0.00000000000E+00  0.00000000000E+00  0.64930732323E+04  0.65000000000E+04  0.30000000000E+03 0. -1.
        -52   -1    0    0    0    0 -0.00000000000E+00 -0.00000000000E+00 -0.64930732323E+04  0.65000000000E+04  0.30000000000E+03 0.  1.
     100001    1    1    2    0    0 -0.47330207178E+03  0.57212857678E+04  0.30447042652E+04  0.65000000000E+04  0.15050000000E+03 0. -1.
     100001    1    1    2    0    0  0.47330207178E+03 -0.57212857678E+04 -0.30447042652E+04  0.65000000000E+04  0.15050000000E+03 0.  1.
</event>
<event>
 4    1  0.4630618E-004  0.6500000E+04  0.7818608E-02  0.7223770E-01
         52   -1    0    0    0    0  0.00000000000E+00  0.00000000000E+00  0.64930732323E+04  0.65000000000E+04  0.30000000000E+03 0. -1.
        -52   -1    0    0    0    0 -0.00000000000E+00 -0.00000000000E+00 -0.64930732323E+04  0.65000000000E+04  0.30000000000E+03 0.  1.
     100001    1    1    2    0    0  0.50597037089E+03  0.92339642424E+02 -0.64778713421E+04  0.65000000000E+04  0.15050000000E+03 0.  1.
     100001    1    1    2    0    0 -0.50597037089E+03 -0.92339642424E+02  0.64778713421E+04  0.65000000000E+04  0.15050000000E+03 0. -1.
</event>
<event>
 4    1  0.4630618E-004  0.6500000E+04  0.7818608E-02  0.7223770E-01
         52   -1    0    0    0    0  0.00000000000E+00  0.00000000000E+00  0.64930732323E+04  0.65000000000E+04  0.30000000000E+03 0. -1.
        -52   -1    0    0    0    0 -0.00000000000E+00 -0.00000000000E+00 -0.64930732323E+04  0.65000000000E+04  0.30000000000E+03 0.  1.
     100001    1    1    2    0    0 -0.14278060163E+04 -0.15352359626E+04 -0.61507536342E+04  0.65000000000E+04  0.15050000000E+03 0.  1.
     100001    1    1    2    0    0  0.14278060163E+04  0.15352359626E+04  0.61507536342E+04  0.65000000000E+04  0.15050000000E+03 0. -1.
</event>
<event>
 4    1  0.4630618E-004  0.6500000E+04  0.7818608E-02  0.7223770E-01
         52   -1    0    0    0    0  0.00000000000E+00  0.00000000000E+00  0.64930732323E+04  0.65000000000E+04  0.30000000000E+03 0. -1.
        -52   -1    0    0    0    0 -0.00000000000E+00 -0.00000000000E+00 -0.64930732323E+04  0.65000000000E+04  0.30000000000E+03 0.  1.
     100001    1    1    2    0    0  0.31147376237E+03 -0.63926375208E+04  0.11245085029E+04  0.65000000000E+04  0.15050000000E+03 0. -1.
     100001    1    1    2    0    0 -0.31147376237E+03  0.63926375208E+04 -0.11245085029E+04  0.65000000000E+04  0.15050000000E+03 0.  1.
</event>
<event>
 4    1  0.4630618E-004  0.6500000E+04  0.7818608E-02  0.7223770E-01
         52   -1    0    0    0    0  0.00000000000E+00  0.00000000000E+00  0.64930732323E+04  0.65000000000E+04  0.30000000000E+03 0. -1.
        -52   -1    0    0    0    0 -0.00000000000E+00 -0.00000000000E+00 -0.64930732323E+04  0.65000000000E+04  0.30000000000E+03 0. -1.
     100001    1    1    2    0    0  0.23629510472E+03  0.41748536634E+03  0.64805262396E+04  0.65000000000E+04  0.15050000000E+03 0. -1.
     100001    1    1    2    0    0 -0.23629510472E+03 -0.41748536634E+03 -0.64805262396E+04  0.65000000000E+04  0.15050000000E+03 0. -1.
</event>
<event>
 4    1  0.4630618E-004  0.6500000E+04  0.7818608E-02  0.7223770E-01
         52   -1    0    0    0    0  0.00000000000E+00  0.00000000000E+00  0.64930732323E+04  0.65000000000E+04  0.30000000000E+03 0. -1.
        -52   -1    0    0    0    0 -0.00000000000E+00 -0.00000000000E+00 -0.64930732323E+04  0.65000000000E+04  0.30000000000E+03 0.  1.
     100001    1    1    2    0    0 -0.26448864775E+03  0.55575233817E+03  0.64690443532E+04  0.65000000000E+04  0.15050000000E+03 0. -1.
     100001    1    1    2    0    0  0.26448864775E+03 -0.55575233817E+03 -0.64690443532E+04  0.65000000000E+04  0.15050000000E+03 0.  1.
</event>
<event>
 4    1  0.4630618E-004  0.6500000E+04  0.7818608E-02  0.7223770E-01
         52   -1    0    0    0    0  0.00000000000E+00  0.00000000000E+00  0.64930732323E+04  0.65000000000E+04  0.30000000000E+03 0. -1.
        -52   -1    0    0    0    0 -0.00000000000E+00 -0.00000000000E+00 -0.64930732323E+04  0.65000000000E+04  0.30000000000E+03 0.  1.
     100001    1    1    2    0    0  0.89906164052E+03  0.64597502784E+03  0.64032612144E+04  0.65000000000E+04  0.15050000000E+03 0. -1.
     100001    1    1    2    0    0 -0.89906164052E+03 -0.64597502784E+03 -0.64032612144E+04  0.65000000000E+04  0.15050000000E+03 0.  1.
</event>
<event>
 4    1  0.4630618E-004  0.6500000E+04  0.7818608E-02  0.7223770E-01
         52   -1    0    0    0    0  0.00000000000E+00  0.00000000000E+00  0.64930732323E+04  0.65000000000E+04  0.30000000000E+03 0. -1.
        -52   -1    0    0    0    0 -0.00000000000E+00 -0.00000000000E+00 -0.64930732323E+04  0.65000000000E+04  0.30000000000E+03 0.  1.
     100001    1    1    2    0    0 -0.16475310973E+04 -0.17452384399E+01  0.62859357289E+04  0.65000000000E+04  0.15050000000E+03 0. -1.
     100001    1    1    2    0    0  0.16475310973E+04  0.17452384399E+01 -0.62859357289E+04  0.65000000000E+04  0.15050000000E+03 0.  1.
</event>
<event>
 4    1  0.4630618E-004  0.6500000E+04  0.7818608E-02  0.7223770E-01
         52   -1    0    0    0    0  0.00000000000E+00  0.00000000000E+00  0.64930732323E+04  0.65000000000E+04  0.30000000000E+03 0. -1.
        -52   -1    0    0    0    0 -0.00000000000E+00 -0.00000000000E+00 -0.64930732323E+04  0.65000000000E+04  0.30000000000E+03 0.  1.
     100001    1    1    2    0    0  0.84581197176E+03 -0.46085462922E+03  0.64264737508E+04  0.65000000000E+04  0.15050000000E+03 0. -1.
     100001    1    1    2    0    0 -0.84581197176E+03  0.46085462922E+03 -0.64264737508E+04  0.65000000000E+04  0.15050000000E+03 0.  1.
</event>
<event>
 4    1  0.4630618E-004  0.6500000E+04  0.7818608E-02  0.7223770E-01
         52   -1    0    0    0    0  0.00000000000E+00  0.00000000000E+00  0.64930732323E+04  0.65000000000E+04  0.30000000000E+03 0.  1.
        -52   -1    0    0    0    0 -0.00000000000E+00 -0.00000000000E+00 -0.64930732323E+04  0.65000000000E+04  0.30000000000E+03 0. -1.
     100001    1    1    2    0    0  0.59831432464E+03 -0.18819560223E+03 -0.64679171403E+04  0.65000000000E+04  0.15050000000E+03 0. -1.
     100001    1    1    2    0    0 -0.59831432464E+03  0.18819560223E+03  0.64679171403E+04  0.65000000000E+04  0.15050000000E+03 0.  1.
</event>
<event>
 4    1  0.4630618E-004  0.6500000E+04  0.7818608E-02  0.7223770E-01
         52   -1    0    0    0    0  0.00000000000E+00  0.00000000000E+00  0.64930732323E+04  0.65000000000E+04  0.30000000000E+03 0.  1.
        -52   -1    0    0    0    0 -0.00000000000E+00 -0.00000000000E+00 -0.64930732323E+04  0.65000000000E+04  0.30000000000E+03 0. -1.
     100001    1    1    2    0    0 -0.50103788095E+04 -0.15907084172E+04 -0.38200917092E+04  0.65000000000E+04  0.15050000000E+03 0. -1.
     100001    1    1    2    0    0  0.50103788095E+04  0.15907084172E+04  0.38200917092E+04  0.65000000000E+04  0.15050000000E+03 0.  1.
</event>
<event>
 4    1  0.4630618E-004  0.6500000E+04  0.7818608E-02  0.7223770E-01
         52   -1    0    0    0    0  0.00000000000E+00  0.00000000000E+00  0.64930732323E+04  0.65000000000E+04  0.30000000000E+03 0.  1.
        -52   -1    0    0    0    0 -0.00000000000E+00 -0.00000000000E+00 -0.64930732323E+04  0.65000000000E+04  0.30000000000E+03 0. -1.
     100001    1    1    2    0    0  0.12632812671E+04 -0.13792162948E+04 -0.62232814979E+04  0.65000000000E+04  0.15050000000E+03 0. -1.
     100001    1    1    2    0    0 -0.12632812671E+04  0.13792162948E+04  0.62232814979E+04  0.65000000000E+04  0.15050000000E+03 0.  1.
</event>
<event>
 4    1  0.4630618E-004  0.6500000E+04  0.7818608E-02  0.7223770E-01
         52   -1    0    0    0    0  0.00000000000E+00  0.00000000000E+00  0.64930732323E+04  0.65000000000E+04  0.30000000000E+03 0. -1.
        -52   -1    0    0    0    0 -0.00000000000E+00 -0.00000000000E+00 -0.64930732323E+04  0.65000000000E+04  0.30000000000E+03 0.  1.
     100001    1    1    2    0    0 -0.14986229143E+04 -0.45772982206E+04  0.43623182037E+04  0.65000000000E+04  0.15050000000E+03 0. -1.
     100001    1    1    2    0    0  0.14986229143E+04  0.45772982206E+04 -0.43623182037E+04  0.65000000000E+04  0.15050000000E+03 0.  1.
</event>
<event>
 4    1  0.4630618E-004  0.6500000E+04  0.7818608E-02  0.7223770E-01
         52   -1    0    0    0    0  0.00000000000E+00  0.00000000000E+00  0.64930732323E+04  0.65000000000E+04  0.30000000000E+03 0. -1.
        -52   -1    0    0    0    0 -0.00000000000E+00 -0.00000000000E+00 -0.64930732323E+04  0.65000000000E+04  0.30000000000E+03 0.  1.
     100001    1    1    2    0    0 -0.42054346792E+04 -0.24398523336E+03 -0.49479430186E+04  0.65000000000E+04  0.15050000000E+03 0.  1.
     100001    1    1    2    0    0  0.42054346792E+04  0.24398523336E+03  0.49479430186E+04  0.65000000000E+04  0.15050000000E+03 0. -1.
</event>
<event>
 4    1  0.4630618E-004  0.6500000E+04  0.7818608E-02  0.7223770E-01
         52   -1    0    0    0    0  0.00000000000E+00  0.00000000000E+00  0.64930732323E+04  0.65000000000E+04  0.30000000000E+03 0.  1.
        -52   -1    0    0    0    0 -0.00000000000E+00 -0.00000000000E+00 -0.64930732323E+04  0.65000000000E+04  0.30000000000E+03 0. -1.
     100001    1    1    2    0    0  0.32786682929E+04 -0.32146860697E+04  0.45982037197E+04  0.65000000000E+04  0.15050000000E+03 0.  1.
     100001    1    1    2    0    0 -0.32786682929E+04  0.32146860697E+04 -0.45982037197E+04  0.65000000000E+04  0.15050000000E+03 0. -1.
</event>
<event>
 4    1  0.4630618E-004  0.6500000E+04  0.7818608E-02  0.7223770E-01
         52   -1    0    0    0    0  0.00000000000E+00  0.00000000000E+00  0.64930732323E+04  0.65000000000E+04  0.30000000000E+03 0. -1.
        -52   -1    0    0    0    0 -0.00000000000E+00 -0.00000000000E+00 -0.64930732323E+04  0.65000000000E+04  0.30000000000E+03 0.  1.
     100001    1    1    2    0    0 -0.35070023983E+04 -0.58425546122E+03 -0.54393868666E+04  0.65000000000E+04  0.15050000000E+03 0.  1.
     100001    1    1    2    0    0  0.35070023983E+04  0.58425546122E+03  0.54393868666E+04  0.65000000000E+04  0.15050000000E+03 0. -1.
</event>
<event>
 4    1  0.4630618E-004  0.6500000E+04  0.7818608E-02  0.7223770E-01
         52   -1    0    0    0    0  0.00000000000E+00  0.00000000000E+00  0.64930732323E+04  0.65000000000E+04  0.30000000000E+03 0.  1.
        -52   -1    0    0    0    0 -0.00000000000E+00 -0.00000000000E+00 -0.64930732323E+04  0.65000000000E+04  0.30000000000E+03 0.  1.
     100001    1    1    2    0    0 -0.29303935779E+03  0.40226173070E+03 -0.64791714891E+04  0.65000000000E+04  0.15050000000E+03 0.  1.
     100001    1    1    2    0    0  0.29303935779E+03 -0.40226173070E+03  0.64791714891E+04  0.65000000000E+04  0.15050000000E+03 0.  1.
</event>
<event>
 4    1  0.4630618E-004  0.6500000E+04  0.7818608E-02  0.7223770E-01
         52   -1    0    0    0    0  0.00000000000E+00  0.00000000000E+00  0.64930732323E+04  0.65000000000E+04  0.30000000000E+03 0.  1.
        -52   -1    0    0    0    0 -0.00000000000E+00 -0.00000000000E+00 -0.64930732323E+04  0.65000000000E+04  0.30000000000E+03 0. -1.
     100001    1    1    2    0    0 -0.18688437861E+04 -0.27993249447E+04 -0.55586466435E+04  0.65000000000E+04  0.15050000000E+03 0. -1.
     100001    1    1    2    0    0  0.18688437861E+04  0.27993249447E+04  0.55586466435E+04  0.65000000000E+04  0.15050000000E+03 0.  1.
</event>
<event>
 4    1  0.4630618E-004  0.6500000E+04  0.7818608E-02  0.7223770E-01
         52   -1    0    0    0    0  0.00000000000E+00  0.00000000000E+00  0.64930732323E+04  0.65000000000E+04  0.30000000000E+03 0.  1.
        -52   -1    0    0    0    0 -0.00000000000E+00 -0.00000000000E+00 -0.64930732323E+04  0.65000000000E+04  0.30000000000E+03 0. -1.
     100001    1    1    2    0    0 -0.32533682221E+03  0.63705143749E+03 -0.64587670006E+04  0.65000000000E+04  0.15050000000E+03 0. -1.
     100001    1    1    2    0    0  0.32533682221E+03 -0.63705143749E+03  0.64587670006E+04  0.65000000000E+04  0.15050000000E+03 0.  1.
</event>
<event>
 4    1  0.4630618E-004  0.6500000E+04  0.7818608E-02  0.7223770E-01
         52   -1    0    0    0    0  0.00000000000E+00  0.00000000000E+00  0.64930732323E+04  0.65000000000E+04  0.30000000000E+03 0. -1.
        -52   -1    0    0    0    0 -0.00000000000E+00 -0.00000000000E+00 -0.64930732323E+04  0.65000000000E+04  0.30000000000E+03 0.  1.
     100001    1    1    2    0    0  0.10924705588E+04 -0.77156548863E+03 -0.63591307995E+04  0.65000000000E+04  0.15050000000E+03 0.  1.
     100001    1    1    2    0    0 -0.10924705588E+04  0.77156548863E+03  0.63591307995E+04  0.65000000000E+04  0.15050000000E+03 0. -1.
</event>
<event>
 4    1  0.4630618E-004  0.6500000E+04  0.7818608E-02  0.7223770E-01
         52   -1    0    0    0    0  0.00000000000E+00  0.00000000000E+00  0.64930732323E+04  0.65000000000E+04  0.30000000000E+03 0.  1.
        -52   -1    0    0    0    0 -0.00000000000E+00 -0.00000000000E+00 -0.64930732323E+04  0.65000000000E+04  0.30000000000E+03 0. -1.
     100001    1    1    2    0    0  0.13294861985E+04  0.13351670411E+03 -0.63594016611E+04  0.65000000000E+04  0.15050000000E+03 0. -1.
     100001    1    1    2    0    0 -0.13294861985E+04 -0.13351670411E+03  0.63594016611E+04  0.65000000000E+04  0.15050000000E+03 0.  1.
</event>
<event>
 4    1  0.4630618E-004  0.6500000E+04  0.7818608E-02  0.7223770E-01
         52   -1    0    0    0    0  0.00000000000E+00  0.00000000000E+00  0.64930732323E+04  0.65000000000E+04  0.30000000000E+03 0. -1.
        -52   -1    0    0    0    0 -0.00000000000E+00 -0.00000000000E+00 -0.64930732323E+04  0.65000000000E+04  0.30000000000E+03 0.  1.
     100001    1    1    2    0    0  0.54114988650E+04  0.24453185163E+04  0.26388344279E+04  0.65000000000E+04  0.15050000000E+03 0. -1.
     100001    1    1    2    0    0 -0.54114988650E+04 -0.24453185163E+04 -0.26388344279E+04  0.65000000000E+04  0.15050000000E+03 0.  1.
</event>
<event>
 4    1  0.4630618E-004  0.6500000E+04  0.7818608E-02  0.7223770E-01
         52   -1    0    0    0    0  0.00000000000E+00  0.00000000000E+00  0.64930732323E+04  0.65000000000E+04  0.30000000000E+03 0.  1.
        -52   -1    0    0    0    0 -0.00000000000E+00 -0.00000000000E+00 -0.64930732323E+04  0.65000000000E+04  0.30000000000E+03 0. -1.
     100001    1    1    2    0    0 -0.21238311319E+04  0.61405642313E+04  0.10080672115E+03  0.65000000000E+04  0.15050000000E+03 0.  1.
     100001    1    1    2    0    0  0.21238311319E+04 -0.61405642313E+04 -0.10080672115E+03  0.65000000000E+04  0.15050000000E+03 0. -1.
</event>
<event>
 4    1  0.4630618E-004  0.6500000E+04  0.7818608E-02  0.7223770E-01
         52   -1    0    0    0    0  0.00000000000E+00  0.00000000000E+00  0.64930732323E+04  0.65000000000E+04  0.30000000000E+03 0. -1.
        -52   -1    0    0    0    0 -0.00000000000E+00 -0.00000000000E+00 -0.64930732323E+04  0.65000000000E+04  0.30000000000E+03 0.  1.
     100001    1    1    2    0    0 -0.30538861967E+04 -0.11991018085E+04  0.56092141785E+04  0.65000000000E+04  0.15050000000E+03 0. -1.
     100001    1    1    2    0    0  0.30538861967E+04  0.11991018085E+04 -0.56092141785E+04  0.65000000000E+04  0.15050000000E+03 0.  1.
</event>
<event>
 4    1  0.4630618E-004  0.6500000E+04  0.7818608E-02  0.7223770E-01
         52   -1    0    0    0    0  0.00000000000E+00  0.00000000000E+00  0.64930732323E+04  0.65000000000E+04  0.30000000000E+03 0.  1.
        -52   -1    0    0    0    0 -0.00000000000E+00 -0.00000000000E+00 -0.64930732323E+04  0.65000000000E+04  0.30000000000E+03 0.  1.
     100001    1    1    2    0    0 -0.12277992497E+03 -0.25926394134E+03  0.64919224463E+04  0.65000000000E+04  0.15050000000E+03 0.  1.
     100001    1    1    2    0    0  0.12277992497E+03  0.25926394134E+03 -0.64919224463E+04  0.65000000000E+04  0.15050000000E+03 0.  1.
</event>
<event>
 4    1  0.4630618E-004  0.6500000E+04  0.7818608E-02  0.7223770E-01
         52   -1    0    0    0    0  0.00000000000E+00  0.00000000000E+00  0.64930732323E+04  0.65000000000E+04  0.30000000000E+03 0. -1.
        -52   -1    0    0    0    0 -0.00000000000E+00 -0.00000000000E+00 -0.64930732323E+04  0.65000000000E+04  0.30000000000E+03 0.  1.
     100001    1    1    2    0    0  0.14033520203E+04 -0.16762842175E+04  0.61194790693E+04  0.65000000000E+04  0.15050000000E+03 0. -1.
     100001    1    1    2    0    0 -0.14033520203E+04  0.16762842175E+04 -0.61194790693E+04  0.65000000000E+04  0.15050000000E+03 0.  1.
</event>
<event>
 4    1  0.4630618E-004  0.6500000E+04  0.7818608E-02  0.7223770E-01
         52   -1    0    0    0    0  0.00000000000E+00  0.00000000000E+00  0.64930732323E+04  0.65000000000E+04  0.30000000000E+03 0.  1.
        -52   -1    0    0    0    0 -0.00000000000E+00 -0.00000000000E+00 -0.64930732323E+04  0.65000000000E+04  0.30000000000E+03 0. -1.
     100001    1    1    2    0    0  0.77790986228E+03  0.64522486232E+03  0.64191814800E+04  0.65000000000E+04  0.15050000000E+03 0.  1.
     100001    1    1    2    0    0 -0.77790986228E+03 -0.64522486232E+03 -0.64191814800E+04  0.65000000000E+04  0.15050000000E+03 0. -1.
</event>
<event>
 4    1  0.4630618E-004  0.6500000E+04  0.7818608E-02  0.7223770E-01
         52   -1    0    0    0    0  0.00000000000E+00  0.00000000000E+00  0.64930732323E+04  0.65000000000E+04  0.30000000000E+03 0. -1.
        -52   -1    0    0    0    0 -0.00000000000E+00 -0.00000000000E+00 -0.64930732323E+04  0.65000000000E+04  0.30000000000E+03 0.  1.
     100001    1    1    2    0    0 -0.13574442170E+04 -0.19066175592E+04  0.60621369525E+04  0.65000000000E+04  0.15050000000E+03 0. -1.
     100001    1    1    2    0    0  0.13574442170E+04  0.19066175592E+04 -0.60621369525E+04  0.65000000000E+04  0.15050000000E+03 0.  1.
</event>
<event>
 4    1  0.4630618E-004  0.6500000E+04  0.7818608E-02  0.7223770E-01
         52   -1    0    0    0    0  0.00000000000E+00  0.00000000000E+00  0.64930732323E+04  0.65000000000E+04  0.30000000000E+03 0. -1.
        -52   -1    0    0    0    0 -0.00000000000E+00 -0.00000000000E+00 -0.64930732323E+04  0.65000000000E+04  0.30000000000E+03 0.  1.
     100001    1    1    2    0    0  0.39111031519E+04  0.17096746164E+04 -0.48997586258E+04  0.65000000000E+04  0.15050000000E+03 0.  1.
     100001    1    1    2    0    0 -0.39111031519E+04 -0.17096746164E+04  0.48997586258E+04  0.65000000000E+04  0.15050000000E+03 0. -1.
</event>
<event>
 4    1  0.4630618E-004  0.6500000E+04  0.7818608E-02  0.7223770E-01
         52   -1    0    0    0    0  0.00000000000E+00  0.00000000000E+00  0.64930732323E+04  0.65000000000E+04  0.30000000000E+03 0. -1.
        -52   -1    0    0    0    0 -0.00000000000E+00 -0.00000000000E+00 -0.64930732323E+04  0.65000000000E+04  0.30000000000E+03 0.  1.
     100001    1    1    2    0    0  0.59422211213E+03 -0.25317921789E+04  0.59551891821E+04  0.65000000000E+04  0.15050000000E+03 0. -1.
     100001    1    1    2    0    0 -0.59422211213E+03  0.25317921789E+04 -0.59551891821E+04  0.65000000000E+04  0.15050000000E+03 0.  1.
</event>
<event>
 4    1  0.4630618E-004  0.6500000E+04  0.7818608E-02  0.7223770E-01
         52   -1    0    0    0    0  0.00000000000E+00  0.00000000000E+00  0.64930732323E+04  0.65000000000E+04  0.30000000000E+03 0.  1.
        -52   -1    0    0    0    0 -0.00000000000E+00 -0.00000000000E+00 -0.64930732323E+04  0.65000000000E+04  0.30000000000E+03 0. -1.
     100001    1    1    2    0    0  0.32965121904E+03 -0.63878255092E+02  0.64895762105E+04  0.65000000000E+04  0.15050000000E+03 0.  1.
     100001    1    1    2    0    0 -0.32965121904E+03  0.63878255092E+02 -0.64895762105E+04  0.65000000000E+04  0.15050000000E+03 0. -1.
</event>
<event>
 4    1  0.4630618E-004  0.6500000E+04  0.7818608E-02  0.7223770E-01
         52   -1    0    0    0    0  0.00000000000E+00  0.00000000000E+00  0.64930732323E+04  0.65000000000E+04  0.30000000000E+03 0. -1.
        -52   -1    0    0    0    0 -0.00000000000E+00 -0.00000000000E+00 -0.64930732323E+04  0.65000000000E+04  0.30000000000E+03 0. -1.
     100001    1    1    2    0    0  0.15442026903E+02 -0.31238403701E+01  0.64982383409E+04  0.65000000000E+04  0.15050000000E+03 0. -1.
     100001    1    1    2    0    0 -0.15442026903E+02  0.31238403701E+01 -0.64982383409E+04  0.65000000000E+04  0.15050000000E+03 0. -1.
</event>
<event>
 4    1  0.4630618E-004  0.6500000E+04  0.7818608E-02  0.7223770E-01
         52   -1    0    0    0    0  0.00000000000E+00  0.00000000000E+00  0.64930732323E+04  0.65000000000E+04  0.30000000000E+03 0. -1.
        -52   -1    0    0    0    0 -0.00000000000E+00 -0.00000000000E+00 -0.64930732323E+04  0.65000000000E+04  0.30000000000E+03 0.  1.
     100001    1    1    2    0    0 -0.52987217284E+03 -0.61727984655E+04 -0.19603939235E+04  0.65000000000E+04  0.15050000000E+03 0.  1.
     100001    1    1    2    0    0  0.52987217284E+03  0.61727984655E+04  0.19603939235E+04  0.65000000000E+04  0.15050000000E+03 0. -1.
</event>
<event>
 4    1  0.4630618E-004  0.6500000E+04  0.7818608E-02  0.7223770E-01
         52   -1    0    0    0    0  0.00000000000E+00  0.00000000000E+00  0.64930732323E+04  0.65000000000E+04  0.30000000000E+03 0.  1.
        -52   -1    0    0    0    0 -0.00000000000E+00 -0.00000000000E+00 -0.64930732323E+04  0.65000000000E+04  0.30000000000E+03 0.  1.
     100001    1    1    2    0    0 -0.10704722146E+03 -0.91948489083E+02 -0.64967250302E+04  0.65000000000E+04  0.15050000000E+03 0.  1.
     100001    1    1    2    0    0  0.10704722146E+03  0.91948489083E+02  0.64967250302E+04  0.65000000000E+04  0.15050000000E+03 0.  1.
</event>
<event>
 4    1  0.4630618E-004  0.6500000E+04  0.7818608E-02  0.7223770E-01
         52   -1    0    0    0    0  0.00000000000E+00  0.00000000000E+00  0.64930732323E+04  0.65000000000E+04  0.30000000000E+03 0.  1.
        -52   -1    0    0    0    0 -0.00000000000E+00 -0.00000000000E+00 -0.64930732323E+04  0.65000000000E+04  0.30000000000E+03 0. -1.
     100001    1    1    2    0    0  0.27032980256E+04  0.36858229473E+04  0.46189001652E+04  0.65000000000E+04  0.15050000000E+03 0.  1.
     100001    1    1    2    0    0 -0.27032980256E+04 -0.36858229473E+04 -0.46189001652E+04  0.65000000000E+04  0.15050000000E+03 0. -1.
</event>
<event>
 4    1  0.4630618E-004  0.6500000E+04  0.7818608E-02  0.7223770E-01
         52   -1    0    0    0    0  0.00000000000E+00  0.00000000000E+00  0.64930732323E+04  0.65000000000E+04  0.30000000000E+03 0.  1.
        -52   -1    0    0    0    0 -0.00000000000E+00 -0.00000000000E+00 -0.64930732323E+04  0.65000000000E+04  0.30000000000E+03 0. -1.
     100001    1    1    2    0    0  0.78978443955E+03 -0.83316962027E+03  0.63960471131E+04  0.65000000000E+04  0.15050000000E+03 0.  1.
     100001    1    1    2    0    0 -0.78978443955E+03  0.83316962027E+03 -0.63960471131E+04  0.65000000000E+04  0.15050000000E+03 0. -1.
</event>
<event>
 4    1  0.4630618E-004  0.6500000E+04  0.7818608E-02  0.7223770E-01
         52   -1    0    0    0    0  0.00000000000E+00  0.00000000000E+00  0.64930732323E+04  0.65000000000E+04  0.30000000000E+03 0.  1.
        -52   -1    0    0    0    0 -0.00000000000E+00 -0.00000000000E+00 -0.64930732323E+04  0.65000000000E+04  0.30000000000E+03 0. -1.
     100001    1    1    2    0    0  0.64082734970E+04 -0.52360622340E+03 -0.94192200327E+03  0.65000000000E+04  0.15050000000E+03 0.  1.
     100001    1    1    2    0    0 -0.64082734970E+04  0.52360622340E+03  0.94192200327E+03  0.65000000000E+04  0.15050000000E+03 0. -1.
</event>
<event>
 4    1  0.6028706E-004  0.6500000E+04  0.7818608E-02  0.7223770E-01
         52   -1    0    0    0    0  0.00000000000E+00  0.00000000000E+00  0.64930732323E+04  0.65000000000E+04  0.30000000000E+03 0.  1.
        -52   -1    0    0    0    0 -0.00000000000E+00 -0.00000000000E+00 -0.64930732323E+04  0.65000000000E+04  0.30000000000E+03 0.  1.
     100001    1    1    2    0    0 -0.91811756796E+00 -0.16149632581E+03 -0.64962502910E+04  0.65000000000E+04  0.15050000000E+03 0.  1.
     100001    1    1    2    0    0  0.91811756796E+00  0.16149632581E+03  0.64962502910E+04  0.65000000000E+04  0.15050000000E+03 0.  1.
</event>
<event>
 4    1  0.4630618E-004  0.6500000E+04  0.7818608E-02  0.7223770E-01
         52   -1    0    0    0    0  0.00000000000E+00  0.00000000000E+00  0.64930732323E+04  0.65000000000E+04  0.30000000000E+03 0. -1.
        -52   -1    0    0    0    0 -0.00000000000E+00 -0.00000000000E+00 -0.64930732323E+04  0.65000000000E+04  0.30000000000E+03 0.  1.
     100001    1    1    2    0    0  0.31749079381E+04 -0.36682832025E+04 -0.43233098062E+04  0.65000000000E+04  0.15050000000E+03 0.  1.
     100001    1    1    2    0    0 -0.31749079381E+04  0.36682832025E+04  0.43233098062E+04  0.65000000000E+04  0.15050000000E+03 0. -1.
</event>
<event>
 4    1  0.4630618E-004  0.6500000E+04  0.7818608E-02  0.7223770E-01
         52   -1    0    0    0    0  0.00000000000E+00  0.00000000000E+00  0.64930732323E+04  0.65000000000E+04  0.30000000000E+03 0. -1.
        -52   -1    0    0    0    0 -0.00000000000E+00 -0.00000000000E+00 -0.64930732323E+04  0.65000000000E+04  0.30000000000E+03 0. -1.
     100001    1    1    2    0    0 -0.91040993796E+02  0.34230650117E+02  0.64975294959E+04  0.65000000000E+04  0.15050000000E+03 0. -1.
     100001    1    1    2    0    0  0.91040993796E+02 -0.34230650117E+02 -0.64975294959E+04  0.65000000000E+04  0.15050000000E+03 0. -1.
</event>
<event>
 4    1  0.4630618E-004  0.6500000E+04  0.7818608E-02  0.7223770E-01
         52   -1    0    0    0    0  0.00000000000E+00  0.00000000000E+00  0.64930732323E+04  0.65000000000E+04  0.30000000000E+03 0. -1.
        -52   -1    0    0    0    0 -0.00000000000E+00 -0.00000000000E+00 -0.64930732323E+04  0.65000000000E+04  0.30000000000E+03 0.  1.
     100001    1    1    2    0    0 -0.74145440516E+02 -0.83347511723E+03  0.64441579305E+04  0.65000000000E+04  0.15050000000E+03 0. -1.
     100001    1    1    2    0    0  0.74145440516E+02  0.83347511723E+03 -0.64441579305E+04  0.65000000000E+04  0.15050000000E+03 0.  1.
</event>
<event>
 4    1  0.4630618E-004  0.6500000E+04  0.7818608E-02  0.7223770E-01
         52   -1    0    0    0    0  0.00000000000E+00  0.00000000000E+00  0.64930732323E+04  0.65000000000E+04  0.30000000000E+03 0. -1.
        -52   -1    0    0    0    0 -0.00000000000E+00 -0.00000000000E+00 -0.64930732323E+04  0.65000000000E+04  0.30000000000E+03 0.  1.
     100001    1    1    2    0    0 -0.30961214487E+04 -0.54546487383E+04 -0.16994672303E+04  0.65000000000E+04  0.15050000000E+03 0.  1.
     100001    1    1    2    0    0  0.30961214487E+04  0.54546487383E+04  0.16994672303E+04  0.65000000000E+04  0.15050000000E+03 0. -1.
</event>
<event>
 4    1  0.4630618E-004  0.6500000E+04  0.7818608E-02  0.7223770E-01
         52   -1    0    0    0    0  0.00000000000E+00  0.00000000000E+00  0.64930732323E+04  0.65000000000E+04  0.30000000000E+03 0. -1.
        -52   -1    0    0    0    0 -0.00000000000E+00 -0.00000000000E+00 -0.64930732323E+04  0.65000000000E+04  0.30000000000E+03 0. -1.
     100001    1    1    2    0    0  0.70145979084E+03  0.67011758406E+02  0.64599391124E+04  0.65000000000E+04  0.15050000000E+03 0. -1.
     100001    1    1    2    0    0 -0.70145979084E+03 -0.67011758406E+02 -0.64599391124E+04  0.65000000000E+04  0.15050000000E+03 0. -1.
</event>
<event>
 4    1  0.4630618E-004  0.6500000E+04  0.7818608E-02  0.7223770E-01
         52   -1    0    0    0    0  0.00000000000E+00  0.00000000000E+00  0.64930732323E+04  0.65000000000E+04  0.30000000000E+03 0.  1.
        -52   -1    0    0    0    0 -0.00000000000E+00 -0.00000000000E+00 -0.64930732323E+04  0.65000000000E+04  0.30000000000E+03 0. -1.
     100001    1    1    2    0    0 -0.29399998399E+04  0.54571149687E+04  0.19502940572E+04  0.65000000000E+04  0.15050000000E+03 0.  1.
     100001    1    1    2    0    0  0.29399998399E+04 -0.54571149687E+04 -0.19502940572E+04  0.65000000000E+04  0.15050000000E+03 0. -1.
</event>
<event>
 4    1  0.4630618E-004  0.6500000E+04  0.7818608E-02  0.7223770E-01
         52   -1    0    0    0    0  0.00000000000E+00  0.00000000000E+00  0.64930732323E+04  0.65000000000E+04  0.30000000000E+03 0. -1.
        -52   -1    0    0    0    0 -0.00000000000E+00 -0.00000000000E+00 -0.64930732323E+04  0.65000000000E+04  0.30000000000E+03 0.  1.
     100001    1    1    2    0    0 -0.19984542355E+03  0.22210611253E+03  0.64913850935E+04  0.65000000000E+04  0.15050000000E+03 0. -1.
     100001    1    1    2    0    0  0.19984542355E+03 -0.22210611253E+03 -0.64913850935E+04  0.65000000000E+04  0.15050000000E+03 0.  1.
</event>
<event>
 4    1  0.6045697E-004  0.6500000E+04  0.7818608E-02  0.7223770E-01
         52   -1    0    0    0    0  0.00000000000E+00  0.00000000000E+00  0.64930732323E+04  0.65000000000E+04  0.30000000000E+03 0.  1.
        -52   -1    0    0    0    0 -0.00000000000E+00 -0.00000000000E+00 -0.64930732323E+04  0.65000000000E+04  0.30000000000E+03 0.  1.
     100001    1    1    2    0    0  0.62931644196E+02 -0.44066981614E+02 -0.64978032795E+04  0.65000000000E+04  0.15050000000E+03 0.  1.
     100001    1    1    2    0    0 -0.62931644196E+02  0.44066981614E+02  0.64978032795E+04  0.65000000000E+04  0.15050000000E+03 0.  1.
</event>
<event>
 4    1  0.4630618E-004  0.6500000E+04  0.7818608E-02  0.7223770E-01
         52   -1    0    0    0    0  0.00000000000E+00  0.00000000000E+00  0.64930732323E+04  0.65000000000E+04  0.30000000000E+03 0.  1.
        -52   -1    0    0    0    0 -0.00000000000E+00 -0.00000000000E+00 -0.64930732323E+04  0.65000000000E+04  0.30000000000E+03 0. -1.
     100001    1    1    2    0    0  0.40367698302E+04 -0.21018435393E+04 -0.46383286671E+04  0.65000000000E+04  0.15050000000E+03 0. -1.
     100001    1    1    2    0    0 -0.40367698302E+04  0.21018435393E+04  0.46383286671E+04  0.65000000000E+04  0.15050000000E+03 0.  1.
</event>
<event>
 4    1  0.4630618E-004  0.6500000E+04  0.7818608E-02  0.7223770E-01
         52   -1    0    0    0    0  0.00000000000E+00  0.00000000000E+00  0.64930732323E+04  0.65000000000E+04  0.30000000000E+03 0.  1.
        -52   -1    0    0    0    0 -0.00000000000E+00 -0.00000000000E+00 -0.64930732323E+04  0.65000000000E+04  0.30000000000E+03 0. -1.
     100001    1    1    2    0    0  0.12909232668E+04 -0.61249218345E+04 -0.17453364693E+04  0.65000000000E+04  0.15050000000E+03 0.  1.
     100001    1    1    2    0    0 -0.12909232668E+04  0.61249218345E+04  0.17453364693E+04  0.65000000000E+04  0.15050000000E+03 0. -1.
</event>
<event>
 4    1  0.4630618E-004  0.6500000E+04  0.7818608E-02  0.7223770E-01
         52   -1    0    0    0    0  0.00000000000E+00  0.00000000000E+00  0.64930732323E+04  0.65000000000E+04  0.30000000000E+03 0.  1.
        -52   -1    0    0    0    0 -0.00000000000E+00 -0.00000000000E+00 -0.64930732323E+04  0.65000000000E+04  0.30000000000E+03 0.  1.
     100001    1    1    2    0    0 -0.24168653469E+03  0.15540644104E+03 -0.64919015864E+04  0.65000000000E+04  0.15050000000E+03 0.  1.
     100001    1    1    2    0    0  0.24168653469E+03 -0.15540644104E+03  0.64919015864E+04  0.65000000000E+04  0.15050000000E+03 0.  1.
</event>
<event>
 4    1  0.4630618E-004  0.6500000E+04  0.7818608E-02  0.7223770E-01
         52   -1    0    0    0    0  0.00000000000E+00  0.00000000000E+00  0.64930732323E+04  0.65000000000E+04  0.30000000000E+03 0.  1.
        -52   -1    0    0    0    0 -0.00000000000E+00 -0.00000000000E+00 -0.64930732323E+04  0.65000000000E+04  0.30000000000E+03 0. -1.
     100001    1    1    2    0    0 -0.51310149019E+04  0.13767306923E+04  0.37422785074E+04  0.65000000000E+04  0.15050000000E+03 0.  1.
     100001    1    1    2    0    0  0.51310149019E+04 -0.13767306923E+04 -0.37422785074E+04  0.65000000000E+04  0.15050000000E+03 0. -1.
</event>
<event>
 4    1  0.4630618E-004  0.6500000E+04  0.7818608E-02  0.7223770E-01
         52   -1    0    0    0    0  0.00000000000E+00  0.00000000000E+00  0.64930732323E+04  0.65000000000E+04  0.30000000000E+03 0. -1.
        -52   -1    0    0    0    0 -0.00000000000E+00 -0.00000000000E+00 -0.64930732323E+04  0.65000000000E+04  0.30000000000E+03 0.  1.
     100001    1    1    2    0    0 -0.99777944602E+03 -0.23121189422E+04  0.59904834466E+04  0.65000000000E+04  0.15050000000E+03 0. -1.
     100001    1    1    2    0    0  0.99777944602E+03  0.23121189422E+04 -0.59904834466E+04  0.65000000000E+04  0.15050000000E+03 0.  1.
</event>
<event>
 4    1  0.4630618E-004  0.6500000E+04  0.7818608E-02  0.7223770E-01
         52   -1    0    0    0    0  0.00000000000E+00  0.00000000000E+00  0.64930732323E+04  0.65000000000E+04  0.30000000000E+03 0. -1.
        -52   -1    0    0    0    0 -0.00000000000E+00 -0.00000000000E+00 -0.64930732323E+04  0.65000000000E+04  0.30000000000E+03 0.  1.
     100001    1    1    2    0    0  0.50996172211E+04  0.10251896082E+04  0.38948992561E+04  0.65000000000E+04  0.15050000000E+03 0. -1.
     100001    1    1    2    0    0 -0.50996172211E+04 -0.10251896082E+04 -0.38948992561E+04  0.65000000000E+04  0.15050000000E+03 0.  1.
</event>
<event>
 4    1  0.4630618E-004  0.6500000E+04  0.7818608E-02  0.7223770E-01
         52   -1    0    0    0    0  0.00000000000E+00  0.00000000000E+00  0.64930732323E+04  0.65000000000E+04  0.30000000000E+03 0.  1.
        -52   -1    0    0    0    0 -0.00000000000E+00 -0.00000000000E+00 -0.64930732323E+04  0.65000000000E+04  0.30000000000E+03 0. -1.
     100001    1    1    2    0    0  0.60508289644E+02 -0.19921686422E+04  0.61850588193E+04  0.65000000000E+04  0.15050000000E+03 0.  1.
     100001    1    1    2    0    0 -0.60508289644E+02  0.19921686422E+04 -0.61850588193E+04  0.65000000000E+04  0.15050000000E+03 0. -1.
</event>
<event>
 4    1  0.4630618E-004  0.6500000E+04  0.7818608E-02  0.7223770E-01
         52   -1    0    0    0    0  0.00000000000E+00  0.00000000000E+00  0.64930732323E+04  0.65000000000E+04  0.30000000000E+03 0. -1.
        -52   -1    0    0    0    0 -0.00000000000E+00 -0.00000000000E+00 -0.64930732323E+04  0.65000000000E+04  0.30000000000E+03 0.  1.
     100001    1    1    2    0    0  0.67649562992E+03  0.18194783602E+04  0.62015483477E+04  0.65000000000E+04  0.15050000000E+03 0. -1.
     100001    1    1    2    0    0 -0.67649562992E+03 -0.18194783602E+04 -0.62015483477E+04  0.65000000000E+04  0.15050000000E+03 0.  1.
</event>
<event>
 4    1  0.4630618E-004  0.6500000E+04  0.7818608E-02  0.7223770E-01
         52   -1    0    0    0    0  0.00000000000E+00  0.00000000000E+00  0.64930732323E+04  0.65000000000E+04  0.30000000000E+03 0.  1.
        -52   -1    0    0    0    0 -0.00000000000E+00 -0.00000000000E+00 -0.64930732323E+04  0.65000000000E+04  0.30000000000E+03 0. -1.
     100001    1    1    2    0    0  0.26881007784E+04 -0.39373140548E+02 -0.59160724904E+04  0.65000000000E+04  0.15050000000E+03 0. -1.
     100001    1    1    2    0    0 -0.26881007784E+04  0.39373140548E+02  0.59160724904E+04  0.65000000000E+04  0.15050000000E+03 0.  1.
</event>
<event>
 4    1  0.4630618E-004  0.6500000E+04  0.7818608E-02  0.7223770E-01
         52   -1    0    0    0    0  0.00000000000E+00  0.00000000000E+00  0.64930732323E+04  0.65000000000E+04  0.30000000000E+03 0.  1.
        -52   -1    0    0    0    0 -0.00000000000E+00 -0.00000000000E+00 -0.64930732323E+04  0.65000000000E+04  0.30000000000E+03 0.  1.
     100001    1    1    2    0    0 -0.11778680608E+04 -0.82641983336E+03 -0.63369556445E+04  0.65000000000E+04  0.15050000000E+03 0.  1.
     100001    1    1    2    0    0  0.11778680608E+04  0.82641983336E+03  0.63369556445E+04  0.65000000000E+04  0.15050000000E+03 0.  1.
</event>
<event>
 4    1  0.4630618E-004  0.6500000E+04  0.7818608E-02  0.7223770E-01
         52   -1    0    0    0    0  0.00000000000E+00  0.00000000000E+00  0.64930732323E+04  0.65000000000E+04  0.30000000000E+03 0.  1.
        -52   -1    0    0    0    0 -0.00000000000E+00 -0.00000000000E+00 -0.64930732323E+04  0.65000000000E+04  0.30000000000E+03 0. -1.
     100001    1    1    2    0    0 -0.21897407871E+04  0.51174881718E+04 -0.33531626634E+04  0.65000000000E+04  0.15050000000E+03 0. -1.
     100001    1    1    2    0    0  0.21897407871E+04 -0.51174881718E+04  0.33531626634E+04  0.65000000000E+04  0.15050000000E+03 0.  1.
</event>
<event>
 4    1  0.4630618E-004  0.6500000E+04  0.7818608E-02  0.7223770E-01
         52   -1    0    0    0    0  0.00000000000E+00  0.00000000000E+00  0.64930732323E+04  0.65000000000E+04  0.30000000000E+03 0. -1.
        -52   -1    0    0    0    0 -0.00000000000E+00 -0.00000000000E+00 -0.64930732323E+04  0.65000000000E+04  0.30000000000E+03 0.  1.
     100001    1    1    2    0    0  0.40633305412E+03 -0.11627591556E+04 -0.63804572207E+04  0.65000000000E+04  0.15050000000E+03 0.  1.
     100001    1    1    2    0    0 -0.40633305412E+03  0.11627591556E+04  0.63804572207E+04  0.65000000000E+04  0.15050000000E+03 0. -1.
</event>
<event>
 4    1  0.4630618E-004  0.6500000E+04  0.7818608E-02  0.7223770E-01
         52   -1    0    0    0    0  0.00000000000E+00  0.00000000000E+00  0.64930732323E+04  0.65000000000E+04  0.30000000000E+03 0.  1.
        -52   -1    0    0    0    0 -0.00000000000E+00 -0.00000000000E+00 -0.64930732323E+04  0.65000000000E+04  0.30000000000E+03 0. -1.
     100001    1    1    2    0    0 -0.31244169878E+03  0.36157691050E+04  0.53903565480E+04  0.65000000000E+04  0.15050000000E+03 0.  1.
     100001    1    1    2    0    0  0.31244169878E+03 -0.36157691050E+04 -0.53903565480E+04  0.65000000000E+04  0.15050000000E+03 0. -1.
</event>
<event>
 4    1  0.4630618E-004  0.6500000E+04  0.7818608E-02  0.7223770E-01
         52   -1    0    0    0    0  0.00000000000E+00  0.00000000000E+00  0.64930732323E+04  0.65000000000E+04  0.30000000000E+03 0.  1.
        -52   -1    0    0    0    0 -0.00000000000E+00 -0.00000000000E+00 -0.64930732323E+04  0.65000000000E+04  0.30000000000E+03 0. -1.
     100001    1    1    2    0    0  0.20572114436E+03  0.86085618473E+03  0.64376979729E+04  0.65000000000E+04  0.15050000000E+03 0.  1.
     100001    1    1    2    0    0 -0.20572114436E+03 -0.86085618473E+03 -0.64376979729E+04  0.65000000000E+04  0.15050000000E+03 0. -1.
</event>
<event>
 4    1  0.4630618E-004  0.6500000E+04  0.7818608E-02  0.7223770E-01
         52   -1    0    0    0    0  0.00000000000E+00  0.00000000000E+00  0.64930732323E+04  0.65000000000E+04  0.30000000000E+03 0. -1.
        -52   -1    0    0    0    0 -0.00000000000E+00 -0.00000000000E+00 -0.64930732323E+04  0.65000000000E+04  0.30000000000E+03 0.  1.
     100001    1    1    2    0    0 -0.24268342183E+04 -0.49419901481E+03  0.60077943341E+04  0.65000000000E+04  0.15050000000E+03 0. -1.
     100001    1    1    2    0    0  0.24268342183E+04  0.49419901481E+03 -0.60077943341E+04  0.65000000000E+04  0.15050000000E+03 0.  1.
</event>
<event>
 4    1  0.4630618E-004  0.6500000E+04  0.7818608E-02  0.7223770E-01
         52   -1    0    0    0    0  0.00000000000E+00  0.00000000000E+00  0.64930732323E+04  0.65000000000E+04  0.30000000000E+03 0. -1.
        -52   -1    0    0    0    0 -0.00000000000E+00 -0.00000000000E+00 -0.64930732323E+04  0.65000000000E+04  0.30000000000E+03 0.  1.
     100001    1    1    2    0    0 -0.53050873925E+03 -0.54243540956E+04 -0.35386851898E+04  0.65000000000E+04  0.15050000000E+03 0.  1.
     100001    1    1    2    0    0  0.53050873925E+03  0.54243540956E+04  0.35386851898E+04  0.65000000000E+04  0.15050000000E+03 0. -1.
</event>
<event>
 4    1  0.4630618E-004  0.6500000E+04  0.7818608E-02  0.7223770E-01
         52   -1    0    0    0    0  0.00000000000E+00  0.00000000000E+00  0.64930732323E+04  0.65000000000E+04  0.30000000000E+03 0. -1.
        -52   -1    0    0    0    0 -0.00000000000E+00 -0.00000000000E+00 -0.64930732323E+04  0.65000000000E+04  0.30000000000E+03 0.  1.
     100001    1    1    2    0    0 -0.25272520897E+04 -0.57928455222E+04  0.15110550558E+04  0.65000000000E+04  0.15050000000E+03 0.  1.
     100001    1    1    2    0    0  0.25272520897E+04  0.57928455222E+04 -0.15110550558E+04  0.65000000000E+04  0.15050000000E+03 0. -1.
</event>
<event>
 4    1  0.4630618E-004  0.6500000E+04  0.7818608E-02  0.7223770E-01
         52   -1    0    0    0    0  0.00000000000E+00  0.00000000000E+00  0.64930732323E+04  0.65000000000E+04  0.30000000000E+03 0.  1.
        -52   -1    0    0    0    0 -0.00000000000E+00 -0.00000000000E+00 -0.64930732323E+04  0.65000000000E+04  0.30000000000E+03 0. -1.
     100001    1    1    2    0    0  0.19257602600E+03 -0.13835205358E+04 -0.63463481744E+04  0.65000000000E+04  0.15050000000E+03 0. -1.
     100001    1    1    2    0    0 -0.19257602600E+03  0.13835205358E+04  0.63463481744E+04  0.65000000000E+04  0.15050000000E+03 0.  1.
</event>
<event>
 4    1  0.4630618E-004  0.6500000E+04  0.7818608E-02  0.7223770E-01
         52   -1    0    0    0    0  0.00000000000E+00  0.00000000000E+00  0.64930732323E+04  0.65000000000E+04  0.30000000000E+03 0.  1.
        -52   -1    0    0    0    0 -0.00000000000E+00 -0.00000000000E+00 -0.64930732323E+04  0.65000000000E+04  0.30000000000E+03 0. -1.
     100001    1    1    2    0    0 -0.43282986650E+04  0.26439876583E+01  0.48469756989E+04  0.65000000000E+04  0.15050000000E+03 0.  1.
     100001    1    1    2    0    0  0.43282986650E+04 -0.26439876583E+01 -0.48469756989E+04  0.65000000000E+04  0.15050000000E+03 0. -1.
</event>
<event>
 4    1  0.4630618E-004  0.6500000E+04  0.7818608E-02  0.7223770E-01
         52   -1    0    0    0    0  0.00000000000E+00  0.00000000000E+00  0.64930732323E+04  0.65000000000E+04  0.30000000000E+03 0.  1.
        -52   -1    0    0    0    0 -0.00000000000E+00 -0.00000000000E+00 -0.64930732323E+04  0.65000000000E+04  0.30000000000E+03 0. -1.
     100001    1    1    2    0    0  0.38290271929E+04  0.48238782518E+04  0.20727033357E+04  0.65000000000E+04  0.15050000000E+03 0. -1.
     100001    1    1    2    0    0 -0.38290271929E+04 -0.48238782518E+04 -0.20727033357E+04  0.65000000000E+04  0.15050000000E+03 0.  1.
</event>
<event>
 4    1  0.4630618E-004  0.6500000E+04  0.7818608E-02  0.7223770E-01
         52   -1    0    0    0    0  0.00000000000E+00  0.00000000000E+00  0.64930732323E+04  0.65000000000E+04  0.30000000000E+03 0. -1.
        -52   -1    0    0    0    0 -0.00000000000E+00 -0.00000000000E+00 -0.64930732323E+04  0.65000000000E+04  0.30000000000E+03 0.  1.
     100001    1    1    2    0    0 -0.55747033033E+03 -0.71549160397E+03  0.64346443838E+04  0.65000000000E+04  0.15050000000E+03 0. -1.
     100001    1    1    2    0    0  0.55747033033E+03  0.71549160397E+03 -0.64346443838E+04  0.65000000000E+04  0.15050000000E+03 0.  1.
</event>
<event>
 4    1  0.4630618E-004  0.6500000E+04  0.7818608E-02  0.7223770E-01
         52   -1    0    0    0    0  0.00000000000E+00  0.00000000000E+00  0.64930732323E+04  0.65000000000E+04  0.30000000000E+03 0.  1.
        -52   -1    0    0    0    0 -0.00000000000E+00 -0.00000000000E+00 -0.64930732323E+04  0.65000000000E+04  0.30000000000E+03 0. -1.
     100001    1    1    2    0    0 -0.20665155806E+03 -0.13702641777E+04  0.63487810615E+04  0.65000000000E+04  0.15050000000E+03 0.  1.
     100001    1    1    2    0    0  0.20665155806E+03  0.13702641777E+04 -0.63487810615E+04  0.65000000000E+04  0.15050000000E+03 0. -1.
</event>
<event>
 4    1  0.4630618E-004  0.6500000E+04  0.7818608E-02  0.7223770E-01
         52   -1    0    0    0    0  0.00000000000E+00  0.00000000000E+00  0.64930732323E+04  0.65000000000E+04  0.30000000000E+03 0. -1.
        -52   -1    0    0    0    0 -0.00000000000E+00 -0.00000000000E+00 -0.64930732323E+04  0.65000000000E+04  0.30000000000E+03 0.  1.
     100001    1    1    2    0    0  0.61155087435E+03 -0.35216642519E+04  0.54268993150E+04  0.65000000000E+04  0.15050000000E+03 0.  1.
     100001    1    1    2    0    0 -0.61155087435E+03  0.35216642519E+04 -0.54268993150E+04  0.65000000000E+04  0.15050000000E+03 0. -1.
</event>
<event>
 4    1  0.4630618E-004  0.6500000E+04  0.7818608E-02  0.7223770E-01
         52   -1    0    0    0    0  0.00000000000E+00  0.00000000000E+00  0.64930732323E+04  0.65000000000E+04  0.30000000000E+03 0.  1.
        -52   -1    0    0    0    0 -0.00000000000E+00 -0.00000000000E+00 -0.64930732323E+04  0.65000000000E+04  0.30000000000E+03 0. -1.
     100001    1    1    2    0    0  0.93265230106E+02 -0.44837468614E+03  0.64820993118E+04  0.65000000000E+04  0.15050000000E+03 0.  1.
     100001    1    1    2    0    0 -0.93265230106E+02  0.44837468614E+03 -0.64820993118E+04  0.65000000000E+04  0.15050000000E+03 0. -1.
</event>
<event>
 4    1  0.4630618E-004  0.6500000E+04  0.7818608E-02  0.7223770E-01
         52   -1    0    0    0    0  0.00000000000E+00  0.00000000000E+00  0.64930732323E+04  0.65000000000E+04  0.30000000000E+03 0.  1.
        -52   -1    0    0    0    0 -0.00000000000E+00 -0.00000000000E+00 -0.64930732323E+04  0.65000000000E+04  0.30000000000E+03 0. -1.
     100001    1    1    2    0    0 -0.37712694787E+03 -0.73739563525E+03 -0.64452597071E+04  0.65000000000E+04  0.15050000000E+03 0. -1.
     100001    1    1    2    0    0  0.37712694787E+03  0.73739563525E+03  0.64452597071E+04  0.65000000000E+04  0.15050000000E+03 0.  1.
</event>
<event>
 4    1  0.4630618E-004  0.6500000E+04  0.7818608E-02  0.7223770E-01
         52   -1    0    0    0    0  0.00000000000E+00  0.00000000000E+00  0.64930732323E+04  0.65000000000E+04  0.30000000000E+03 0.  1.
        -52   -1    0    0    0    0 -0.00000000000E+00 -0.00000000000E+00 -0.64930732323E+04  0.65000000000E+04  0.30000000000E+03 0.  1.
     100001    1    1    2    0    0  0.73230028096E+02  0.88182275803E+01  0.64978388216E+04  0.65000000000E+04  0.15050000000E+03 0.  1.
     100001    1    1    2    0    0 -0.73230028096E+02 -0.88182275803E+01 -0.64978388216E+04  0.65000000000E+04  0.15050000000E+03 0.  1.
</event>
<event>
 4    1  0.4630618E-004  0.6500000E+04  0.7818608E-02  0.7223770E-01
         52   -1    0    0    0    0  0.00000000000E+00  0.00000000000E+00  0.64930732323E+04  0.65000000000E+04  0.30000000000E+03 0.  1.
        -52   -1    0    0    0    0 -0.00000000000E+00 -0.00000000000E+00 -0.64930732323E+04  0.65000000000E+04  0.30000000000E+03 0. -1.
     100001    1    1    2    0    0 -0.10247231520E+02 -0.15347899019E+04  0.63144013731E+04  0.65000000000E+04  0.15050000000E+03 0.  1.
     100001    1    1    2    0    0  0.10247231520E+02  0.15347899019E+04 -0.63144013731E+04  0.65000000000E+04  0.15050000000E+03 0. -1.
</event>
<event>
 4    1  0.4630618E-004  0.6500000E+04  0.7818608E-02  0.7223770E-01
         52   -1    0    0    0    0  0.00000000000E+00  0.00000000000E+00  0.64930732323E+04  0.65000000000E+04  0.30000000000E+03 0. -1.
        -52   -1    0    0    0    0 -0.00000000000E+00 -0.00000000000E+00 -0.64930732323E+04  0.65000000000E+04  0.30000000000E+03 0.  1.
     100001    1    1    2    0    0 -0.15916452940E+04  0.43709815361E+03 -0.62851380424E+04  0.65000000000E+04  0.15050000000E+03 0.  1.
     100001    1    1    2    0    0  0.15916452940E+04 -0.43709815361E+03  0.62851380424E+04  0.65000000000E+04  0.15050000000E+03 0. -1.
</event>
<event>
 4    1  0.4630618E-004  0.6500000E+04  0.7818608E-02  0.7223770E-01
         52   -1    0    0    0    0  0.00000000000E+00  0.00000000000E+00  0.64930732323E+04  0.65000000000E+04  0.30000000000E+03 0.  1.
        -52   -1    0    0    0    0 -0.00000000000E+00 -0.00000000000E+00 -0.64930732323E+04  0.65000000000E+04  0.30000000000E+03 0.  1.
     100001    1    1    2    0    0  0.43157143567E+02 -0.21360241560E+02 -0.64980790201E+04  0.65000000000E+04  0.15050000000E+03 0.  1.
     100001    1    1    2    0    0 -0.43157143567E+02  0.21360241560E+02  0.64980790201E+04  0.65000000000E+04  0.15050000000E+03 0.  1.
</event>
<event>
 4    1  0.4630618E-004  0.6500000E+04  0.7818608E-02  0.7223770E-01
         52   -1    0    0    0    0  0.00000000000E+00  0.00000000000E+00  0.64930732323E+04  0.65000000000E+04  0.30000000000E+03 0. -1.
        -52   -1    0    0    0    0 -0.00000000000E+00 -0.00000000000E+00 -0.64930732323E+04  0.65000000000E+04  0.30000000000E+03 0.  1.
     100001    1    1    2    0    0 -0.69837117765E+03 -0.81353407891E+03 -0.64091957179E+04  0.65000000000E+04  0.15050000000E+03 0.  1.
     100001    1    1    2    0    0  0.69837117765E+03  0.81353407891E+03  0.64091957179E+04  0.65000000000E+04  0.15050000000E+03 0. -1.
</event>
<event>
 4    1  0.4630618E-004  0.6500000E+04  0.7818608E-02  0.7223770E-01
         52   -1    0    0    0    0  0.00000000000E+00  0.00000000000E+00  0.64930732323E+04  0.65000000000E+04  0.30000000000E+03 0.  1.
        -52   -1    0    0    0    0 -0.00000000000E+00 -0.00000000000E+00 -0.64930732323E+04  0.65000000000E+04  0.30000000000E+03 0. -1.
     100001    1    1    2    0    0 -0.71868821784E+03  0.37741902389E+04 -0.52408324755E+04  0.65000000000E+04  0.15050000000E+03 0. -1.
     100001    1    1    2    0    0  0.71868821784E+03 -0.37741902389E+04  0.52408324755E+04  0.65000000000E+04  0.15050000000E+03 0.  1.
</event>
<event>
 4    1  0.4630618E-004  0.6500000E+04  0.7818608E-02  0.7223770E-01
         52   -1    0    0    0    0  0.00000000000E+00  0.00000000000E+00  0.64930732323E+04  0.65000000000E+04  0.30000000000E+03 0.  1.
        -52   -1    0    0    0    0 -0.00000000000E+00 -0.00000000000E+00 -0.64930732323E+04  0.65000000000E+04  0.30000000000E+03 0.  1.
     100001    1    1    2    0    0  0.25371630554E+04  0.46114694692E+03 -0.59646874917E+04  0.65000000000E+04  0.15050000000E+03 0.  1.
     100001    1    1    2    0    0 -0.25371630554E+04 -0.46114694692E+03  0.59646874917E+04  0.65000000000E+04  0.15050000000E+03 0.  1.
</event>
<event>
 4    1  0.4630618E-004  0.6500000E+04  0.7818608E-02  0.7223770E-01
         52   -1    0    0    0    0  0.00000000000E+00  0.00000000000E+00  0.64930732323E+04  0.65000000000E+04  0.30000000000E+03 0.  1.
        -52   -1    0    0    0    0 -0.00000000000E+00 -0.00000000000E+00 -0.64930732323E+04  0.65000000000E+04  0.30000000000E+03 0. -1.
     100001    1    1    2    0    0  0.99069472937E+03 -0.13441328581E+03 -0.64208883164E+04  0.65000000000E+04  0.15050000000E+03 0. -1.
     100001    1    1    2    0    0 -0.99069472937E+03  0.13441328581E+03  0.64208883164E+04  0.65000000000E+04  0.15050000000E+03 0.  1.
</event>
<event>
 4    1  0.4630618E-004  0.6500000E+04  0.7818608E-02  0.7223770E-01
         52   -1    0    0    0    0  0.00000000000E+00  0.00000000000E+00  0.64930732323E+04  0.65000000000E+04  0.30000000000E+03 0.  1.
        -52   -1    0    0    0    0 -0.00000000000E+00 -0.00000000000E+00 -0.64930732323E+04  0.65000000000E+04  0.30000000000E+03 0. -1.
     100001    1    1    2    0    0 -0.24526357391E+04 -0.59456433614E+04 -0.92803701462E+03  0.65000000000E+04  0.15050000000E+03 0.  1.
     100001    1    1    2    0    0  0.24526357391E+04  0.59456433614E+04  0.92803701462E+03  0.65000000000E+04  0.15050000000E+03 0. -1.
</event>
<event>
 4    1  0.4630618E-004  0.6500000E+04  0.7818608E-02  0.7223770E-01
         52   -1    0    0    0    0  0.00000000000E+00  0.00000000000E+00  0.64930732323E+04  0.65000000000E+04  0.30000000000E+03 0.  1.
        -52   -1    0    0    0    0 -0.00000000000E+00 -0.00000000000E+00 -0.64930732323E+04  0.65000000000E+04  0.30000000000E+03 0. -1.
     100001    1    1    2    0    0 -0.24655011963E+04  0.20658897250E+04  0.56463043883E+04  0.65000000000E+04  0.15050000000E+03 0.  1.
     100001    1    1    2    0    0  0.24655011963E+04 -0.20658897250E+04 -0.56463043883E+04  0.65000000000E+04  0.15050000000E+03 0. -1.
</event>
<event>
 4    1  0.4630618E-004  0.6500000E+04  0.7818608E-02  0.7223770E-01
         52   -1    0    0    0    0  0.00000000000E+00  0.00000000000E+00  0.64930732323E+04  0.65000000000E+04  0.30000000000E+03 0. -1.
        -52   -1    0    0    0    0 -0.00000000000E+00 -0.00000000000E+00 -0.64930732323E+04  0.65000000000E+04  0.30000000000E+03 0.  1.
     100001    1    1    2    0    0  0.44196909781E+04 -0.10696466543E+03  0.47625875287E+04  0.65000000000E+04  0.15050000000E+03 0. -1.
     100001    1    1    2    0    0 -0.44196909781E+04  0.10696466543E+03 -0.47625875287E+04  0.65000000000E+04  0.15050000000E+03 0.  1.
</event>
<event>
 4    1  0.4630618E-004  0.6500000E+04  0.7818608E-02  0.7223770E-01
         52   -1    0    0    0    0  0.00000000000E+00  0.00000000000E+00  0.64930732323E+04  0.65000000000E+04  0.30000000000E+03 0. -1.
        -52   -1    0    0    0    0 -0.00000000000E+00 -0.00000000000E+00 -0.64930732323E+04  0.65000000000E+04  0.30000000000E+03 0.  1.
     100001    1    1    2    0    0 -0.15097376886E+03 -0.57672444532E+03 -0.64708535438E+04  0.65000000000E+04  0.15050000000E+03 0.  1.
     100001    1    1    2    0    0  0.15097376886E+03  0.57672444532E+03  0.64708535438E+04  0.65000000000E+04  0.15050000000E+03 0. -1.
</event>
<event>
 4    1  0.4630618E-004  0.6500000E+04  0.7818608E-02  0.7223770E-01
         52   -1    0    0    0    0  0.00000000000E+00  0.00000000000E+00  0.64930732323E+04  0.65000000000E+04  0.30000000000E+03 0. -1.
        -52   -1    0    0    0    0 -0.00000000000E+00 -0.00000000000E+00 -0.64930732323E+04  0.65000000000E+04  0.30000000000E+03 0.  1.
     100001    1    1    2    0    0  0.40773498049E+04  0.40601017798E+04  0.30196261120E+04  0.65000000000E+04  0.15050000000E+03 0.  1.
     100001    1    1    2    0    0 -0.40773498049E+04 -0.40601017798E+04 -0.30196261120E+04  0.65000000000E+04  0.15050000000E+03 0. -1.
</event>
<event>
 4    1  0.4630618E-004  0.6500000E+04  0.7818608E-02  0.7223770E-01
         52   -1    0    0    0    0  0.00000000000E+00  0.00000000000E+00  0.64930732323E+04  0.65000000000E+04  0.30000000000E+03 0. -1.
        -52   -1    0    0    0    0 -0.00000000000E+00 -0.00000000000E+00 -0.64930732323E+04  0.65000000000E+04  0.30000000000E+03 0.  1.
     100001    1    1    2    0    0 -0.82382551605E+02  0.30937056847E+03 -0.64903661466E+04  0.65000000000E+04  0.15050000000E+03 0.  1.
     100001    1    1    2    0    0  0.82382551605E+02 -0.30937056847E+03  0.64903661466E+04  0.65000000000E+04  0.15050000000E+03 0. -1.
</event>
<event>
 4    1  0.4630618E-004  0.6500000E+04  0.7818608E-02  0.7223770E-01
         52   -1    0    0    0    0  0.00000000000E+00  0.00000000000E+00  0.64930732323E+04  0.65000000000E+04  0.30000000000E+03 0.  1.
        -52   -1    0    0    0    0 -0.00000000000E+00 -0.00000000000E+00 -0.64930732323E+04  0.65000000000E+04  0.30000000000E+03 0.  1.
     100001    1    1    2    0    0 -0.14147223345E+04  0.87028046066E+02 -0.63417928526E+04  0.65000000000E+04  0.15050000000E+03 0.  1.
     100001    1    1    2    0    0  0.14147223345E+04 -0.87028046066E+02  0.63417928526E+04  0.65000000000E+04  0.15050000000E+03 0.  1.
</event>
<event>
 4    1  0.4630618E-004  0.6500000E+04  0.7818608E-02  0.7223770E-01
         52   -1    0    0    0    0  0.00000000000E+00  0.00000000000E+00  0.64930732323E+04  0.65000000000E+04  0.30000000000E+03 0.  1.
        -52   -1    0    0    0    0 -0.00000000000E+00 -0.00000000000E+00 -0.64930732323E+04  0.65000000000E+04  0.30000000000E+03 0. -1.
     100001    1    1    2    0    0 -0.22772881683E+03 -0.54697144240E+03  0.64711908933E+04  0.65000000000E+04  0.15050000000E+03 0.  1.
     100001    1    1    2    0    0  0.22772881683E+03  0.54697144240E+03 -0.64711908933E+04  0.65000000000E+04  0.15050000000E+03 0. -1.
</event>
<event>
 4    1  0.4630618E-004  0.6500000E+04  0.7818608E-02  0.7223770E-01
         52   -1    0    0    0    0  0.00000000000E+00  0.00000000000E+00  0.64930732323E+04  0.65000000000E+04  0.30000000000E+03 0.  1.
        -52   -1    0    0    0    0 -0.00000000000E+00 -0.00000000000E+00 -0.64930732323E+04  0.65000000000E+04  0.30000000000E+03 0. -1.
     100001    1    1    2    0    0  0.38353602341E+03 -0.28056258209E+02 -0.64868684830E+04  0.65000000000E+04  0.15050000000E+03 0. -1.
     100001    1    1    2    0    0 -0.38353602341E+03  0.28056258209E+02  0.64868684830E+04  0.65000000000E+04  0.15050000000E+03 0.  1.
</event>
<event>
 4    1  0.4630618E-004  0.6500000E+04  0.7818608E-02  0.7223770E-01
         52   -1    0    0    0    0  0.00000000000E+00  0.00000000000E+00  0.64930732323E+04  0.65000000000E+04  0.30000000000E+03 0.  1.
        -52   -1    0    0    0    0 -0.00000000000E+00 -0.00000000000E+00 -0.64930732323E+04  0.65000000000E+04  0.30000000000E+03 0.  1.
     100001    1    1    2    0    0 -0.10671157178E+03  0.19267393814E+03 -0.64945237812E+04  0.65000000000E+04  0.15050000000E+03 0.  1.
     100001    1    1    2    0    0  0.10671157178E+03 -0.19267393814E+03  0.64945237812E+04  0.65000000000E+04  0.15050000000E+03 0.  1.
</event>
<event>
 4    1  0.4630618E-004  0.6500000E+04  0.7818608E-02  0.7223770E-01
         52   -1    0    0    0    0  0.00000000000E+00  0.00000000000E+00  0.64930732323E+04  0.65000000000E+04  0.30000000000E+03 0. -1.
        -52   -1    0    0    0    0 -0.00000000000E+00 -0.00000000000E+00 -0.64930732323E+04  0.65000000000E+04  0.30000000000E+03 0. -1.
     100001    1    1    2    0    0 -0.26898327528E+03  0.21206370174E+03 -0.64892238930E+04  0.65000000000E+04  0.15050000000E+03 0. -1.
     100001    1    1    2    0    0  0.26898327528E+03 -0.21206370174E+03  0.64892238930E+04  0.65000000000E+04  0.15050000000E+03 0. -1.
</event>
<event>
 4    1  0.4630618E-004  0.6500000E+04  0.7818608E-02  0.7223770E-01
         52   -1    0    0    0    0  0.00000000000E+00  0.00000000000E+00  0.64930732323E+04  0.65000000000E+04  0.30000000000E+03 0.  1.
        -52   -1    0    0    0    0 -0.00000000000E+00 -0.00000000000E+00 -0.64930732323E+04  0.65000000000E+04  0.30000000000E+03 0. -1.
     100001    1    1    2    0    0  0.47863305317E+04  0.50674972242E+03  0.43659586015E+04  0.65000000000E+04  0.15050000000E+03 0.  1.
     100001    1    1    2    0    0 -0.47863305317E+04 -0.50674972242E+03 -0.43659586015E+04  0.65000000000E+04  0.15050000000E+03 0. -1.
</event>
<event>
 4    1  0.4630618E-004  0.6500000E+04  0.7818608E-02  0.7223770E-01
         52   -1    0    0    0    0  0.00000000000E+00  0.00000000000E+00  0.64930732323E+04  0.65000000000E+04  0.30000000000E+03 0.  1.
        -52   -1    0    0    0    0 -0.00000000000E+00 -0.00000000000E+00 -0.64930732323E+04  0.65000000000E+04  0.30000000000E+03 0. -1.
     100001    1    1    2    0    0 -0.19812648235E+02  0.27420669479E+04  0.58913518026E+04  0.65000000000E+04  0.15050000000E+03 0.  1.
     100001    1    1    2    0    0  0.19812648235E+02 -0.27420669479E+04 -0.58913518026E+04  0.65000000000E+04  0.15050000000E+03 0. -1.
</event>
<event>
 4    1  0.4630618E-004  0.6500000E+04  0.7818608E-02  0.7223770E-01
         52   -1    0    0    0    0  0.00000000000E+00  0.00000000000E+00  0.64930732323E+04  0.65000000000E+04  0.30000000000E+03 0. -1.
        -52   -1    0    0    0    0 -0.00000000000E+00 -0.00000000000E+00 -0.64930732323E+04  0.65000000000E+04  0.30000000000E+03 0.  1.
     100001    1    1    2    0    0 -0.11306700882E+03 -0.45892482969E+03  0.64810457183E+04  0.65000000000E+04  0.15050000000E+03 0. -1.
     100001    1    1    2    0    0  0.11306700882E+03  0.45892482969E+03 -0.64810457183E+04  0.65000000000E+04  0.15050000000E+03 0.  1.
</event>
<event>
 4    1  0.4630618E-004  0.6500000E+04  0.7818608E-02  0.7223770E-01
         52   -1    0    0    0    0  0.00000000000E+00  0.00000000000E+00  0.64930732323E+04  0.65000000000E+04  0.30000000000E+03 0. -1.
        -52   -1    0    0    0    0 -0.00000000000E+00 -0.00000000000E+00 -0.64930732323E+04  0.65000000000E+04  0.30000000000E+03 0.  1.
     100001    1    1    2    0    0  0.53806414221E+03  0.78378899431E+03 -0.64283366077E+04  0.65000000000E+04  0.15050000000E+03 0.  1.
     100001    1    1    2    0    0 -0.53806414221E+03 -0.78378899431E+03  0.64283366077E+04  0.65000000000E+04  0.15050000000E+03 0. -1.
</event>
<event>
 4    1  0.4630618E-004  0.6500000E+04  0.7818608E-02  0.7223770E-01
         52   -1    0    0    0    0  0.00000000000E+00  0.00000000000E+00  0.64930732323E+04  0.65000000000E+04  0.30000000000E+03 0.  1.
        -52   -1    0    0    0    0 -0.00000000000E+00 -0.00000000000E+00 -0.64930732323E+04  0.65000000000E+04  0.30000000000E+03 0. -1.
     100001    1    1    2    0    0 -0.23895195561E+03  0.36553693785E+03 -0.64835664923E+04  0.65000000000E+04  0.15050000000E+03 0. -1.
     100001    1    1    2    0    0  0.23895195561E+03 -0.36553693785E+03  0.64835664923E+04  0.65000000000E+04  0.15050000000E+03 0.  1.
</event>
<event>
 4    1  0.4630618E-004  0.6500000E+04  0.7818608E-02  0.7223770E-01
         52   -1    0    0    0    0  0.00000000000E+00  0.00000000000E+00  0.64930732323E+04  0.65000000000E+04  0.30000000000E+03 0.  1.
        -52   -1    0    0    0    0 -0.00000000000E+00 -0.00000000000E+00 -0.64930732323E+04  0.65000000000E+04  0.30000000000E+03 0. -1.
     100001    1    1    2    0    0  0.45265307248E+04 -0.18854558757E+04  0.42641441683E+04  0.65000000000E+04  0.15050000000E+03 0.  1.
     100001    1    1    2    0    0 -0.45265307248E+04  0.18854558757E+04 -0.42641441683E+04  0.65000000000E+04  0.15050000000E+03 0. -1.
</event>
<event>
 4    1  0.4630618E-004  0.6500000E+04  0.7818608E-02  0.7223770E-01
         52   -1    0    0    0    0  0.00000000000E+00  0.00000000000E+00  0.64930732323E+04  0.65000000000E+04  0.30000000000E+03 0. -1.
        -52   -1    0    0    0    0 -0.00000000000E+00 -0.00000000000E+00 -0.64930732323E+04  0.65000000000E+04  0.30000000000E+03 0.  1.
     100001    1    1    2    0    0 -0.22744671790E+04  0.96962685902E+03  0.60094902077E+04  0.65000000000E+04  0.15050000000E+03 0. -1.
     100001    1    1    2    0    0  0.22744671790E+04 -0.96962685902E+03 -0.60094902077E+04  0.65000000000E+04  0.15050000000E+03 0.  1.
</event>
<event>
 4    1  0.4630618E-004  0.6500000E+04  0.7818608E-02  0.7223770E-01
         52   -1    0    0    0    0  0.00000000000E+00  0.00000000000E+00  0.64930732323E+04  0.65000000000E+04  0.30000000000E+03 0. -1.
        -52   -1    0    0    0    0 -0.00000000000E+00 -0.00000000000E+00 -0.64930732323E+04  0.65000000000E+04  0.30000000000E+03 0.  1.
     100001    1    1    2    0    0 -0.33832927546E+04  0.34232785285E+04  0.43659871739E+04  0.65000000000E+04  0.15050000000E+03 0. -1.
     100001    1    1    2    0    0  0.33832927546E+04 -0.34232785285E+04 -0.43659871739E+04  0.65000000000E+04  0.15050000000E+03 0.  1.
</event>
<event>
 4    1  0.4630618E-004  0.6500000E+04  0.7818608E-02  0.7223770E-01
         52   -1    0    0    0    0  0.00000000000E+00  0.00000000000E+00  0.64930732323E+04  0.65000000000E+04  0.30000000000E+03 0.  1.
        -52   -1    0    0    0    0 -0.00000000000E+00 -0.00000000000E+00 -0.64930732323E+04  0.65000000000E+04  0.30000000000E+03 0. -1.
     100001    1    1    2    0    0 -0.30264529795E+04 -0.49957125649E+04  0.28479445363E+04  0.65000000000E+04  0.15050000000E+03 0.  1.
     100001    1    1    2    0    0  0.30264529795E+04  0.49957125649E+04 -0.28479445363E+04  0.65000000000E+04  0.15050000000E+03 0. -1.
</event>
<event>
 4    1  0.4630618E-004  0.6500000E+04  0.7818608E-02  0.7223770E-01
         52   -1    0    0    0    0  0.00000000000E+00  0.00000000000E+00  0.64930732323E+04  0.65000000000E+04  0.30000000000E+03 0.  1.
        -52   -1    0    0    0    0 -0.00000000000E+00 -0.00000000000E+00 -0.64930732323E+04  0.65000000000E+04  0.30000000000E+03 0. -1.
     100001    1    1    2    0    0 -0.13218492562E+04  0.67099244055E+03 -0.63269134211E+04  0.65000000000E+04  0.15050000000E+03 0. -1.
     100001    1    1    2    0    0  0.13218492562E+04 -0.67099244055E+03  0.63269134211E+04  0.65000000000E+04  0.15050000000E+03 0.  1.
</event>
<event>
 4    1  0.4630618E-004  0.6500000E+04  0.7818608E-02  0.7223770E-01
         52   -1    0    0    0    0  0.00000000000E+00  0.00000000000E+00  0.64930732323E+04  0.65000000000E+04  0.30000000000E+03 0. -1.
        -52   -1    0    0    0    0 -0.00000000000E+00 -0.00000000000E+00 -0.64930732323E+04  0.65000000000E+04  0.30000000000E+03 0.  1.
     100001    1    1    2    0    0  0.28698949155E+04  0.55898184839E+04 -0.16567987932E+04  0.65000000000E+04  0.15050000000E+03 0. -1.
     100001    1    1    2    0    0 -0.28698949155E+04 -0.55898184839E+04  0.16567987932E+04  0.65000000000E+04  0.15050000000E+03 0.  1.
</event>
<event>
 4    1  0.4630618E-004  0.6500000E+04  0.7818608E-02  0.7223770E-01
         52   -1    0    0    0    0  0.00000000000E+00  0.00000000000E+00  0.64930732323E+04  0.65000000000E+04  0.30000000000E+03 0. -1.
        -52   -1    0    0    0    0 -0.00000000000E+00 -0.00000000000E+00 -0.64930732323E+04  0.65000000000E+04  0.30000000000E+03 0.  1.
     100001    1    1    2    0    0  0.64710515268E+03 -0.31920186332E+03 -0.64580736169E+04  0.65000000000E+04  0.15050000000E+03 0.  1.
     100001    1    1    2    0    0 -0.64710515268E+03  0.31920186332E+03  0.64580736169E+04  0.65000000000E+04  0.15050000000E+03 0. -1.
</event>
<event>
 4    1  0.4630618E-004  0.6500000E+04  0.7818608E-02  0.7223770E-01
         52   -1    0    0    0    0  0.00000000000E+00  0.00000000000E+00  0.64930732323E+04  0.65000000000E+04  0.30000000000E+03 0.  1.
        -52   -1    0    0    0    0 -0.00000000000E+00 -0.00000000000E+00 -0.64930732323E+04  0.65000000000E+04  0.30000000000E+03 0.  1.
     100001    1    1    2    0    0 -0.13661368085E+03 -0.43994114511E+03  0.64819085338E+04  0.65000000000E+04  0.15050000000E+03 0.  1.
     100001    1    1    2    0    0  0.13661368085E+03  0.43994114511E+03 -0.64819085338E+04  0.65000000000E+04  0.15050000000E+03 0.  1.
</event>
<event>
 4    1  0.4630618E-004  0.6500000E+04  0.7818608E-02  0.7223770E-01
         52   -1    0    0    0    0  0.00000000000E+00  0.00000000000E+00  0.64930732323E+04  0.65000000000E+04  0.30000000000E+03 0.  1.
        -52   -1    0    0    0    0 -0.00000000000E+00 -0.00000000000E+00 -0.64930732323E+04  0.65000000000E+04  0.30000000000E+03 0.  1.
     100001    1    1    2    0    0 -0.27970701193E+03  0.50717110851E+03  0.64723945495E+04  0.65000000000E+04  0.15050000000E+03 0.  1.
     100001    1    1    2    0    0  0.27970701193E+03 -0.50717110851E+03 -0.64723945495E+04  0.65000000000E+04  0.15050000000E+03 0.  1.
</event>
<event>
 4    1  0.4630618E-004  0.6500000E+04  0.7818608E-02  0.7223770E-01
         52   -1    0    0    0    0  0.00000000000E+00  0.00000000000E+00  0.64930732323E+04  0.65000000000E+04  0.30000000000E+03 0.  1.
        -52   -1    0    0    0    0 -0.00000000000E+00 -0.00000000000E+00 -0.64930732323E+04  0.65000000000E+04  0.30000000000E+03 0. -1.
     100001    1    1    2    0    0  0.11443489181E+03 -0.12034481122E+04 -0.63848231805E+04  0.65000000000E+04  0.15050000000E+03 0. -1.
     100001    1    1    2    0    0 -0.11443489181E+03  0.12034481122E+04  0.63848231805E+04  0.65000000000E+04  0.15050000000E+03 0.  1.
</event>
<event>
 4    1  0.4630618E-004  0.6500000E+04  0.7818608E-02  0.7223770E-01
         52   -1    0    0    0    0  0.00000000000E+00  0.00000000000E+00  0.64930732323E+04  0.65000000000E+04  0.30000000000E+03 0.  1.
        -52   -1    0    0    0    0 -0.00000000000E+00 -0.00000000000E+00 -0.64930732323E+04  0.65000000000E+04  0.30000000000E+03 0. -1.
     100001    1    1    2    0    0 -0.42171805329E+03 -0.12547576939E+04  0.63620033608E+04  0.65000000000E+04  0.15050000000E+03 0.  1.
     100001    1    1    2    0    0  0.42171805329E+03  0.12547576939E+04 -0.63620033608E+04  0.65000000000E+04  0.15050000000E+03 0. -1.
</event>
<event>
 4    1  0.4630618E-004  0.6500000E+04  0.7818608E-02  0.7223770E-01
         52   -1    0    0    0    0  0.00000000000E+00  0.00000000000E+00  0.64930732323E+04  0.65000000000E+04  0.30000000000E+03 0.  1.
        -52   -1    0    0    0    0 -0.00000000000E+00 -0.00000000000E+00 -0.64930732323E+04  0.65000000000E+04  0.30000000000E+03 0.  1.
     100001    1    1    2    0    0 -0.22942569744E+03  0.15829448332E+01  0.64942059633E+04  0.65000000000E+04  0.15050000000E+03 0.  1.
     100001    1    1    2    0    0  0.22942569744E+03 -0.15829448332E+01 -0.64942059633E+04  0.65000000000E+04  0.15050000000E+03 0.  1.
</event>
<event>
 4    1  0.4630618E-004  0.6500000E+04  0.7818608E-02  0.7223770E-01
         52   -1    0    0    0    0  0.00000000000E+00  0.00000000000E+00  0.64930732323E+04  0.65000000000E+04  0.30000000000E+03 0. -1.
        -52   -1    0    0    0    0 -0.00000000000E+00 -0.00000000000E+00 -0.64930732323E+04  0.65000000000E+04  0.30000000000E+03 0.  1.
     100001    1    1    2    0    0  0.12373535058E+04  0.68306238126E+03  0.63426912139E+04  0.65000000000E+04  0.15050000000E+03 0. -1.
     100001    1    1    2    0    0 -0.12373535058E+04 -0.68306238126E+03 -0.63426912139E+04  0.65000000000E+04  0.15050000000E+03 0.  1.
</event>
<event>
 4    1  0.4630618E-004  0.6500000E+04  0.7818608E-02  0.7223770E-01
         52   -1    0    0    0    0  0.00000000000E+00  0.00000000000E+00  0.64930732323E+04  0.65000000000E+04  0.30000000000E+03 0. -1.
        -52   -1    0    0    0    0 -0.00000000000E+00 -0.00000000000E+00 -0.64930732323E+04  0.65000000000E+04  0.30000000000E+03 0.  1.
     100001    1    1    2    0    0  0.86068542127E+02 -0.44928203809E+03 -0.64821360373E+04  0.65000000000E+04  0.15050000000E+03 0.  1.
     100001    1    1    2    0    0 -0.86068542127E+02  0.44928203809E+03  0.64821360373E+04  0.65000000000E+04  0.15050000000E+03 0. -1.
</event>
<event>
 4    1  0.4630618E-004  0.6500000E+04  0.7818608E-02  0.7223770E-01
         52   -1    0    0    0    0  0.00000000000E+00  0.00000000000E+00  0.64930732323E+04  0.65000000000E+04  0.30000000000E+03 0. -1.
        -52   -1    0    0    0    0 -0.00000000000E+00 -0.00000000000E+00 -0.64930732323E+04  0.65000000000E+04  0.30000000000E+03 0.  1.
     100001    1    1    2    0    0  0.59286550463E+04  0.93920629693E+03  0.24892349475E+04  0.65000000000E+04  0.15050000000E+03 0. -1.
     100001    1    1    2    0    0 -0.59286550463E+04 -0.93920629693E+03 -0.24892349475E+04  0.65000000000E+04  0.15050000000E+03 0.  1.
</event>
<event>
 4    1  0.4630618E-004  0.6500000E+04  0.7818608E-02  0.7223770E-01
         52   -1    0    0    0    0  0.00000000000E+00  0.00000000000E+00  0.64930732323E+04  0.65000000000E+04  0.30000000000E+03 0.  1.
        -52   -1    0    0    0    0 -0.00000000000E+00 -0.00000000000E+00 -0.64930732323E+04  0.65000000000E+04  0.30000000000E+03 0. -1.
     100001    1    1    2    0    0  0.59092164725E+03 -0.11365999976E+04  0.63707379323E+04  0.65000000000E+04  0.15050000000E+03 0.  1.
     100001    1    1    2    0    0 -0.59092164725E+03  0.11365999976E+04 -0.63707379323E+04  0.65000000000E+04  0.15050000000E+03 0. -1.
</event>
<event>
 4    1  0.4630618E-004  0.6500000E+04  0.7818608E-02  0.7223770E-01
         52   -1    0    0    0    0  0.00000000000E+00  0.00000000000E+00  0.64930732323E+04  0.65000000000E+04  0.30000000000E+03 0.  1.
        -52   -1    0    0    0    0 -0.00000000000E+00 -0.00000000000E+00 -0.64930732323E+04  0.65000000000E+04  0.30000000000E+03 0. -1.
     100001    1    1    2    0    0 -0.15964384052E+03 -0.40921843704E+04  0.50453831046E+04  0.65000000000E+04  0.15050000000E+03 0.  1.
     100001    1    1    2    0    0  0.15964384052E+03  0.40921843704E+04 -0.50453831046E+04  0.65000000000E+04  0.15050000000E+03 0. -1.
</event>
<event>
 4    1  0.4630618E-004  0.6500000E+04  0.7818608E-02  0.7223770E-01
         52   -1    0    0    0    0  0.00000000000E+00  0.00000000000E+00  0.64930732323E+04  0.65000000000E+04  0.30000000000E+03 0. -1.
        -52   -1    0    0    0    0 -0.00000000000E+00 -0.00000000000E+00 -0.64930732323E+04  0.65000000000E+04  0.30000000000E+03 0.  1.
     100001    1    1    2    0    0 -0.59606391545E+03 -0.73399221711E+03  0.64290989247E+04  0.65000000000E+04  0.15050000000E+03 0. -1.
     100001    1    1    2    0    0  0.59606391545E+03  0.73399221711E+03 -0.64290989247E+04  0.65000000000E+04  0.15050000000E+03 0.  1.
</event>
<event>
 4    1  0.4630618E-004  0.6500000E+04  0.7818608E-02  0.7223770E-01
         52   -1    0    0    0    0  0.00000000000E+00  0.00000000000E+00  0.64930732323E+04  0.65000000000E+04  0.30000000000E+03 0.  1.
        -52   -1    0    0    0    0 -0.00000000000E+00 -0.00000000000E+00 -0.64930732323E+04  0.65000000000E+04  0.30000000000E+03 0. -1.
     100001    1    1    2    0    0 -0.96131265741E+03 -0.17747928069E+04  0.61768388531E+04  0.65000000000E+04  0.15050000000E+03 0.  1.
     100001    1    1    2    0    0  0.96131265741E+03  0.17747928069E+04 -0.61768388531E+04  0.65000000000E+04  0.15050000000E+03 0. -1.
</event>
<event>
 4    1  0.4630618E-004  0.6500000E+04  0.7818608E-02  0.7223770E-01
         52   -1    0    0    0    0  0.00000000000E+00  0.00000000000E+00  0.64930732323E+04  0.65000000000E+04  0.30000000000E+03 0.  1.
        -52   -1    0    0    0    0 -0.00000000000E+00 -0.00000000000E+00 -0.64930732323E+04  0.65000000000E+04  0.30000000000E+03 0. -1.
     100001    1    1    2    0    0  0.36097531960E+03 -0.53657963786E+03  0.64659979014E+04  0.65000000000E+04  0.15050000000E+03 0.  1.
     100001    1    1    2    0    0 -0.36097531960E+03  0.53657963786E+03 -0.64659979014E+04  0.65000000000E+04  0.15050000000E+03 0. -1.
</event>
<event>
 4    1  0.4630618E-004  0.6500000E+04  0.7818608E-02  0.7223770E-01
         52   -1    0    0    0    0  0.00000000000E+00  0.00000000000E+00  0.64930732323E+04  0.65000000000E+04  0.30000000000E+03 0.  1.
        -52   -1    0    0    0    0 -0.00000000000E+00 -0.00000000000E+00 -0.64930732323E+04  0.65000000000E+04  0.30000000000E+03 0. -1.
     100001    1    1    2    0    0 -0.11606537748E+04 -0.27903963235E+04  0.57527316053E+04  0.65000000000E+04  0.15050000000E+03 0.  1.
     100001    1    1    2    0    0  0.11606537748E+04  0.27903963235E+04 -0.57527316053E+04  0.65000000000E+04  0.15050000000E+03 0. -1.
</event>
<event>
 4    1  0.4630618E-004  0.6500000E+04  0.7818608E-02  0.7223770E-01
         52   -1    0    0    0    0  0.00000000000E+00  0.00000000000E+00  0.64930732323E+04  0.65000000000E+04  0.30000000000E+03 0.  1.
        -52   -1    0    0    0    0 -0.00000000000E+00 -0.00000000000E+00 -0.64930732323E+04  0.65000000000E+04  0.30000000000E+03 0. -1.
     100001    1    1    2    0    0  0.10124544981E+04  0.73707816921E+03 -0.63764411243E+04  0.65000000000E+04  0.15050000000E+03 0. -1.
     100001    1    1    2    0    0 -0.10124544981E+04 -0.73707816921E+03  0.63764411243E+04  0.65000000000E+04  0.15050000000E+03 0.  1.
</event>
<event>
 4    1  0.4630618E-004  0.6500000E+04  0.7818608E-02  0.7223770E-01
         52   -1    0    0    0    0  0.00000000000E+00  0.00000000000E+00  0.64930732323E+04  0.65000000000E+04  0.30000000000E+03 0.  1.
        -52   -1    0    0    0    0 -0.00000000000E+00 -0.00000000000E+00 -0.64930732323E+04  0.65000000000E+04  0.30000000000E+03 0. -1.
     100001    1    1    2    0    0  0.34991037503E+04 -0.20120977324E+04 -0.50926501362E+04  0.65000000000E+04  0.15050000000E+03 0. -1.
     100001    1    1    2    0    0 -0.34991037503E+04  0.20120977324E+04  0.50926501362E+04  0.65000000000E+04  0.15050000000E+03 0.  1.
</event>
<event>
 4    1  0.4630618E-004  0.6500000E+04  0.7818608E-02  0.7223770E-01
         52   -1    0    0    0    0  0.00000000000E+00  0.00000000000E+00  0.64930732323E+04  0.65000000000E+04  0.30000000000E+03 0. -1.
        -52   -1    0    0    0    0 -0.00000000000E+00 -0.00000000000E+00 -0.64930732323E+04  0.65000000000E+04  0.30000000000E+03 0.  1.
     100001    1    1    2    0    0 -0.34792736424E+04 -0.61940197172E+03 -0.54532876202E+04  0.65000000000E+04  0.15050000000E+03 0.  1.
     100001    1    1    2    0    0  0.34792736424E+04  0.61940197172E+03  0.54532876202E+04  0.65000000000E+04  0.15050000000E+03 0. -1.
</event>
<event>
 4    1  0.4630618E-004  0.6500000E+04  0.7818608E-02  0.7223770E-01
         52   -1    0    0    0    0  0.00000000000E+00  0.00000000000E+00  0.64930732323E+04  0.65000000000E+04  0.30000000000E+03 0.  1.
        -52   -1    0    0    0    0 -0.00000000000E+00 -0.00000000000E+00 -0.64930732323E+04  0.65000000000E+04  0.30000000000E+03 0. -1.
     100001    1    1    2    0    0  0.25194110163E+03 -0.16040097759E+03  0.64913902176E+04  0.65000000000E+04  0.15050000000E+03 0.  1.
     100001    1    1    2    0    0 -0.25194110163E+03  0.16040097759E+03 -0.64913902176E+04  0.65000000000E+04  0.15050000000E+03 0. -1.
</event>
<event>
 4    1  0.4630618E-004  0.6500000E+04  0.7818608E-02  0.7223770E-01
         52   -1    0    0    0    0  0.00000000000E+00  0.00000000000E+00  0.64930732323E+04  0.65000000000E+04  0.30000000000E+03 0.  1.
        -52   -1    0    0    0    0 -0.00000000000E+00 -0.00000000000E+00 -0.64930732323E+04  0.65000000000E+04  0.30000000000E+03 0. -1.
     100001    1    1    2    0    0  0.29746143947E+04  0.28431698514E+04 -0.50294536630E+04  0.65000000000E+04  0.15050000000E+03 0. -1.
     100001    1    1    2    0    0 -0.29746143947E+04 -0.28431698514E+04  0.50294536630E+04  0.65000000000E+04  0.15050000000E+03 0.  1.
</event>
<event>
 4    1  0.4630618E-004  0.6500000E+04  0.7818608E-02  0.7223770E-01
         52   -1    0    0    0    0  0.00000000000E+00  0.00000000000E+00  0.64930732323E+04  0.65000000000E+04  0.30000000000E+03 0. -1.
        -52   -1    0    0    0    0 -0.00000000000E+00 -0.00000000000E+00 -0.64930732323E+04  0.65000000000E+04  0.30000000000E+03 0.  1.
     100001    1    1    2    0    0 -0.11171595421E+04 -0.23900453335E+03  0.63970447193E+04  0.65000000000E+04  0.15050000000E+03 0. -1.
     100001    1    1    2    0    0  0.11171595421E+04  0.23900453335E+03 -0.63970447193E+04  0.65000000000E+04  0.15050000000E+03 0.  1.
</event>
<event>
 4    1  0.4630618E-004  0.6500000E+04  0.7818608E-02  0.7223770E-01
         52   -1    0    0    0    0  0.00000000000E+00  0.00000000000E+00  0.64930732323E+04  0.65000000000E+04  0.30000000000E+03 0. -1.
        -52   -1    0    0    0    0 -0.00000000000E+00 -0.00000000000E+00 -0.64930732323E+04  0.65000000000E+04  0.30000000000E+03 0.  1.
     100001    1    1    2    0    0  0.23168103398E+04  0.10289336617E+04  0.59833966206E+04  0.65000000000E+04  0.15050000000E+03 0. -1.
     100001    1    1    2    0    0 -0.23168103398E+04 -0.10289336617E+04 -0.59833966206E+04  0.65000000000E+04  0.15050000000E+03 0.  1.
</event>
<event>
 4    1  0.4630618E-004  0.6500000E+04  0.7818608E-02  0.7223770E-01
         52   -1    0    0    0    0  0.00000000000E+00  0.00000000000E+00  0.64930732323E+04  0.65000000000E+04  0.30000000000E+03 0.  1.
        -52   -1    0    0    0    0 -0.00000000000E+00 -0.00000000000E+00 -0.64930732323E+04  0.65000000000E+04  0.30000000000E+03 0. -1.
     100001    1    1    2    0    0  0.17155740734E+03  0.51401055982E+03 -0.64756243676E+04  0.65000000000E+04  0.15050000000E+03 0. -1.
     100001    1    1    2    0    0 -0.17155740734E+03 -0.51401055982E+03  0.64756243676E+04  0.65000000000E+04  0.15050000000E+03 0.  1.
</event>
<event>
 4    1  0.4630618E-004  0.6500000E+04  0.7818608E-02  0.7223770E-01
         52   -1    0    0    0    0  0.00000000000E+00  0.00000000000E+00  0.64930732323E+04  0.65000000000E+04  0.30000000000E+03 0.  1.
        -52   -1    0    0    0    0 -0.00000000000E+00 -0.00000000000E+00 -0.64930732323E+04  0.65000000000E+04  0.30000000000E+03 0. -1.
     100001    1    1    2    0    0 -0.15078008562E+04  0.26005025888E+04  0.57611867366E+04  0.65000000000E+04  0.15050000000E+03 0.  1.
     100001    1    1    2    0    0  0.15078008562E+04 -0.26005025888E+04 -0.57611867366E+04  0.65000000000E+04  0.15050000000E+03 0. -1.
</event>
<event>
 4    1  0.4630618E-004  0.6500000E+04  0.7818608E-02  0.7223770E-01
         52   -1    0    0    0    0  0.00000000000E+00  0.00000000000E+00  0.64930732323E+04  0.65000000000E+04  0.30000000000E+03 0.  1.
        -52   -1    0    0    0    0 -0.00000000000E+00 -0.00000000000E+00 -0.64930732323E+04  0.65000000000E+04  0.30000000000E+03 0. -1.
     100001    1    1    2    0    0 -0.64849901569E+03  0.52218758161E+03 -0.64446969600E+04  0.65000000000E+04  0.15050000000E+03 0. -1.
     100001    1    1    2    0    0  0.64849901569E+03 -0.52218758161E+03  0.64446969600E+04  0.65000000000E+04  0.15050000000E+03 0.  1.
</event>
<event>
 4    1  0.4630618E-004  0.6500000E+04  0.7818608E-02  0.7223770E-01
         52   -1    0    0    0    0  0.00000000000E+00  0.00000000000E+00  0.64930732323E+04  0.65000000000E+04  0.30000000000E+03 0. -1.
        -52   -1    0    0    0    0 -0.00000000000E+00 -0.00000000000E+00 -0.64930732323E+04  0.65000000000E+04  0.30000000000E+03 0.  1.
     100001    1    1    2    0    0  0.15286740929E+04 -0.54465827009E+04 -0.31976932546E+04  0.65000000000E+04  0.15050000000E+03 0.  1.
     100001    1    1    2    0    0 -0.15286740929E+04  0.54465827009E+04  0.31976932546E+04  0.65000000000E+04  0.15050000000E+03 0. -1.
</event>
<event>
 4    1  0.4630618E-004  0.6500000E+04  0.7818608E-02  0.7223770E-01
         52   -1    0    0    0    0  0.00000000000E+00  0.00000000000E+00  0.64930732323E+04  0.65000000000E+04  0.30000000000E+03 0. -1.
        -52   -1    0    0    0    0 -0.00000000000E+00 -0.00000000000E+00 -0.64930732323E+04  0.65000000000E+04  0.30000000000E+03 0.  1.
     100001    1    1    2    0    0  0.67235759620E+02 -0.67705777339E+03 -0.64625398934E+04  0.65000000000E+04  0.15050000000E+03 0.  1.
     100001    1    1    2    0    0 -0.67235759620E+02  0.67705777339E+03  0.64625398934E+04  0.65000000000E+04  0.15050000000E+03 0. -1.
</event>
<event>
 4    1  0.4630618E-004  0.6500000E+04  0.7818608E-02  0.7223770E-01
         52   -1    0    0    0    0  0.00000000000E+00  0.00000000000E+00  0.64930732323E+04  0.65000000000E+04  0.30000000000E+03 0.  1.
        -52   -1    0    0    0    0 -0.00000000000E+00 -0.00000000000E+00 -0.64930732323E+04  0.65000000000E+04  0.30000000000E+03 0. -1.
     100001    1    1    2    0    0  0.30200926517E+04  0.40776295000E+04 -0.40594738312E+04  0.65000000000E+04  0.15050000000E+03 0. -1.
     100001    1    1    2    0    0 -0.30200926517E+04 -0.40776295000E+04  0.40594738312E+04  0.65000000000E+04  0.15050000000E+03 0.  1.
</event>
<event>
 4    1  0.4630618E-004  0.6500000E+04  0.7818608E-02  0.7223770E-01
         52   -1    0    0    0    0  0.00000000000E+00  0.00000000000E+00  0.64930732323E+04  0.65000000000E+04  0.30000000000E+03 0.  1.
        -52   -1    0    0    0    0 -0.00000000000E+00 -0.00000000000E+00 -0.64930732323E+04  0.65000000000E+04  0.30000000000E+03 0. -1.
     100001    1    1    2    0    0 -0.83621242991E+03 -0.30534728513E+03 -0.64369916543E+04  0.65000000000E+04  0.15050000000E+03 0. -1.
     100001    1    1    2    0    0  0.83621242991E+03  0.30534728513E+03  0.64369916543E+04  0.65000000000E+04  0.15050000000E+03 0.  1.
</event>
<event>
 4    1  0.4630618E-004  0.6500000E+04  0.7818608E-02  0.7223770E-01
         52   -1    0    0    0    0  0.00000000000E+00  0.00000000000E+00  0.64930732323E+04  0.65000000000E+04  0.30000000000E+03 0. -1.
        -52   -1    0    0    0    0 -0.00000000000E+00 -0.00000000000E+00 -0.64930732323E+04  0.65000000000E+04  0.30000000000E+03 0.  1.
     100001    1    1    2    0    0  0.27591966375E+03 -0.13918212986E+03  0.64909049002E+04  0.65000000000E+04  0.15050000000E+03 0. -1.
     100001    1    1    2    0    0 -0.27591966375E+03  0.13918212986E+03 -0.64909049002E+04  0.65000000000E+04  0.15050000000E+03 0.  1.
</event>
<event>
 4    1  0.4630618E-004  0.6500000E+04  0.7818608E-02  0.7223770E-01
         52   -1    0    0    0    0  0.00000000000E+00  0.00000000000E+00  0.64930732323E+04  0.65000000000E+04  0.30000000000E+03 0. -1.
        -52   -1    0    0    0    0 -0.00000000000E+00 -0.00000000000E+00 -0.64930732323E+04  0.65000000000E+04  0.30000000000E+03 0.  1.
     100001    1    1    2    0    0 -0.78683810328E+03  0.45393092018E+04 -0.45828929204E+04  0.65000000000E+04  0.15050000000E+03 0.  1.
     100001    1    1    2    0    0  0.78683810328E+03 -0.45393092018E+04  0.45828929204E+04  0.65000000000E+04  0.15050000000E+03 0. -1.
</event>
<event>
 4    1  0.4630618E-004  0.6500000E+04  0.7818608E-02  0.7223770E-01
         52   -1    0    0    0    0  0.00000000000E+00  0.00000000000E+00  0.64930732323E+04  0.65000000000E+04  0.30000000000E+03 0.  1.
        -52   -1    0    0    0    0 -0.00000000000E+00 -0.00000000000E+00 -0.64930732323E+04  0.65000000000E+04  0.30000000000E+03 0. -1.
     100001    1    1    2    0    0 -0.48680511024E+02  0.62140996566E+03 -0.64682941810E+04  0.65000000000E+04  0.15050000000E+03 0. -1.
     100001    1    1    2    0    0  0.48680511024E+02 -0.62140996566E+03  0.64682941810E+04  0.65000000000E+04  0.15050000000E+03 0.  1.
</event>
<event>
 4    1  0.4630618E-004  0.6500000E+04  0.7818608E-02  0.7223770E-01
         52   -1    0    0    0    0  0.00000000000E+00  0.00000000000E+00  0.64930732323E+04  0.65000000000E+04  0.30000000000E+03 0.  1.
        -52   -1    0    0    0    0 -0.00000000000E+00 -0.00000000000E+00 -0.64930732323E+04  0.65000000000E+04  0.30000000000E+03 0. -1.
     100001    1    1    2    0    0 -0.13838816700E+04 -0.29365483292E+03 -0.63423960861E+04  0.65000000000E+04  0.15050000000E+03 0. -1.
     100001    1    1    2    0    0  0.13838816700E+04  0.29365483292E+03  0.63423960861E+04  0.65000000000E+04  0.15050000000E+03 0.  1.
</event>
<event>
 4    1  0.4630618E-004  0.6500000E+04  0.7818608E-02  0.7223770E-01
         52   -1    0    0    0    0  0.00000000000E+00  0.00000000000E+00  0.64930732323E+04  0.65000000000E+04  0.30000000000E+03 0. -1.
        -52   -1    0    0    0    0 -0.00000000000E+00 -0.00000000000E+00 -0.64930732323E+04  0.65000000000E+04  0.30000000000E+03 0.  1.
     100001    1    1    2    0    0  0.39526760051E+04  0.16662852729E+04 -0.48813108422E+04  0.65000000000E+04  0.15050000000E+03 0.  1.
     100001    1    1    2    0    0 -0.39526760051E+04 -0.16662852729E+04  0.48813108422E+04  0.65000000000E+04  0.15050000000E+03 0. -1.
</event>
<event>
 4    1  0.4630618E-004  0.6500000E+04  0.7818608E-02  0.7223770E-01
         52   -1    0    0    0    0  0.00000000000E+00  0.00000000000E+00  0.64930732323E+04  0.65000000000E+04  0.30000000000E+03 0.  1.
        -52   -1    0    0    0    0 -0.00000000000E+00 -0.00000000000E+00 -0.64930732323E+04  0.65000000000E+04  0.30000000000E+03 0.  1.
     100001    1    1    2    0    0 -0.18244578259E+03  0.30892947766E+03  0.64883453872E+04  0.65000000000E+04  0.15050000000E+03 0.  1.
     100001    1    1    2    0    0  0.18244578259E+03 -0.30892947766E+03 -0.64883453872E+04  0.65000000000E+04  0.15050000000E+03 0.  1.
</event>
<event>
 4    1  0.4630618E-004  0.6500000E+04  0.7818608E-02  0.7223770E-01
         52   -1    0    0    0    0  0.00000000000E+00  0.00000000000E+00  0.64930732323E+04  0.65000000000E+04  0.30000000000E+03 0. -1.
        -52   -1    0    0    0    0 -0.00000000000E+00 -0.00000000000E+00 -0.64930732323E+04  0.65000000000E+04  0.30000000000E+03 0.  1.
     100001    1    1    2    0    0 -0.26886775485E+04 -0.25046641215E+03 -0.59106369679E+04  0.65000000000E+04  0.15050000000E+03 0.  1.
     100001    1    1    2    0    0  0.26886775485E+04  0.25046641215E+03  0.59106369679E+04  0.65000000000E+04  0.15050000000E+03 0. -1.
</event>
<event>
 4    1  0.4630618E-004  0.6500000E+04  0.7818608E-02  0.7223770E-01
         52   -1    0    0    0    0  0.00000000000E+00  0.00000000000E+00  0.64930732323E+04  0.65000000000E+04  0.30000000000E+03 0. -1.
        -52   -1    0    0    0    0 -0.00000000000E+00 -0.00000000000E+00 -0.64930732323E+04  0.65000000000E+04  0.30000000000E+03 0.  1.
     100001    1    1    2    0    0 -0.52369533409E+03 -0.40990223950E+03  0.64641374599E+04  0.65000000000E+04  0.15050000000E+03 0. -1.
     100001    1    1    2    0    0  0.52369533409E+03  0.40990223950E+03 -0.64641374599E+04  0.65000000000E+04  0.15050000000E+03 0.  1.
</event>
<event>
 4    1  0.4630618E-004  0.6500000E+04  0.7818608E-02  0.7223770E-01
         52   -1    0    0    0    0  0.00000000000E+00  0.00000000000E+00  0.64930732323E+04  0.65000000000E+04  0.30000000000E+03 0.  1.
        -52   -1    0    0    0    0 -0.00000000000E+00 -0.00000000000E+00 -0.64930732323E+04  0.65000000000E+04  0.30000000000E+03 0. -1.
     100001    1    1    2    0    0 -0.18821474848E+04  0.47814576239E+03 -0.62013101217E+04  0.65000000000E+04  0.15050000000E+03 0. -1.
     100001    1    1    2    0    0  0.18821474848E+04 -0.47814576239E+03  0.62013101217E+04  0.65000000000E+04  0.15050000000E+03 0.  1.
</event>
<event>
 4    1  0.4630618E-004  0.6500000E+04  0.7818608E-02  0.7223770E-01
         52   -1    0    0    0    0  0.00000000000E+00  0.00000000000E+00  0.64930732323E+04  0.65000000000E+04  0.30000000000E+03 0. -1.
        -52   -1    0    0    0    0 -0.00000000000E+00 -0.00000000000E+00 -0.64930732323E+04  0.65000000000E+04  0.30000000000E+03 0.  1.
     100001    1    1    2    0    0  0.16719680733E+04  0.89154312116E+03  0.62158686742E+04  0.65000000000E+04  0.15050000000E+03 0. -1.
     100001    1    1    2    0    0 -0.16719680733E+04 -0.89154312116E+03 -0.62158686742E+04  0.65000000000E+04  0.15050000000E+03 0.  1.
</event>
<event>
 4    1  0.4630618E-004  0.6500000E+04  0.7818608E-02  0.7223770E-01
         52   -1    0    0    0    0  0.00000000000E+00  0.00000000000E+00  0.64930732323E+04  0.65000000000E+04  0.30000000000E+03 0. -1.
        -52   -1    0    0    0    0 -0.00000000000E+00 -0.00000000000E+00 -0.64930732323E+04  0.65000000000E+04  0.30000000000E+03 0. -1.
     100001    1    1    2    0    0  0.19752518608E+03 -0.86389087542E+01  0.64952489498E+04  0.65000000000E+04  0.15050000000E+03 0. -1.
     100001    1    1    2    0    0 -0.19752518608E+03  0.86389087542E+01 -0.64952489498E+04  0.65000000000E+04  0.15050000000E+03 0. -1.
</event>
<event>
 4    1  0.4630618E-004  0.6500000E+04  0.7818608E-02  0.7223770E-01
         52   -1    0    0    0    0  0.00000000000E+00  0.00000000000E+00  0.64930732323E+04  0.65000000000E+04  0.30000000000E+03 0.  1.
        -52   -1    0    0    0    0 -0.00000000000E+00 -0.00000000000E+00 -0.64930732323E+04  0.65000000000E+04  0.30000000000E+03 0. -1.
     100001    1    1    2    0    0  0.16755974166E+04 -0.10502877752E+04  0.61900418930E+04  0.65000000000E+04  0.15050000000E+03 0.  1.
     100001    1    1    2    0    0 -0.16755974166E+04  0.10502877752E+04 -0.61900418930E+04  0.65000000000E+04  0.15050000000E+03 0. -1.
</event>
<event>
 4    1  0.4630618E-004  0.6500000E+04  0.7818608E-02  0.7223770E-01
         52   -1    0    0    0    0  0.00000000000E+00  0.00000000000E+00  0.64930732323E+04  0.65000000000E+04  0.30000000000E+03 0.  1.
        -52   -1    0    0    0    0 -0.00000000000E+00 -0.00000000000E+00 -0.64930732323E+04  0.65000000000E+04  0.30000000000E+03 0. -1.
     100001    1    1    2    0    0  0.38248756921E+03  0.64580800556E+03  0.64547645216E+04  0.65000000000E+04  0.15050000000E+03 0.  1.
     100001    1    1    2    0    0 -0.38248756921E+03 -0.64580800556E+03 -0.64547645216E+04  0.65000000000E+04  0.15050000000E+03 0. -1.
</event>
<event>
 4    1  0.4630618E-004  0.6500000E+04  0.7818608E-02  0.7223770E-01
         52   -1    0    0    0    0  0.00000000000E+00  0.00000000000E+00  0.64930732323E+04  0.65000000000E+04  0.30000000000E+03 0. -1.
        -52   -1    0    0    0    0 -0.00000000000E+00 -0.00000000000E+00 -0.64930732323E+04  0.65000000000E+04  0.30000000000E+03 0. -1.
     100001    1    1    2    0    0  0.13369706309E+03 -0.65543530154E+03  0.64637357163E+04  0.65000000000E+04  0.15050000000E+03 0. -1.
     100001    1    1    2    0    0 -0.13369706309E+03  0.65543530154E+03 -0.64637357163E+04  0.65000000000E+04  0.15050000000E+03 0. -1.
</event>
<event>
 4    1  0.4630618E-004  0.6500000E+04  0.7818608E-02  0.7223770E-01
         52   -1    0    0    0    0  0.00000000000E+00  0.00000000000E+00  0.64930732323E+04  0.65000000000E+04  0.30000000000E+03 0.  1.
        -52   -1    0    0    0    0 -0.00000000000E+00 -0.00000000000E+00 -0.64930732323E+04  0.65000000000E+04  0.30000000000E+03 0. -1.
     100001    1    1    2    0    0  0.16470602367E+03 -0.44497745926E+03 -0.64809117211E+04  0.65000000000E+04  0.15050000000E+03 0. -1.
     100001    1    1    2    0    0 -0.16470602367E+03  0.44497745926E+03  0.64809117211E+04  0.65000000000E+04  0.15050000000E+03 0.  1.
</event>
<event>
 4    1  0.4630618E-004  0.6500000E+04  0.7818608E-02  0.7223770E-01
         52   -1    0    0    0    0  0.00000000000E+00  0.00000000000E+00  0.64930732323E+04  0.65000000000E+04  0.30000000000E+03 0.  1.
        -52   -1    0    0    0    0 -0.00000000000E+00 -0.00000000000E+00 -0.64930732323E+04  0.65000000000E+04  0.30000000000E+03 0. -1.
     100001    1    1    2    0    0 -0.10677220103E+04  0.18841800740E+04 -0.61267597397E+04  0.65000000000E+04  0.15050000000E+03 0. -1.
     100001    1    1    2    0    0  0.10677220103E+04 -0.18841800740E+04  0.61267597397E+04  0.65000000000E+04  0.15050000000E+03 0.  1.
</event>
<event>
 4    1  0.4630618E-004  0.6500000E+04  0.7818608E-02  0.7223770E-01
         52   -1    0    0    0    0  0.00000000000E+00  0.00000000000E+00  0.64930732323E+04  0.65000000000E+04  0.30000000000E+03 0.  1.
        -52   -1    0    0    0    0 -0.00000000000E+00 -0.00000000000E+00 -0.64930732323E+04  0.65000000000E+04  0.30000000000E+03 0. -1.
     100001    1    1    2    0    0  0.52751878452E+04 -0.37925429261E+04 -0.12791052462E+03  0.65000000000E+04  0.15050000000E+03 0.  1.
     100001    1    1    2    0    0 -0.52751878452E+04  0.37925429261E+04  0.12791052462E+03  0.65000000000E+04  0.15050000000E+03 0. -1.
</event>
<event>
 4    1  0.4630618E-004  0.6500000E+04  0.7818608E-02  0.7223770E-01
         52   -1    0    0    0    0  0.00000000000E+00  0.00000000000E+00  0.64930732323E+04  0.65000000000E+04  0.30000000000E+03 0.  1.
        -52   -1    0    0    0    0 -0.00000000000E+00 -0.00000000000E+00 -0.64930732323E+04  0.65000000000E+04  0.30000000000E+03 0. -1.
     100001    1    1    2    0    0 -0.62718573336E+04  0.73215435335E+03 -0.15346352466E+04  0.65000000000E+04  0.15050000000E+03 0.  1.
     100001    1    1    2    0    0  0.62718573336E+04 -0.73215435335E+03  0.15346352466E+04  0.65000000000E+04  0.15050000000E+03 0. -1.
</event>
<event>
 4    1  0.4630618E-004  0.6500000E+04  0.7818608E-02  0.7223770E-01
         52   -1    0    0    0    0  0.00000000000E+00  0.00000000000E+00  0.64930732323E+04  0.65000000000E+04  0.30000000000E+03 0. -1.
        -52   -1    0    0    0    0 -0.00000000000E+00 -0.00000000000E+00 -0.64930732323E+04  0.65000000000E+04  0.30000000000E+03 0.  1.
     100001    1    1    2    0    0 -0.17914327722E+04  0.54069511375E+04  0.31277784080E+04  0.65000000000E+04  0.15050000000E+03 0. -1.
     100001    1    1    2    0    0  0.17914327722E+04 -0.54069511375E+04 -0.31277784080E+04  0.65000000000E+04  0.15050000000E+03 0.  1.
</event>
<event>
 4    1  0.4630618E-004  0.6500000E+04  0.7818608E-02  0.7223770E-01
         52   -1    0    0    0    0  0.00000000000E+00  0.00000000000E+00  0.64930732323E+04  0.65000000000E+04  0.30000000000E+03 0.  1.
        -52   -1    0    0    0    0 -0.00000000000E+00 -0.00000000000E+00 -0.64930732323E+04  0.65000000000E+04  0.30000000000E+03 0. -1.
     100001    1    1    2    0    0  0.79728915371E+03  0.10824821933E+04 -0.63576656138E+04  0.65000000000E+04  0.15050000000E+03 0. -1.
     100001    1    1    2    0    0 -0.79728915371E+03 -0.10824821933E+04  0.63576656138E+04  0.65000000000E+04  0.15050000000E+03 0.  1.
</event>
<event>
 4    1  0.4630618E-004  0.6500000E+04  0.7818608E-02  0.7223770E-01
         52   -1    0    0    0    0  0.00000000000E+00  0.00000000000E+00  0.64930732323E+04  0.65000000000E+04  0.30000000000E+03 0. -1.
        -52   -1    0    0    0    0 -0.00000000000E+00 -0.00000000000E+00 -0.64930732323E+04  0.65000000000E+04  0.30000000000E+03 0.  1.
     100001    1    1    2    0    0 -0.24700244868E+04  0.67131622548E+02 -0.60101432703E+04  0.65000000000E+04  0.15050000000E+03 0.  1.
     100001    1    1    2    0    0  0.24700244868E+04 -0.67131622548E+02  0.60101432703E+04  0.65000000000E+04  0.15050000000E+03 0. -1.
</event>
<event>
 4    1  0.4630618E-004  0.6500000E+04  0.7818608E-02  0.7223770E-01
         52   -1    0    0    0    0  0.00000000000E+00  0.00000000000E+00  0.64930732323E+04  0.65000000000E+04  0.30000000000E+03 0. -1.
        -52   -1    0    0    0    0 -0.00000000000E+00 -0.00000000000E+00 -0.64930732323E+04  0.65000000000E+04  0.30000000000E+03 0. -1.
     100001    1    1    2    0    0  0.15281503711E+04  0.41497545323E+03 -0.63023726934E+04  0.65000000000E+04  0.15050000000E+03 0. -1.
     100001    1    1    2    0    0 -0.15281503711E+04 -0.41497545323E+03  0.63023726934E+04  0.65000000000E+04  0.15050000000E+03 0. -1.
</event>
<event>
 4    1  0.4630618E-004  0.6500000E+04  0.7818608E-02  0.7223770E-01
         52   -1    0    0    0    0  0.00000000000E+00  0.00000000000E+00  0.64930732323E+04  0.65000000000E+04  0.30000000000E+03 0.  1.
        -52   -1    0    0    0    0 -0.00000000000E+00 -0.00000000000E+00 -0.64930732323E+04  0.65000000000E+04  0.30000000000E+03 0. -1.
     100001    1    1    2    0    0 -0.27091317698E+04 -0.28202209104E+04 -0.51898274365E+04  0.65000000000E+04  0.15050000000E+03 0. -1.
     100001    1    1    2    0    0  0.27091317698E+04  0.28202209104E+04  0.51898274365E+04  0.65000000000E+04  0.15050000000E+03 0.  1.
</event>
<event>
 4    1  0.4630618E-004  0.6500000E+04  0.7818608E-02  0.7223770E-01
         52   -1    0    0    0    0  0.00000000000E+00  0.00000000000E+00  0.64930732323E+04  0.65000000000E+04  0.30000000000E+03 0. -1.
        -52   -1    0    0    0    0 -0.00000000000E+00 -0.00000000000E+00 -0.64930732323E+04  0.65000000000E+04  0.30000000000E+03 0.  1.
     100001    1    1    2    0    0  0.46208753566E+03  0.23726002097E+04 -0.60319642824E+04  0.65000000000E+04  0.15050000000E+03 0.  1.
     100001    1    1    2    0    0 -0.46208753566E+03 -0.23726002097E+04  0.60319642824E+04  0.65000000000E+04  0.15050000000E+03 0. -1.
</event>
<event>
 4    1  0.4630618E-004  0.6500000E+04  0.7818608E-02  0.7223770E-01
         52   -1    0    0    0    0  0.00000000000E+00  0.00000000000E+00  0.64930732323E+04  0.65000000000E+04  0.30000000000E+03 0. -1.
        -52   -1    0    0    0    0 -0.00000000000E+00 -0.00000000000E+00 -0.64930732323E+04  0.65000000000E+04  0.30000000000E+03 0.  1.
     100001    1    1    2    0    0  0.12391281242E+04  0.58969756112E+03 -0.63517059148E+04  0.65000000000E+04  0.15050000000E+03 0.  1.
     100001    1    1    2    0    0 -0.12391281242E+04 -0.58969756112E+03  0.63517059148E+04  0.65000000000E+04  0.15050000000E+03 0. -1.
</event>
<event>
 4    1  0.4630618E-004  0.6500000E+04  0.7818608E-02  0.7223770E-01
         52   -1    0    0    0    0  0.00000000000E+00  0.00000000000E+00  0.64930732323E+04  0.65000000000E+04  0.30000000000E+03 0. -1.
        -52   -1    0    0    0    0 -0.00000000000E+00 -0.00000000000E+00 -0.64930732323E+04  0.65000000000E+04  0.30000000000E+03 0.  1.
     100001    1    1    2    0    0  0.42302862002E+04 -0.20996128920E+04  0.44635920644E+04  0.65000000000E+04  0.15050000000E+03 0. -1.
     100001    1    1    2    0    0 -0.42302862002E+04  0.20996128920E+04 -0.44635920644E+04  0.65000000000E+04  0.15050000000E+03 0.  1.
</event>
<event>
 4    1  0.4630618E-004  0.6500000E+04  0.7818608E-02  0.7223770E-01
         52   -1    0    0    0    0  0.00000000000E+00  0.00000000000E+00  0.64930732323E+04  0.65000000000E+04  0.30000000000E+03 0.  1.
        -52   -1    0    0    0    0 -0.00000000000E+00 -0.00000000000E+00 -0.64930732323E+04  0.65000000000E+04  0.30000000000E+03 0. -1.
     100001    1    1    2    0    0 -0.34036908508E+03  0.70209634264E+03  0.64512447916E+04  0.65000000000E+04  0.15050000000E+03 0.  1.
     100001    1    1    2    0    0  0.34036908508E+03 -0.70209634264E+03 -0.64512447916E+04  0.65000000000E+04  0.15050000000E+03 0. -1.
</event>
<event>
 4    1  0.4630618E-004  0.6500000E+04  0.7818608E-02  0.7223770E-01
         52   -1    0    0    0    0  0.00000000000E+00  0.00000000000E+00  0.64930732323E+04  0.65000000000E+04  0.30000000000E+03 0.  1.
        -52   -1    0    0    0    0 -0.00000000000E+00 -0.00000000000E+00 -0.64930732323E+04  0.65000000000E+04  0.30000000000E+03 0. -1.
     100001    1    1    2    0    0  0.63936973710E+03  0.29422953703E+03 -0.64600298040E+04  0.65000000000E+04  0.15050000000E+03 0. -1.
     100001    1    1    2    0    0 -0.63936973710E+03 -0.29422953703E+03  0.64600298040E+04  0.65000000000E+04  0.15050000000E+03 0.  1.
</event>
<event>
 4    1  0.4630618E-004  0.6500000E+04  0.7818608E-02  0.7223770E-01
         52   -1    0    0    0    0  0.00000000000E+00  0.00000000000E+00  0.64930732323E+04  0.65000000000E+04  0.30000000000E+03 0.  1.
        -52   -1    0    0    0    0 -0.00000000000E+00 -0.00000000000E+00 -0.64930732323E+04  0.65000000000E+04  0.30000000000E+03 0. -1.
     100001    1    1    2    0    0 -0.39561074368E+04  0.42082617555E+04  0.29777670654E+04  0.65000000000E+04  0.15050000000E+03 0.  1.
     100001    1    1    2    0    0  0.39561074368E+04 -0.42082617555E+04 -0.29777670654E+04  0.65000000000E+04  0.15050000000E+03 0. -1.
</event>
<event>
 4    1  0.4630618E-004  0.6500000E+04  0.7818608E-02  0.7223770E-01
         52   -1    0    0    0    0  0.00000000000E+00  0.00000000000E+00  0.64930732323E+04  0.65000000000E+04  0.30000000000E+03 0.  1.
        -52   -1    0    0    0    0 -0.00000000000E+00 -0.00000000000E+00 -0.64930732323E+04  0.65000000000E+04  0.30000000000E+03 0. -1.
     100001    1    1    2    0    0 -0.59244877164E+03 -0.21866746543E+04  0.60905507271E+04  0.65000000000E+04  0.15050000000E+03 0.  1.
     100001    1    1    2    0    0  0.59244877164E+03  0.21866746543E+04 -0.60905507271E+04  0.65000000000E+04  0.15050000000E+03 0. -1.
</event>
<event>
 4    1  0.4630618E-004  0.6500000E+04  0.7818608E-02  0.7223770E-01
         52   -1    0    0    0    0  0.00000000000E+00  0.00000000000E+00  0.64930732323E+04  0.65000000000E+04  0.30000000000E+03 0. -1.
        -52   -1    0    0    0    0 -0.00000000000E+00 -0.00000000000E+00 -0.64930732323E+04  0.65000000000E+04  0.30000000000E+03 0.  1.
     100001    1    1    2    0    0 -0.20545620789E+04 -0.48336149870E+03  0.61459324822E+04  0.65000000000E+04  0.15050000000E+03 0. -1.
     100001    1    1    2    0    0  0.20545620789E+04  0.48336149870E+03 -0.61459324822E+04  0.65000000000E+04  0.15050000000E+03 0.  1.
</event>
<event>
 4    1  0.4630618E-004  0.6500000E+04  0.7818608E-02  0.7223770E-01
         52   -1    0    0    0    0  0.00000000000E+00  0.00000000000E+00  0.64930732323E+04  0.65000000000E+04  0.30000000000E+03 0.  1.
        -52   -1    0    0    0    0 -0.00000000000E+00 -0.00000000000E+00 -0.64930732323E+04  0.65000000000E+04  0.30000000000E+03 0. -1.
     100001    1    1    2    0    0 -0.14152923211E+04 -0.21250922204E+04 -0.59756405891E+04  0.65000000000E+04  0.15050000000E+03 0. -1.
     100001    1    1    2    0    0  0.14152923211E+04  0.21250922204E+04  0.59756405891E+04  0.65000000000E+04  0.15050000000E+03 0.  1.
</event>
<event>
 4    1  0.4630618E-004  0.6500000E+04  0.7818608E-02  0.7223770E-01
         52   -1    0    0    0    0  0.00000000000E+00  0.00000000000E+00  0.64930732323E+04  0.65000000000E+04  0.30000000000E+03 0. -1.
        -52   -1    0    0    0    0 -0.00000000000E+00 -0.00000000000E+00 -0.64930732323E+04  0.65000000000E+04  0.30000000000E+03 0.  1.
     100001    1    1    2    0    0  0.14849900815E+04  0.29354862231E+03 -0.63194923383E+04  0.65000000000E+04  0.15050000000E+03 0.  1.
     100001    1    1    2    0    0 -0.14849900815E+04 -0.29354862231E+03  0.63194923383E+04  0.65000000000E+04  0.15050000000E+03 0. -1.
</event>
<event>
 4    1  0.4630618E-004  0.6500000E+04  0.7818608E-02  0.7223770E-01
         52   -1    0    0    0    0  0.00000000000E+00  0.00000000000E+00  0.64930732323E+04  0.65000000000E+04  0.30000000000E+03 0. -1.
        -52   -1    0    0    0    0 -0.00000000000E+00 -0.00000000000E+00 -0.64930732323E+04  0.65000000000E+04  0.30000000000E+03 0.  1.
     100001    1    1    2    0    0 -0.43726215914E+04  0.65658611289E+03 -0.47619769891E+04  0.65000000000E+04  0.15050000000E+03 0.  1.
     100001    1    1    2    0    0  0.43726215914E+04 -0.65658611289E+03  0.47619769891E+04  0.65000000000E+04  0.15050000000E+03 0. -1.
</event>
<event>
 4    1  0.4630618E-004  0.6500000E+04  0.7818608E-02  0.7223770E-01
         52   -1    0    0    0    0  0.00000000000E+00  0.00000000000E+00  0.64930732323E+04  0.65000000000E+04  0.30000000000E+03 0. -1.
        -52   -1    0    0    0    0 -0.00000000000E+00 -0.00000000000E+00 -0.64930732323E+04  0.65000000000E+04  0.30000000000E+03 0.  1.
     100001    1    1    2    0    0 -0.24573307947E+04 -0.38478432474E+04  0.46241731649E+04  0.65000000000E+04  0.15050000000E+03 0. -1.
     100001    1    1    2    0    0  0.24573307947E+04  0.38478432474E+04 -0.46241731649E+04  0.65000000000E+04  0.15050000000E+03 0.  1.
</event>
<event>
 4    1  0.4630618E-004  0.6500000E+04  0.7818608E-02  0.7223770E-01
         52   -1    0    0    0    0  0.00000000000E+00  0.00000000000E+00  0.64930732323E+04  0.65000000000E+04  0.30000000000E+03 0. -1.
        -52   -1    0    0    0    0 -0.00000000000E+00 -0.00000000000E+00 -0.64930732323E+04  0.65000000000E+04  0.30000000000E+03 0.  1.
     100001    1    1    2    0    0 -0.12760931718E+04  0.10993468018E+04  0.62761749957E+04  0.65000000000E+04  0.15050000000E+03 0. -1.
     100001    1    1    2    0    0  0.12760931718E+04 -0.10993468018E+04 -0.62761749957E+04  0.65000000000E+04  0.15050000000E+03 0.  1.
</event>
<event>
 4    1  0.4630618E-004  0.6500000E+04  0.7818608E-02  0.7223770E-01
         52   -1    0    0    0    0  0.00000000000E+00  0.00000000000E+00  0.64930732323E+04  0.65000000000E+04  0.30000000000E+03 0. -1.
        -52   -1    0    0    0    0 -0.00000000000E+00 -0.00000000000E+00 -0.64930732323E+04  0.65000000000E+04  0.30000000000E+03 0. -1.
     100001    1    1    2    0    0  0.19872792608E+03  0.97876058199E+02  0.64944805211E+04  0.65000000000E+04  0.15050000000E+03 0. -1.
     100001    1    1    2    0    0 -0.19872792608E+03 -0.97876058199E+02 -0.64944805211E+04  0.65000000000E+04  0.15050000000E+03 0. -1.
</event>
<event>
 4    1  0.4630618E-004  0.6500000E+04  0.7818608E-02  0.7223770E-01
         52   -1    0    0    0    0  0.00000000000E+00  0.00000000000E+00  0.64930732323E+04  0.65000000000E+04  0.30000000000E+03 0.  1.
        -52   -1    0    0    0    0 -0.00000000000E+00 -0.00000000000E+00 -0.64930732323E+04  0.65000000000E+04  0.30000000000E+03 0. -1.
     100001    1    1    2    0    0 -0.31733931556E+04  0.12448175270E+04 -0.55323914318E+04  0.65000000000E+04  0.15050000000E+03 0. -1.
     100001    1    1    2    0    0  0.31733931556E+04 -0.12448175270E+04  0.55323914318E+04  0.65000000000E+04  0.15050000000E+03 0.  1.
</event>
<event>
 4    1  0.4630618E-004  0.6500000E+04  0.7818608E-02  0.7223770E-01
         52   -1    0    0    0    0  0.00000000000E+00  0.00000000000E+00  0.64930732323E+04  0.65000000000E+04  0.30000000000E+03 0. -1.
        -52   -1    0    0    0    0 -0.00000000000E+00 -0.00000000000E+00 -0.64930732323E+04  0.65000000000E+04  0.30000000000E+03 0.  1.
     100001    1    1    2    0    0  0.47695508710E+03  0.82246165461E+02 -0.64802082654E+04  0.65000000000E+04  0.15050000000E+03 0.  1.
     100001    1    1    2    0    0 -0.47695508710E+03 -0.82246165461E+02  0.64802082654E+04  0.65000000000E+04  0.15050000000E+03 0. -1.
</event>
<event>
 4    1  0.4630618E-004  0.6500000E+04  0.7818608E-02  0.7223770E-01
         52   -1    0    0    0    0  0.00000000000E+00  0.00000000000E+00  0.64930732323E+04  0.65000000000E+04  0.30000000000E+03 0. -1.
        -52   -1    0    0    0    0 -0.00000000000E+00 -0.00000000000E+00 -0.64930732323E+04  0.65000000000E+04  0.30000000000E+03 0.  1.
     100001    1    1    2    0    0  0.55487971149E+04  0.32979396733E+04 -0.74952934467E+03  0.65000000000E+04  0.15050000000E+03 0. -1.
     100001    1    1    2    0    0 -0.55487971149E+04 -0.32979396733E+04  0.74952934467E+03  0.65000000000E+04  0.15050000000E+03 0.  1.
</event>
<event>
 4    1  0.4630618E-004  0.6500000E+04  0.7818608E-02  0.7223770E-01
         52   -1    0    0    0    0  0.00000000000E+00  0.00000000000E+00  0.64930732323E+04  0.65000000000E+04  0.30000000000E+03 0. -1.
        -52   -1    0    0    0    0 -0.00000000000E+00 -0.00000000000E+00 -0.64930732323E+04  0.65000000000E+04  0.30000000000E+03 0.  1.
     100001    1    1    2    0    0 -0.33481520762E+04  0.30264251339E+04 -0.46752516867E+04  0.65000000000E+04  0.15050000000E+03 0.  1.
     100001    1    1    2    0    0  0.33481520762E+04 -0.30264251339E+04  0.46752516867E+04  0.65000000000E+04  0.15050000000E+03 0. -1.
</event>
<event>
 4    1  0.4630618E-004  0.6500000E+04  0.7818608E-02  0.7223770E-01
         52   -1    0    0    0    0  0.00000000000E+00  0.00000000000E+00  0.64930732323E+04  0.65000000000E+04  0.30000000000E+03 0.  1.
        -52   -1    0    0    0    0 -0.00000000000E+00 -0.00000000000E+00 -0.64930732323E+04  0.65000000000E+04  0.30000000000E+03 0. -1.
     100001    1    1    2    0    0  0.42336254985E+04  0.17074527337E+04 -0.46247562153E+04  0.65000000000E+04  0.15050000000E+03 0. -1.
     100001    1    1    2    0    0 -0.42336254985E+04 -0.17074527337E+04  0.46247562153E+04  0.65000000000E+04  0.15050000000E+03 0.  1.
</event>
<event>
 4    1  0.4630618E-004  0.6500000E+04  0.7818608E-02  0.7223770E-01
         52   -1    0    0    0    0  0.00000000000E+00  0.00000000000E+00  0.64930732323E+04  0.65000000000E+04  0.30000000000E+03 0. -1.
        -52   -1    0    0    0    0 -0.00000000000E+00 -0.00000000000E+00 -0.64930732323E+04  0.65000000000E+04  0.30000000000E+03 0.  1.
     100001    1    1    2    0    0 -0.24801006346E+04 -0.21749075755E+04 -0.55987701891E+04  0.65000000000E+04  0.15050000000E+03 0.  1.
     100001    1    1    2    0    0  0.24801006346E+04  0.21749075755E+04  0.55987701891E+04  0.65000000000E+04  0.15050000000E+03 0. -1.
</event>
<event>
 4    1  0.4630618E-004  0.6500000E+04  0.7818608E-02  0.7223770E-01
         52   -1    0    0    0    0  0.00000000000E+00  0.00000000000E+00  0.64930732323E+04  0.65000000000E+04  0.30000000000E+03 0.  1.
        -52   -1    0    0    0    0 -0.00000000000E+00 -0.00000000000E+00 -0.64930732323E+04  0.65000000000E+04  0.30000000000E+03 0. -1.
     100001    1    1    2    0    0  0.69977409082E+03 -0.17239985342E+03 -0.64581688010E+04  0.65000000000E+04  0.15050000000E+03 0. -1.
     100001    1    1    2    0    0 -0.69977409082E+03  0.17239985342E+03  0.64581688010E+04  0.65000000000E+04  0.15050000000E+03 0.  1.
</event>
<event>
 4    1  0.4630618E-004  0.6500000E+04  0.7818608E-02  0.7223770E-01
         52   -1    0    0    0    0  0.00000000000E+00  0.00000000000E+00  0.64930732323E+04  0.65000000000E+04  0.30000000000E+03 0.  1.
        -52   -1    0    0    0    0 -0.00000000000E+00 -0.00000000000E+00 -0.64930732323E+04  0.65000000000E+04  0.30000000000E+03 0. -1.
     100001    1    1    2    0    0  0.13954684321E+04  0.91070309009E+03  0.62809742466E+04  0.65000000000E+04  0.15050000000E+03 0.  1.
     100001    1    1    2    0    0 -0.13954684321E+04 -0.91070309009E+03 -0.62809742466E+04  0.65000000000E+04  0.15050000000E+03 0. -1.
</event>
<event>
 4    1  0.4630618E-004  0.6500000E+04  0.7818608E-02  0.7223770E-01
         52   -1    0    0    0    0  0.00000000000E+00  0.00000000000E+00  0.64930732323E+04  0.65000000000E+04  0.30000000000E+03 0.  1.
        -52   -1    0    0    0    0 -0.00000000000E+00 -0.00000000000E+00 -0.64930732323E+04  0.65000000000E+04  0.30000000000E+03 0. -1.
     100001    1    1    2    0    0  0.10178238733E+04 -0.20068786624E+04 -0.60962137715E+04  0.65000000000E+04  0.15050000000E+03 0. -1.
     100001    1    1    2    0    0 -0.10178238733E+04  0.20068786624E+04  0.60962137715E+04  0.65000000000E+04  0.15050000000E+03 0.  1.
</event>
<event>
 4    1  0.4630618E-004  0.6500000E+04  0.7818608E-02  0.7223770E-01
         52   -1    0    0    0    0  0.00000000000E+00  0.00000000000E+00  0.64930732323E+04  0.65000000000E+04  0.30000000000E+03 0.  1.
        -52   -1    0    0    0    0 -0.00000000000E+00 -0.00000000000E+00 -0.64930732323E+04  0.65000000000E+04  0.30000000000E+03 0. -1.
     100001    1    1    2    0    0  0.95946493053E+03 -0.18965983532E+04 -0.61408217271E+04  0.65000000000E+04  0.15050000000E+03 0. -1.
     100001    1    1    2    0    0 -0.95946493053E+03  0.18965983532E+04  0.61408217271E+04  0.65000000000E+04  0.15050000000E+03 0.  1.
</event>
<event>
 4    1  0.4630618E-004  0.6500000E+04  0.7818608E-02  0.7223770E-01
         52   -1    0    0    0    0  0.00000000000E+00  0.00000000000E+00  0.64930732323E+04  0.65000000000E+04  0.30000000000E+03 0. -1.
        -52   -1    0    0    0    0 -0.00000000000E+00 -0.00000000000E+00 -0.64930732323E+04  0.65000000000E+04  0.30000000000E+03 0.  1.
     100001    1    1    2    0    0  0.13403488000E+04  0.30058049591E+04 -0.56032090263E+04  0.65000000000E+04  0.15050000000E+03 0.  1.
     100001    1    1    2    0    0 -0.13403488000E+04 -0.30058049591E+04  0.56032090263E+04  0.65000000000E+04  0.15050000000E+03 0. -1.
</event>
<event>
 4    1  0.4630618E-004  0.6500000E+04  0.7818608E-02  0.7223770E-01
         52   -1    0    0    0    0  0.00000000000E+00  0.00000000000E+00  0.64930732323E+04  0.65000000000E+04  0.30000000000E+03 0. -1.
        -52   -1    0    0    0    0 -0.00000000000E+00 -0.00000000000E+00 -0.64930732323E+04  0.65000000000E+04  0.30000000000E+03 0.  1.
     100001    1    1    2    0    0 -0.10248838144E+04  0.21792976093E+04  0.60355302043E+04  0.65000000000E+04  0.15050000000E+03 0. -1.
     100001    1    1    2    0    0  0.10248838144E+04 -0.21792976093E+04 -0.60355302043E+04  0.65000000000E+04  0.15050000000E+03 0.  1.
</event>
<event>
 4    1  0.4630618E-004  0.6500000E+04  0.7818608E-02  0.7223770E-01
         52   -1    0    0    0    0  0.00000000000E+00  0.00000000000E+00  0.64930732323E+04  0.65000000000E+04  0.30000000000E+03 0.  1.
        -52   -1    0    0    0    0 -0.00000000000E+00 -0.00000000000E+00 -0.64930732323E+04  0.65000000000E+04  0.30000000000E+03 0. -1.
     100001    1    1    2    0    0  0.40328081034E+03 -0.32813945425E+03  0.64774253247E+04  0.65000000000E+04  0.15050000000E+03 0.  1.
     100001    1    1    2    0    0 -0.40328081034E+03  0.32813945425E+03 -0.64774253247E+04  0.65000000000E+04  0.15050000000E+03 0. -1.
</event>
<event>
 4    1  0.4630618E-004  0.6500000E+04  0.7818608E-02  0.7223770E-01
         52   -1    0    0    0    0  0.00000000000E+00  0.00000000000E+00  0.64930732323E+04  0.65000000000E+04  0.30000000000E+03 0. -1.
        -52   -1    0    0    0    0 -0.00000000000E+00 -0.00000000000E+00 -0.64930732323E+04  0.65000000000E+04  0.30000000000E+03 0.  1.
     100001    1    1    2    0    0  0.19142356338E+04 -0.18974570285E+04  0.59129272373E+04  0.65000000000E+04  0.15050000000E+03 0. -1.
     100001    1    1    2    0    0 -0.19142356338E+04  0.18974570285E+04 -0.59129272373E+04  0.65000000000E+04  0.15050000000E+03 0.  1.
</event>
<event>
 4    1  0.4630618E-004  0.6500000E+04  0.7818608E-02  0.7223770E-01
         52   -1    0    0    0    0  0.00000000000E+00  0.00000000000E+00  0.64930732323E+04  0.65000000000E+04  0.30000000000E+03 0.  1.
        -52   -1    0    0    0    0 -0.00000000000E+00 -0.00000000000E+00 -0.64930732323E+04  0.65000000000E+04  0.30000000000E+03 0. -1.
     100001    1    1    2    0    0  0.22059224556E+03 -0.46331646095E+03  0.64779647011E+04  0.65000000000E+04  0.15050000000E+03 0.  1.
     100001    1    1    2    0    0 -0.22059224556E+03  0.46331646095E+03 -0.64779647011E+04  0.65000000000E+04  0.15050000000E+03 0. -1.
</event>
<event>
 4    1  0.4630618E-004  0.6500000E+04  0.7818608E-02  0.7223770E-01
         52   -1    0    0    0    0  0.00000000000E+00  0.00000000000E+00  0.64930732323E+04  0.65000000000E+04  0.30000000000E+03 0. -1.
        -52   -1    0    0    0    0 -0.00000000000E+00 -0.00000000000E+00 -0.64930732323E+04  0.65000000000E+04  0.30000000000E+03 0.  1.
     100001    1    1    2    0    0  0.35530463609E+03 -0.19804293550E+04  0.61789164046E+04  0.65000000000E+04  0.15050000000E+03 0. -1.
     100001    1    1    2    0    0 -0.35530463609E+03  0.19804293550E+04 -0.61789164046E+04  0.65000000000E+04  0.15050000000E+03 0.  1.
</event>
<event>
 4    1  0.4630618E-004  0.6500000E+04  0.7818608E-02  0.7223770E-01
         52   -1    0    0    0    0  0.00000000000E+00  0.00000000000E+00  0.64930732323E+04  0.65000000000E+04  0.30000000000E+03 0.  1.
        -52   -1    0    0    0    0 -0.00000000000E+00 -0.00000000000E+00 -0.64930732323E+04  0.65000000000E+04  0.30000000000E+03 0. -1.
     100001    1    1    2    0    0  0.14159464968E+04 -0.24948394165E+04 -0.58307993924E+04  0.65000000000E+04  0.15050000000E+03 0. -1.
     100001    1    1    2    0    0 -0.14159464968E+04  0.24948394165E+04  0.58307993924E+04  0.65000000000E+04  0.15050000000E+03 0.  1.
</event>
<event>
 4    1  0.4630618E-004  0.6500000E+04  0.7818608E-02  0.7223770E-01
         52   -1    0    0    0    0  0.00000000000E+00  0.00000000000E+00  0.64930732323E+04  0.65000000000E+04  0.30000000000E+03 0. -1.
        -52   -1    0    0    0    0 -0.00000000000E+00 -0.00000000000E+00 -0.64930732323E+04  0.65000000000E+04  0.30000000000E+03 0.  1.
     100001    1    1    2    0    0 -0.75992306708E+03  0.17806630145E+04  0.62031529008E+04  0.65000000000E+04  0.15050000000E+03 0. -1.
     100001    1    1    2    0    0  0.75992306708E+03 -0.17806630145E+04 -0.62031529008E+04  0.65000000000E+04  0.15050000000E+03 0.  1.
</event>
<event>
 4    1  0.4630618E-004  0.6500000E+04  0.7818608E-02  0.7223770E-01
         52   -1    0    0    0    0  0.00000000000E+00  0.00000000000E+00  0.64930732323E+04  0.65000000000E+04  0.30000000000E+03 0.  1.
        -52   -1    0    0    0    0 -0.00000000000E+00 -0.00000000000E+00 -0.64930732323E+04  0.65000000000E+04  0.30000000000E+03 0.  1.
     100001    1    1    2    0    0  0.14552215271E+03 -0.19400521478E+03 -0.64937304402E+04  0.65000000000E+04  0.15050000000E+03 0.  1.
     100001    1    1    2    0    0 -0.14552215271E+03  0.19400521478E+03  0.64937304402E+04  0.65000000000E+04  0.15050000000E+03 0.  1.
</event>
<event>
 4    1  0.4630618E-004  0.6500000E+04  0.7818608E-02  0.7223770E-01
         52   -1    0    0    0    0  0.00000000000E+00  0.00000000000E+00  0.64930732323E+04  0.65000000000E+04  0.30000000000E+03 0.  1.
        -52   -1    0    0    0    0 -0.00000000000E+00 -0.00000000000E+00 -0.64930732323E+04  0.65000000000E+04  0.30000000000E+03 0. -1.
     100001    1    1    2    0    0  0.45168460650E+02 -0.38033151241E+04  0.52687857830E+04  0.65000000000E+04  0.15050000000E+03 0.  1.
     100001    1    1    2    0    0 -0.45168460650E+02  0.38033151241E+04 -0.52687857830E+04  0.65000000000E+04  0.15050000000E+03 0. -1.
</event>
<event>
 4    1  0.4630618E-004  0.6500000E+04  0.7818608E-02  0.7223770E-01
         52   -1    0    0    0    0  0.00000000000E+00  0.00000000000E+00  0.64930732323E+04  0.65000000000E+04  0.30000000000E+03 0. -1.
        -52   -1    0    0    0    0 -0.00000000000E+00 -0.00000000000E+00 -0.64930732323E+04  0.65000000000E+04  0.30000000000E+03 0.  1.
     100001    1    1    2    0    0 -0.12015955697E+04 -0.32118790796E+04  0.55197237807E+04  0.65000000000E+04  0.15050000000E+03 0. -1.
     100001    1    1    2    0    0  0.12015955697E+04  0.32118790796E+04 -0.55197237807E+04  0.65000000000E+04  0.15050000000E+03 0.  1.
</event>
<event>
 4    1  0.4630618E-004  0.6500000E+04  0.7818608E-02  0.7223770E-01
         52   -1    0    0    0    0  0.00000000000E+00  0.00000000000E+00  0.64930732323E+04  0.65000000000E+04  0.30000000000E+03 0. -1.
        -52   -1    0    0    0    0 -0.00000000000E+00 -0.00000000000E+00 -0.64930732323E+04  0.65000000000E+04  0.30000000000E+03 0.  1.
     100001    1    1    2    0    0 -0.16896585454E+04  0.54873462140E+04 -0.30432606325E+04  0.65000000000E+04  0.15050000000E+03 0.  1.
     100001    1    1    2    0    0  0.16896585454E+04 -0.54873462140E+04  0.30432606325E+04  0.65000000000E+04  0.15050000000E+03 0. -1.
</event>
<event>
 4    1  0.4630618E-004  0.6500000E+04  0.7818608E-02  0.7223770E-01
         52   -1    0    0    0    0  0.00000000000E+00  0.00000000000E+00  0.64930732323E+04  0.65000000000E+04  0.30000000000E+03 0. -1.
        -52   -1    0    0    0    0 -0.00000000000E+00 -0.00000000000E+00 -0.64930732323E+04  0.65000000000E+04  0.30000000000E+03 0. -1.
     100001    1    1    2    0    0  0.88144370108E+02  0.33988061588E+02  0.64975707100E+04  0.65000000000E+04  0.15050000000E+03 0. -1.
     100001    1    1    2    0    0 -0.88144370108E+02 -0.33988061588E+02 -0.64975707100E+04  0.65000000000E+04  0.15050000000E+03 0. -1.
</event>
<event>
 4    1  0.4630618E-004  0.6500000E+04  0.7818608E-02  0.7223770E-01
         52   -1    0    0    0    0  0.00000000000E+00  0.00000000000E+00  0.64930732323E+04  0.65000000000E+04  0.30000000000E+03 0. -1.
        -52   -1    0    0    0    0 -0.00000000000E+00 -0.00000000000E+00 -0.64930732323E+04  0.65000000000E+04  0.30000000000E+03 0.  1.
     100001    1    1    2    0    0  0.34805834700E+02  0.28041153378E+03  0.64921111879E+04  0.65000000000E+04  0.15050000000E+03 0. -1.
     100001    1    1    2    0    0 -0.34805834700E+02 -0.28041153378E+03 -0.64921111879E+04  0.65000000000E+04  0.15050000000E+03 0.  1.
</event>
<event>
 4    1  0.4630618E-004  0.6500000E+04  0.7818608E-02  0.7223770E-01
         52   -1    0    0    0    0  0.00000000000E+00  0.00000000000E+00  0.64930732323E+04  0.65000000000E+04  0.30000000000E+03 0. -1.
        -52   -1    0    0    0    0 -0.00000000000E+00 -0.00000000000E+00 -0.64930732323E+04  0.65000000000E+04  0.30000000000E+03 0.  1.
     100001    1    1    2    0    0  0.34333822533E+04  0.12322127949E+04  0.53778143963E+04  0.65000000000E+04  0.15050000000E+03 0. -1.
     100001    1    1    2    0    0 -0.34333822533E+04 -0.12322127949E+04 -0.53778143963E+04  0.65000000000E+04  0.15050000000E+03 0.  1.
</event>
<event>
 4    1  0.4630618E-004  0.6500000E+04  0.7818608E-02  0.7223770E-01
         52   -1    0    0    0    0  0.00000000000E+00  0.00000000000E+00  0.64930732323E+04  0.65000000000E+04  0.30000000000E+03 0. -1.
        -52   -1    0    0    0    0 -0.00000000000E+00 -0.00000000000E+00 -0.64930732323E+04  0.65000000000E+04  0.30000000000E+03 0.  1.
     100001    1    1    2    0    0  0.13306120385E+04 -0.61995014704E+04  0.14223230547E+04  0.65000000000E+04  0.15050000000E+03 0. -1.
     100001    1    1    2    0    0 -0.13306120385E+04  0.61995014704E+04 -0.14223230547E+04  0.65000000000E+04  0.15050000000E+03 0.  1.
</event>
<event>
 4    1  0.4630618E-004  0.6500000E+04  0.7818608E-02  0.7223770E-01
         52   -1    0    0    0    0  0.00000000000E+00  0.00000000000E+00  0.64930732323E+04  0.65000000000E+04  0.30000000000E+03 0.  1.
        -52   -1    0    0    0    0 -0.00000000000E+00 -0.00000000000E+00 -0.64930732323E+04  0.65000000000E+04  0.30000000000E+03 0. -1.
     100001    1    1    2    0    0 -0.12334999779E+04 -0.49564224335E+04  0.40174250727E+04  0.65000000000E+04  0.15050000000E+03 0.  1.
     100001    1    1    2    0    0  0.12334999779E+04  0.49564224335E+04 -0.40174250727E+04  0.65000000000E+04  0.15050000000E+03 0. -1.
</event>
<event>
 4    1  0.4630618E-004  0.6500000E+04  0.7818608E-02  0.7223770E-01
         52   -1    0    0    0    0  0.00000000000E+00  0.00000000000E+00  0.64930732323E+04  0.65000000000E+04  0.30000000000E+03 0. -1.
        -52   -1    0    0    0    0 -0.00000000000E+00 -0.00000000000E+00 -0.64930732323E+04  0.65000000000E+04  0.30000000000E+03 0.  1.
     100001    1    1    2    0    0 -0.62593550502E+03 -0.46898766543E+03  0.64510158164E+04  0.65000000000E+04  0.15050000000E+03 0. -1.
     100001    1    1    2    0    0  0.62593550502E+03  0.46898766543E+03 -0.64510158164E+04  0.65000000000E+04  0.15050000000E+03 0.  1.
</event>
<event>
 4    1  0.4630618E-004  0.6500000E+04  0.7818608E-02  0.7223770E-01
         52   -1    0    0    0    0  0.00000000000E+00  0.00000000000E+00  0.64930732323E+04  0.65000000000E+04  0.30000000000E+03 0. -1.
        -52   -1    0    0    0    0 -0.00000000000E+00 -0.00000000000E+00 -0.64930732323E+04  0.65000000000E+04  0.30000000000E+03 0.  1.
     100001    1    1    2    0    0  0.19498091941E+04 -0.81542538441E+03 -0.61449715458E+04  0.65000000000E+04  0.15050000000E+03 0.  1.
     100001    1    1    2    0    0 -0.19498091941E+04  0.81542538441E+03  0.61449715458E+04  0.65000000000E+04  0.15050000000E+03 0. -1.
</event>
<event>
 4    1  0.4630618E-004  0.6500000E+04  0.7818608E-02  0.7223770E-01
         52   -1    0    0    0    0  0.00000000000E+00  0.00000000000E+00  0.64930732323E+04  0.65000000000E+04  0.30000000000E+03 0. -1.
        -52   -1    0    0    0    0 -0.00000000000E+00 -0.00000000000E+00 -0.64930732323E+04  0.65000000000E+04  0.30000000000E+03 0.  1.
     100001    1    1    2    0    0 -0.49654221336E+03  0.53720992952E+01 -0.64792566488E+04  0.65000000000E+04  0.15050000000E+03 0.  1.
     100001    1    1    2    0    0  0.49654221336E+03 -0.53720992952E+01  0.64792566488E+04  0.65000000000E+04  0.15050000000E+03 0. -1.
</event>
<event>
 4    1  0.4630618E-004  0.6500000E+04  0.7818608E-02  0.7223770E-01
         52   -1    0    0    0    0  0.00000000000E+00  0.00000000000E+00  0.64930732323E+04  0.65000000000E+04  0.30000000000E+03 0. -1.
        -52   -1    0    0    0    0 -0.00000000000E+00 -0.00000000000E+00 -0.64930732323E+04  0.65000000000E+04  0.30000000000E+03 0.  1.
     100001    1    1    2    0    0 -0.51759966262E+03  0.29974860075E+04 -0.57423442926E+04  0.65000000000E+04  0.15050000000E+03 0.  1.
     100001    1    1    2    0    0  0.51759966262E+03 -0.29974860075E+04  0.57423442926E+04  0.65000000000E+04  0.15050000000E+03 0. -1.
</event>
<event>
 4    1  0.4630618E-004  0.6500000E+04  0.7818608E-02  0.7223770E-01
         52   -1    0    0    0    0  0.00000000000E+00  0.00000000000E+00  0.64930732323E+04  0.65000000000E+04  0.30000000000E+03 0. -1.
        -52   -1    0    0    0    0 -0.00000000000E+00 -0.00000000000E+00 -0.64930732323E+04  0.65000000000E+04  0.30000000000E+03 0.  1.
     100001    1    1    2    0    0 -0.15205762005E+03 -0.33480858815E+02  0.64963918649E+04  0.65000000000E+04  0.15050000000E+03 0. -1.
     100001    1    1    2    0    0  0.15205762005E+03  0.33480858815E+02 -0.64963918649E+04  0.65000000000E+04  0.15050000000E+03 0.  1.
</event>
<event>
 4    1  0.4630618E-004  0.6500000E+04  0.7818608E-02  0.7223770E-01
         52   -1    0    0    0    0  0.00000000000E+00  0.00000000000E+00  0.64930732323E+04  0.65000000000E+04  0.30000000000E+03 0. -1.
        -52   -1    0    0    0    0 -0.00000000000E+00 -0.00000000000E+00 -0.64930732323E+04  0.65000000000E+04  0.30000000000E+03 0. -1.
     100001    1    1    2    0    0  0.11220564001E+03  0.19746205133E+03  0.64942873653E+04  0.65000000000E+04  0.15050000000E+03 0. -1.
     100001    1    1    2    0    0 -0.11220564001E+03 -0.19746205133E+03 -0.64942873653E+04  0.65000000000E+04  0.15050000000E+03 0. -1.
</event>
<event>
 4    1  0.4630618E-004  0.6500000E+04  0.7818608E-02  0.7223770E-01
         52   -1    0    0    0    0  0.00000000000E+00  0.00000000000E+00  0.64930732323E+04  0.65000000000E+04  0.30000000000E+03 0. -1.
        -52   -1    0    0    0    0 -0.00000000000E+00 -0.00000000000E+00 -0.64930732323E+04  0.65000000000E+04  0.30000000000E+03 0. -1.
     100001    1    1    2    0    0 -0.17980618237E+03  0.50144151183E+03 -0.64763860213E+04  0.65000000000E+04  0.15050000000E+03 0. -1.
     100001    1    1    2    0    0  0.17980618237E+03 -0.50144151183E+03  0.64763860213E+04  0.65000000000E+04  0.15050000000E+03 0. -1.
</event>
<event>
 4    1  0.4630618E-004  0.6500000E+04  0.7818608E-02  0.7223770E-01
         52   -1    0    0    0    0  0.00000000000E+00  0.00000000000E+00  0.64930732323E+04  0.65000000000E+04  0.30000000000E+03 0.  1.
        -52   -1    0    0    0    0 -0.00000000000E+00 -0.00000000000E+00 -0.64930732323E+04  0.65000000000E+04  0.30000000000E+03 0. -1.
     100001    1    1    2    0    0  0.41694541732E+03  0.45510456509E+03  0.64688782725E+04  0.65000000000E+04  0.15050000000E+03 0.  1.
     100001    1    1    2    0    0 -0.41694541732E+03 -0.45510456509E+03 -0.64688782725E+04  0.65000000000E+04  0.15050000000E+03 0. -1.
</event>
<event>
 4    1  0.4630618E-004  0.6500000E+04  0.7818608E-02  0.7223770E-01
         52   -1    0    0    0    0  0.00000000000E+00  0.00000000000E+00  0.64930732323E+04  0.65000000000E+04  0.30000000000E+03 0.  1.
        -52   -1    0    0    0    0 -0.00000000000E+00 -0.00000000000E+00 -0.64930732323E+04  0.65000000000E+04  0.30000000000E+03 0. -1.
     100001    1    1    2    0    0 -0.94036415001E+03 -0.12075814633E+04  0.63154423459E+04  0.65000000000E+04  0.15050000000E+03 0.  1.
     100001    1    1    2    0    0  0.94036415001E+03  0.12075814633E+04 -0.63154423459E+04  0.65000000000E+04  0.15050000000E+03 0. -1.
</event>
<event>
 4    1  0.4630618E-004  0.6500000E+04  0.7818608E-02  0.7223770E-01
         52   -1    0    0    0    0  0.00000000000E+00  0.00000000000E+00  0.64930732323E+04  0.65000000000E+04  0.30000000000E+03 0.  1.
        -52   -1    0    0    0    0 -0.00000000000E+00 -0.00000000000E+00 -0.64930732323E+04  0.65000000000E+04  0.30000000000E+03 0. -1.
     100001    1    1    2    0    0  0.47372142011E+03 -0.88545476529E+03  0.64201952949E+04  0.65000000000E+04  0.15050000000E+03 0.  1.
     100001    1    1    2    0    0 -0.47372142011E+03  0.88545476529E+03 -0.64201952949E+04  0.65000000000E+04  0.15050000000E+03 0. -1.
</event>
<event>
 4    1  0.4630618E-004  0.6500000E+04  0.7818608E-02  0.7223770E-01
         52   -1    0    0    0    0  0.00000000000E+00  0.00000000000E+00  0.64930732323E+04  0.65000000000E+04  0.30000000000E+03 0.  1.
        -52   -1    0    0    0    0 -0.00000000000E+00 -0.00000000000E+00 -0.64930732323E+04  0.65000000000E+04  0.30000000000E+03 0. -1.
     100001    1    1    2    0    0  0.41627484938E+03  0.10471586833E+04  0.63998065355E+04  0.65000000000E+04  0.15050000000E+03 0.  1.
     100001    1    1    2    0    0 -0.41627484938E+03 -0.10471586833E+04 -0.63998065355E+04  0.65000000000E+04  0.15050000000E+03 0. -1.
</event>
<event>
 4    1  0.4630618E-004  0.6500000E+04  0.7818608E-02  0.7223770E-01
         52   -1    0    0    0    0  0.00000000000E+00  0.00000000000E+00  0.64930732323E+04  0.65000000000E+04  0.30000000000E+03 0. -1.
        -52   -1    0    0    0    0 -0.00000000000E+00 -0.00000000000E+00 -0.64930732323E+04  0.65000000000E+04  0.30000000000E+03 0. -1.
     100001    1    1    2    0    0  0.87560039636E+01  0.92662621674E+02  0.64975908398E+04  0.65000000000E+04  0.15050000000E+03 0. -1.
     100001    1    1    2    0    0 -0.87560039636E+01 -0.92662621674E+02 -0.64975908398E+04  0.65000000000E+04  0.15050000000E+03 0. -1.
</event>
<event>
 4    1  0.4630618E-004  0.6500000E+04  0.7818608E-02  0.7223770E-01
         52   -1    0    0    0    0  0.00000000000E+00  0.00000000000E+00  0.64930732323E+04  0.65000000000E+04  0.30000000000E+03 0. -1.
        -52   -1    0    0    0    0 -0.00000000000E+00 -0.00000000000E+00 -0.64930732323E+04  0.65000000000E+04  0.30000000000E+03 0.  1.
     100001    1    1    2    0    0 -0.81201331973E+03  0.23411153137E+04  0.60072592092E+04  0.65000000000E+04  0.15050000000E+03 0. -1.
     100001    1    1    2    0    0  0.81201331973E+03 -0.23411153137E+04 -0.60072592092E+04  0.65000000000E+04  0.15050000000E+03 0.  1.
</event>
<event>
 4    1  0.4630618E-004  0.6500000E+04  0.7818608E-02  0.7223770E-01
         52   -1    0    0    0    0  0.00000000000E+00  0.00000000000E+00  0.64930732323E+04  0.65000000000E+04  0.30000000000E+03 0. -1.
        -52   -1    0    0    0    0 -0.00000000000E+00 -0.00000000000E+00 -0.64930732323E+04  0.65000000000E+04  0.30000000000E+03 0.  1.
     100001    1    1    2    0    0 -0.33260840860E+04 -0.17245635595E+04  0.53094627725E+04  0.65000000000E+04  0.15050000000E+03 0. -1.
     100001    1    1    2    0    0  0.33260840860E+04  0.17245635595E+04 -0.53094627725E+04  0.65000000000E+04  0.15050000000E+03 0.  1.
</event>
<event>
 4    1  0.4630618E-004  0.6500000E+04  0.7818608E-02  0.7223770E-01
         52   -1    0    0    0    0  0.00000000000E+00  0.00000000000E+00  0.64930732323E+04  0.65000000000E+04  0.30000000000E+03 0. -1.
        -52   -1    0    0    0    0 -0.00000000000E+00 -0.00000000000E+00 -0.64930732323E+04  0.65000000000E+04  0.30000000000E+03 0.  1.
     100001    1    1    2    0    0 -0.53286283889E+03 -0.16109902649E+03 -0.64743690078E+04  0.65000000000E+04  0.15050000000E+03 0.  1.
     100001    1    1    2    0    0  0.53286283889E+03  0.16109902649E+03  0.64743690078E+04  0.65000000000E+04  0.15050000000E+03 0. -1.
</event>
<event>
 4    1  0.4630618E-004  0.6500000E+04  0.7818608E-02  0.7223770E-01
         52   -1    0    0    0    0  0.00000000000E+00  0.00000000000E+00  0.64930732323E+04  0.65000000000E+04  0.30000000000E+03 0. -1.
        -52   -1    0    0    0    0 -0.00000000000E+00 -0.00000000000E+00 -0.64930732323E+04  0.65000000000E+04  0.30000000000E+03 0.  1.
     100001    1    1    2    0    0 -0.68621243042E+03 -0.28656998799E+04 -0.57917377745E+04  0.65000000000E+04  0.15050000000E+03 0.  1.
     100001    1    1    2    0    0  0.68621243042E+03  0.28656998799E+04  0.57917377745E+04  0.65000000000E+04  0.15050000000E+03 0. -1.
</event>
<event>
 4    1  0.4630618E-004  0.6500000E+04  0.7818608E-02  0.7223770E-01
         52   -1    0    0    0    0  0.00000000000E+00  0.00000000000E+00  0.64930732323E+04  0.65000000000E+04  0.30000000000E+03 0. -1.
        -52   -1    0    0    0    0 -0.00000000000E+00 -0.00000000000E+00 -0.64930732323E+04  0.65000000000E+04  0.30000000000E+03 0.  1.
     100001    1    1    2    0    0  0.20401510903E+04  0.17596509932E+04 -0.59134390722E+04  0.65000000000E+04  0.15050000000E+03 0.  1.
     100001    1    1    2    0    0 -0.20401510903E+04 -0.17596509932E+04  0.59134390722E+04  0.65000000000E+04  0.15050000000E+03 0. -1.
</event>
<event>
 4    1  0.4630618E-004  0.6500000E+04  0.7818608E-02  0.7223770E-01
         52   -1    0    0    0    0  0.00000000000E+00  0.00000000000E+00  0.64930732323E+04  0.65000000000E+04  0.30000000000E+03 0.  1.
        -52   -1    0    0    0    0 -0.00000000000E+00 -0.00000000000E+00 -0.64930732323E+04  0.65000000000E+04  0.30000000000E+03 0. -1.
     100001    1    1    2    0    0 -0.18688303305E+04 -0.36070778702E+04  0.50718647640E+04  0.65000000000E+04  0.15050000000E+03 0.  1.
     100001    1    1    2    0    0  0.18688303305E+04  0.36070778702E+04 -0.50718647640E+04  0.65000000000E+04  0.15050000000E+03 0. -1.
</event>
<event>
 4    1  0.4630618E-004  0.6500000E+04  0.7818608E-02  0.7223770E-01
         52   -1    0    0    0    0  0.00000000000E+00  0.00000000000E+00  0.64930732323E+04  0.65000000000E+04  0.30000000000E+03 0. -1.
        -52   -1    0    0    0    0 -0.00000000000E+00 -0.00000000000E+00 -0.64930732323E+04  0.65000000000E+04  0.30000000000E+03 0.  1.
     100001    1    1    2    0    0 -0.38054899696E+04  0.36604619234E+04 -0.37876924833E+04  0.65000000000E+04  0.15050000000E+03 0. -1.
     100001    1    1    2    0    0  0.38054899696E+04 -0.36604619234E+04  0.37876924833E+04  0.65000000000E+04  0.15050000000E+03 0.  1.
</event>
<event>
 4    1  0.4630618E-004  0.6500000E+04  0.7818608E-02  0.7223770E-01
         52   -1    0    0    0    0  0.00000000000E+00  0.00000000000E+00  0.64930732323E+04  0.65000000000E+04  0.30000000000E+03 0.  1.
        -52   -1    0    0    0    0 -0.00000000000E+00 -0.00000000000E+00 -0.64930732323E+04  0.65000000000E+04  0.30000000000E+03 0.  1.
     100001    1    1    2    0    0  0.11242282544E+03 -0.29845355425E+03  0.64904265140E+04  0.65000000000E+04  0.15050000000E+03 0.  1.
     100001    1    1    2    0    0 -0.11242282544E+03  0.29845355425E+03 -0.64904265140E+04  0.65000000000E+04  0.15050000000E+03 0.  1.
</event>
<event>
 4    1  0.4630618E-004  0.6500000E+04  0.7818608E-02  0.7223770E-01
         52   -1    0    0    0    0  0.00000000000E+00  0.00000000000E+00  0.64930732323E+04  0.65000000000E+04  0.30000000000E+03 0.  1.
        -52   -1    0    0    0    0 -0.00000000000E+00 -0.00000000000E+00 -0.64930732323E+04  0.65000000000E+04  0.30000000000E+03 0. -1.
     100001    1    1    2    0    0  0.43599349165E+04  0.33886221512E+04 -0.34257199521E+04  0.65000000000E+04  0.15050000000E+03 0. -1.
     100001    1    1    2    0    0 -0.43599349165E+04 -0.33886221512E+04  0.34257199521E+04  0.65000000000E+04  0.15050000000E+03 0.  1.
</event>
<event>
 4    1  0.4630618E-004  0.6500000E+04  0.7818608E-02  0.7223770E-01
         52   -1    0    0    0    0  0.00000000000E+00  0.00000000000E+00  0.64930732323E+04  0.65000000000E+04  0.30000000000E+03 0. -1.
        -52   -1    0    0    0    0 -0.00000000000E+00 -0.00000000000E+00 -0.64930732323E+04  0.65000000000E+04  0.30000000000E+03 0.  1.
     100001    1    1    2    0    0  0.13643542761E+03 -0.56652598405E+03  0.64720772116E+04  0.65000000000E+04  0.15050000000E+03 0. -1.
     100001    1    1    2    0    0 -0.13643542761E+03  0.56652598405E+03 -0.64720772116E+04  0.65000000000E+04  0.15050000000E+03 0.  1.
</event>
<event>
 4    1  0.4630618E-004  0.6500000E+04  0.7818608E-02  0.7223770E-01
         52   -1    0    0    0    0  0.00000000000E+00  0.00000000000E+00  0.64930732323E+04  0.65000000000E+04  0.30000000000E+03 0. -1.
        -52   -1    0    0    0    0 -0.00000000000E+00 -0.00000000000E+00 -0.64930732323E+04  0.65000000000E+04  0.30000000000E+03 0.  1.
     100001    1    1    2    0    0  0.22258350001E+03  0.12729842181E+04 -0.63684627278E+04  0.65000000000E+04  0.15050000000E+03 0.  1.
     100001    1    1    2    0    0 -0.22258350001E+03 -0.12729842181E+04  0.63684627278E+04  0.65000000000E+04  0.15050000000E+03 0. -1.
</event>
<event>
 4    1  0.4630618E-004  0.6500000E+04  0.7818608E-02  0.7223770E-01
         52   -1    0    0    0    0  0.00000000000E+00  0.00000000000E+00  0.64930732323E+04  0.65000000000E+04  0.30000000000E+03 0.  1.
        -52   -1    0    0    0    0 -0.00000000000E+00 -0.00000000000E+00 -0.64930732323E+04  0.65000000000E+04  0.30000000000E+03 0.  1.
     100001    1    1    2    0    0 -0.84704846284E+03  0.49697618791E+03  0.64236183978E+04  0.65000000000E+04  0.15050000000E+03 0.  1.
     100001    1    1    2    0    0  0.84704846284E+03 -0.49697618791E+03 -0.64236183978E+04  0.65000000000E+04  0.15050000000E+03 0.  1.
</event>
<event>
 4    1  0.4630618E-004  0.6500000E+04  0.7818608E-02  0.7223770E-01
         52   -1    0    0    0    0  0.00000000000E+00  0.00000000000E+00  0.64930732323E+04  0.65000000000E+04  0.30000000000E+03 0.  1.
        -52   -1    0    0    0    0 -0.00000000000E+00 -0.00000000000E+00 -0.64930732323E+04  0.65000000000E+04  0.30000000000E+03 0. -1.
     100001    1    1    2    0    0 -0.46393764033E+04  0.32649424763E+04 -0.31691776480E+04  0.65000000000E+04  0.15050000000E+03 0.  1.
     100001    1    1    2    0    0  0.46393764033E+04 -0.32649424763E+04  0.31691776480E+04  0.65000000000E+04  0.15050000000E+03 0. -1.
</event>
<event>
 4    1  0.4630618E-004  0.6500000E+04  0.7818608E-02  0.7223770E-01
         52   -1    0    0    0    0  0.00000000000E+00  0.00000000000E+00  0.64930732323E+04  0.65000000000E+04  0.30000000000E+03 0. -1.
        -52   -1    0    0    0    0 -0.00000000000E+00 -0.00000000000E+00 -0.64930732323E+04  0.65000000000E+04  0.30000000000E+03 0.  1.
     100001    1    1    2    0    0  0.31385807003E+03 -0.64890370394E+04 -0.14574348203E+03  0.65000000000E+04  0.15050000000E+03 0.  1.
     100001    1    1    2    0    0 -0.31385807003E+03  0.64890370394E+04  0.14574348203E+03  0.65000000000E+04  0.15050000000E+03 0. -1.
</event>
<event>
 4    1  0.4630618E-004  0.6500000E+04  0.7818608E-02  0.7223770E-01
         52   -1    0    0    0    0  0.00000000000E+00  0.00000000000E+00  0.64930732323E+04  0.65000000000E+04  0.30000000000E+03 0. -1.
        -52   -1    0    0    0    0 -0.00000000000E+00 -0.00000000000E+00 -0.64930732323E+04  0.65000000000E+04  0.30000000000E+03 0.  1.
     100001    1    1    2    0    0 -0.98194070507E+02 -0.45499233619E+04 -0.46385240190E+04  0.65000000000E+04  0.15050000000E+03 0.  1.
     100001    1    1    2    0    0  0.98194070507E+02  0.45499233619E+04  0.46385240190E+04  0.65000000000E+04  0.15050000000E+03 0. -1.
</event>
<event>
 4    1  0.4630618E-004  0.6500000E+04  0.7818608E-02  0.7223770E-01
         52   -1    0    0    0    0  0.00000000000E+00  0.00000000000E+00  0.64930732323E+04  0.65000000000E+04  0.30000000000E+03 0.  1.
        -52   -1    0    0    0    0 -0.00000000000E+00 -0.00000000000E+00 -0.64930732323E+04  0.65000000000E+04  0.30000000000E+03 0. -1.
     100001    1    1    2    0    0  0.25614606251E+04  0.43488840612E+04 -0.40931011029E+04  0.65000000000E+04  0.15050000000E+03 0. -1.
     100001    1    1    2    0    0 -0.25614606251E+04 -0.43488840612E+04  0.40931011029E+04  0.65000000000E+04  0.15050000000E+03 0.  1.
</event>
<event>
 4    1  0.4630618E-004  0.6500000E+04  0.7818608E-02  0.7223770E-01
         52   -1    0    0    0    0  0.00000000000E+00  0.00000000000E+00  0.64930732323E+04  0.65000000000E+04  0.30000000000E+03 0. -1.
        -52   -1    0    0    0    0 -0.00000000000E+00 -0.00000000000E+00 -0.64930732323E+04  0.65000000000E+04  0.30000000000E+03 0.  1.
     100001    1    1    2    0    0  0.15428424645E+04 -0.28062622181E+04 -0.56543681559E+04  0.65000000000E+04  0.15050000000E+03 0.  1.
     100001    1    1    2    0    0 -0.15428424645E+04  0.28062622181E+04  0.56543681559E+04  0.65000000000E+04  0.15050000000E+03 0. -1.
</event>
<event>
 4    1  0.4630618E-004  0.6500000E+04  0.7818608E-02  0.7223770E-01
         52   -1    0    0    0    0  0.00000000000E+00  0.00000000000E+00  0.64930732323E+04  0.65000000000E+04  0.30000000000E+03 0. -1.
        -52   -1    0    0    0    0 -0.00000000000E+00 -0.00000000000E+00 -0.64930732323E+04  0.65000000000E+04  0.30000000000E+03 0.  1.
     100001    1    1    2    0    0  0.53797908180E+03  0.11357764986E+03 -0.64749539284E+04  0.65000000000E+04  0.15050000000E+03 0.  1.
     100001    1    1    2    0    0 -0.53797908180E+03 -0.11357764986E+03  0.64749539284E+04  0.65000000000E+04  0.15050000000E+03 0. -1.
</event>
<event>
 4    1  0.4630618E-004  0.6500000E+04  0.7818608E-02  0.7223770E-01
         52   -1    0    0    0    0  0.00000000000E+00  0.00000000000E+00  0.64930732323E+04  0.65000000000E+04  0.30000000000E+03 0. -1.
        -52   -1    0    0    0    0 -0.00000000000E+00 -0.00000000000E+00 -0.64930732323E+04  0.65000000000E+04  0.30000000000E+03 0.  1.
     100001    1    1    2    0    0 -0.39361303559E+03 -0.42278350034E+03  0.64725321660E+04  0.65000000000E+04  0.15050000000E+03 0. -1.
     100001    1    1    2    0    0  0.39361303559E+03  0.42278350034E+03 -0.64725321660E+04  0.65000000000E+04  0.15050000000E+03 0.  1.
</event>
<event>
 4    1  0.4630618E-004  0.6500000E+04  0.7818608E-02  0.7223770E-01
         52   -1    0    0    0    0  0.00000000000E+00  0.00000000000E+00  0.64930732323E+04  0.65000000000E+04  0.30000000000E+03 0.  1.
        -52   -1    0    0    0    0 -0.00000000000E+00 -0.00000000000E+00 -0.64930732323E+04  0.65000000000E+04  0.30000000000E+03 0. -1.
     100001    1    1    2    0    0  0.75561475909E+03  0.21363155241E+04  0.60903655118E+04  0.65000000000E+04  0.15050000000E+03 0.  1.
     100001    1    1    2    0    0 -0.75561475909E+03 -0.21363155241E+04 -0.60903655118E+04  0.65000000000E+04  0.15050000000E+03 0. -1.
</event>
<event>
 4    1  0.4630618E-004  0.6500000E+04  0.7818608E-02  0.7223770E-01
         52   -1    0    0    0    0  0.00000000000E+00  0.00000000000E+00  0.64930732323E+04  0.65000000000E+04  0.30000000000E+03 0. -1.
        -52   -1    0    0    0    0 -0.00000000000E+00 -0.00000000000E+00 -0.64930732323E+04  0.65000000000E+04  0.30000000000E+03 0.  1.
     100001    1    1    2    0    0  0.12580422253E+04 -0.15673685553E+04 -0.61796468605E+04  0.65000000000E+04  0.15050000000E+03 0.  1.
     100001    1    1    2    0    0 -0.12580422253E+04  0.15673685553E+04  0.61796468605E+04  0.65000000000E+04  0.15050000000E+03 0. -1.
</event>
<event>
 4    1  0.4630618E-004  0.6500000E+04  0.7818608E-02  0.7223770E-01
         52   -1    0    0    0    0  0.00000000000E+00  0.00000000000E+00  0.64930732323E+04  0.65000000000E+04  0.30000000000E+03 0. -1.
        -52   -1    0    0    0    0 -0.00000000000E+00 -0.00000000000E+00 -0.64930732323E+04  0.65000000000E+04  0.30000000000E+03 0.  1.
     100001    1    1    2    0    0  0.66931797735E+02 -0.26050899559E+03 -0.64926885762E+04  0.65000000000E+04  0.15050000000E+03 0.  1.
     100001    1    1    2    0    0 -0.66931797735E+02  0.26050899559E+03  0.64926885762E+04  0.65000000000E+04  0.15050000000E+03 0. -1.
</event>
<event>
 4    1  0.4630618E-004  0.6500000E+04  0.7818608E-02  0.7223770E-01
         52   -1    0    0    0    0  0.00000000000E+00  0.00000000000E+00  0.64930732323E+04  0.65000000000E+04  0.30000000000E+03 0. -1.
        -52   -1    0    0    0    0 -0.00000000000E+00 -0.00000000000E+00 -0.64930732323E+04  0.65000000000E+04  0.30000000000E+03 0.  1.
     100001    1    1    2    0    0  0.24769854566E+03  0.60213300569E+03 -0.64655572864E+04  0.65000000000E+04  0.15050000000E+03 0.  1.
     100001    1    1    2    0    0 -0.24769854566E+03 -0.60213300569E+03  0.64655572864E+04  0.65000000000E+04  0.15050000000E+03 0. -1.
</event>
<event>
 4    1  0.4630618E-004  0.6500000E+04  0.7818608E-02  0.7223770E-01
         52   -1    0    0    0    0  0.00000000000E+00  0.00000000000E+00  0.64930732323E+04  0.65000000000E+04  0.30000000000E+03 0. -1.
        -52   -1    0    0    0    0 -0.00000000000E+00 -0.00000000000E+00 -0.64930732323E+04  0.65000000000E+04  0.30000000000E+03 0.  1.
     100001    1    1    2    0    0 -0.31427570280E+04 -0.19585567268E+04 -0.53398954635E+04  0.65000000000E+04  0.15050000000E+03 0.  1.
     100001    1    1    2    0    0  0.31427570280E+04  0.19585567268E+04  0.53398954635E+04  0.65000000000E+04  0.15050000000E+03 0. -1.
</event>
<event>
 4    1  0.4630618E-004  0.6500000E+04  0.7818608E-02  0.7223770E-01
         52   -1    0    0    0    0  0.00000000000E+00  0.00000000000E+00  0.64930732323E+04  0.65000000000E+04  0.30000000000E+03 0. -1.
        -52   -1    0    0    0    0 -0.00000000000E+00 -0.00000000000E+00 -0.64930732323E+04  0.65000000000E+04  0.30000000000E+03 0.  1.
     100001    1    1    2    0    0 -0.22949195127E+03  0.57021349553E+03  0.64691220242E+04  0.65000000000E+04  0.15050000000E+03 0. -1.
     100001    1    1    2    0    0  0.22949195127E+03 -0.57021349553E+03 -0.64691220242E+04  0.65000000000E+04  0.15050000000E+03 0.  1.
</event>
<event>
 4    1  0.7051183E-004  0.6500000E+04  0.7818608E-02  0.7223770E-01
         52   -1    0    0    0    0  0.00000000000E+00  0.00000000000E+00  0.64930732323E+04  0.65000000000E+04  0.30000000000E+03 0. -1.
        -52   -1    0    0    0    0 -0.00000000000E+00 -0.00000000000E+00 -0.64930732323E+04  0.65000000000E+04  0.30000000000E+03 0. -1.
     100001    1    1    2    0    0  0.99079629736E+02 -0.50580685846E+02  0.64973051776E+04  0.65000000000E+04  0.15050000000E+03 0. -1.
     100001    1    1    2    0    0 -0.99079629736E+02  0.50580685846E+02 -0.64973051776E+04  0.65000000000E+04  0.15050000000E+03 0. -1.
</event>
<event>
 4    1  0.4630618E-004  0.6500000E+04  0.7818608E-02  0.7223770E-01
         52   -1    0    0    0    0  0.00000000000E+00  0.00000000000E+00  0.64930732323E+04  0.65000000000E+04  0.30000000000E+03 0. -1.
        -52   -1    0    0    0    0 -0.00000000000E+00 -0.00000000000E+00 -0.64930732323E+04  0.65000000000E+04  0.30000000000E+03 0.  1.
     100001    1    1    2    0    0  0.58330325693E+04  0.20851479849E+04 -0.19634761715E+04  0.65000000000E+04  0.15050000000E+03 0.  1.
     100001    1    1    2    0    0 -0.58330325693E+04 -0.20851479849E+04  0.19634761715E+04  0.65000000000E+04  0.15050000000E+03 0. -1.
</event>
<event>
 4    1  0.4630618E-004  0.6500000E+04  0.7818608E-02  0.7223770E-01
         52   -1    0    0    0    0  0.00000000000E+00  0.00000000000E+00  0.64930732323E+04  0.65000000000E+04  0.30000000000E+03 0. -1.
        -52   -1    0    0    0    0 -0.00000000000E+00 -0.00000000000E+00 -0.64930732323E+04  0.65000000000E+04  0.30000000000E+03 0.  1.
     100001    1    1    2    0    0  0.28262712702E+03  0.13684257309E+04 -0.63462494968E+04  0.65000000000E+04  0.15050000000E+03 0.  1.
     100001    1    1    2    0    0 -0.28262712702E+03 -0.13684257309E+04  0.63462494968E+04  0.65000000000E+04  0.15050000000E+03 0. -1.
</event>
<event>
 4    1  0.4630618E-004  0.6500000E+04  0.7818608E-02  0.7223770E-01
         52   -1    0    0    0    0  0.00000000000E+00  0.00000000000E+00  0.64930732323E+04  0.65000000000E+04  0.30000000000E+03 0.  1.
        -52   -1    0    0    0    0 -0.00000000000E+00 -0.00000000000E+00 -0.64930732323E+04  0.65000000000E+04  0.30000000000E+03 0. -1.
     100001    1    1    2    0    0 -0.49917634706E+03 -0.42304070449E+03 -0.64652307992E+04  0.65000000000E+04  0.15050000000E+03 0. -1.
     100001    1    1    2    0    0  0.49917634706E+03  0.42304070449E+03  0.64652307992E+04  0.65000000000E+04  0.15050000000E+03 0.  1.
</event>
<event>
 4    1  0.4630618E-004  0.6500000E+04  0.7818608E-02  0.7223770E-01
         52   -1    0    0    0    0  0.00000000000E+00  0.00000000000E+00  0.64930732323E+04  0.65000000000E+04  0.30000000000E+03 0.  1.
        -52   -1    0    0    0    0 -0.00000000000E+00 -0.00000000000E+00 -0.64930732323E+04  0.65000000000E+04  0.30000000000E+03 0.  1.
     100001    1    1    2    0    0  0.10821485661E+04 -0.37414131464E+03 -0.63965867857E+04  0.65000000000E+04  0.15050000000E+03 0.  1.
     100001    1    1    2    0    0 -0.10821485661E+04  0.37414131464E+03  0.63965867857E+04  0.65000000000E+04  0.15050000000E+03 0.  1.
</event>
<event>
 4    1  0.4630618E-004  0.6500000E+04  0.7818608E-02  0.7223770E-01
         52   -1    0    0    0    0  0.00000000000E+00  0.00000000000E+00  0.64930732323E+04  0.65000000000E+04  0.30000000000E+03 0.  1.
        -52   -1    0    0    0    0 -0.00000000000E+00 -0.00000000000E+00 -0.64930732323E+04  0.65000000000E+04  0.30000000000E+03 0. -1.
     100001    1    1    2    0    0  0.10788752406E+04 -0.12606593682E+04 -0.62828429809E+04  0.65000000000E+04  0.15050000000E+03 0. -1.
     100001    1    1    2    0    0 -0.10788752406E+04  0.12606593682E+04  0.62828429809E+04  0.65000000000E+04  0.15050000000E+03 0.  1.
</event>
<event>
 4    1  0.4630618E-004  0.6500000E+04  0.7818608E-02  0.7223770E-01
         52   -1    0    0    0    0  0.00000000000E+00  0.00000000000E+00  0.64930732323E+04  0.65000000000E+04  0.30000000000E+03 0.  1.
        -52   -1    0    0    0    0 -0.00000000000E+00 -0.00000000000E+00 -0.64930732323E+04  0.65000000000E+04  0.30000000000E+03 0. -1.
     100001    1    1    2    0    0 -0.20690529776E+04  0.89938864299E+03 -0.60940519849E+04  0.65000000000E+04  0.15050000000E+03 0. -1.
     100001    1    1    2    0    0  0.20690529776E+04 -0.89938864299E+03  0.60940519849E+04  0.65000000000E+04  0.15050000000E+03 0.  1.
</event>
<event>
 4    1  0.4630618E-004  0.6500000E+04  0.7818608E-02  0.7223770E-01
         52   -1    0    0    0    0  0.00000000000E+00  0.00000000000E+00  0.64930732323E+04  0.65000000000E+04  0.30000000000E+03 0.  1.
        -52   -1    0    0    0    0 -0.00000000000E+00 -0.00000000000E+00 -0.64930732323E+04  0.65000000000E+04  0.30000000000E+03 0. -1.
     100001    1    1    2    0    0  0.18151658940E+04  0.46613504992E+04  0.41478107540E+04  0.65000000000E+04  0.15050000000E+03 0.  1.
     100001    1    1    2    0    0 -0.18151658940E+04 -0.46613504992E+04 -0.41478107540E+04  0.65000000000E+04  0.15050000000E+03 0. -1.
</event>
<event>
 4    1  0.4630618E-004  0.6500000E+04  0.7818608E-02  0.7223770E-01
         52   -1    0    0    0    0  0.00000000000E+00  0.00000000000E+00  0.64930732323E+04  0.65000000000E+04  0.30000000000E+03 0. -1.
        -52   -1    0    0    0    0 -0.00000000000E+00 -0.00000000000E+00 -0.64930732323E+04  0.65000000000E+04  0.30000000000E+03 0.  1.
     100001    1    1    2    0    0  0.11432853987E+03 -0.50706808590E+03  0.64774347308E+04  0.65000000000E+04  0.15050000000E+03 0. -1.
     100001    1    1    2    0    0 -0.11432853987E+03  0.50706808590E+03 -0.64774347308E+04  0.65000000000E+04  0.15050000000E+03 0.  1.
</event>
<event>
 4    1  0.4630618E-004  0.6500000E+04  0.7818608E-02  0.7223770E-01
         52   -1    0    0    0    0  0.00000000000E+00  0.00000000000E+00  0.64930732323E+04  0.65000000000E+04  0.30000000000E+03 0.  1.
        -52   -1    0    0    0    0 -0.00000000000E+00 -0.00000000000E+00 -0.64930732323E+04  0.65000000000E+04  0.30000000000E+03 0. -1.
     100001    1    1    2    0    0 -0.13826766629E+03 -0.57522448772E+04 -0.30199189849E+04  0.65000000000E+04  0.15050000000E+03 0. -1.
     100001    1    1    2    0    0  0.13826766629E+03  0.57522448772E+04  0.30199189849E+04  0.65000000000E+04  0.15050000000E+03 0.  1.
</event>
<event>
 4    1  0.4630618E-004  0.6500000E+04  0.7818608E-02  0.7223770E-01
         52   -1    0    0    0    0  0.00000000000E+00  0.00000000000E+00  0.64930732323E+04  0.65000000000E+04  0.30000000000E+03 0.  1.
        -52   -1    0    0    0    0 -0.00000000000E+00 -0.00000000000E+00 -0.64930732323E+04  0.65000000000E+04  0.30000000000E+03 0. -1.
     100001    1    1    2    0    0 -0.65480232719E+03  0.48653600583E+03  0.64468493373E+04  0.65000000000E+04  0.15050000000E+03 0.  1.
     100001    1    1    2    0    0  0.65480232719E+03 -0.48653600583E+03 -0.64468493373E+04  0.65000000000E+04  0.15050000000E+03 0. -1.
</event>
<event>
 4    1  0.4630618E-004  0.6500000E+04  0.7818608E-02  0.7223770E-01
         52   -1    0    0    0    0  0.00000000000E+00  0.00000000000E+00  0.64930732323E+04  0.65000000000E+04  0.30000000000E+03 0.  1.
        -52   -1    0    0    0    0 -0.00000000000E+00 -0.00000000000E+00 -0.64930732323E+04  0.65000000000E+04  0.30000000000E+03 0.  1.
     100001    1    1    2    0    0  0.32702215243E+03  0.14361599167E+04 -0.63291271875E+04  0.65000000000E+04  0.15050000000E+03 0.  1.
     100001    1    1    2    0    0 -0.32702215243E+03 -0.14361599167E+04  0.63291271875E+04  0.65000000000E+04  0.15050000000E+03 0.  1.
</event>
<event>
 4    1  0.4630618E-004  0.6500000E+04  0.7818608E-02  0.7223770E-01
         52   -1    0    0    0    0  0.00000000000E+00  0.00000000000E+00  0.64930732323E+04  0.65000000000E+04  0.30000000000E+03 0. -1.
        -52   -1    0    0    0    0 -0.00000000000E+00 -0.00000000000E+00 -0.64930732323E+04  0.65000000000E+04  0.30000000000E+03 0. -1.
     100001    1    1    2    0    0  0.70085386345E+03 -0.15859262097E+04 -0.62626664983E+04  0.65000000000E+04  0.15050000000E+03 0. -1.
     100001    1    1    2    0    0 -0.70085386345E+03  0.15859262097E+04  0.62626664983E+04  0.65000000000E+04  0.15050000000E+03 0. -1.
</event>
<event>
 4    1  0.4630618E-004  0.6500000E+04  0.7818608E-02  0.7223770E-01
         52   -1    0    0    0    0  0.00000000000E+00  0.00000000000E+00  0.64930732323E+04  0.65000000000E+04  0.30000000000E+03 0. -1.
        -52   -1    0    0    0    0 -0.00000000000E+00 -0.00000000000E+00 -0.64930732323E+04  0.65000000000E+04  0.30000000000E+03 0. -1.
     100001    1    1    2    0    0 -0.16981132435E+03  0.97662979213E+03 -0.64222043033E+04  0.65000000000E+04  0.15050000000E+03 0. -1.
     100001    1    1    2    0    0  0.16981132435E+03 -0.97662979213E+03  0.64222043033E+04  0.65000000000E+04  0.15050000000E+03 0. -1.
</event>
<event>
 4    1  0.4630618E-004  0.6500000E+04  0.7818608E-02  0.7223770E-01
         52   -1    0    0    0    0  0.00000000000E+00  0.00000000000E+00  0.64930732323E+04  0.65000000000E+04  0.30000000000E+03 0.  1.
        -52   -1    0    0    0    0 -0.00000000000E+00 -0.00000000000E+00 -0.64930732323E+04  0.65000000000E+04  0.30000000000E+03 0. -1.
     100001    1    1    2    0    0  0.43920281636E+04  0.30224354345E+04  0.37151476961E+04  0.65000000000E+04  0.15050000000E+03 0.  1.
     100001    1    1    2    0    0 -0.43920281636E+04 -0.30224354345E+04 -0.37151476961E+04  0.65000000000E+04  0.15050000000E+03 0. -1.
</event>
<event>
 4    1  0.4630618E-004  0.6500000E+04  0.7818608E-02  0.7223770E-01
         52   -1    0    0    0    0  0.00000000000E+00  0.00000000000E+00  0.64930732323E+04  0.65000000000E+04  0.30000000000E+03 0. -1.
        -52   -1    0    0    0    0 -0.00000000000E+00 -0.00000000000E+00 -0.64930732323E+04  0.65000000000E+04  0.30000000000E+03 0.  1.
     100001    1    1    2    0    0  0.78414529856E+03 -0.33463443283E+04  0.55149293320E+04  0.65000000000E+04  0.15050000000E+03 0. -1.
     100001    1    1    2    0    0 -0.78414529856E+03  0.33463443283E+04 -0.55149293320E+04  0.65000000000E+04  0.15050000000E+03 0.  1.
</event>
<event>
 4    1  0.4630618E-004  0.6500000E+04  0.7818608E-02  0.7223770E-01
         52   -1    0    0    0    0  0.00000000000E+00  0.00000000000E+00  0.64930732323E+04  0.65000000000E+04  0.30000000000E+03 0. -1.
        -52   -1    0    0    0    0 -0.00000000000E+00 -0.00000000000E+00 -0.64930732323E+04  0.65000000000E+04  0.30000000000E+03 0.  1.
     100001    1    1    2    0    0  0.48754953654E+04  0.42583831062E+04 -0.56839072181E+03  0.65000000000E+04  0.15050000000E+03 0.  1.
     100001    1    1    2    0    0 -0.48754953654E+04 -0.42583831062E+04  0.56839072181E+03  0.65000000000E+04  0.15050000000E+03 0. -1.
</event>
<event>
 4    1  0.4630618E-004  0.6500000E+04  0.7818608E-02  0.7223770E-01
         52   -1    0    0    0    0  0.00000000000E+00  0.00000000000E+00  0.64930732323E+04  0.65000000000E+04  0.30000000000E+03 0. -1.
        -52   -1    0    0    0    0 -0.00000000000E+00 -0.00000000000E+00 -0.64930732323E+04  0.65000000000E+04  0.30000000000E+03 0.  1.
     100001    1    1    2    0    0  0.54095396605E+02 -0.25332140939E+03 -0.64930926146E+04  0.65000000000E+04  0.15050000000E+03 0.  1.
     100001    1    1    2    0    0 -0.54095396605E+02  0.25332140939E+03  0.64930926146E+04  0.65000000000E+04  0.15050000000E+03 0. -1.
</event>
<event>
 4    1  0.4630618E-004  0.6500000E+04  0.7818608E-02  0.7223770E-01
         52   -1    0    0    0    0  0.00000000000E+00  0.00000000000E+00  0.64930732323E+04  0.65000000000E+04  0.30000000000E+03 0. -1.
        -52   -1    0    0    0    0 -0.00000000000E+00 -0.00000000000E+00 -0.64930732323E+04  0.65000000000E+04  0.30000000000E+03 0.  1.
     100001    1    1    2    0    0  0.11798035146E+04  0.23900942191E+03 -0.63857879634E+04  0.65000000000E+04  0.15050000000E+03 0.  1.
     100001    1    1    2    0    0 -0.11798035146E+04 -0.23900942191E+03  0.63857879634E+04  0.65000000000E+04  0.15050000000E+03 0. -1.
</event>
<event>
 4    1  0.4630618E-004  0.6500000E+04  0.7818608E-02  0.7223770E-01
         52   -1    0    0    0    0  0.00000000000E+00  0.00000000000E+00  0.64930732323E+04  0.65000000000E+04  0.30000000000E+03 0. -1.
        -52   -1    0    0    0    0 -0.00000000000E+00 -0.00000000000E+00 -0.64930732323E+04  0.65000000000E+04  0.30000000000E+03 0.  1.
     100001    1    1    2    0    0  0.37479740407E+03  0.66109541686E+03 -0.64536679110E+04  0.65000000000E+04  0.15050000000E+03 0.  1.
     100001    1    1    2    0    0 -0.37479740407E+03 -0.66109541686E+03  0.64536679110E+04  0.65000000000E+04  0.15050000000E+03 0. -1.
</event>
<event>
 4    1  0.4630618E-004  0.6500000E+04  0.7818608E-02  0.7223770E-01
         52   -1    0    0    0    0  0.00000000000E+00  0.00000000000E+00  0.64930732323E+04  0.65000000000E+04  0.30000000000E+03 0. -1.
        -52   -1    0    0    0    0 -0.00000000000E+00 -0.00000000000E+00 -0.64930732323E+04  0.65000000000E+04  0.30000000000E+03 0.  1.
     100001    1    1    2    0    0 -0.43463221320E+04 -0.16223695109E+04  0.45502473388E+04  0.65000000000E+04  0.15050000000E+03 0. -1.
     100001    1    1    2    0    0  0.43463221320E+04  0.16223695109E+04 -0.45502473388E+04  0.65000000000E+04  0.15050000000E+03 0.  1.
</event>
<event>
 4    1  0.4630618E-004  0.6500000E+04  0.7818608E-02  0.7223770E-01
         52   -1    0    0    0    0  0.00000000000E+00  0.00000000000E+00  0.64930732323E+04  0.65000000000E+04  0.30000000000E+03 0. -1.
        -52   -1    0    0    0    0 -0.00000000000E+00 -0.00000000000E+00 -0.64930732323E+04  0.65000000000E+04  0.30000000000E+03 0. -1.
     100001    1    1    2    0    0  0.42007383811E+03 -0.30290871038E+03  0.64775870533E+04  0.65000000000E+04  0.15050000000E+03 0. -1.
     100001    1    1    2    0    0 -0.42007383811E+03  0.30290871038E+03 -0.64775870533E+04  0.65000000000E+04  0.15050000000E+03 0. -1.
</event>
<event>
 4    1  0.4630618E-004  0.6500000E+04  0.7818608E-02  0.7223770E-01
         52   -1    0    0    0    0  0.00000000000E+00  0.00000000000E+00  0.64930732323E+04  0.65000000000E+04  0.30000000000E+03 0.  1.
        -52   -1    0    0    0    0 -0.00000000000E+00 -0.00000000000E+00 -0.64930732323E+04  0.65000000000E+04  0.30000000000E+03 0. -1.
     100001    1    1    2    0    0 -0.23497091932E+04 -0.31499315111E+04  0.51753403688E+04  0.65000000000E+04  0.15050000000E+03 0.  1.
     100001    1    1    2    0    0  0.23497091932E+04  0.31499315111E+04 -0.51753403688E+04  0.65000000000E+04  0.15050000000E+03 0. -1.
</event>
<event>
 4    1  0.4630618E-004  0.6500000E+04  0.7818608E-02  0.7223770E-01
         52   -1    0    0    0    0  0.00000000000E+00  0.00000000000E+00  0.64930732323E+04  0.65000000000E+04  0.30000000000E+03 0. -1.
        -52   -1    0    0    0    0 -0.00000000000E+00 -0.00000000000E+00 -0.64930732323E+04  0.65000000000E+04  0.30000000000E+03 0. -1.
     100001    1    1    2    0    0 -0.12094964315E+03 -0.41747749888E+03  0.64837052271E+04  0.65000000000E+04  0.15050000000E+03 0. -1.
     100001    1    1    2    0    0  0.12094964315E+03  0.41747749888E+03 -0.64837052271E+04  0.65000000000E+04  0.15050000000E+03 0. -1.
</event>
<event>
 4    1  0.4630618E-004  0.6500000E+04  0.7818608E-02  0.7223770E-01
         52   -1    0    0    0    0  0.00000000000E+00  0.00000000000E+00  0.64930732323E+04  0.65000000000E+04  0.30000000000E+03 0. -1.
        -52   -1    0    0    0    0 -0.00000000000E+00 -0.00000000000E+00 -0.64930732323E+04  0.65000000000E+04  0.30000000000E+03 0. -1.
     100001    1    1    2    0    0 -0.24980476613E+03  0.12211524643E+03  0.64923058458E+04  0.65000000000E+04  0.15050000000E+03 0. -1.
     100001    1    1    2    0    0  0.24980476613E+03 -0.12211524643E+03 -0.64923058458E+04  0.65000000000E+04  0.15050000000E+03 0. -1.
</event>
<event>
 4    1  0.4630618E-004  0.6500000E+04  0.7818608E-02  0.7223770E-01
         52   -1    0    0    0    0  0.00000000000E+00  0.00000000000E+00  0.64930732323E+04  0.65000000000E+04  0.30000000000E+03 0.  1.
        -52   -1    0    0    0    0 -0.00000000000E+00 -0.00000000000E+00 -0.64930732323E+04  0.65000000000E+04  0.30000000000E+03 0. -1.
     100001    1    1    2    0    0  0.64581913938E+04  0.10524249156E+03  0.71276762596E+03  0.65000000000E+04  0.15050000000E+03 0. -1.
     100001    1    1    2    0    0 -0.64581913938E+04 -0.10524249156E+03 -0.71276762596E+03  0.65000000000E+04  0.15050000000E+03 0.  1.
</event>
<event>
 4    1  0.4630618E-004  0.6500000E+04  0.7818608E-02  0.7223770E-01
         52   -1    0    0    0    0  0.00000000000E+00  0.00000000000E+00  0.64930732323E+04  0.65000000000E+04  0.30000000000E+03 0.  1.
        -52   -1    0    0    0    0 -0.00000000000E+00 -0.00000000000E+00 -0.64930732323E+04  0.65000000000E+04  0.30000000000E+03 0. -1.
     100001    1    1    2    0    0  0.93871503423E+03  0.32877281295E+04  0.55260300018E+04  0.65000000000E+04  0.15050000000E+03 0.  1.
     100001    1    1    2    0    0 -0.93871503423E+03 -0.32877281295E+04 -0.55260300018E+04  0.65000000000E+04  0.15050000000E+03 0. -1.
</event>
<event>
 4    1  0.4630618E-004  0.6500000E+04  0.7818608E-02  0.7223770E-01
         52   -1    0    0    0    0  0.00000000000E+00  0.00000000000E+00  0.64930732323E+04  0.65000000000E+04  0.30000000000E+03 0. -1.
        -52   -1    0    0    0    0 -0.00000000000E+00 -0.00000000000E+00 -0.64930732323E+04  0.65000000000E+04  0.30000000000E+03 0.  1.
     100001    1    1    2    0    0  0.14401482758E+04  0.23654196529E+04  0.58786148504E+04  0.65000000000E+04  0.15050000000E+03 0.  1.
     100001    1    1    2    0    0 -0.14401482758E+04 -0.23654196529E+04 -0.58786148504E+04  0.65000000000E+04  0.15050000000E+03 0. -1.
</event>
<event>
 4    1  0.4630618E-004  0.6500000E+04  0.7818608E-02  0.7223770E-01
         52   -1    0    0    0    0  0.00000000000E+00  0.00000000000E+00  0.64930732323E+04  0.65000000000E+04  0.30000000000E+03 0.  1.
        -52   -1    0    0    0    0 -0.00000000000E+00 -0.00000000000E+00 -0.64930732323E+04  0.65000000000E+04  0.30000000000E+03 0. -1.
     100001    1    1    2    0    0  0.20067625888E+04  0.28910625202E+04 -0.54627841955E+04  0.65000000000E+04  0.15050000000E+03 0. -1.
     100001    1    1    2    0    0 -0.20067625888E+04 -0.28910625202E+04  0.54627841955E+04  0.65000000000E+04  0.15050000000E+03 0.  1.
</event>
<event>
 4    1  0.4630618E-004  0.6500000E+04  0.7818608E-02  0.7223770E-01
         52   -1    0    0    0    0  0.00000000000E+00  0.00000000000E+00  0.64930732323E+04  0.65000000000E+04  0.30000000000E+03 0. -1.
        -52   -1    0    0    0    0 -0.00000000000E+00 -0.00000000000E+00 -0.64930732323E+04  0.65000000000E+04  0.30000000000E+03 0.  1.
     100001    1    1    2    0    0 -0.39409011960E+03  0.14861172853E+04 -0.63137546786E+04  0.65000000000E+04  0.15050000000E+03 0.  1.
     100001    1    1    2    0    0  0.39409011960E+03 -0.14861172853E+04  0.63137546786E+04  0.65000000000E+04  0.15050000000E+03 0. -1.
</event>
<event>
 4    1  0.4630618E-004  0.6500000E+04  0.7818608E-02  0.7223770E-01
         52   -1    0    0    0    0  0.00000000000E+00  0.00000000000E+00  0.64930732323E+04  0.65000000000E+04  0.30000000000E+03 0. -1.
        -52   -1    0    0    0    0 -0.00000000000E+00 -0.00000000000E+00 -0.64930732323E+04  0.65000000000E+04  0.30000000000E+03 0.  1.
     100001    1    1    2    0    0  0.60311336953E+03 -0.23694273188E+04  0.60207489729E+04  0.65000000000E+04  0.15050000000E+03 0. -1.
     100001    1    1    2    0    0 -0.60311336953E+03  0.23694273188E+04 -0.60207489729E+04  0.65000000000E+04  0.15050000000E+03 0.  1.
</event>
<event>
 4    1  0.4630618E-004  0.6500000E+04  0.7818608E-02  0.7223770E-01
         52   -1    0    0    0    0  0.00000000000E+00  0.00000000000E+00  0.64930732323E+04  0.65000000000E+04  0.30000000000E+03 0. -1.
        -52   -1    0    0    0    0 -0.00000000000E+00 -0.00000000000E+00 -0.64930732323E+04  0.65000000000E+04  0.30000000000E+03 0. -1.
     100001    1    1    2    0    0 -0.29817489753E+03 -0.22317624496E+03 -0.64875753440E+04  0.65000000000E+04  0.15050000000E+03 0. -1.
     100001    1    1    2    0    0  0.29817489753E+03  0.22317624496E+03  0.64875753440E+04  0.65000000000E+04  0.15050000000E+03 0. -1.
</event>
<event>
 4    1  0.4630618E-004  0.6500000E+04  0.7818608E-02  0.7223770E-01
         52   -1    0    0    0    0  0.00000000000E+00  0.00000000000E+00  0.64930732323E+04  0.65000000000E+04  0.30000000000E+03 0.  1.
        -52   -1    0    0    0    0 -0.00000000000E+00 -0.00000000000E+00 -0.64930732323E+04  0.65000000000E+04  0.30000000000E+03 0. -1.
     100001    1    1    2    0    0  0.21882776049E+03  0.63175590687E+03  0.64637720129E+04  0.65000000000E+04  0.15050000000E+03 0.  1.
     100001    1    1    2    0    0 -0.21882776049E+03 -0.63175590687E+03 -0.64637720129E+04  0.65000000000E+04  0.15050000000E+03 0. -1.
</event>
<event>
 4    1  0.4630618E-004  0.6500000E+04  0.7818608E-02  0.7223770E-01
         52   -1    0    0    0    0  0.00000000000E+00  0.00000000000E+00  0.64930732323E+04  0.65000000000E+04  0.30000000000E+03 0.  1.
        -52   -1    0    0    0    0 -0.00000000000E+00 -0.00000000000E+00 -0.64930732323E+04  0.65000000000E+04  0.30000000000E+03 0. -1.
     100001    1    1    2    0    0 -0.17864112581E+03  0.75586089365E+03 -0.64516750854E+04  0.65000000000E+04  0.15050000000E+03 0. -1.
     100001    1    1    2    0    0  0.17864112581E+03 -0.75586089365E+03  0.64516750854E+04  0.65000000000E+04  0.15050000000E+03 0.  1.
</event>
<event>
 4    1  0.4630618E-004  0.6500000E+04  0.7818608E-02  0.7223770E-01
         52   -1    0    0    0    0  0.00000000000E+00  0.00000000000E+00  0.64930732323E+04  0.65000000000E+04  0.30000000000E+03 0. -1.
        -52   -1    0    0    0    0 -0.00000000000E+00 -0.00000000000E+00 -0.64930732323E+04  0.65000000000E+04  0.30000000000E+03 0.  1.
     100001    1    1    2    0    0  0.48098154089E+04 -0.40848471159E+04 -0.15514668935E+04  0.65000000000E+04  0.15050000000E+03 0.  1.
     100001    1    1    2    0    0 -0.48098154089E+04  0.40848471159E+04  0.15514668935E+04  0.65000000000E+04  0.15050000000E+03 0. -1.
</event>
<event>
 4    1  0.4630618E-004  0.6500000E+04  0.7818608E-02  0.7223770E-01
         52   -1    0    0    0    0  0.00000000000E+00  0.00000000000E+00  0.64930732323E+04  0.65000000000E+04  0.30000000000E+03 0.  1.
        -52   -1    0    0    0    0 -0.00000000000E+00 -0.00000000000E+00 -0.64930732323E+04  0.65000000000E+04  0.30000000000E+03 0. -1.
     100001    1    1    2    0    0 -0.11069745576E+01 -0.59738488025E+03  0.64707402845E+04  0.65000000000E+04  0.15050000000E+03 0.  1.
     100001    1    1    2    0    0  0.11069745576E+01  0.59738488025E+03 -0.64707402845E+04  0.65000000000E+04  0.15050000000E+03 0. -1.
</event>
<event>
 4    1  0.4630618E-004  0.6500000E+04  0.7818608E-02  0.7223770E-01
         52   -1    0    0    0    0  0.00000000000E+00  0.00000000000E+00  0.64930732323E+04  0.65000000000E+04  0.30000000000E+03 0. -1.
        -52   -1    0    0    0    0 -0.00000000000E+00 -0.00000000000E+00 -0.64930732323E+04  0.65000000000E+04  0.30000000000E+03 0.  1.
     100001    1    1    2    0    0  0.39278109250E+03  0.15940083661E+04 -0.62874645201E+04  0.65000000000E+04  0.15050000000E+03 0.  1.
     100001    1    1    2    0    0 -0.39278109250E+03 -0.15940083661E+04  0.62874645201E+04  0.65000000000E+04  0.15050000000E+03 0. -1.
</event>
<event>
 4    1  0.4630618E-004  0.6500000E+04  0.7818608E-02  0.7223770E-01
         52   -1    0    0    0    0  0.00000000000E+00  0.00000000000E+00  0.64930732323E+04  0.65000000000E+04  0.30000000000E+03 0.  1.
        -52   -1    0    0    0    0 -0.00000000000E+00 -0.00000000000E+00 -0.64930732323E+04  0.65000000000E+04  0.30000000000E+03 0. -1.
     100001    1    1    2    0    0  0.15354766354E+04  0.14714161372E+03 -0.63125280671E+04  0.65000000000E+04  0.15050000000E+03 0. -1.
     100001    1    1    2    0    0 -0.15354766354E+04 -0.14714161372E+03  0.63125280671E+04  0.65000000000E+04  0.15050000000E+03 0.  1.
</event>
<event>
 4    1  0.4630618E-004  0.6500000E+04  0.7818608E-02  0.7223770E-01
         52   -1    0    0    0    0  0.00000000000E+00  0.00000000000E+00  0.64930732323E+04  0.65000000000E+04  0.30000000000E+03 0.  1.
        -52   -1    0    0    0    0 -0.00000000000E+00 -0.00000000000E+00 -0.64930732323E+04  0.65000000000E+04  0.30000000000E+03 0. -1.
     100001    1    1    2    0    0  0.86444531441E+02  0.59631972879E+04  0.25807276490E+04  0.65000000000E+04  0.15050000000E+03 0.  1.
     100001    1    1    2    0    0 -0.86444531441E+02 -0.59631972879E+04 -0.25807276490E+04  0.65000000000E+04  0.15050000000E+03 0. -1.
</event>
<event>
 4    1  0.4630618E-004  0.6500000E+04  0.7818608E-02  0.7223770E-01
         52   -1    0    0    0    0  0.00000000000E+00  0.00000000000E+00  0.64930732323E+04  0.65000000000E+04  0.30000000000E+03 0.  1.
        -52   -1    0    0    0    0 -0.00000000000E+00 -0.00000000000E+00 -0.64930732323E+04  0.65000000000E+04  0.30000000000E+03 0. -1.
     100001    1    1    2    0    0 -0.99865887788E+03  0.12929932489E+04 -0.62895308771E+04  0.65000000000E+04  0.15050000000E+03 0. -1.
     100001    1    1    2    0    0  0.99865887788E+03 -0.12929932489E+04  0.62895308771E+04  0.65000000000E+04  0.15050000000E+03 0.  1.
</event>
<event>
 4    1  0.4630618E-004  0.6500000E+04  0.7818608E-02  0.7223770E-01
         52   -1    0    0    0    0  0.00000000000E+00  0.00000000000E+00  0.64930732323E+04  0.65000000000E+04  0.30000000000E+03 0.  1.
        -52   -1    0    0    0    0 -0.00000000000E+00 -0.00000000000E+00 -0.64930732323E+04  0.65000000000E+04  0.30000000000E+03 0. -1.
     100001    1    1    2    0    0  0.38280794034E+04  0.26985707894E+03 -0.52440761806E+04  0.65000000000E+04  0.15050000000E+03 0. -1.
     100001    1    1    2    0    0 -0.38280794034E+04 -0.26985707894E+03  0.52440761806E+04  0.65000000000E+04  0.15050000000E+03 0.  1.
</event>
<event>
 4    1  0.4630618E-004  0.6500000E+04  0.7818608E-02  0.7223770E-01
         52   -1    0    0    0    0  0.00000000000E+00  0.00000000000E+00  0.64930732323E+04  0.65000000000E+04  0.30000000000E+03 0. -1.
        -52   -1    0    0    0    0 -0.00000000000E+00 -0.00000000000E+00 -0.64930732323E+04  0.65000000000E+04  0.30000000000E+03 0.  1.
     100001    1    1    2    0    0 -0.85709429222E+03  0.16284320839E+04  0.62322506426E+04  0.65000000000E+04  0.15050000000E+03 0. -1.
     100001    1    1    2    0    0  0.85709429222E+03 -0.16284320839E+04 -0.62322506426E+04  0.65000000000E+04  0.15050000000E+03 0.  1.
</event>
<event>
 4    1  0.4630618E-004  0.6500000E+04  0.7818608E-02  0.7223770E-01
         52   -1    0    0    0    0  0.00000000000E+00  0.00000000000E+00  0.64930732323E+04  0.65000000000E+04  0.30000000000E+03 0.  1.
        -52   -1    0    0    0    0 -0.00000000000E+00 -0.00000000000E+00 -0.64930732323E+04  0.65000000000E+04  0.30000000000E+03 0. -1.
     100001    1    1    2    0    0 -0.20386029176E+04  0.36093506331E+04 -0.50044016527E+04  0.65000000000E+04  0.15050000000E+03 0. -1.
     100001    1    1    2    0    0  0.20386029176E+04 -0.36093506331E+04  0.50044016527E+04  0.65000000000E+04  0.15050000000E+03 0.  1.
</event>
<event>
 4    1  0.4630618E-004  0.6500000E+04  0.7818608E-02  0.7223770E-01
         52   -1    0    0    0    0  0.00000000000E+00  0.00000000000E+00  0.64930732323E+04  0.65000000000E+04  0.30000000000E+03 0. -1.
        -52   -1    0    0    0    0 -0.00000000000E+00 -0.00000000000E+00 -0.64930732323E+04  0.65000000000E+04  0.30000000000E+03 0. -1.
     100001    1    1    2    0    0  0.22916080122E+03  0.44615265157E+03 -0.64788720383E+04  0.65000000000E+04  0.15050000000E+03 0. -1.
     100001    1    1    2    0    0 -0.22916080122E+03 -0.44615265157E+03  0.64788720383E+04  0.65000000000E+04  0.15050000000E+03 0. -1.
</event>
<event>
 4    1  0.4630618E-004  0.6500000E+04  0.7818608E-02  0.7223770E-01
         52   -1    0    0    0    0  0.00000000000E+00  0.00000000000E+00  0.64930732323E+04  0.65000000000E+04  0.30000000000E+03 0. -1.
        -52   -1    0    0    0    0 -0.00000000000E+00 -0.00000000000E+00 -0.64930732323E+04  0.65000000000E+04  0.30000000000E+03 0.  1.
     100001    1    1    2    0    0 -0.19415163996E+04  0.32052638772E+04 -0.53088743908E+04  0.65000000000E+04  0.15050000000E+03 0.  1.
     100001    1    1    2    0    0  0.19415163996E+04 -0.32052638772E+04  0.53088743908E+04  0.65000000000E+04  0.15050000000E+03 0. -1.
</event>
<event>
 4    1  0.4630618E-004  0.6500000E+04  0.7818608E-02  0.7223770E-01
         52   -1    0    0    0    0  0.00000000000E+00  0.00000000000E+00  0.64930732323E+04  0.65000000000E+04  0.30000000000E+03 0.  1.
        -52   -1    0    0    0    0 -0.00000000000E+00 -0.00000000000E+00 -0.64930732323E+04  0.65000000000E+04  0.30000000000E+03 0. -1.
     100001    1    1    2    0    0  0.63201368852E+03 -0.29247307445E+03 -0.64608333788E+04  0.65000000000E+04  0.15050000000E+03 0. -1.
     100001    1    1    2    0    0 -0.63201368852E+03  0.29247307445E+03  0.64608333788E+04  0.65000000000E+04  0.15050000000E+03 0.  1.
</event>
<event>
 4    1  0.4630618E-004  0.6500000E+04  0.7818608E-02  0.7223770E-01
         52   -1    0    0    0    0  0.00000000000E+00  0.00000000000E+00  0.64930732323E+04  0.65000000000E+04  0.30000000000E+03 0.  1.
        -52   -1    0    0    0    0 -0.00000000000E+00 -0.00000000000E+00 -0.64930732323E+04  0.65000000000E+04  0.30000000000E+03 0. -1.
     100001    1    1    2    0    0  0.35199416360E+03  0.20726771080E+04 -0.61487770707E+04  0.65000000000E+04  0.15050000000E+03 0. -1.
     100001    1    1    2    0    0 -0.35199416360E+03 -0.20726771080E+04  0.61487770707E+04  0.65000000000E+04  0.15050000000E+03 0.  1.
</event>
<event>
 4    1  0.4630618E-004  0.6500000E+04  0.7818608E-02  0.7223770E-01
         52   -1    0    0    0    0  0.00000000000E+00  0.00000000000E+00  0.64930732323E+04  0.65000000000E+04  0.30000000000E+03 0. -1.
        -52   -1    0    0    0    0 -0.00000000000E+00 -0.00000000000E+00 -0.64930732323E+04  0.65000000000E+04  0.30000000000E+03 0.  1.
     100001    1    1    2    0    0 -0.14521596239E+04  0.32318886827E+04 -0.54473367547E+04  0.65000000000E+04  0.15050000000E+03 0.  1.
     100001    1    1    2    0    0  0.14521596239E+04 -0.32318886827E+04  0.54473367547E+04  0.65000000000E+04  0.15050000000E+03 0. -1.
</event>
<event>
 4    1  0.6012085E-004  0.6500000E+04  0.7818608E-02  0.7223770E-01
         52   -1    0    0    0    0  0.00000000000E+00  0.00000000000E+00  0.64930732323E+04  0.65000000000E+04  0.30000000000E+03 0. -1.
        -52   -1    0    0    0    0 -0.00000000000E+00 -0.00000000000E+00 -0.64930732323E+04  0.65000000000E+04  0.30000000000E+03 0. -1.
     100001    1    1    2    0    0 -0.18917994011E+03  0.40667590031E+02  0.64953758049E+04  0.65000000000E+04  0.15050000000E+03 0. -1.
     100001    1    1    2    0    0  0.18917994011E+03 -0.40667590031E+02 -0.64953758049E+04  0.65000000000E+04  0.15050000000E+03 0. -1.
</event>
<event>
 4    1  0.4630618E-004  0.6500000E+04  0.7818608E-02  0.7223770E-01
         52   -1    0    0    0    0  0.00000000000E+00  0.00000000000E+00  0.64930732323E+04  0.65000000000E+04  0.30000000000E+03 0. -1.
        -52   -1    0    0    0    0 -0.00000000000E+00 -0.00000000000E+00 -0.64930732323E+04  0.65000000000E+04  0.30000000000E+03 0.  1.
     100001    1    1    2    0    0  0.59643970833E+03 -0.61492793702E+02  0.64705353767E+04  0.65000000000E+04  0.15050000000E+03 0. -1.
     100001    1    1    2    0    0 -0.59643970833E+03  0.61492793702E+02 -0.64705353767E+04  0.65000000000E+04  0.15050000000E+03 0.  1.
</event>
<event>
 4    1  0.4630618E-004  0.6500000E+04  0.7818608E-02  0.7223770E-01
         52   -1    0    0    0    0  0.00000000000E+00  0.00000000000E+00  0.64930732323E+04  0.65000000000E+04  0.30000000000E+03 0. -1.
        -52   -1    0    0    0    0 -0.00000000000E+00 -0.00000000000E+00 -0.64930732323E+04  0.65000000000E+04  0.30000000000E+03 0.  1.
     100001    1    1    2    0    0 -0.11801742449E+03 -0.40193757050E+04  0.51047076880E+04  0.65000000000E+04  0.15050000000E+03 0. -1.
     100001    1    1    2    0    0  0.11801742449E+03  0.40193757050E+04 -0.51047076880E+04  0.65000000000E+04  0.15050000000E+03 0.  1.
</event>
<event>
 4    1  0.4630618E-004  0.6500000E+04  0.7818608E-02  0.7223770E-01
         52   -1    0    0    0    0  0.00000000000E+00  0.00000000000E+00  0.64930732323E+04  0.65000000000E+04  0.30000000000E+03 0. -1.
        -52   -1    0    0    0    0 -0.00000000000E+00 -0.00000000000E+00 -0.64930732323E+04  0.65000000000E+04  0.30000000000E+03 0.  1.
     100001    1    1    2    0    0 -0.94884181048E+03 -0.10939018001E+04 -0.63348581531E+04  0.65000000000E+04  0.15050000000E+03 0.  1.
     100001    1    1    2    0    0  0.94884181048E+03  0.10939018001E+04  0.63348581531E+04  0.65000000000E+04  0.15050000000E+03 0. -1.
</event>
<event>
 4    1  0.4630618E-004  0.6500000E+04  0.7818608E-02  0.7223770E-01
         52   -1    0    0    0    0  0.00000000000E+00  0.00000000000E+00  0.64930732323E+04  0.65000000000E+04  0.30000000000E+03 0.  1.
        -52   -1    0    0    0    0 -0.00000000000E+00 -0.00000000000E+00 -0.64930732323E+04  0.65000000000E+04  0.30000000000E+03 0. -1.
     100001    1    1    2    0    0  0.31431150876E+02 -0.74170755561E+03 -0.64557131081E+04  0.65000000000E+04  0.15050000000E+03 0. -1.
     100001    1    1    2    0    0 -0.31431150876E+02  0.74170755561E+03  0.64557131081E+04  0.65000000000E+04  0.15050000000E+03 0.  1.
</event>
<event>
 4    1  0.4630618E-004  0.6500000E+04  0.7818608E-02  0.7223770E-01
         52   -1    0    0    0    0  0.00000000000E+00  0.00000000000E+00  0.64930732323E+04  0.65000000000E+04  0.30000000000E+03 0.  1.
        -52   -1    0    0    0    0 -0.00000000000E+00 -0.00000000000E+00 -0.64930732323E+04  0.65000000000E+04  0.30000000000E+03 0. -1.
     100001    1    1    2    0    0  0.18710103297E+03 -0.78111321837E+03 -0.64484265595E+04  0.65000000000E+04  0.15050000000E+03 0. -1.
     100001    1    1    2    0    0 -0.18710103297E+03  0.78111321837E+03  0.64484265595E+04  0.65000000000E+04  0.15050000000E+03 0.  1.
</event>
<event>
 4    1  0.4630618E-004  0.6500000E+04  0.7818608E-02  0.7223770E-01
         52   -1    0    0    0    0  0.00000000000E+00  0.00000000000E+00  0.64930732323E+04  0.65000000000E+04  0.30000000000E+03 0.  1.
        -52   -1    0    0    0    0 -0.00000000000E+00 -0.00000000000E+00 -0.64930732323E+04  0.65000000000E+04  0.30000000000E+03 0. -1.
     100001    1    1    2    0    0  0.36510657837E+03 -0.47592400649E+04 -0.44094989445E+04  0.65000000000E+04  0.15050000000E+03 0. -1.
     100001    1    1    2    0    0 -0.36510657837E+03  0.47592400649E+04  0.44094989445E+04  0.65000000000E+04  0.15050000000E+03 0.  1.
</event>
<event>
 4    1  0.4630618E-004  0.6500000E+04  0.7818608E-02  0.7223770E-01
         52   -1    0    0    0    0  0.00000000000E+00  0.00000000000E+00  0.64930732323E+04  0.65000000000E+04  0.30000000000E+03 0. -1.
        -52   -1    0    0    0    0 -0.00000000000E+00 -0.00000000000E+00 -0.64930732323E+04  0.65000000000E+04  0.30000000000E+03 0. -1.
     100001    1    1    2    0    0 -0.74013610288E+03 -0.27697910022E+03 -0.64500256493E+04  0.65000000000E+04  0.15050000000E+03 0. -1.
     100001    1    1    2    0    0  0.74013610288E+03  0.27697910022E+03  0.64500256493E+04  0.65000000000E+04  0.15050000000E+03 0. -1.
</event>
<event>
 4    1  0.4630618E-004  0.6500000E+04  0.7818608E-02  0.7223770E-01
         52   -1    0    0    0    0  0.00000000000E+00  0.00000000000E+00  0.64930732323E+04  0.65000000000E+04  0.30000000000E+03 0. -1.
        -52   -1    0    0    0    0 -0.00000000000E+00 -0.00000000000E+00 -0.64930732323E+04  0.65000000000E+04  0.30000000000E+03 0.  1.
     100001    1    1    2    0    0  0.54454530036E+04 -0.35374098377E+04 -0.24723061302E+03  0.65000000000E+04  0.15050000000E+03 0.  1.
     100001    1    1    2    0    0 -0.54454530036E+04  0.35374098377E+04  0.24723061302E+03  0.65000000000E+04  0.15050000000E+03 0. -1.
</event>
<event>
 4    1  0.4630618E-004  0.6500000E+04  0.7818608E-02  0.7223770E-01
         52   -1    0    0    0    0  0.00000000000E+00  0.00000000000E+00  0.64930732323E+04  0.65000000000E+04  0.30000000000E+03 0.  1.
        -52   -1    0    0    0    0 -0.00000000000E+00 -0.00000000000E+00 -0.64930732323E+04  0.65000000000E+04  0.30000000000E+03 0. -1.
     100001    1    1    2    0    0 -0.19176232103E+04  0.48588646217E+04  0.38654243701E+04  0.65000000000E+04  0.15050000000E+03 0.  1.
     100001    1    1    2    0    0  0.19176232103E+04 -0.48588646217E+04 -0.38654243701E+04  0.65000000000E+04  0.15050000000E+03 0. -1.
</event>
<event>
 4    1  0.4630618E-004  0.6500000E+04  0.7818608E-02  0.7223770E-01
         52   -1    0    0    0    0  0.00000000000E+00  0.00000000000E+00  0.64930732323E+04  0.65000000000E+04  0.30000000000E+03 0. -1.
        -52   -1    0    0    0    0 -0.00000000000E+00 -0.00000000000E+00 -0.64930732323E+04  0.65000000000E+04  0.30000000000E+03 0.  1.
     100001    1    1    2    0    0 -0.34668448827E+03 -0.25597021677E+03 -0.64839524107E+04  0.65000000000E+04  0.15050000000E+03 0.  1.
     100001    1    1    2    0    0  0.34668448827E+03  0.25597021677E+03  0.64839524107E+04  0.65000000000E+04  0.15050000000E+03 0. -1.
</event>
<event>
 4    1  0.4630618E-004  0.6500000E+04  0.7818608E-02  0.7223770E-01
         52   -1    0    0    0    0  0.00000000000E+00  0.00000000000E+00  0.64930732323E+04  0.65000000000E+04  0.30000000000E+03 0. -1.
        -52   -1    0    0    0    0 -0.00000000000E+00 -0.00000000000E+00 -0.64930732323E+04  0.65000000000E+04  0.30000000000E+03 0. -1.
     100001    1    1    2    0    0  0.45673217420E+03  0.30703882541E+03  0.64749110133E+04  0.65000000000E+04  0.15050000000E+03 0. -1.
     100001    1    1    2    0    0 -0.45673217420E+03 -0.30703882541E+03 -0.64749110133E+04  0.65000000000E+04  0.15050000000E+03 0. -1.
</event>
<event>
 4    1  0.4630618E-004  0.6500000E+04  0.7818608E-02  0.7223770E-01
         52   -1    0    0    0    0  0.00000000000E+00  0.00000000000E+00  0.64930732323E+04  0.65000000000E+04  0.30000000000E+03 0. -1.
        -52   -1    0    0    0    0 -0.00000000000E+00 -0.00000000000E+00 -0.64930732323E+04  0.65000000000E+04  0.30000000000E+03 0.  1.
     100001    1    1    2    0    0 -0.30571876853E+03  0.13377984437E+04 -0.63517069445E+04  0.65000000000E+04  0.15050000000E+03 0.  1.
     100001    1    1    2    0    0  0.30571876853E+03 -0.13377984437E+04  0.63517069445E+04  0.65000000000E+04  0.15050000000E+03 0. -1.
</event>
<event>
 4    1  0.4630618E-004  0.6500000E+04  0.7818608E-02  0.7223770E-01
         52   -1    0    0    0    0  0.00000000000E+00  0.00000000000E+00  0.64930732323E+04  0.65000000000E+04  0.30000000000E+03 0. -1.
        -52   -1    0    0    0    0 -0.00000000000E+00 -0.00000000000E+00 -0.64930732323E+04  0.65000000000E+04  0.30000000000E+03 0.  1.
     100001    1    1    2    0    0  0.89007996745E+02 -0.75977906602E+03 -0.64530739262E+04  0.65000000000E+04  0.15050000000E+03 0.  1.
     100001    1    1    2    0    0 -0.89007996745E+02  0.75977906602E+03  0.64530739262E+04  0.65000000000E+04  0.15050000000E+03 0. -1.
</event>
<event>
 4    1  0.4630618E-004  0.6500000E+04  0.7818608E-02  0.7223770E-01
         52   -1    0    0    0    0  0.00000000000E+00  0.00000000000E+00  0.64930732323E+04  0.65000000000E+04  0.30000000000E+03 0.  1.
        -52   -1    0    0    0    0 -0.00000000000E+00 -0.00000000000E+00 -0.64930732323E+04  0.65000000000E+04  0.30000000000E+03 0. -1.
     100001    1    1    2    0    0  0.13694002492E+04 -0.18046019637E+04  0.60906078892E+04  0.65000000000E+04  0.15050000000E+03 0.  1.
     100001    1    1    2    0    0 -0.13694002492E+04  0.18046019637E+04 -0.60906078892E+04  0.65000000000E+04  0.15050000000E+03 0. -1.
</event>
<event>
 4    1  0.4630618E-004  0.6500000E+04  0.7818608E-02  0.7223770E-01
         52   -1    0    0    0    0  0.00000000000E+00  0.00000000000E+00  0.64930732323E+04  0.65000000000E+04  0.30000000000E+03 0. -1.
        -52   -1    0    0    0    0 -0.00000000000E+00 -0.00000000000E+00 -0.64930732323E+04  0.65000000000E+04  0.30000000000E+03 0.  1.
     100001    1    1    2    0    0  0.81857506992E+03  0.29002655585E+03 -0.64399665528E+04  0.65000000000E+04  0.15050000000E+03 0.  1.
     100001    1    1    2    0    0 -0.81857506992E+03 -0.29002655585E+03  0.64399665528E+04  0.65000000000E+04  0.15050000000E+03 0. -1.
</event>
<event>
 4    1  0.4630618E-004  0.6500000E+04  0.7818608E-02  0.7223770E-01
         52   -1    0    0    0    0  0.00000000000E+00  0.00000000000E+00  0.64930732323E+04  0.65000000000E+04  0.30000000000E+03 0.  1.
        -52   -1    0    0    0    0 -0.00000000000E+00 -0.00000000000E+00 -0.64930732323E+04  0.65000000000E+04  0.30000000000E+03 0.  1.
     100001    1    1    2    0    0  0.66510839680E+02  0.20534210408E+02 -0.64978846100E+04  0.65000000000E+04  0.15050000000E+03 0.  1.
     100001    1    1    2    0    0 -0.66510839680E+02 -0.20534210408E+02  0.64978846100E+04  0.65000000000E+04  0.15050000000E+03 0.  1.
</event>
<event>
 4    1  0.4630618E-004  0.6500000E+04  0.7818608E-02  0.7223770E-01
         52   -1    0    0    0    0  0.00000000000E+00  0.00000000000E+00  0.64930732323E+04  0.65000000000E+04  0.30000000000E+03 0.  1.
        -52   -1    0    0    0    0 -0.00000000000E+00 -0.00000000000E+00 -0.64930732323E+04  0.65000000000E+04  0.30000000000E+03 0. -1.
     100001    1    1    2    0    0  0.50419712575E+03 -0.48759609880E+03 -0.64602929541E+04  0.65000000000E+04  0.15050000000E+03 0. -1.
     100001    1    1    2    0    0 -0.50419712575E+03  0.48759609880E+03  0.64602929541E+04  0.65000000000E+04  0.15050000000E+03 0.  1.
</event>
<event>
 4    1  0.4630618E-004  0.6500000E+04  0.7818608E-02  0.7223770E-01
         52   -1    0    0    0    0  0.00000000000E+00  0.00000000000E+00  0.64930732323E+04  0.65000000000E+04  0.30000000000E+03 0.  1.
        -52   -1    0    0    0    0 -0.00000000000E+00 -0.00000000000E+00 -0.64930732323E+04  0.65000000000E+04  0.30000000000E+03 0. -1.
     100001    1    1    2    0    0  0.11576654068E+04 -0.25228244967E+03 -0.63893281432E+04  0.65000000000E+04  0.15050000000E+03 0. -1.
     100001    1    1    2    0    0 -0.11576654068E+04  0.25228244967E+03  0.63893281432E+04  0.65000000000E+04  0.15050000000E+03 0.  1.
</event>
<event>
 4    1  0.4630618E-004  0.6500000E+04  0.7818608E-02  0.7223770E-01
         52   -1    0    0    0    0  0.00000000000E+00  0.00000000000E+00  0.64930732323E+04  0.65000000000E+04  0.30000000000E+03 0. -1.
        -52   -1    0    0    0    0 -0.00000000000E+00 -0.00000000000E+00 -0.64930732323E+04  0.65000000000E+04  0.30000000000E+03 0.  1.
     100001    1    1    2    0    0  0.91289128776E+03 -0.27545090591E+04  0.58143494125E+04  0.65000000000E+04  0.15050000000E+03 0. -1.
     100001    1    1    2    0    0 -0.91289128776E+03  0.27545090591E+04 -0.58143494125E+04  0.65000000000E+04  0.15050000000E+03 0.  1.
</event>
<event>
 4    1  0.4630618E-004  0.6500000E+04  0.7818608E-02  0.7223770E-01
         52   -1    0    0    0    0  0.00000000000E+00  0.00000000000E+00  0.64930732323E+04  0.65000000000E+04  0.30000000000E+03 0. -1.
        -52   -1    0    0    0    0 -0.00000000000E+00 -0.00000000000E+00 -0.64930732323E+04  0.65000000000E+04  0.30000000000E+03 0.  1.
     100001    1    1    2    0    0 -0.84723198675E+03 -0.62537264233E+04  0.15493397088E+04  0.65000000000E+04  0.15050000000E+03 0. -1.
     100001    1    1    2    0    0  0.84723198675E+03  0.62537264233E+04 -0.15493397088E+04  0.65000000000E+04  0.15050000000E+03 0.  1.
</event>
<event>
 4    1  0.4630618E-004  0.6500000E+04  0.7818608E-02  0.7223770E-01
         52   -1    0    0    0    0  0.00000000000E+00  0.00000000000E+00  0.64930732323E+04  0.65000000000E+04  0.30000000000E+03 0. -1.
        -52   -1    0    0    0    0 -0.00000000000E+00 -0.00000000000E+00 -0.64930732323E+04  0.65000000000E+04  0.30000000000E+03 0.  1.
     100001    1    1    2    0    0 -0.14016415970E+04  0.17980501922E+03 -0.63427455206E+04  0.65000000000E+04  0.15050000000E+03 0.  1.
     100001    1    1    2    0    0  0.14016415970E+04 -0.17980501922E+03  0.63427455206E+04  0.65000000000E+04  0.15050000000E+03 0. -1.
</event>
<event>
 4    1  0.4630618E-004  0.6500000E+04  0.7818608E-02  0.7223770E-01
         52   -1    0    0    0    0  0.00000000000E+00  0.00000000000E+00  0.64930732323E+04  0.65000000000E+04  0.30000000000E+03 0. -1.
        -52   -1    0    0    0    0 -0.00000000000E+00 -0.00000000000E+00 -0.64930732323E+04  0.65000000000E+04  0.30000000000E+03 0.  1.
     100001    1    1    2    0    0  0.11537901260E+03  0.32270683827E+03  0.64892139532E+04  0.65000000000E+04  0.15050000000E+03 0. -1.
     100001    1    1    2    0    0 -0.11537901260E+03 -0.32270683827E+03 -0.64892139532E+04  0.65000000000E+04  0.15050000000E+03 0.  1.
</event>
<event>
 4    1  0.4630618E-004  0.6500000E+04  0.7818608E-02  0.7223770E-01
         52   -1    0    0    0    0  0.00000000000E+00  0.00000000000E+00  0.64930732323E+04  0.65000000000E+04  0.30000000000E+03 0. -1.
        -52   -1    0    0    0    0 -0.00000000000E+00 -0.00000000000E+00 -0.64930732323E+04  0.65000000000E+04  0.30000000000E+03 0. -1.
     100001    1    1    2    0    0 -0.30816620892E+02 -0.29396733179E+03 -0.64915316601E+04  0.65000000000E+04  0.15050000000E+03 0. -1.
     100001    1    1    2    0    0  0.30816620892E+02  0.29396733179E+03  0.64915316601E+04  0.65000000000E+04  0.15050000000E+03 0. -1.
</event>
<event>
 4    1  0.4630618E-004  0.6500000E+04  0.7818608E-02  0.7223770E-01
         52   -1    0    0    0    0  0.00000000000E+00  0.00000000000E+00  0.64930732323E+04  0.65000000000E+04  0.30000000000E+03 0.  1.
        -52   -1    0    0    0    0 -0.00000000000E+00 -0.00000000000E+00 -0.64930732323E+04  0.65000000000E+04  0.30000000000E+03 0. -1.
     100001    1    1    2    0    0  0.30716856973E+03  0.28874970285E+04 -0.58133775148E+04  0.65000000000E+04  0.15050000000E+03 0. -1.
     100001    1    1    2    0    0 -0.30716856973E+03 -0.28874970285E+04  0.58133775148E+04  0.65000000000E+04  0.15050000000E+03 0.  1.
</event>
<event>
 4    1  0.4630618E-004  0.6500000E+04  0.7818608E-02  0.7223770E-01
         52   -1    0    0    0    0  0.00000000000E+00  0.00000000000E+00  0.64930732323E+04  0.65000000000E+04  0.30000000000E+03 0.  1.
        -52   -1    0    0    0    0 -0.00000000000E+00 -0.00000000000E+00 -0.64930732323E+04  0.65000000000E+04  0.30000000000E+03 0.  1.
     100001    1    1    2    0    0 -0.33157881469E+03 -0.31885192385E+03  0.64819548510E+04  0.65000000000E+04  0.15050000000E+03 0.  1.
     100001    1    1    2    0    0  0.33157881469E+03  0.31885192385E+03 -0.64819548510E+04  0.65000000000E+04  0.15050000000E+03 0.  1.
</event>
<event>
 4    1  0.4630618E-004  0.6500000E+04  0.7818608E-02  0.7223770E-01
         52   -1    0    0    0    0  0.00000000000E+00  0.00000000000E+00  0.64930732323E+04  0.65000000000E+04  0.30000000000E+03 0.  1.
        -52   -1    0    0    0    0 -0.00000000000E+00 -0.00000000000E+00 -0.64930732323E+04  0.65000000000E+04  0.30000000000E+03 0. -1.
     100001    1    1    2    0    0  0.43269980952E+04 -0.55380096252E+03 -0.48164034017E+04  0.65000000000E+04  0.15050000000E+03 0. -1.
     100001    1    1    2    0    0 -0.43269980952E+04  0.55380096252E+03  0.48164034017E+04  0.65000000000E+04  0.15050000000E+03 0.  1.
</event>
<event>
 4    1  0.4630618E-004  0.6500000E+04  0.7818608E-02  0.7223770E-01
         52   -1    0    0    0    0  0.00000000000E+00  0.00000000000E+00  0.64930732323E+04  0.65000000000E+04  0.30000000000E+03 0.  1.
        -52   -1    0    0    0    0 -0.00000000000E+00 -0.00000000000E+00 -0.64930732323E+04  0.65000000000E+04  0.30000000000E+03 0. -1.
     100001    1    1    2    0    0  0.93500250412E+03  0.88050198660E+03  0.63700734940E+04  0.65000000000E+04  0.15050000000E+03 0.  1.
     100001    1    1    2    0    0 -0.93500250412E+03 -0.88050198660E+03 -0.63700734940E+04  0.65000000000E+04  0.15050000000E+03 0. -1.
</event>
<event>
 4    1  0.4630618E-004  0.6500000E+04  0.7818608E-02  0.7223770E-01
         52   -1    0    0    0    0  0.00000000000E+00  0.00000000000E+00  0.64930732323E+04  0.65000000000E+04  0.30000000000E+03 0. -1.
        -52   -1    0    0    0    0 -0.00000000000E+00 -0.00000000000E+00 -0.64930732323E+04  0.65000000000E+04  0.30000000000E+03 0.  1.
     100001    1    1    2    0    0 -0.13489041477E+04  0.14222590692E+04  0.61955618382E+04  0.65000000000E+04  0.15050000000E+03 0. -1.
     100001    1    1    2    0    0  0.13489041477E+04 -0.14222590692E+04 -0.61955618382E+04  0.65000000000E+04  0.15050000000E+03 0.  1.
</event>
<event>
 4    1  0.4630618E-004  0.6500000E+04  0.7818608E-02  0.7223770E-01
         52   -1    0    0    0    0  0.00000000000E+00  0.00000000000E+00  0.64930732323E+04  0.65000000000E+04  0.30000000000E+03 0.  1.
        -52   -1    0    0    0    0 -0.00000000000E+00 -0.00000000000E+00 -0.64930732323E+04  0.65000000000E+04  0.30000000000E+03 0. -1.
     100001    1    1    2    0    0  0.12525415852E+04 -0.90242576460E+03 -0.63122196624E+04  0.65000000000E+04  0.15050000000E+03 0. -1.
     100001    1    1    2    0    0 -0.12525415852E+04  0.90242576460E+03  0.63122196624E+04  0.65000000000E+04  0.15050000000E+03 0.  1.
</event>
<event>
 4    1  0.4630618E-004  0.6500000E+04  0.7818608E-02  0.7223770E-01
         52   -1    0    0    0    0  0.00000000000E+00  0.00000000000E+00  0.64930732323E+04  0.65000000000E+04  0.30000000000E+03 0. -1.
        -52   -1    0    0    0    0 -0.00000000000E+00 -0.00000000000E+00 -0.64930732323E+04  0.65000000000E+04  0.30000000000E+03 0.  1.
     100001    1    1    2    0    0 -0.21464273846E+03  0.14117597434E+03 -0.64931770028E+04  0.65000000000E+04  0.15050000000E+03 0.  1.
     100001    1    1    2    0    0  0.21464273846E+03 -0.14117597434E+03  0.64931770028E+04  0.65000000000E+04  0.15050000000E+03 0. -1.
</event>
<event>
 4    1  0.4630618E-004  0.6500000E+04  0.7818608E-02  0.7223770E-01
         52   -1    0    0    0    0  0.00000000000E+00  0.00000000000E+00  0.64930732323E+04  0.65000000000E+04  0.30000000000E+03 0. -1.
        -52   -1    0    0    0    0 -0.00000000000E+00 -0.00000000000E+00 -0.64930732323E+04  0.65000000000E+04  0.30000000000E+03 0.  1.
     100001    1    1    2    0    0  0.11774108411E+04 -0.63870834914E+04  0.21498357033E+03  0.65000000000E+04  0.15050000000E+03 0. -1.
     100001    1    1    2    0    0 -0.11774108411E+04  0.63870834914E+04 -0.21498357033E+03  0.65000000000E+04  0.15050000000E+03 0.  1.
</event>
<event>
 4    1  0.4630618E-004  0.6500000E+04  0.7818608E-02  0.7223770E-01
         52   -1    0    0    0    0  0.00000000000E+00  0.00000000000E+00  0.64930732323E+04  0.65000000000E+04  0.30000000000E+03 0.  1.
        -52   -1    0    0    0    0 -0.00000000000E+00 -0.00000000000E+00 -0.64930732323E+04  0.65000000000E+04  0.30000000000E+03 0. -1.
     100001    1    1    2    0    0 -0.14230809333E+04  0.61727365909E+01 -0.63405167222E+04  0.65000000000E+04  0.15050000000E+03 0. -1.
     100001    1    1    2    0    0  0.14230809333E+04 -0.61727365909E+01  0.63405167222E+04  0.65000000000E+04  0.15050000000E+03 0.  1.
</event>
<event>
 4    1  0.4630618E-004  0.6500000E+04  0.7818608E-02  0.7223770E-01
         52   -1    0    0    0    0  0.00000000000E+00  0.00000000000E+00  0.64930732323E+04  0.65000000000E+04  0.30000000000E+03 0.  1.
        -52   -1    0    0    0    0 -0.00000000000E+00 -0.00000000000E+00 -0.64930732323E+04  0.65000000000E+04  0.30000000000E+03 0. -1.
     100001    1    1    2    0    0 -0.20524005310E+04  0.46997098974E+04  0.39909558617E+04  0.65000000000E+04  0.15050000000E+03 0.  1.
     100001    1    1    2    0    0  0.20524005310E+04 -0.46997098974E+04 -0.39909558617E+04  0.65000000000E+04  0.15050000000E+03 0. -1.
</event>
<event>
 4    1  0.4630618E-004  0.6500000E+04  0.7818608E-02  0.7223770E-01
         52   -1    0    0    0    0  0.00000000000E+00  0.00000000000E+00  0.64930732323E+04  0.65000000000E+04  0.30000000000E+03 0. -1.
        -52   -1    0    0    0    0 -0.00000000000E+00 -0.00000000000E+00 -0.64930732323E+04  0.65000000000E+04  0.30000000000E+03 0.  1.
     100001    1    1    2    0    0  0.52459529177E+04 -0.35961671271E+04  0.13322573811E+04  0.65000000000E+04  0.15050000000E+03 0. -1.
     100001    1    1    2    0    0 -0.52459529177E+04  0.35961671271E+04 -0.13322573811E+04  0.65000000000E+04  0.15050000000E+03 0.  1.
</event>
<event>
 4    1  0.4630618E-004  0.6500000E+04  0.7818608E-02  0.7223770E-01
         52   -1    0    0    0    0  0.00000000000E+00  0.00000000000E+00  0.64930732323E+04  0.65000000000E+04  0.30000000000E+03 0.  1.
        -52   -1    0    0    0    0 -0.00000000000E+00 -0.00000000000E+00 -0.64930732323E+04  0.65000000000E+04  0.30000000000E+03 0. -1.
     100001    1    1    2    0    0 -0.23835121418E+04  0.55585287574E+04 -0.23767578068E+04  0.65000000000E+04  0.15050000000E+03 0. -1.
     100001    1    1    2    0    0  0.23835121418E+04 -0.55585287574E+04  0.23767578068E+04  0.65000000000E+04  0.15050000000E+03 0.  1.
</event>
<event>
 4    1  0.4630618E-004  0.6500000E+04  0.7818608E-02  0.7223770E-01
         52   -1    0    0    0    0  0.00000000000E+00  0.00000000000E+00  0.64930732323E+04  0.65000000000E+04  0.30000000000E+03 0. -1.
        -52   -1    0    0    0    0 -0.00000000000E+00 -0.00000000000E+00 -0.64930732323E+04  0.65000000000E+04  0.30000000000E+03 0.  1.
     100001    1    1    2    0    0  0.44122456890E+03 -0.12685598462E+04  0.63579420056E+04  0.65000000000E+04  0.15050000000E+03 0. -1.
     100001    1    1    2    0    0 -0.44122456890E+03  0.12685598462E+04 -0.63579420056E+04  0.65000000000E+04  0.15050000000E+03 0.  1.
</event>
<event>
 4    1  0.4630618E-004  0.6500000E+04  0.7818608E-02  0.7223770E-01
         52   -1    0    0    0    0  0.00000000000E+00  0.00000000000E+00  0.64930732323E+04  0.65000000000E+04  0.30000000000E+03 0.  1.
        -52   -1    0    0    0    0 -0.00000000000E+00 -0.00000000000E+00 -0.64930732323E+04  0.65000000000E+04  0.30000000000E+03 0. -1.
     100001    1    1    2    0    0 -0.14801752374E+03  0.10414990505E+03 -0.64957365525E+04  0.65000000000E+04  0.15050000000E+03 0. -1.
     100001    1    1    2    0    0  0.14801752374E+03 -0.10414990505E+03  0.64957365525E+04  0.65000000000E+04  0.15050000000E+03 0.  1.
</event>
<event>
 4    1  0.4630618E-004  0.6500000E+04  0.7818608E-02  0.7223770E-01
         52   -1    0    0    0    0  0.00000000000E+00  0.00000000000E+00  0.64930732323E+04  0.65000000000E+04  0.30000000000E+03 0.  1.
        -52   -1    0    0    0    0 -0.00000000000E+00 -0.00000000000E+00 -0.64930732323E+04  0.65000000000E+04  0.30000000000E+03 0.  1.
     100001    1    1    2    0    0  0.31236286963E+03 -0.17898423872E+04 -0.62390899510E+04  0.65000000000E+04  0.15050000000E+03 0.  1.
     100001    1    1    2    0    0 -0.31236286963E+03  0.17898423872E+04  0.62390899510E+04  0.65000000000E+04  0.15050000000E+03 0.  1.
</event>
<event>
 4    1  0.4630618E-004  0.6500000E+04  0.7818608E-02  0.7223770E-01
         52   -1    0    0    0    0  0.00000000000E+00  0.00000000000E+00  0.64930732323E+04  0.65000000000E+04  0.30000000000E+03 0. -1.
        -52   -1    0    0    0    0 -0.00000000000E+00 -0.00000000000E+00 -0.64930732323E+04  0.65000000000E+04  0.30000000000E+03 0.  1.
     100001    1    1    2    0    0  0.42647489744E+04  0.65875397994E+03  0.48585295233E+04  0.65000000000E+04  0.15050000000E+03 0. -1.
     100001    1    1    2    0    0 -0.42647489744E+04 -0.65875397994E+03 -0.48585295233E+04  0.65000000000E+04  0.15050000000E+03 0.  1.
</event>
<event>
 4    1  0.4630618E-004  0.6500000E+04  0.7818608E-02  0.7223770E-01
         52   -1    0    0    0    0  0.00000000000E+00  0.00000000000E+00  0.64930732323E+04  0.65000000000E+04  0.30000000000E+03 0.  1.
        -52   -1    0    0    0    0 -0.00000000000E+00 -0.00000000000E+00 -0.64930732323E+04  0.65000000000E+04  0.30000000000E+03 0. -1.
     100001    1    1    2    0    0  0.16937092173E+03  0.24858205206E+03  0.64912918748E+04  0.65000000000E+04  0.15050000000E+03 0.  1.
     100001    1    1    2    0    0 -0.16937092173E+03 -0.24858205206E+03 -0.64912918748E+04  0.65000000000E+04  0.15050000000E+03 0. -1.
</event>
<event>
 4    1  0.4630618E-004  0.6500000E+04  0.7818608E-02  0.7223770E-01
         52   -1    0    0    0    0  0.00000000000E+00  0.00000000000E+00  0.64930732323E+04  0.65000000000E+04  0.30000000000E+03 0.  1.
        -52   -1    0    0    0    0 -0.00000000000E+00 -0.00000000000E+00 -0.64930732323E+04  0.65000000000E+04  0.30000000000E+03 0. -1.
     100001    1    1    2    0    0 -0.35988207219E+02  0.70785888827E+03 -0.64594884003E+04  0.65000000000E+04  0.15050000000E+03 0. -1.
     100001    1    1    2    0    0  0.35988207219E+02 -0.70785888827E+03  0.64594884003E+04  0.65000000000E+04  0.15050000000E+03 0.  1.
</event>
<event>
 4    1  0.4827683E-004  0.6500000E+04  0.7818608E-02  0.7223770E-01
         52   -1    0    0    0    0  0.00000000000E+00  0.00000000000E+00  0.64930732323E+04  0.65000000000E+04  0.30000000000E+03 0. -1.
        -52   -1    0    0    0    0 -0.00000000000E+00 -0.00000000000E+00 -0.64930732323E+04  0.65000000000E+04  0.30000000000E+03 0.  1.
     100001    1    1    2    0    0 -0.11077485279E+03  0.16370283211E+03  0.64952505775E+04  0.65000000000E+04  0.15050000000E+03 0. -1.
     100001    1    1    2    0    0  0.11077485279E+03 -0.16370283211E+03 -0.64952505775E+04  0.65000000000E+04  0.15050000000E+03 0.  1.
</event>
<event>
 4    1  0.4630618E-004  0.6500000E+04  0.7818608E-02  0.7223770E-01
         52   -1    0    0    0    0  0.00000000000E+00  0.00000000000E+00  0.64930732323E+04  0.65000000000E+04  0.30000000000E+03 0. -1.
        -52   -1    0    0    0    0 -0.00000000000E+00 -0.00000000000E+00 -0.64930732323E+04  0.65000000000E+04  0.30000000000E+03 0.  1.
     100001    1    1    2    0    0  0.77568762081E+02  0.10741185292E+04 -0.64084009099E+04  0.65000000000E+04  0.15050000000E+03 0.  1.
     100001    1    1    2    0    0 -0.77568762081E+02 -0.10741185292E+04  0.64084009099E+04  0.65000000000E+04  0.15050000000E+03 0. -1.
</event>
<event>
 4    1  0.4630618E-004  0.6500000E+04  0.7818608E-02  0.7223770E-01
         52   -1    0    0    0    0  0.00000000000E+00  0.00000000000E+00  0.64930732323E+04  0.65000000000E+04  0.30000000000E+03 0. -1.
        -52   -1    0    0    0    0 -0.00000000000E+00 -0.00000000000E+00 -0.64930732323E+04  0.65000000000E+04  0.30000000000E+03 0. -1.
     100001    1    1    2    0    0  0.92832047995E+00  0.27216309638E+03  0.64925554397E+04  0.65000000000E+04  0.15050000000E+03 0. -1.
     100001    1    1    2    0    0 -0.92832047995E+00 -0.27216309638E+03 -0.64925554397E+04  0.65000000000E+04  0.15050000000E+03 0. -1.
</event>
<event>
 4    1  0.4630618E-004  0.6500000E+04  0.7818608E-02  0.7223770E-01
         52   -1    0    0    0    0  0.00000000000E+00  0.00000000000E+00  0.64930732323E+04  0.65000000000E+04  0.30000000000E+03 0. -1.
        -52   -1    0    0    0    0 -0.00000000000E+00 -0.00000000000E+00 -0.64930732323E+04  0.65000000000E+04  0.30000000000E+03 0.  1.
     100001    1    1    2    0    0  0.11467110921E+03  0.23920525712E+04  0.60408844372E+04  0.65000000000E+04  0.15050000000E+03 0. -1.
     100001    1    1    2    0    0 -0.11467110921E+03 -0.23920525712E+04 -0.60408844372E+04  0.65000000000E+04  0.15050000000E+03 0.  1.
</event>
<event>
 4    1  0.4630618E-004  0.6500000E+04  0.7818608E-02  0.7223770E-01
         52   -1    0    0    0    0  0.00000000000E+00  0.00000000000E+00  0.64930732323E+04  0.65000000000E+04  0.30000000000E+03 0.  1.
        -52   -1    0    0    0    0 -0.00000000000E+00 -0.00000000000E+00 -0.64930732323E+04  0.65000000000E+04  0.30000000000E+03 0. -1.
     100001    1    1    2    0    0 -0.83915050876E+03  0.23324524014E+03  0.64396252089E+04  0.65000000000E+04  0.15050000000E+03 0.  1.
     100001    1    1    2    0    0  0.83915050876E+03 -0.23324524014E+03 -0.64396252089E+04  0.65000000000E+04  0.15050000000E+03 0. -1.
</event>
<event>
 4    1  0.4630618E-004  0.6500000E+04  0.7818608E-02  0.7223770E-01
         52   -1    0    0    0    0  0.00000000000E+00  0.00000000000E+00  0.64930732323E+04  0.65000000000E+04  0.30000000000E+03 0.  1.
        -52   -1    0    0    0    0 -0.00000000000E+00 -0.00000000000E+00 -0.64930732323E+04  0.65000000000E+04  0.30000000000E+03 0. -1.
     100001    1    1    2    0    0 -0.16988884589E+04  0.31451617125E+04 -0.54267011671E+04  0.65000000000E+04  0.15050000000E+03 0. -1.
     100001    1    1    2    0    0  0.16988884589E+04 -0.31451617125E+04  0.54267011671E+04  0.65000000000E+04  0.15050000000E+03 0.  1.
</event>
<event>
 4    1  0.4630618E-004  0.6500000E+04  0.7818608E-02  0.7223770E-01
         52   -1    0    0    0    0  0.00000000000E+00  0.00000000000E+00  0.64930732323E+04  0.65000000000E+04  0.30000000000E+03 0.  1.
        -52   -1    0    0    0    0 -0.00000000000E+00 -0.00000000000E+00 -0.64930732323E+04  0.65000000000E+04  0.30000000000E+03 0. -1.
     100001    1    1    2    0    0 -0.17467319641E+04  0.57721994965E+04 -0.24203285248E+04  0.65000000000E+04  0.15050000000E+03 0. -1.
     100001    1    1    2    0    0  0.17467319641E+04 -0.57721994965E+04  0.24203285248E+04  0.65000000000E+04  0.15050000000E+03 0.  1.
</event>
<event>
 4    1  0.4630618E-004  0.6500000E+04  0.7818608E-02  0.7223770E-01
         52   -1    0    0    0    0  0.00000000000E+00  0.00000000000E+00  0.64930732323E+04  0.65000000000E+04  0.30000000000E+03 0. -1.
        -52   -1    0    0    0    0 -0.00000000000E+00 -0.00000000000E+00 -0.64930732323E+04  0.65000000000E+04  0.30000000000E+03 0.  1.
     100001    1    1    2    0    0 -0.25464321644E+04 -0.27581935513E+04  0.53042814137E+04  0.65000000000E+04  0.15050000000E+03 0. -1.
     100001    1    1    2    0    0  0.25464321644E+04  0.27581935513E+04 -0.53042814137E+04  0.65000000000E+04  0.15050000000E+03 0.  1.
</event>
<event>
 4    1  0.4630618E-004  0.6500000E+04  0.7818608E-02  0.7223770E-01
         52   -1    0    0    0    0  0.00000000000E+00  0.00000000000E+00  0.64930732323E+04  0.65000000000E+04  0.30000000000E+03 0.  1.
        -52   -1    0    0    0    0 -0.00000000000E+00 -0.00000000000E+00 -0.64930732323E+04  0.65000000000E+04  0.30000000000E+03 0. -1.
     100001    1    1    2    0    0 -0.20012086097E+04 -0.42294711815E+04  0.45093333626E+04  0.65000000000E+04  0.15050000000E+03 0.  1.
     100001    1    1    2    0    0  0.20012086097E+04  0.42294711815E+04 -0.45093333626E+04  0.65000000000E+04  0.15050000000E+03 0. -1.
</event>
<event>
 4    1  0.4630618E-004  0.6500000E+04  0.7818608E-02  0.7223770E-01
         52   -1    0    0    0    0  0.00000000000E+00  0.00000000000E+00  0.64930732323E+04  0.65000000000E+04  0.30000000000E+03 0. -1.
        -52   -1    0    0    0    0 -0.00000000000E+00 -0.00000000000E+00 -0.64930732323E+04  0.65000000000E+04  0.30000000000E+03 0.  1.
     100001    1    1    2    0    0  0.36142675503E+03  0.11922518921E+04 -0.63777155688E+04  0.65000000000E+04  0.15050000000E+03 0.  1.
     100001    1    1    2    0    0 -0.36142675503E+03 -0.11922518921E+04  0.63777155688E+04  0.65000000000E+04  0.15050000000E+03 0. -1.
</event>
<event>
 4    1  0.4895565E-004  0.6500000E+04  0.7818608E-02  0.7223770E-01
         52   -1    0    0    0    0  0.00000000000E+00  0.00000000000E+00  0.64930732323E+04  0.65000000000E+04  0.30000000000E+03 0.  1.
        -52   -1    0    0    0    0 -0.00000000000E+00 -0.00000000000E+00 -0.64930732323E+04  0.65000000000E+04  0.30000000000E+03 0. -1.
     100001    1    1    2    0    0  0.16681351722E+03 -0.85140313703E+02 -0.64955580305E+04  0.65000000000E+04  0.15050000000E+03 0. -1.
     100001    1    1    2    0    0 -0.16681351722E+03  0.85140313703E+02  0.64955580305E+04  0.65000000000E+04  0.15050000000E+03 0.  1.
</event>
<event>
 4    1  0.5786651E-004  0.6500000E+04  0.7818608E-02  0.7223770E-01
         52   -1    0    0    0    0  0.00000000000E+00  0.00000000000E+00  0.64930732323E+04  0.65000000000E+04  0.30000000000E+03 0. -1.
        -52   -1    0    0    0    0 -0.00000000000E+00 -0.00000000000E+00 -0.64930732323E+04  0.65000000000E+04  0.30000000000E+03 0. -1.
     100001    1    1    2    0    0  0.84345492282E+02 -0.16435098705E+03 -0.64956311734E+04  0.65000000000E+04  0.15050000000E+03 0. -1.
     100001    1    1    2    0    0 -0.84345492282E+02  0.16435098705E+03  0.64956311734E+04  0.65000000000E+04  0.15050000000E+03 0. -1.
</event>
<event>
 4    1  0.4630618E-004  0.6500000E+04  0.7818608E-02  0.7223770E-01
         52   -1    0    0    0    0  0.00000000000E+00  0.00000000000E+00  0.64930732323E+04  0.65000000000E+04  0.30000000000E+03 0. -1.
        -52   -1    0    0    0    0 -0.00000000000E+00 -0.00000000000E+00 -0.64930732323E+04  0.65000000000E+04  0.30000000000E+03 0.  1.
     100001    1    1    2    0    0 -0.89899477095E+03  0.98862731941E+02  0.64350123785E+04  0.65000000000E+04  0.15050000000E+03 0. -1.
     100001    1    1    2    0    0  0.89899477095E+03 -0.98862731941E+02 -0.64350123785E+04  0.65000000000E+04  0.15050000000E+03 0.  1.
</event>
<event>
 4    1  0.5154036E-004  0.6500000E+04  0.7818608E-02  0.7223770E-01
         52   -1    0    0    0    0  0.00000000000E+00  0.00000000000E+00  0.64930732323E+04  0.65000000000E+04  0.30000000000E+03 0. -1.
        -52   -1    0    0    0    0 -0.00000000000E+00 -0.00000000000E+00 -0.64930732323E+04  0.65000000000E+04  0.30000000000E+03 0.  1.
     100001    1    1    2    0    0 -0.88878793643E+02  0.22563606477E+03  0.64937307210E+04  0.65000000000E+04  0.15050000000E+03 0. -1.
     100001    1    1    2    0    0  0.88878793643E+02 -0.22563606477E+03 -0.64937307210E+04  0.65000000000E+04  0.15050000000E+03 0.  1.
</event>
<event>
 4    1  0.4630618E-004  0.6500000E+04  0.7818608E-02  0.7223770E-01
         52   -1    0    0    0    0  0.00000000000E+00  0.00000000000E+00  0.64930732323E+04  0.65000000000E+04  0.30000000000E+03 0.  1.
        -52   -1    0    0    0    0 -0.00000000000E+00 -0.00000000000E+00 -0.64930732323E+04  0.65000000000E+04  0.30000000000E+03 0.  1.
     100001    1    1    2    0    0 -0.63143316497E+03  0.54859981528E+03 -0.64441974016E+04  0.65000000000E+04  0.15050000000E+03 0.  1.
     100001    1    1    2    0    0  0.63143316497E+03 -0.54859981528E+03  0.64441974016E+04  0.65000000000E+04  0.15050000000E+03 0.  1.
</event>
<event>
 4    1  0.4630618E-004  0.6500000E+04  0.7818608E-02  0.7223770E-01
         52   -1    0    0    0    0  0.00000000000E+00  0.00000000000E+00  0.64930732323E+04  0.65000000000E+04  0.30000000000E+03 0. -1.
        -52   -1    0    0    0    0 -0.00000000000E+00 -0.00000000000E+00 -0.64930732323E+04  0.65000000000E+04  0.30000000000E+03 0. -1.
     100001    1    1    2    0    0  0.28532200564E+03 -0.35134959349E+03  0.64824759596E+04  0.65000000000E+04  0.15050000000E+03 0. -1.
     100001    1    1    2    0    0 -0.28532200564E+03  0.35134959349E+03 -0.64824759596E+04  0.65000000000E+04  0.15050000000E+03 0. -1.
</event>
<event>
 4    1  0.4630618E-004  0.6500000E+04  0.7818608E-02  0.7223770E-01
         52   -1    0    0    0    0  0.00000000000E+00  0.00000000000E+00  0.64930732323E+04  0.65000000000E+04  0.30000000000E+03 0.  1.
        -52   -1    0    0    0    0 -0.00000000000E+00 -0.00000000000E+00 -0.64930732323E+04  0.65000000000E+04  0.30000000000E+03 0. -1.
     100001    1    1    2    0    0 -0.61096759601E+02  0.38826195355E+03  0.64863602730E+04  0.65000000000E+04  0.15050000000E+03 0.  1.
     100001    1    1    2    0    0  0.61096759601E+02 -0.38826195355E+03 -0.64863602730E+04  0.65000000000E+04  0.15050000000E+03 0. -1.
</event>
<event>
 4    1  0.4630618E-004  0.6500000E+04  0.7818608E-02  0.7223770E-01
         52   -1    0    0    0    0  0.00000000000E+00  0.00000000000E+00  0.64930732323E+04  0.65000000000E+04  0.30000000000E+03 0.  1.
        -52   -1    0    0    0    0 -0.00000000000E+00 -0.00000000000E+00 -0.64930732323E+04  0.65000000000E+04  0.30000000000E+03 0. -1.
     100001    1    1    2    0    0  0.13820933393E+04 -0.95883380488E+03  0.62767671206E+04  0.65000000000E+04  0.15050000000E+03 0.  1.
     100001    1    1    2    0    0 -0.13820933393E+04  0.95883380488E+03 -0.62767671206E+04  0.65000000000E+04  0.15050000000E+03 0. -1.
</event>
<event>
 4    1  0.4630618E-004  0.6500000E+04  0.7818608E-02  0.7223770E-01
         52   -1    0    0    0    0  0.00000000000E+00  0.00000000000E+00  0.64930732323E+04  0.65000000000E+04  0.30000000000E+03 0. -1.
        -52   -1    0    0    0    0 -0.00000000000E+00 -0.00000000000E+00 -0.64930732323E+04  0.65000000000E+04  0.30000000000E+03 0.  1.
     100001    1    1    2    0    0  0.22548417802E+03 -0.67227010892E+03 -0.64594550495E+04  0.65000000000E+04  0.15050000000E+03 0.  1.
     100001    1    1    2    0    0 -0.22548417802E+03  0.67227010892E+03  0.64594550495E+04  0.65000000000E+04  0.15050000000E+03 0. -1.
</event>
<event>
 4    1  0.4630618E-004  0.6500000E+04  0.7818608E-02  0.7223770E-01
         52   -1    0    0    0    0  0.00000000000E+00  0.00000000000E+00  0.64930732323E+04  0.65000000000E+04  0.30000000000E+03 0. -1.
        -52   -1    0    0    0    0 -0.00000000000E+00 -0.00000000000E+00 -0.64930732323E+04  0.65000000000E+04  0.30000000000E+03 0.  1.
     100001    1    1    2    0    0  0.27266491259E+04 -0.19538826631E+04 -0.55655257463E+04  0.65000000000E+04  0.15050000000E+03 0.  1.
     100001    1    1    2    0    0 -0.27266491259E+04  0.19538826631E+04  0.55655257463E+04  0.65000000000E+04  0.15050000000E+03 0. -1.
</event>
<event>
 4    1  0.4630618E-004  0.6500000E+04  0.7818608E-02  0.7223770E-01
         52   -1    0    0    0    0  0.00000000000E+00  0.00000000000E+00  0.64930732323E+04  0.65000000000E+04  0.30000000000E+03 0.  1.
        -52   -1    0    0    0    0 -0.00000000000E+00 -0.00000000000E+00 -0.64930732323E+04  0.65000000000E+04  0.30000000000E+03 0. -1.
     100001    1    1    2    0    0  0.72245878735E+03 -0.26289422447E+04 -0.58986494831E+04  0.65000000000E+04  0.15050000000E+03 0. -1.
     100001    1    1    2    0    0 -0.72245878735E+03  0.26289422447E+04  0.58986494831E+04  0.65000000000E+04  0.15050000000E+03 0.  1.
</event>
<event>
 4    1  0.4630618E-004  0.6500000E+04  0.7818608E-02  0.7223770E-01
         52   -1    0    0    0    0  0.00000000000E+00  0.00000000000E+00  0.64930732323E+04  0.65000000000E+04  0.30000000000E+03 0. -1.
        -52   -1    0    0    0    0 -0.00000000000E+00 -0.00000000000E+00 -0.64930732323E+04  0.65000000000E+04  0.30000000000E+03 0.  1.
     100001    1    1    2    0    0  0.29214499737E+04 -0.16956482574E+04 -0.55513292812E+04  0.65000000000E+04  0.15050000000E+03 0.  1.
     100001    1    1    2    0    0 -0.29214499737E+04  0.16956482574E+04  0.55513292812E+04  0.65000000000E+04  0.15050000000E+03 0. -1.
</event>
<event>
 4    1  0.4630618E-004  0.6500000E+04  0.7818608E-02  0.7223770E-01
         52   -1    0    0    0    0  0.00000000000E+00  0.00000000000E+00  0.64930732323E+04  0.65000000000E+04  0.30000000000E+03 0.  1.
        -52   -1    0    0    0    0 -0.00000000000E+00 -0.00000000000E+00 -0.64930732323E+04  0.65000000000E+04  0.30000000000E+03 0. -1.
     100001    1    1    2    0    0 -0.88562330629E+03 -0.69048259572E+03  0.64004886450E+04  0.65000000000E+04  0.15050000000E+03 0.  1.
     100001    1    1    2    0    0  0.88562330629E+03  0.69048259572E+03 -0.64004886450E+04  0.65000000000E+04  0.15050000000E+03 0. -1.
</event>
<event>
 4    1  0.4630618E-004  0.6500000E+04  0.7818608E-02  0.7223770E-01
         52   -1    0    0    0    0  0.00000000000E+00  0.00000000000E+00  0.64930732323E+04  0.65000000000E+04  0.30000000000E+03 0.  1.
        -52   -1    0    0    0    0 -0.00000000000E+00 -0.00000000000E+00 -0.64930732323E+04  0.65000000000E+04  0.30000000000E+03 0. -1.
     100001    1    1    2    0    0 -0.22968183477E+04 -0.33168759741E+04  0.50941445798E+04  0.65000000000E+04  0.15050000000E+03 0.  1.
     100001    1    1    2    0    0  0.22968183477E+04  0.33168759741E+04 -0.50941445798E+04  0.65000000000E+04  0.15050000000E+03 0. -1.
</event>
<event>
 4    1  0.4630618E-004  0.6500000E+04  0.7818608E-02  0.7223770E-01
         52   -1    0    0    0    0  0.00000000000E+00  0.00000000000E+00  0.64930732323E+04  0.65000000000E+04  0.30000000000E+03 0.  1.
        -52   -1    0    0    0    0 -0.00000000000E+00 -0.00000000000E+00 -0.64930732323E+04  0.65000000000E+04  0.30000000000E+03 0. -1.
     100001    1    1    2    0    0  0.48346225812E+03 -0.46923950505E+03 -0.64632366723E+04  0.65000000000E+04  0.15050000000E+03 0. -1.
     100001    1    1    2    0    0 -0.48346225812E+03  0.46923950505E+03  0.64632366723E+04  0.65000000000E+04  0.15050000000E+03 0.  1.
</event>
<event>
 4    1  0.4630618E-004  0.6500000E+04  0.7818608E-02  0.7223770E-01
         52   -1    0    0    0    0  0.00000000000E+00  0.00000000000E+00  0.64930732323E+04  0.65000000000E+04  0.30000000000E+03 0.  1.
        -52   -1    0    0    0    0 -0.00000000000E+00 -0.00000000000E+00 -0.64930732323E+04  0.65000000000E+04  0.30000000000E+03 0. -1.
     100001    1    1    2    0    0 -0.33062364796E+04 -0.15618016557E+04  0.53718642648E+04  0.65000000000E+04  0.15050000000E+03 0.  1.
     100001    1    1    2    0    0  0.33062364796E+04  0.15618016557E+04 -0.53718642648E+04  0.65000000000E+04  0.15050000000E+03 0. -1.
</event>
<event>
 4    1  0.4630618E-004  0.6500000E+04  0.7818608E-02  0.7223770E-01
         52   -1    0    0    0    0  0.00000000000E+00  0.00000000000E+00  0.64930732323E+04  0.65000000000E+04  0.30000000000E+03 0.  1.
        -52   -1    0    0    0    0 -0.00000000000E+00 -0.00000000000E+00 -0.64930732323E+04  0.65000000000E+04  0.30000000000E+03 0. -1.
     100001    1    1    2    0    0 -0.48149665644E+03 -0.25285367014E+04 -0.59667422326E+04  0.65000000000E+04  0.15050000000E+03 0. -1.
     100001    1    1    2    0    0  0.48149665644E+03  0.25285367014E+04  0.59667422326E+04  0.65000000000E+04  0.15050000000E+03 0.  1.
</event>
<event>
 4    1  0.4630618E-004  0.6500000E+04  0.7818608E-02  0.7223770E-01
         52   -1    0    0    0    0  0.00000000000E+00  0.00000000000E+00  0.64930732323E+04  0.65000000000E+04  0.30000000000E+03 0. -1.
        -52   -1    0    0    0    0 -0.00000000000E+00 -0.00000000000E+00 -0.64930732323E+04  0.65000000000E+04  0.30000000000E+03 0.  1.
     100001    1    1    2    0    0  0.22725008483E+03 -0.36499475762E+03 -0.64840177341E+04  0.65000000000E+04  0.15050000000E+03 0.  1.
     100001    1    1    2    0    0 -0.22725008483E+03  0.36499475762E+03  0.64840177341E+04  0.65000000000E+04  0.15050000000E+03 0. -1.
</event>
<event>
 4    1  0.4630618E-004  0.6500000E+04  0.7818608E-02  0.7223770E-01
         52   -1    0    0    0    0  0.00000000000E+00  0.00000000000E+00  0.64930732323E+04  0.65000000000E+04  0.30000000000E+03 0.  1.
        -52   -1    0    0    0    0 -0.00000000000E+00 -0.00000000000E+00 -0.64930732323E+04  0.65000000000E+04  0.30000000000E+03 0. -1.
     100001    1    1    2    0    0 -0.17777495276E+04 -0.28818513995E+04 -0.55463401336E+04  0.65000000000E+04  0.15050000000E+03 0. -1.
     100001    1    1    2    0    0  0.17777495276E+04  0.28818513995E+04  0.55463401336E+04  0.65000000000E+04  0.15050000000E+03 0.  1.
</event>
<event>
 4    1  0.4630618E-004  0.6500000E+04  0.7818608E-02  0.7223770E-01
         52   -1    0    0    0    0  0.00000000000E+00  0.00000000000E+00  0.64930732323E+04  0.65000000000E+04  0.30000000000E+03 0.  1.
        -52   -1    0    0    0    0 -0.00000000000E+00 -0.00000000000E+00 -0.64930732323E+04  0.65000000000E+04  0.30000000000E+03 0.  1.
     100001    1    1    2    0    0  0.11683427869E+04 -0.25330893492E+03  0.63873436940E+04  0.65000000000E+04  0.15050000000E+03 0.  1.
     100001    1    1    2    0    0 -0.11683427869E+04  0.25330893492E+03 -0.63873436940E+04  0.65000000000E+04  0.15050000000E+03 0.  1.
</event>
<event>
 4    1  0.4630618E-004  0.6500000E+04  0.7818608E-02  0.7223770E-01
         52   -1    0    0    0    0  0.00000000000E+00  0.00000000000E+00  0.64930732323E+04  0.65000000000E+04  0.30000000000E+03 0. -1.
        -52   -1    0    0    0    0 -0.00000000000E+00 -0.00000000000E+00 -0.64930732323E+04  0.65000000000E+04  0.30000000000E+03 0.  1.
     100001    1    1    2    0    0 -0.82514126940E+03 -0.99928412447E+03 -0.63677250941E+04  0.65000000000E+04  0.15050000000E+03 0.  1.
     100001    1    1    2    0    0  0.82514126940E+03  0.99928412447E+03  0.63677250941E+04  0.65000000000E+04  0.15050000000E+03 0. -1.
</event>
<event>
 4    1  0.4630618E-004  0.6500000E+04  0.7818608E-02  0.7223770E-01
         52   -1    0    0    0    0  0.00000000000E+00  0.00000000000E+00  0.64930732323E+04  0.65000000000E+04  0.30000000000E+03 0. -1.
        -52   -1    0    0    0    0 -0.00000000000E+00 -0.00000000000E+00 -0.64930732323E+04  0.65000000000E+04  0.30000000000E+03 0.  1.
     100001    1    1    2    0    0  0.14090753162E+04 -0.22500355541E+04 -0.59312053167E+04  0.65000000000E+04  0.15050000000E+03 0.  1.
     100001    1    1    2    0    0 -0.14090753162E+04  0.22500355541E+04  0.59312053167E+04  0.65000000000E+04  0.15050000000E+03 0. -1.
</event>
<event>
 4    1  0.4630618E-004  0.6500000E+04  0.7818608E-02  0.7223770E-01
         52   -1    0    0    0    0  0.00000000000E+00  0.00000000000E+00  0.64930732323E+04  0.65000000000E+04  0.30000000000E+03 0. -1.
        -52   -1    0    0    0    0 -0.00000000000E+00 -0.00000000000E+00 -0.64930732323E+04  0.65000000000E+04  0.30000000000E+03 0.  1.
     100001    1    1    2    0    0  0.55019165552E+03 -0.47219427144E+03 -0.64576831342E+04  0.65000000000E+04  0.15050000000E+03 0.  1.
     100001    1    1    2    0    0 -0.55019165552E+03  0.47219427144E+03  0.64576831342E+04  0.65000000000E+04  0.15050000000E+03 0. -1.
</event>
<event>
 4    1  0.4630618E-004  0.6500000E+04  0.7818608E-02  0.7223770E-01
         52   -1    0    0    0    0  0.00000000000E+00  0.00000000000E+00  0.64930732323E+04  0.65000000000E+04  0.30000000000E+03 0. -1.
        -52   -1    0    0    0    0 -0.00000000000E+00 -0.00000000000E+00 -0.64930732323E+04  0.65000000000E+04  0.30000000000E+03 0.  1.
     100001    1    1    2    0    0  0.81976402945E+03 -0.62941034746E+03  0.64155420114E+04  0.65000000000E+04  0.15050000000E+03 0. -1.
     100001    1    1    2    0    0 -0.81976402945E+03  0.62941034746E+03 -0.64155420114E+04  0.65000000000E+04  0.15050000000E+03 0.  1.
</event>
<event>
 4    1  0.4630618E-004  0.6500000E+04  0.7818608E-02  0.7223770E-01
         52   -1    0    0    0    0  0.00000000000E+00  0.00000000000E+00  0.64930732323E+04  0.65000000000E+04  0.30000000000E+03 0.  1.
        -52   -1    0    0    0    0 -0.00000000000E+00 -0.00000000000E+00 -0.64930732323E+04  0.65000000000E+04  0.30000000000E+03 0. -1.
     100001    1    1    2    0    0 -0.17823199617E+04 -0.31837778997E+04 -0.53771966292E+04  0.65000000000E+04  0.15050000000E+03 0. -1.
     100001    1    1    2    0    0  0.17823199617E+04  0.31837778997E+04  0.53771966292E+04  0.65000000000E+04  0.15050000000E+03 0.  1.
</event>
<event>
 4    1  0.4630618E-004  0.6500000E+04  0.7818608E-02  0.7223770E-01
         52   -1    0    0    0    0  0.00000000000E+00  0.00000000000E+00  0.64930732323E+04  0.65000000000E+04  0.30000000000E+03 0. -1.
        -52   -1    0    0    0    0 -0.00000000000E+00 -0.00000000000E+00 -0.64930732323E+04  0.65000000000E+04  0.30000000000E+03 0.  1.
     100001    1    1    2    0    0  0.29476160116E+03  0.17083114911E+02  0.64915463116E+04  0.65000000000E+04  0.15050000000E+03 0. -1.
     100001    1    1    2    0    0 -0.29476160116E+03 -0.17083114911E+02 -0.64915463116E+04  0.65000000000E+04  0.15050000000E+03 0.  1.
</event>
<event>
 4    1  0.4630618E-004  0.6500000E+04  0.7818608E-02  0.7223770E-01
         52   -1    0    0    0    0  0.00000000000E+00  0.00000000000E+00  0.64930732323E+04  0.65000000000E+04  0.30000000000E+03 0. -1.
        -52   -1    0    0    0    0 -0.00000000000E+00 -0.00000000000E+00 -0.64930732323E+04  0.65000000000E+04  0.30000000000E+03 0.  1.
     100001    1    1    2    0    0  0.26134440740E+03 -0.37823197149E+03 -0.64819741921E+04  0.65000000000E+04  0.15050000000E+03 0.  1.
     100001    1    1    2    0    0 -0.26134440740E+03  0.37823197149E+03  0.64819741921E+04  0.65000000000E+04  0.15050000000E+03 0. -1.
</event>
<event>
 4    1  0.4630618E-004  0.6500000E+04  0.7818608E-02  0.7223770E-01
         52   -1    0    0    0    0  0.00000000000E+00  0.00000000000E+00  0.64930732323E+04  0.65000000000E+04  0.30000000000E+03 0.  1.
        -52   -1    0    0    0    0 -0.00000000000E+00 -0.00000000000E+00 -0.64930732323E+04  0.65000000000E+04  0.30000000000E+03 0.  1.
     100001    1    1    2    0    0  0.15967043546E+03  0.21122703885E+03 -0.64928605591E+04  0.65000000000E+04  0.15050000000E+03 0.  1.
     100001    1    1    2    0    0 -0.15967043546E+03 -0.21122703885E+03  0.64928605591E+04  0.65000000000E+04  0.15050000000E+03 0.  1.
</event>
<event>
 4    1  0.4630618E-004  0.6500000E+04  0.7818608E-02  0.7223770E-01
         52   -1    0    0    0    0  0.00000000000E+00  0.00000000000E+00  0.64930732323E+04  0.65000000000E+04  0.30000000000E+03 0. -1.
        -52   -1    0    0    0    0 -0.00000000000E+00 -0.00000000000E+00 -0.64930732323E+04  0.65000000000E+04  0.30000000000E+03 0.  1.
     100001    1    1    2    0    0  0.15596463312E+03  0.36187956133E+03  0.64862984796E+04  0.65000000000E+04  0.15050000000E+03 0. -1.
     100001    1    1    2    0    0 -0.15596463312E+03 -0.36187956133E+03 -0.64862984796E+04  0.65000000000E+04  0.15050000000E+03 0.  1.
</event>
<event>
 4    1  0.4630618E-004  0.6500000E+04  0.7818608E-02  0.7223770E-01
         52   -1    0    0    0    0  0.00000000000E+00  0.00000000000E+00  0.64930732323E+04  0.65000000000E+04  0.30000000000E+03 0. -1.
        -52   -1    0    0    0    0 -0.00000000000E+00 -0.00000000000E+00 -0.64930732323E+04  0.65000000000E+04  0.30000000000E+03 0.  1.
     100001    1    1    2    0    0  0.88692025760E+02  0.17243508520E+04 -0.62646705910E+04  0.65000000000E+04  0.15050000000E+03 0.  1.
     100001    1    1    2    0    0 -0.88692025760E+02 -0.17243508520E+04  0.62646705910E+04  0.65000000000E+04  0.15050000000E+03 0. -1.
</event>
<event>
 4    1  0.4630618E-004  0.6500000E+04  0.7818608E-02  0.7223770E-01
         52   -1    0    0    0    0  0.00000000000E+00  0.00000000000E+00  0.64930732323E+04  0.65000000000E+04  0.30000000000E+03 0.  1.
        -52   -1    0    0    0    0 -0.00000000000E+00 -0.00000000000E+00 -0.64930732323E+04  0.65000000000E+04  0.30000000000E+03 0. -1.
     100001    1    1    2    0    0  0.16036121355E+03 -0.18190092285E+04  0.62364123868E+04  0.65000000000E+04  0.15050000000E+03 0.  1.
     100001    1    1    2    0    0 -0.16036121355E+03  0.18190092285E+04 -0.62364123868E+04  0.65000000000E+04  0.15050000000E+03 0. -1.
</event>
<event>
 4    1  0.4630618E-004  0.6500000E+04  0.7818608E-02  0.7223770E-01
         52   -1    0    0    0    0  0.00000000000E+00  0.00000000000E+00  0.64930732323E+04  0.65000000000E+04  0.30000000000E+03 0. -1.
        -52   -1    0    0    0    0 -0.00000000000E+00 -0.00000000000E+00 -0.64930732323E+04  0.65000000000E+04  0.30000000000E+03 0.  1.
     100001    1    1    2    0    0 -0.37341852291E+03 -0.48250041710E+02 -0.64873400011E+04  0.65000000000E+04  0.15050000000E+03 0.  1.
     100001    1    1    2    0    0  0.37341852291E+03  0.48250041710E+02  0.64873400011E+04  0.65000000000E+04  0.15050000000E+03 0. -1.
</event>
<event>
 4    1  0.4630618E-004  0.6500000E+04  0.7818608E-02  0.7223770E-01
         52   -1    0    0    0    0  0.00000000000E+00  0.00000000000E+00  0.64930732323E+04  0.65000000000E+04  0.30000000000E+03 0. -1.
        -52   -1    0    0    0    0 -0.00000000000E+00 -0.00000000000E+00 -0.64930732323E+04  0.65000000000E+04  0.30000000000E+03 0.  1.
     100001    1    1    2    0    0  0.36002284236E+04  0.54087424202E+04  0.10587955128E+03  0.65000000000E+04  0.15050000000E+03 0.  1.
     100001    1    1    2    0    0 -0.36002284236E+04 -0.54087424202E+04 -0.10587955128E+03  0.65000000000E+04  0.15050000000E+03 0. -1.
</event>
<event>
 4    1  0.4630618E-004  0.6500000E+04  0.7818608E-02  0.7223770E-01
         52   -1    0    0    0    0  0.00000000000E+00  0.00000000000E+00  0.64930732323E+04  0.65000000000E+04  0.30000000000E+03 0.  1.
        -52   -1    0    0    0    0 -0.00000000000E+00 -0.00000000000E+00 -0.64930732323E+04  0.65000000000E+04  0.30000000000E+03 0.  1.
     100001    1    1    2    0    0 -0.12089643098E+04  0.67407683314E+03  0.63491239924E+04  0.65000000000E+04  0.15050000000E+03 0.  1.
     100001    1    1    2    0    0  0.12089643098E+04 -0.67407683314E+03 -0.63491239924E+04  0.65000000000E+04  0.15050000000E+03 0.  1.
</event>
<event>
 4    1  0.4630618E-004  0.6500000E+04  0.7818608E-02  0.7223770E-01
         52   -1    0    0    0    0  0.00000000000E+00  0.00000000000E+00  0.64930732323E+04  0.65000000000E+04  0.30000000000E+03 0.  1.
        -52   -1    0    0    0    0 -0.00000000000E+00 -0.00000000000E+00 -0.64930732323E+04  0.65000000000E+04  0.30000000000E+03 0.  1.
     100001    1    1    2    0    0 -0.12096918128E+04 -0.14308560157E+04  0.62222702071E+04  0.65000000000E+04  0.15050000000E+03 0.  1.
     100001    1    1    2    0    0  0.12096918128E+04  0.14308560157E+04 -0.62222702071E+04  0.65000000000E+04  0.15050000000E+03 0.  1.
</event>
<event>
 4    1  0.4630618E-004  0.6500000E+04  0.7818608E-02  0.7223770E-01
         52   -1    0    0    0    0  0.00000000000E+00  0.00000000000E+00  0.64930732323E+04  0.65000000000E+04  0.30000000000E+03 0.  1.
        -52   -1    0    0    0    0 -0.00000000000E+00 -0.00000000000E+00 -0.64930732323E+04  0.65000000000E+04  0.30000000000E+03 0. -1.
     100001    1    1    2    0    0  0.18983623416E+04 -0.11683385944E+03 -0.62136881173E+04  0.65000000000E+04  0.15050000000E+03 0. -1.
     100001    1    1    2    0    0 -0.18983623416E+04  0.11683385944E+03  0.62136881173E+04  0.65000000000E+04  0.15050000000E+03 0.  1.
</event>
<event>
 4    1  0.4630618E-004  0.6500000E+04  0.7818608E-02  0.7223770E-01
         52   -1    0    0    0    0  0.00000000000E+00  0.00000000000E+00  0.64930732323E+04  0.65000000000E+04  0.30000000000E+03 0. -1.
        -52   -1    0    0    0    0 -0.00000000000E+00 -0.00000000000E+00 -0.64930732323E+04  0.65000000000E+04  0.30000000000E+03 0.  1.
     100001    1    1    2    0    0 -0.44071705940E+04 -0.15184704553E+04  0.45275207986E+04  0.65000000000E+04  0.15050000000E+03 0. -1.
     100001    1    1    2    0    0  0.44071705940E+04  0.15184704553E+04 -0.45275207986E+04  0.65000000000E+04  0.15050000000E+03 0.  1.
</event>
<event>
 4    1  0.4630618E-004  0.6500000E+04  0.7818608E-02  0.7223770E-01
         52   -1    0    0    0    0  0.00000000000E+00  0.00000000000E+00  0.64930732323E+04  0.65000000000E+04  0.30000000000E+03 0.  1.
        -52   -1    0    0    0    0 -0.00000000000E+00 -0.00000000000E+00 -0.64930732323E+04  0.65000000000E+04  0.30000000000E+03 0. -1.
     100001    1    1    2    0    0 -0.23957391721E+04  0.56872850263E+04  0.20353310785E+04  0.65000000000E+04  0.15050000000E+03 0.  1.
     100001    1    1    2    0    0  0.23957391721E+04 -0.56872850263E+04 -0.20353310785E+04  0.65000000000E+04  0.15050000000E+03 0. -1.
</event>
<event>
 4    1  0.4630618E-004  0.6500000E+04  0.7818608E-02  0.7223770E-01
         52   -1    0    0    0    0  0.00000000000E+00  0.00000000000E+00  0.64930732323E+04  0.65000000000E+04  0.30000000000E+03 0. -1.
        -52   -1    0    0    0    0 -0.00000000000E+00 -0.00000000000E+00 -0.64930732323E+04  0.65000000000E+04  0.30000000000E+03 0.  1.
     100001    1    1    2    0    0  0.51260845919E+04 -0.16187954171E+04 -0.36510420299E+04  0.65000000000E+04  0.15050000000E+03 0.  1.
     100001    1    1    2    0    0 -0.51260845919E+04  0.16187954171E+04  0.36510420299E+04  0.65000000000E+04  0.15050000000E+03 0. -1.
</event>
<event>
 4    1  0.4630618E-004  0.6500000E+04  0.7818608E-02  0.7223770E-01
         52   -1    0    0    0    0  0.00000000000E+00  0.00000000000E+00  0.64930732323E+04  0.65000000000E+04  0.30000000000E+03 0.  1.
        -52   -1    0    0    0    0 -0.00000000000E+00 -0.00000000000E+00 -0.64930732323E+04  0.65000000000E+04  0.30000000000E+03 0. -1.
     100001    1    1    2    0    0 -0.26588953395E+04  0.55091761577E+03 -0.59037373844E+04  0.65000000000E+04  0.15050000000E+03 0. -1.
     100001    1    1    2    0    0  0.26588953395E+04 -0.55091761577E+03  0.59037373844E+04  0.65000000000E+04  0.15050000000E+03 0.  1.
</event>
<event>
 4    1  0.4630618E-004  0.6500000E+04  0.7818608E-02  0.7223770E-01
         52   -1    0    0    0    0  0.00000000000E+00  0.00000000000E+00  0.64930732323E+04  0.65000000000E+04  0.30000000000E+03 0. -1.
        -52   -1    0    0    0    0 -0.00000000000E+00 -0.00000000000E+00 -0.64930732323E+04  0.65000000000E+04  0.30000000000E+03 0.  1.
     100001    1    1    2    0    0  0.34930514578E+04  0.42687252061E+04 -0.34356842663E+04  0.65000000000E+04  0.15050000000E+03 0.  1.
     100001    1    1    2    0    0 -0.34930514578E+04 -0.42687252061E+04  0.34356842663E+04  0.65000000000E+04  0.15050000000E+03 0. -1.
</event>
<event>
 4    1  0.4630618E-004  0.6500000E+04  0.7818608E-02  0.7223770E-01
         52   -1    0    0    0    0  0.00000000000E+00  0.00000000000E+00  0.64930732323E+04  0.65000000000E+04  0.30000000000E+03 0. -1.
        -52   -1    0    0    0    0 -0.00000000000E+00 -0.00000000000E+00 -0.64930732323E+04  0.65000000000E+04  0.30000000000E+03 0.  1.
     100001    1    1    2    0    0  0.71010275256E+03 -0.21813861659E+03 -0.64556579351E+04  0.65000000000E+04  0.15050000000E+03 0.  1.
     100001    1    1    2    0    0 -0.71010275256E+03  0.21813861659E+03  0.64556579351E+04  0.65000000000E+04  0.15050000000E+03 0. -1.
</event>
<event>
 4    1  0.4630618E-004  0.6500000E+04  0.7818608E-02  0.7223770E-01
         52   -1    0    0    0    0  0.00000000000E+00  0.00000000000E+00  0.64930732323E+04  0.65000000000E+04  0.30000000000E+03 0. -1.
        -52   -1    0    0    0    0 -0.00000000000E+00 -0.00000000000E+00 -0.64930732323E+04  0.65000000000E+04  0.30000000000E+03 0.  1.
     100001    1    1    2    0    0  0.38862723914E+03  0.40030585110E+04  0.51041004278E+04  0.65000000000E+04  0.15050000000E+03 0.  1.
     100001    1    1    2    0    0 -0.38862723914E+03 -0.40030585110E+04 -0.51041004278E+04  0.65000000000E+04  0.15050000000E+03 0. -1.
</event>
<event>
 4    1  0.4630618E-004  0.6500000E+04  0.7818608E-02  0.7223770E-01
         52   -1    0    0    0    0  0.00000000000E+00  0.00000000000E+00  0.64930732323E+04  0.65000000000E+04  0.30000000000E+03 0.  1.
        -52   -1    0    0    0    0 -0.00000000000E+00 -0.00000000000E+00 -0.64930732323E+04  0.65000000000E+04  0.30000000000E+03 0. -1.
     100001    1    1    2    0    0 -0.39976925890E+04  0.82941358676E+03 -0.50554798799E+04  0.65000000000E+04  0.15050000000E+03 0. -1.
     100001    1    1    2    0    0  0.39976925890E+04 -0.82941358676E+03  0.50554798799E+04  0.65000000000E+04  0.15050000000E+03 0.  1.
</event>
<event>
 4    1  0.4630618E-004  0.6500000E+04  0.7818608E-02  0.7223770E-01
         52   -1    0    0    0    0  0.00000000000E+00  0.00000000000E+00  0.64930732323E+04  0.65000000000E+04  0.30000000000E+03 0.  1.
        -52   -1    0    0    0    0 -0.00000000000E+00 -0.00000000000E+00 -0.64930732323E+04  0.65000000000E+04  0.30000000000E+03 0. -1.
     100001    1    1    2    0    0  0.81572177625E+03 -0.23171561915E+04  0.60160398036E+04  0.65000000000E+04  0.15050000000E+03 0.  1.
     100001    1    1    2    0    0 -0.81572177625E+03  0.23171561915E+04 -0.60160398036E+04  0.65000000000E+04  0.15050000000E+03 0. -1.
</event>
<event>
 4    1  0.4630618E-004  0.6500000E+04  0.7818608E-02  0.7223770E-01
         52   -1    0    0    0    0  0.00000000000E+00  0.00000000000E+00  0.64930732323E+04  0.65000000000E+04  0.30000000000E+03 0. -1.
        -52   -1    0    0    0    0 -0.00000000000E+00 -0.00000000000E+00 -0.64930732323E+04  0.65000000000E+04  0.30000000000E+03 0.  1.
     100001    1    1    2    0    0 -0.24010469482E+04  0.16655068897E+04 -0.58041717844E+04  0.65000000000E+04  0.15050000000E+03 0.  1.
     100001    1    1    2    0    0  0.24010469482E+04 -0.16655068897E+04  0.58041717844E+04  0.65000000000E+04  0.15050000000E+03 0. -1.
</event>
<event>
 4    1  0.4630618E-004  0.6500000E+04  0.7818608E-02  0.7223770E-01
         52   -1    0    0    0    0  0.00000000000E+00  0.00000000000E+00  0.64930732323E+04  0.65000000000E+04  0.30000000000E+03 0. -1.
        -52   -1    0    0    0    0 -0.00000000000E+00 -0.00000000000E+00 -0.64930732323E+04  0.65000000000E+04  0.30000000000E+03 0.  1.
     100001    1    1    2    0    0 -0.10705404751E+04 -0.11215194980E+04 -0.63105853022E+04  0.65000000000E+04  0.15050000000E+03 0.  1.
     100001    1    1    2    0    0  0.10705404751E+04  0.11215194980E+04  0.63105853022E+04  0.65000000000E+04  0.15050000000E+03 0. -1.
</event>
<event>
 4    1  0.4630618E-004  0.6500000E+04  0.7818608E-02  0.7223770E-01
         52   -1    0    0    0    0  0.00000000000E+00  0.00000000000E+00  0.64930732323E+04  0.65000000000E+04  0.30000000000E+03 0. -1.
        -52   -1    0    0    0    0 -0.00000000000E+00 -0.00000000000E+00 -0.64930732323E+04  0.65000000000E+04  0.30000000000E+03 0.  1.
     100001    1    1    2    0    0 -0.82193962200E+03  0.93719679035E+03  0.63775722014E+04  0.65000000000E+04  0.15050000000E+03 0. -1.
     100001    1    1    2    0    0  0.82193962200E+03 -0.93719679035E+03 -0.63775722014E+04  0.65000000000E+04  0.15050000000E+03 0.  1.
</event>
<event>
 4    1  0.4630618E-004  0.6500000E+04  0.7818608E-02  0.7223770E-01
         52   -1    0    0    0    0  0.00000000000E+00  0.00000000000E+00  0.64930732323E+04  0.65000000000E+04  0.30000000000E+03 0.  1.
        -52   -1    0    0    0    0 -0.00000000000E+00 -0.00000000000E+00 -0.64930732323E+04  0.65000000000E+04  0.30000000000E+03 0.  1.
     100001    1    1    2    0    0 -0.40988191234E+03 -0.54505155390E+03  0.64623730449E+04  0.65000000000E+04  0.15050000000E+03 0.  1.
     100001    1    1    2    0    0  0.40988191234E+03  0.54505155390E+03 -0.64623730449E+04  0.65000000000E+04  0.15050000000E+03 0.  1.
</event>
<event>
 4    1  0.4630618E-004  0.6500000E+04  0.7818608E-02  0.7223770E-01
         52   -1    0    0    0    0  0.00000000000E+00  0.00000000000E+00  0.64930732323E+04  0.65000000000E+04  0.30000000000E+03 0. -1.
        -52   -1    0    0    0    0 -0.00000000000E+00 -0.00000000000E+00 -0.64930732323E+04  0.65000000000E+04  0.30000000000E+03 0.  1.
     100001    1    1    2    0    0 -0.24236183013E+04  0.32064312769E+04 -0.51060966057E+04  0.65000000000E+04  0.15050000000E+03 0.  1.
     100001    1    1    2    0    0  0.24236183013E+04 -0.32064312769E+04  0.51060966057E+04  0.65000000000E+04  0.15050000000E+03 0. -1.
</event>
<event>
 4    1  0.4630618E-004  0.6500000E+04  0.7818608E-02  0.7223770E-01
         52   -1    0    0    0    0  0.00000000000E+00  0.00000000000E+00  0.64930732323E+04  0.65000000000E+04  0.30000000000E+03 0.  1.
        -52   -1    0    0    0    0 -0.00000000000E+00 -0.00000000000E+00 -0.64930732323E+04  0.65000000000E+04  0.30000000000E+03 0. -1.
     100001    1    1    2    0    0 -0.29561024701E+04  0.12892909497E+04  0.56415012881E+04  0.65000000000E+04  0.15050000000E+03 0.  1.
     100001    1    1    2    0    0  0.29561024701E+04 -0.12892909497E+04 -0.56415012881E+04  0.65000000000E+04  0.15050000000E+03 0. -1.
</event>
<event>
 4    1  0.4630618E-004  0.6500000E+04  0.7818608E-02  0.7223770E-01
         52   -1    0    0    0    0  0.00000000000E+00  0.00000000000E+00  0.64930732323E+04  0.65000000000E+04  0.30000000000E+03 0. -1.
        -52   -1    0    0    0    0 -0.00000000000E+00 -0.00000000000E+00 -0.64930732323E+04  0.65000000000E+04  0.30000000000E+03 0.  1.
     100001    1    1    2    0    0 -0.11303053305E+04 -0.39707597271E+03  0.63868685818E+04  0.65000000000E+04  0.15050000000E+03 0. -1.
     100001    1    1    2    0    0  0.11303053305E+04  0.39707597271E+03 -0.63868685818E+04  0.65000000000E+04  0.15050000000E+03 0.  1.
</event>
<event>
 4    1  0.4630618E-004  0.6500000E+04  0.7818608E-02  0.7223770E-01
         52   -1    0    0    0    0  0.00000000000E+00  0.00000000000E+00  0.64930732323E+04  0.65000000000E+04  0.30000000000E+03 0.  1.
        -52   -1    0    0    0    0 -0.00000000000E+00 -0.00000000000E+00 -0.64930732323E+04  0.65000000000E+04  0.30000000000E+03 0. -1.
     100001    1    1    2    0    0  0.15126496143E+04 -0.20645248785E+04  0.59730208371E+04  0.65000000000E+04  0.15050000000E+03 0.  1.
     100001    1    1    2    0    0 -0.15126496143E+04  0.20645248785E+04 -0.59730208371E+04  0.65000000000E+04  0.15050000000E+03 0. -1.
</event>
<event>
 4    1  0.4630618E-004  0.6500000E+04  0.7818608E-02  0.7223770E-01
         52   -1    0    0    0    0  0.00000000000E+00  0.00000000000E+00  0.64930732323E+04  0.65000000000E+04  0.30000000000E+03 0. -1.
        -52   -1    0    0    0    0 -0.00000000000E+00 -0.00000000000E+00 -0.64930732323E+04  0.65000000000E+04  0.30000000000E+03 0. -1.
     100001    1    1    2    0    0 -0.87692327621E+02 -0.23105091394E+03  0.64935564432E+04  0.65000000000E+04  0.15050000000E+03 0. -1.
     100001    1    1    2    0    0  0.87692327621E+02  0.23105091394E+03 -0.64935564432E+04  0.65000000000E+04  0.15050000000E+03 0. -1.
</event>
<event>
 4    1  0.6905058E-004  0.6500000E+04  0.7818608E-02  0.7223770E-01
         52   -1    0    0    0    0  0.00000000000E+00  0.00000000000E+00  0.64930732323E+04  0.65000000000E+04  0.30000000000E+03 0.  1.
        -52   -1    0    0    0    0 -0.00000000000E+00 -0.00000000000E+00 -0.64930732323E+04  0.65000000000E+04  0.30000000000E+03 0. -1.
     100001    1    1    2    0    0 -0.10393138203E+03  0.73338614611E+01  0.64974221221E+04  0.65000000000E+04  0.15050000000E+03 0.  1.
     100001    1    1    2    0    0  0.10393138203E+03 -0.73338614611E+01 -0.64974221221E+04  0.65000000000E+04  0.15050000000E+03 0. -1.
</event>
<event>
 4    1  0.4630618E-004  0.6500000E+04  0.7818608E-02  0.7223770E-01
         52   -1    0    0    0    0  0.00000000000E+00  0.00000000000E+00  0.64930732323E+04  0.65000000000E+04  0.30000000000E+03 0. -1.
        -52   -1    0    0    0    0 -0.00000000000E+00 -0.00000000000E+00 -0.64930732323E+04  0.65000000000E+04  0.30000000000E+03 0.  1.
     100001    1    1    2    0    0  0.10328626531E+04  0.73241037734E+03  0.63737053218E+04  0.65000000000E+04  0.15050000000E+03 0. -1.
     100001    1    1    2    0    0 -0.10328626531E+04 -0.73241037734E+03 -0.63737053218E+04  0.65000000000E+04  0.15050000000E+03 0.  1.
</event>
<event>
 4    1  0.4630618E-004  0.6500000E+04  0.7818608E-02  0.7223770E-01
         52   -1    0    0    0    0  0.00000000000E+00  0.00000000000E+00  0.64930732323E+04  0.65000000000E+04  0.30000000000E+03 0.  1.
        -52   -1    0    0    0    0 -0.00000000000E+00 -0.00000000000E+00 -0.64930732323E+04  0.65000000000E+04  0.30000000000E+03 0. -1.
     100001    1    1    2    0    0 -0.74778354136E+03 -0.32213036743E+04  0.55938691586E+04  0.65000000000E+04  0.15050000000E+03 0.  1.
     100001    1    1    2    0    0  0.74778354136E+03  0.32213036743E+04 -0.55938691586E+04  0.65000000000E+04  0.15050000000E+03 0. -1.
</event>
<event>
 4    1  0.4630618E-004  0.6500000E+04  0.7818608E-02  0.7223770E-01
         52   -1    0    0    0    0  0.00000000000E+00  0.00000000000E+00  0.64930732323E+04  0.65000000000E+04  0.30000000000E+03 0. -1.
        -52   -1    0    0    0    0 -0.00000000000E+00 -0.00000000000E+00 -0.64930732323E+04  0.65000000000E+04  0.30000000000E+03 0.  1.
     100001    1    1    2    0    0 -0.16511160489E+04  0.23478968535E+04  0.58299696318E+04  0.65000000000E+04  0.15050000000E+03 0. -1.
     100001    1    1    2    0    0  0.16511160489E+04 -0.23478968535E+04 -0.58299696318E+04  0.65000000000E+04  0.15050000000E+03 0.  1.
</event>
<event>
 4    1  0.4630618E-004  0.6500000E+04  0.7818608E-02  0.7223770E-01
         52   -1    0    0    0    0  0.00000000000E+00  0.00000000000E+00  0.64930732323E+04  0.65000000000E+04  0.30000000000E+03 0.  1.
        -52   -1    0    0    0    0 -0.00000000000E+00 -0.00000000000E+00 -0.64930732323E+04  0.65000000000E+04  0.30000000000E+03 0. -1.
     100001    1    1    2    0    0 -0.19430451199E+03  0.36415798193E+03  0.64851356555E+04  0.65000000000E+04  0.15050000000E+03 0.  1.
     100001    1    1    2    0    0  0.19430451199E+03 -0.36415798193E+03 -0.64851356555E+04  0.65000000000E+04  0.15050000000E+03 0. -1.
</event>
<event>
 4    1  0.4630618E-004  0.6500000E+04  0.7818608E-02  0.7223770E-01
         52   -1    0    0    0    0  0.00000000000E+00  0.00000000000E+00  0.64930732323E+04  0.65000000000E+04  0.30000000000E+03 0.  1.
        -52   -1    0    0    0    0 -0.00000000000E+00 -0.00000000000E+00 -0.64930732323E+04  0.65000000000E+04  0.30000000000E+03 0. -1.
     100001    1    1    2    0    0 -0.39850328692E+04 -0.66433638906E+02 -0.51324895863E+04  0.65000000000E+04  0.15050000000E+03 0. -1.
     100001    1    1    2    0    0  0.39850328692E+04  0.66433638906E+02  0.51324895863E+04  0.65000000000E+04  0.15050000000E+03 0.  1.
</event>
<event>
 4    1  0.4630618E-004  0.6500000E+04  0.7818608E-02  0.7223770E-01
         52   -1    0    0    0    0  0.00000000000E+00  0.00000000000E+00  0.64930732323E+04  0.65000000000E+04  0.30000000000E+03 0. -1.
        -52   -1    0    0    0    0 -0.00000000000E+00 -0.00000000000E+00 -0.64930732323E+04  0.65000000000E+04  0.30000000000E+03 0.  1.
     100001    1    1    2    0    0  0.70510500982E+03  0.98187369435E+03 -0.63848336488E+04  0.65000000000E+04  0.15050000000E+03 0.  1.
     100001    1    1    2    0    0 -0.70510500982E+03 -0.98187369435E+03  0.63848336488E+04  0.65000000000E+04  0.15050000000E+03 0. -1.
</event>
<event>
 4    1  0.4630618E-004  0.6500000E+04  0.7818608E-02  0.7223770E-01
         52   -1    0    0    0    0  0.00000000000E+00  0.00000000000E+00  0.64930732323E+04  0.65000000000E+04  0.30000000000E+03 0.  1.
        -52   -1    0    0    0    0 -0.00000000000E+00 -0.00000000000E+00 -0.64930732323E+04  0.65000000000E+04  0.30000000000E+03 0. -1.
     100001    1    1    2    0    0 -0.55641679240E+03 -0.18157721289E+04  0.62145572392E+04  0.65000000000E+04  0.15050000000E+03 0.  1.
     100001    1    1    2    0    0  0.55641679240E+03  0.18157721289E+04 -0.62145572392E+04  0.65000000000E+04  0.15050000000E+03 0. -1.
</event>
<event>
 4    1  0.4630618E-004  0.6500000E+04  0.7818608E-02  0.7223770E-01
         52   -1    0    0    0    0  0.00000000000E+00  0.00000000000E+00  0.64930732323E+04  0.65000000000E+04  0.30000000000E+03 0. -1.
        -52   -1    0    0    0    0 -0.00000000000E+00 -0.00000000000E+00 -0.64930732323E+04  0.65000000000E+04  0.30000000000E+03 0. -1.
     100001    1    1    2    0    0  0.57185950420E+02  0.10927974223E+03 -0.64970868437E+04  0.65000000000E+04  0.15050000000E+03 0. -1.
     100001    1    1    2    0    0 -0.57185950420E+02 -0.10927974223E+03  0.64970868437E+04  0.65000000000E+04  0.15050000000E+03 0. -1.
</event>
<event>
 4    1  0.4630618E-004  0.6500000E+04  0.7818608E-02  0.7223770E-01
         52   -1    0    0    0    0  0.00000000000E+00  0.00000000000E+00  0.64930732323E+04  0.65000000000E+04  0.30000000000E+03 0.  1.
        -52   -1    0    0    0    0 -0.00000000000E+00 -0.00000000000E+00 -0.64930732323E+04  0.65000000000E+04  0.30000000000E+03 0. -1.
     100001    1    1    2    0    0 -0.11011869880E+04  0.41826330811E+03 -0.63906019100E+04  0.65000000000E+04  0.15050000000E+03 0. -1.
     100001    1    1    2    0    0  0.11011869880E+04 -0.41826330811E+03  0.63906019100E+04  0.65000000000E+04  0.15050000000E+03 0.  1.
</event>
<event>
 4    1  0.4630618E-004  0.6500000E+04  0.7818608E-02  0.7223770E-01
         52   -1    0    0    0    0  0.00000000000E+00  0.00000000000E+00  0.64930732323E+04  0.65000000000E+04  0.30000000000E+03 0. -1.
        -52   -1    0    0    0    0 -0.00000000000E+00 -0.00000000000E+00 -0.64930732323E+04  0.65000000000E+04  0.30000000000E+03 0.  1.
     100001    1    1    2    0    0 -0.11016288293E+04 -0.25055236178E+04  0.58937352395E+04  0.65000000000E+04  0.15050000000E+03 0. -1.
     100001    1    1    2    0    0  0.11016288293E+04  0.25055236178E+04 -0.58937352395E+04  0.65000000000E+04  0.15050000000E+03 0.  1.
</event>
<event>
 4    1  0.4630618E-004  0.6500000E+04  0.7818608E-02  0.7223770E-01
         52   -1    0    0    0    0  0.00000000000E+00  0.00000000000E+00  0.64930732323E+04  0.65000000000E+04  0.30000000000E+03 0. -1.
        -52   -1    0    0    0    0 -0.00000000000E+00 -0.00000000000E+00 -0.64930732323E+04  0.65000000000E+04  0.30000000000E+03 0.  1.
     100001    1    1    2    0    0  0.22153711762E+04 -0.14530121754E+04 -0.59336528311E+04  0.65000000000E+04  0.15050000000E+03 0.  1.
     100001    1    1    2    0    0 -0.22153711762E+04  0.14530121754E+04  0.59336528311E+04  0.65000000000E+04  0.15050000000E+03 0. -1.
</event>
<event>
 4    1  0.4630618E-004  0.6500000E+04  0.7818608E-02  0.7223770E-01
         52   -1    0    0    0    0  0.00000000000E+00  0.00000000000E+00  0.64930732323E+04  0.65000000000E+04  0.30000000000E+03 0. -1.
        -52   -1    0    0    0    0 -0.00000000000E+00 -0.00000000000E+00 -0.64930732323E+04  0.65000000000E+04  0.30000000000E+03 0.  1.
     100001    1    1    2    0    0 -0.11768021064E+04  0.99259916468E+03 -0.63132585446E+04  0.65000000000E+04  0.15050000000E+03 0.  1.
     100001    1    1    2    0    0  0.11768021064E+04 -0.99259916468E+03  0.63132585446E+04  0.65000000000E+04  0.15050000000E+03 0. -1.
</event>
<event>
 4    1  0.4630618E-004  0.6500000E+04  0.7818608E-02  0.7223770E-01
         52   -1    0    0    0    0  0.00000000000E+00  0.00000000000E+00  0.64930732323E+04  0.65000000000E+04  0.30000000000E+03 0.  1.
        -52   -1    0    0    0    0 -0.00000000000E+00 -0.00000000000E+00 -0.64930732323E+04  0.65000000000E+04  0.30000000000E+03 0. -1.
     100001    1    1    2    0    0 -0.64236003215E+04 -0.78928425346E+03 -0.58458449081E+03  0.65000000000E+04  0.15050000000E+03 0.  1.
     100001    1    1    2    0    0  0.64236003215E+04  0.78928425346E+03  0.58458449081E+03  0.65000000000E+04  0.15050000000E+03 0. -1.
</event>
<event>
 4    1  0.4630618E-004  0.6500000E+04  0.7818608E-02  0.7223770E-01
         52   -1    0    0    0    0  0.00000000000E+00  0.00000000000E+00  0.64930732323E+04  0.65000000000E+04  0.30000000000E+03 0.  1.
        -52   -1    0    0    0    0 -0.00000000000E+00 -0.00000000000E+00 -0.64930732323E+04  0.65000000000E+04  0.30000000000E+03 0. -1.
     100001    1    1    2    0    0 -0.23237563518E+03 -0.24458418049E+03  0.64894938087E+04  0.65000000000E+04  0.15050000000E+03 0.  1.
     100001    1    1    2    0    0  0.23237563518E+03  0.24458418049E+03 -0.64894938087E+04  0.65000000000E+04  0.15050000000E+03 0. -1.
</event>
<event>
 4    1  0.4630618E-004  0.6500000E+04  0.7818608E-02  0.7223770E-01
         52   -1    0    0    0    0  0.00000000000E+00  0.00000000000E+00  0.64930732323E+04  0.65000000000E+04  0.30000000000E+03 0.  1.
        -52   -1    0    0    0    0 -0.00000000000E+00 -0.00000000000E+00 -0.64930732323E+04  0.65000000000E+04  0.30000000000E+03 0. -1.
     100001    1    1    2    0    0 -0.64398024277E+02 -0.36992172584E+04 -0.53421900303E+04  0.65000000000E+04  0.15050000000E+03 0. -1.
     100001    1    1    2    0    0  0.64398024277E+02  0.36992172584E+04  0.53421900303E+04  0.65000000000E+04  0.15050000000E+03 0.  1.
</event>
<event>
 4    1  0.4630618E-004  0.6500000E+04  0.7818608E-02  0.7223770E-01
         52   -1    0    0    0    0  0.00000000000E+00  0.00000000000E+00  0.64930732323E+04  0.65000000000E+04  0.30000000000E+03 0. -1.
        -52   -1    0    0    0    0 -0.00000000000E+00 -0.00000000000E+00 -0.64930732323E+04  0.65000000000E+04  0.30000000000E+03 0.  1.
     100001    1    1    2    0    0 -0.22295666140E+04 -0.14402313168E+04  0.59314514428E+04  0.65000000000E+04  0.15050000000E+03 0. -1.
     100001    1    1    2    0    0  0.22295666140E+04  0.14402313168E+04 -0.59314514428E+04  0.65000000000E+04  0.15050000000E+03 0.  1.
</event>
<event>
 4    1  0.4630618E-004  0.6500000E+04  0.7818608E-02  0.7223770E-01
         52   -1    0    0    0    0  0.00000000000E+00  0.00000000000E+00  0.64930732323E+04  0.65000000000E+04  0.30000000000E+03 0. -1.
        -52   -1    0    0    0    0 -0.00000000000E+00 -0.00000000000E+00 -0.64930732323E+04  0.65000000000E+04  0.30000000000E+03 0.  1.
     100001    1    1    2    0    0 -0.59016161575E+04  0.64347984089E+03  0.26427656298E+04  0.65000000000E+04  0.15050000000E+03 0. -1.
     100001    1    1    2    0    0  0.59016161575E+04 -0.64347984089E+03 -0.26427656298E+04  0.65000000000E+04  0.15050000000E+03 0.  1.
</event>
<event>
 4    1  0.4630618E-004  0.6500000E+04  0.7818608E-02  0.7223770E-01
         52   -1    0    0    0    0  0.00000000000E+00  0.00000000000E+00  0.64930732323E+04  0.65000000000E+04  0.30000000000E+03 0. -1.
        -52   -1    0    0    0    0 -0.00000000000E+00 -0.00000000000E+00 -0.64930732323E+04  0.65000000000E+04  0.30000000000E+03 0.  1.
     100001    1    1    2    0    0  0.49795365626E+04  0.36756464048E+04  0.19801992017E+04  0.65000000000E+04  0.15050000000E+03 0. -1.
     100001    1    1    2    0    0 -0.49795365626E+04 -0.36756464048E+04 -0.19801992017E+04  0.65000000000E+04  0.15050000000E+03 0.  1.
</event>
<event>
 4    1  0.4630618E-004  0.6500000E+04  0.7818608E-02  0.7223770E-01
         52   -1    0    0    0    0  0.00000000000E+00  0.00000000000E+00  0.64930732323E+04  0.65000000000E+04  0.30000000000E+03 0. -1.
        -52   -1    0    0    0    0 -0.00000000000E+00 -0.00000000000E+00 -0.64930732323E+04  0.65000000000E+04  0.30000000000E+03 0.  1.
     100001    1    1    2    0    0 -0.36713448266E+04 -0.27754855595E+04  0.45875109617E+04  0.65000000000E+04  0.15050000000E+03 0. -1.
     100001    1    1    2    0    0  0.36713448266E+04  0.27754855595E+04 -0.45875109617E+04  0.65000000000E+04  0.15050000000E+03 0.  1.
</event>
<event>
 4    1  0.4630618E-004  0.6500000E+04  0.7818608E-02  0.7223770E-01
         52   -1    0    0    0    0  0.00000000000E+00  0.00000000000E+00  0.64930732323E+04  0.65000000000E+04  0.30000000000E+03 0.  1.
        -52   -1    0    0    0    0 -0.00000000000E+00 -0.00000000000E+00 -0.64930732323E+04  0.65000000000E+04  0.30000000000E+03 0. -1.
     100001    1    1    2    0    0 -0.11452672775E+04 -0.29578890343E+03 -0.63896965137E+04  0.65000000000E+04  0.15050000000E+03 0. -1.
     100001    1    1    2    0    0  0.11452672775E+04  0.29578890343E+03  0.63896965137E+04  0.65000000000E+04  0.15050000000E+03 0.  1.
</event>
<event>
 4    1  0.4630618E-004  0.6500000E+04  0.7818608E-02  0.7223770E-01
         52   -1    0    0    0    0  0.00000000000E+00  0.00000000000E+00  0.64930732323E+04  0.65000000000E+04  0.30000000000E+03 0.  1.
        -52   -1    0    0    0    0 -0.00000000000E+00 -0.00000000000E+00 -0.64930732323E+04  0.65000000000E+04  0.30000000000E+03 0. -1.
     100001    1    1    2    0    0  0.34145345207E+03 -0.51764661174E+02  0.64890738715E+04  0.65000000000E+04  0.15050000000E+03 0.  1.
     100001    1    1    2    0    0 -0.34145345207E+03  0.51764661174E+02 -0.64890738715E+04  0.65000000000E+04  0.15050000000E+03 0. -1.
</event>
<event>
 4    1  0.4630618E-004  0.6500000E+04  0.7818608E-02  0.7223770E-01
         52   -1    0    0    0    0  0.00000000000E+00  0.00000000000E+00  0.64930732323E+04  0.65000000000E+04  0.30000000000E+03 0. -1.
        -52   -1    0    0    0    0 -0.00000000000E+00 -0.00000000000E+00 -0.64930732323E+04  0.65000000000E+04  0.30000000000E+03 0.  1.
     100001    1    1    2    0    0  0.14761921907E+04  0.14217163862E+04  0.61665978370E+04  0.65000000000E+04  0.15050000000E+03 0. -1.
     100001    1    1    2    0    0 -0.14761921907E+04 -0.14217163862E+04 -0.61665978370E+04  0.65000000000E+04  0.15050000000E+03 0.  1.
</event>
<event>
 4    1  0.4630618E-004  0.6500000E+04  0.7818608E-02  0.7223770E-01
         52   -1    0    0    0    0  0.00000000000E+00  0.00000000000E+00  0.64930732323E+04  0.65000000000E+04  0.30000000000E+03 0. -1.
        -52   -1    0    0    0    0 -0.00000000000E+00 -0.00000000000E+00 -0.64930732323E+04  0.65000000000E+04  0.30000000000E+03 0. -1.
     100001    1    1    2    0    0 -0.34772240905E+03 -0.13774039367E+03  0.64874853726E+04  0.65000000000E+04  0.15050000000E+03 0. -1.
     100001    1    1    2    0    0  0.34772240905E+03  0.13774039367E+03 -0.64874853726E+04  0.65000000000E+04  0.15050000000E+03 0. -1.
</event>
<event>
 4    1  0.4630618E-004  0.6500000E+04  0.7818608E-02  0.7223770E-01
         52   -1    0    0    0    0  0.00000000000E+00  0.00000000000E+00  0.64930732323E+04  0.65000000000E+04  0.30000000000E+03 0.  1.
        -52   -1    0    0    0    0 -0.00000000000E+00 -0.00000000000E+00 -0.64930732323E+04  0.65000000000E+04  0.30000000000E+03 0. -1.
     100001    1    1    2    0    0 -0.54590719333E+04  0.23062397404E+04  0.26659222863E+04  0.65000000000E+04  0.15050000000E+03 0.  1.
     100001    1    1    2    0    0  0.54590719333E+04 -0.23062397404E+04 -0.26659222863E+04  0.65000000000E+04  0.15050000000E+03 0. -1.
</event>
<event>
 4    1  0.4630618E-004  0.6500000E+04  0.7818608E-02  0.7223770E-01
         52   -1    0    0    0    0  0.00000000000E+00  0.00000000000E+00  0.64930732323E+04  0.65000000000E+04  0.30000000000E+03 0.  1.
        -52   -1    0    0    0    0 -0.00000000000E+00 -0.00000000000E+00 -0.64930732323E+04  0.65000000000E+04  0.30000000000E+03 0. -1.
     100001    1    1    2    0    0  0.21677538480E+04  0.83974168041E+03 -0.60681979957E+04  0.65000000000E+04  0.15050000000E+03 0. -1.
     100001    1    1    2    0    0 -0.21677538480E+04 -0.83974168041E+03  0.60681979957E+04  0.65000000000E+04  0.15050000000E+03 0.  1.
</event>
<event>
 4    1  0.4630618E-004  0.6500000E+04  0.7818608E-02  0.7223770E-01
         52   -1    0    0    0    0  0.00000000000E+00  0.00000000000E+00  0.64930732323E+04  0.65000000000E+04  0.30000000000E+03 0.  1.
        -52   -1    0    0    0    0 -0.00000000000E+00 -0.00000000000E+00 -0.64930732323E+04  0.65000000000E+04  0.30000000000E+03 0. -1.
     100001    1    1    2    0    0  0.10636698268E+04 -0.79676859169E+03  0.63609052863E+04  0.65000000000E+04  0.15050000000E+03 0.  1.
     100001    1    1    2    0    0 -0.10636698268E+04  0.79676859169E+03 -0.63609052863E+04  0.65000000000E+04  0.15050000000E+03 0. -1.
</event>
<event>
 4    1  0.4630618E-004  0.6500000E+04  0.7818608E-02  0.7223770E-01
         52   -1    0    0    0    0  0.00000000000E+00  0.00000000000E+00  0.64930732323E+04  0.65000000000E+04  0.30000000000E+03 0. -1.
        -52   -1    0    0    0    0 -0.00000000000E+00 -0.00000000000E+00 -0.64930732323E+04  0.65000000000E+04  0.30000000000E+03 0.  1.
     100001    1    1    2    0    0  0.60443157653E+02  0.19027729984E+04  0.62131434308E+04  0.65000000000E+04  0.15050000000E+03 0. -1.
     100001    1    1    2    0    0 -0.60443157653E+02 -0.19027729984E+04 -0.62131434308E+04  0.65000000000E+04  0.15050000000E+03 0.  1.
</event>
<event>
 4    1  0.4630618E-004  0.6500000E+04  0.7818608E-02  0.7223770E-01
         52   -1    0    0    0    0  0.00000000000E+00  0.00000000000E+00  0.64930732323E+04  0.65000000000E+04  0.30000000000E+03 0. -1.
        -52   -1    0    0    0    0 -0.00000000000E+00 -0.00000000000E+00 -0.64930732323E+04  0.65000000000E+04  0.30000000000E+03 0.  1.
     100001    1    1    2    0    0  0.49445761765E+04 -0.97064449213E+03  0.41032140395E+04  0.65000000000E+04  0.15050000000E+03 0. -1.
     100001    1    1    2    0    0 -0.49445761765E+04  0.97064449213E+03 -0.41032140395E+04  0.65000000000E+04  0.15050000000E+03 0.  1.
</event>
<event>
 4    1  0.4630618E-004  0.6500000E+04  0.7818608E-02  0.7223770E-01
         52   -1    0    0    0    0  0.00000000000E+00  0.00000000000E+00  0.64930732323E+04  0.65000000000E+04  0.30000000000E+03 0.  1.
        -52   -1    0    0    0    0 -0.00000000000E+00 -0.00000000000E+00 -0.64930732323E+04  0.65000000000E+04  0.30000000000E+03 0.  1.
     100001    1    1    2    0    0  0.24652138924E+03 -0.28039064176E+03 -0.64875232595E+04  0.65000000000E+04  0.15050000000E+03 0.  1.
     100001    1    1    2    0    0 -0.24652138924E+03  0.28039064176E+03  0.64875232595E+04  0.65000000000E+04  0.15050000000E+03 0.  1.
</event>
<event>
 4    1  0.4630618E-004  0.6500000E+04  0.7818608E-02  0.7223770E-01
         52   -1    0    0    0    0  0.00000000000E+00  0.00000000000E+00  0.64930732323E+04  0.65000000000E+04  0.30000000000E+03 0. -1.
        -52   -1    0    0    0    0 -0.00000000000E+00 -0.00000000000E+00 -0.64930732323E+04  0.65000000000E+04  0.30000000000E+03 0.  1.
     100001    1    1    2    0    0 -0.71974596617E+03  0.42117557413E+03 -0.64445268740E+04  0.65000000000E+04  0.15050000000E+03 0.  1.
     100001    1    1    2    0    0  0.71974596617E+03 -0.42117557413E+03  0.64445268740E+04  0.65000000000E+04  0.15050000000E+03 0. -1.
</event>
<event>
 4    1  0.4630618E-004  0.6500000E+04  0.7818608E-02  0.7223770E-01
         52   -1    0    0    0    0  0.00000000000E+00  0.00000000000E+00  0.64930732323E+04  0.65000000000E+04  0.30000000000E+03 0. -1.
        -52   -1    0    0    0    0 -0.00000000000E+00 -0.00000000000E+00 -0.64930732323E+04  0.65000000000E+04  0.30000000000E+03 0.  1.
     100001    1    1    2    0    0  0.57094599742E+04  0.29735778211E+04 -0.88727193999E+03  0.65000000000E+04  0.15050000000E+03 0.  1.
     100001    1    1    2    0    0 -0.57094599742E+04 -0.29735778211E+04  0.88727193999E+03  0.65000000000E+04  0.15050000000E+03 0. -1.
</event>
<event>
 4    1  0.4630618E-004  0.6500000E+04  0.7818608E-02  0.7223770E-01
         52   -1    0    0    0    0  0.00000000000E+00  0.00000000000E+00  0.64930732323E+04  0.65000000000E+04  0.30000000000E+03 0. -1.
        -52   -1    0    0    0    0 -0.00000000000E+00 -0.00000000000E+00 -0.64930732323E+04  0.65000000000E+04  0.30000000000E+03 0.  1.
     100001    1    1    2    0    0  0.25694601584E+04  0.75159093198E+03 -0.59211768522E+04  0.65000000000E+04  0.15050000000E+03 0.  1.
     100001    1    1    2    0    0 -0.25694601584E+04 -0.75159093198E+03  0.59211768522E+04  0.65000000000E+04  0.15050000000E+03 0. -1.
</event>
<event>
 4    1  0.4630618E-004  0.6500000E+04  0.7818608E-02  0.7223770E-01
         52   -1    0    0    0    0  0.00000000000E+00  0.00000000000E+00  0.64930732323E+04  0.65000000000E+04  0.30000000000E+03 0. -1.
        -52   -1    0    0    0    0 -0.00000000000E+00 -0.00000000000E+00 -0.64930732323E+04  0.65000000000E+04  0.30000000000E+03 0.  1.
     100001    1    1    2    0    0  0.99051356006E+03  0.49063285550E+03  0.64035546409E+04  0.65000000000E+04  0.15050000000E+03 0. -1.
     100001    1    1    2    0    0 -0.99051356006E+03 -0.49063285550E+03 -0.64035546409E+04  0.65000000000E+04  0.15050000000E+03 0.  1.
</event>
<event>
 4    1  0.4630618E-004  0.6500000E+04  0.7818608E-02  0.7223770E-01
         52   -1    0    0    0    0  0.00000000000E+00  0.00000000000E+00  0.64930732323E+04  0.65000000000E+04  0.30000000000E+03 0.  1.
        -52   -1    0    0    0    0 -0.00000000000E+00 -0.00000000000E+00 -0.64930732323E+04  0.65000000000E+04  0.30000000000E+03 0. -1.
     100001    1    1    2    0    0 -0.99760789691E+03 -0.14830260831E+03 -0.64195120196E+04  0.65000000000E+04  0.15050000000E+03 0. -1.
     100001    1    1    2    0    0  0.99760789691E+03  0.14830260831E+03  0.64195120196E+04  0.65000000000E+04  0.15050000000E+03 0.  1.
</event>
<event>
 4    1  0.4630618E-004  0.6500000E+04  0.7818608E-02  0.7223770E-01
         52   -1    0    0    0    0  0.00000000000E+00  0.00000000000E+00  0.64930732323E+04  0.65000000000E+04  0.30000000000E+03 0.  1.
        -52   -1    0    0    0    0 -0.00000000000E+00 -0.00000000000E+00 -0.64930732323E+04  0.65000000000E+04  0.30000000000E+03 0.  1.
     100001    1    1    2    0    0 -0.30476129265E+03 -0.26720485625E+03 -0.64856049733E+04  0.65000000000E+04  0.15050000000E+03 0.  1.
     100001    1    1    2    0    0  0.30476129265E+03  0.26720485625E+03  0.64856049733E+04  0.65000000000E+04  0.15050000000E+03 0.  1.
</event>
<event>
 4    1  0.4630618E-004  0.6500000E+04  0.7818608E-02  0.7223770E-01
         52   -1    0    0    0    0  0.00000000000E+00  0.00000000000E+00  0.64930732323E+04  0.65000000000E+04  0.30000000000E+03 0. -1.
        -52   -1    0    0    0    0 -0.00000000000E+00 -0.00000000000E+00 -0.64930732323E+04  0.65000000000E+04  0.30000000000E+03 0.  1.
     100001    1    1    2    0    0  0.17627140427E+04  0.80986227465E+03  0.62019603392E+04  0.65000000000E+04  0.15050000000E+03 0. -1.
     100001    1    1    2    0    0 -0.17627140427E+04 -0.80986227465E+03 -0.62019603392E+04  0.65000000000E+04  0.15050000000E+03 0.  1.
</event>
<event>
 4    1  0.4630618E-004  0.6500000E+04  0.7818608E-02  0.7223770E-01
         52   -1    0    0    0    0  0.00000000000E+00  0.00000000000E+00  0.64930732323E+04  0.65000000000E+04  0.30000000000E+03 0.  1.
        -52   -1    0    0    0    0 -0.00000000000E+00 -0.00000000000E+00 -0.64930732323E+04  0.65000000000E+04  0.30000000000E+03 0. -1.
     100001    1    1    2    0    0  0.28505215461E+04  0.16867994797E+04 -0.55907588197E+04  0.65000000000E+04  0.15050000000E+03 0. -1.
     100001    1    1    2    0    0 -0.28505215461E+04 -0.16867994797E+04  0.55907588197E+04  0.65000000000E+04  0.15050000000E+03 0.  1.
</event>
<event>
 4    1  0.4630618E-004  0.6500000E+04  0.7818608E-02  0.7223770E-01
         52   -1    0    0    0    0  0.00000000000E+00  0.00000000000E+00  0.64930732323E+04  0.65000000000E+04  0.30000000000E+03 0.  1.
        -52   -1    0    0    0    0 -0.00000000000E+00 -0.00000000000E+00 -0.64930732323E+04  0.65000000000E+04  0.30000000000E+03 0. -1.
     100001    1    1    2    0    0 -0.68981158000E+03 -0.21524499166E+02 -0.64615049663E+04  0.65000000000E+04  0.15050000000E+03 0. -1.
     100001    1    1    2    0    0  0.68981158000E+03  0.21524499166E+02  0.64615049663E+04  0.65000000000E+04  0.15050000000E+03 0.  1.
</event>
<event>
 4    1  0.4630618E-004  0.6500000E+04  0.7818608E-02  0.7223770E-01
         52   -1    0    0    0    0  0.00000000000E+00  0.00000000000E+00  0.64930732323E+04  0.65000000000E+04  0.30000000000E+03 0.  1.
        -52   -1    0    0    0    0 -0.00000000000E+00 -0.00000000000E+00 -0.64930732323E+04  0.65000000000E+04  0.30000000000E+03 0. -1.
     100001    1    1    2    0    0  0.13439801143E+04  0.53045947326E+03  0.63355883665E+04  0.65000000000E+04  0.15050000000E+03 0.  1.
     100001    1    1    2    0    0 -0.13439801143E+04 -0.53045947326E+03 -0.63355883665E+04  0.65000000000E+04  0.15050000000E+03 0. -1.
</event>
<event>
 4    1  0.4630618E-004  0.6500000E+04  0.7818608E-02  0.7223770E-01
         52   -1    0    0    0    0  0.00000000000E+00  0.00000000000E+00  0.64930732323E+04  0.65000000000E+04  0.30000000000E+03 0.  1.
        -52   -1    0    0    0    0 -0.00000000000E+00 -0.00000000000E+00 -0.64930732323E+04  0.65000000000E+04  0.30000000000E+03 0. -1.
     100001    1    1    2    0    0 -0.15523021749E+03 -0.47727604850E+03  0.64788471894E+04  0.65000000000E+04  0.15050000000E+03 0.  1.
     100001    1    1    2    0    0  0.15523021749E+03  0.47727604850E+03 -0.64788471894E+04  0.65000000000E+04  0.15050000000E+03 0. -1.
</event>
<event>
 4    1  0.4630618E-004  0.6500000E+04  0.7818608E-02  0.7223770E-01
         52   -1    0    0    0    0  0.00000000000E+00  0.00000000000E+00  0.64930732323E+04  0.65000000000E+04  0.30000000000E+03 0. -1.
        -52   -1    0    0    0    0 -0.00000000000E+00 -0.00000000000E+00 -0.64930732323E+04  0.65000000000E+04  0.30000000000E+03 0.  1.
     100001    1    1    2    0    0  0.14962000572E+04 -0.33899859778E+03 -0.63145716474E+04  0.65000000000E+04  0.15050000000E+03 0.  1.
     100001    1    1    2    0    0 -0.14962000572E+04  0.33899859778E+03  0.63145716474E+04  0.65000000000E+04  0.15050000000E+03 0. -1.
</event>
<event>
 4    1  0.4630618E-004  0.6500000E+04  0.7818608E-02  0.7223770E-01
         52   -1    0    0    0    0  0.00000000000E+00  0.00000000000E+00  0.64930732323E+04  0.65000000000E+04  0.30000000000E+03 0.  1.
        -52   -1    0    0    0    0 -0.00000000000E+00 -0.00000000000E+00 -0.64930732323E+04  0.65000000000E+04  0.30000000000E+03 0. -1.
     100001    1    1    2    0    0  0.63819983442E+02 -0.53493895730E+03  0.64758873579E+04  0.65000000000E+04  0.15050000000E+03 0.  1.
     100001    1    1    2    0    0 -0.63819983442E+02  0.53493895730E+03 -0.64758873579E+04  0.65000000000E+04  0.15050000000E+03 0. -1.
</event>
<event>
 4    1  0.4630618E-004  0.6500000E+04  0.7818608E-02  0.7223770E-01
         52   -1    0    0    0    0  0.00000000000E+00  0.00000000000E+00  0.64930732323E+04  0.65000000000E+04  0.30000000000E+03 0. -1.
        -52   -1    0    0    0    0 -0.00000000000E+00 -0.00000000000E+00 -0.64930732323E+04  0.65000000000E+04  0.30000000000E+03 0.  1.
     100001    1    1    2    0    0 -0.10227566726E+03 -0.21358181871E+04 -0.61363808641E+04  0.65000000000E+04  0.15050000000E+03 0.  1.
     100001    1    1    2    0    0  0.10227566726E+03  0.21358181871E+04  0.61363808641E+04  0.65000000000E+04  0.15050000000E+03 0. -1.
</event>
<event>
 4    1  0.4630618E-004  0.6500000E+04  0.7818608E-02  0.7223770E-01
         52   -1    0    0    0    0  0.00000000000E+00  0.00000000000E+00  0.64930732323E+04  0.65000000000E+04  0.30000000000E+03 0. -1.
        -52   -1    0    0    0    0 -0.00000000000E+00 -0.00000000000E+00 -0.64930732323E+04  0.65000000000E+04  0.30000000000E+03 0.  1.
     100001    1    1    2    0    0  0.19134848584E+04 -0.10447170340E+04 -0.61216412640E+04  0.65000000000E+04  0.15050000000E+03 0.  1.
     100001    1    1    2    0    0 -0.19134848584E+04  0.10447170340E+04  0.61216412640E+04  0.65000000000E+04  0.15050000000E+03 0. -1.
</event>
<event>
 4    1  0.4630618E-004  0.6500000E+04  0.7818608E-02  0.7223770E-01
         52   -1    0    0    0    0  0.00000000000E+00  0.00000000000E+00  0.64930732323E+04  0.65000000000E+04  0.30000000000E+03 0.  1.
        -52   -1    0    0    0    0 -0.00000000000E+00 -0.00000000000E+00 -0.64930732323E+04  0.65000000000E+04  0.30000000000E+03 0. -1.
     100001    1    1    2    0    0  0.16737688931E+03 -0.22882159285E+03  0.64920701941E+04  0.65000000000E+04  0.15050000000E+03 0.  1.
     100001    1    1    2    0    0 -0.16737688931E+03  0.22882159285E+03 -0.64920701941E+04  0.65000000000E+04  0.15050000000E+03 0. -1.
</event>
<event>
 4    1  0.4630618E-004  0.6500000E+04  0.7818608E-02  0.7223770E-01
         52   -1    0    0    0    0  0.00000000000E+00  0.00000000000E+00  0.64930732323E+04  0.65000000000E+04  0.30000000000E+03 0.  1.
        -52   -1    0    0    0    0 -0.00000000000E+00 -0.00000000000E+00 -0.64930732323E+04  0.65000000000E+04  0.30000000000E+03 0. -1.
     100001    1    1    2    0    0  0.23775141779E+03  0.58961933080E+03 -0.64670838141E+04  0.65000000000E+04  0.15050000000E+03 0. -1.
     100001    1    1    2    0    0 -0.23775141779E+03 -0.58961933080E+03  0.64670838141E+04  0.65000000000E+04  0.15050000000E+03 0.  1.
</event>
<event>
 4    1  0.4630618E-004  0.6500000E+04  0.7818608E-02  0.7223770E-01
         52   -1    0    0    0    0  0.00000000000E+00  0.00000000000E+00  0.64930732323E+04  0.65000000000E+04  0.30000000000E+03 0.  1.
        -52   -1    0    0    0    0 -0.00000000000E+00 -0.00000000000E+00 -0.64930732323E+04  0.65000000000E+04  0.30000000000E+03 0. -1.
     100001    1    1    2    0    0  0.40426017862E+03 -0.64475004646E+03  0.64535432776E+04  0.65000000000E+04  0.15050000000E+03 0.  1.
     100001    1    1    2    0    0 -0.40426017862E+03  0.64475004646E+03 -0.64535432776E+04  0.65000000000E+04  0.15050000000E+03 0. -1.
</event>
<event>
 4    1  0.4630618E-004  0.6500000E+04  0.7818608E-02  0.7223770E-01
         52   -1    0    0    0    0  0.00000000000E+00  0.00000000000E+00  0.64930732323E+04  0.65000000000E+04  0.30000000000E+03 0.  1.
        -52   -1    0    0    0    0 -0.00000000000E+00 -0.00000000000E+00 -0.64930732323E+04  0.65000000000E+04  0.30000000000E+03 0. -1.
     100001    1    1    2    0    0 -0.18471843943E+04 -0.19097331644E+04  0.59302764526E+04  0.65000000000E+04  0.15050000000E+03 0.  1.
     100001    1    1    2    0    0  0.18471843943E+04  0.19097331644E+04 -0.59302764526E+04  0.65000000000E+04  0.15050000000E+03 0. -1.
</event>
<event>
 4    1  0.4630618E-004  0.6500000E+04  0.7818608E-02  0.7223770E-01
         52   -1    0    0    0    0  0.00000000000E+00  0.00000000000E+00  0.64930732323E+04  0.65000000000E+04  0.30000000000E+03 0.  1.
        -52   -1    0    0    0    0 -0.00000000000E+00 -0.00000000000E+00 -0.64930732323E+04  0.65000000000E+04  0.30000000000E+03 0. -1.
     100001    1    1    2    0    0  0.58140585799E+03 -0.59023032419E+02  0.64719265493E+04  0.65000000000E+04  0.15050000000E+03 0.  1.
     100001    1    1    2    0    0 -0.58140585799E+03  0.59023032419E+02 -0.64719265493E+04  0.65000000000E+04  0.15050000000E+03 0. -1.
</event>
<event>
 4    1  0.4630618E-004  0.6500000E+04  0.7818608E-02  0.7223770E-01
         52   -1    0    0    0    0  0.00000000000E+00  0.00000000000E+00  0.64930732323E+04  0.65000000000E+04  0.30000000000E+03 0.  1.
        -52   -1    0    0    0    0 -0.00000000000E+00 -0.00000000000E+00 -0.64930732323E+04  0.65000000000E+04  0.30000000000E+03 0. -1.
     100001    1    1    2    0    0  0.25629507550E+04 -0.37919882350E+04 -0.46129663345E+04  0.65000000000E+04  0.15050000000E+03 0. -1.
     100001    1    1    2    0    0 -0.25629507550E+04  0.37919882350E+04  0.46129663345E+04  0.65000000000E+04  0.15050000000E+03 0.  1.
</event>
<event>
 4    1  0.4630618E-004  0.6500000E+04  0.7818608E-02  0.7223770E-01
         52   -1    0    0    0    0  0.00000000000E+00  0.00000000000E+00  0.64930732323E+04  0.65000000000E+04  0.30000000000E+03 0. -1.
        -52   -1    0    0    0    0 -0.00000000000E+00 -0.00000000000E+00 -0.64930732323E+04  0.65000000000E+04  0.30000000000E+03 0.  1.
     100001    1    1    2    0    0  0.46986919707E+04  0.23803202429E+04 -0.38057481597E+04  0.65000000000E+04  0.15050000000E+03 0. -1.
     100001    1    1    2    0    0 -0.46986919707E+04 -0.23803202429E+04  0.38057481597E+04  0.65000000000E+04  0.15050000000E+03 0.  1.
</event>
<event>
 4    1  0.4630618E-004  0.6500000E+04  0.7818608E-02  0.7223770E-01
         52   -1    0    0    0    0  0.00000000000E+00  0.00000000000E+00  0.64930732323E+04  0.65000000000E+04  0.30000000000E+03 0.  1.
        -52   -1    0    0    0    0 -0.00000000000E+00 -0.00000000000E+00 -0.64930732323E+04  0.65000000000E+04  0.30000000000E+03 0. -1.
     100001    1    1    2    0    0 -0.37039711007E+04 -0.28910537877E+04 -0.44888479404E+04  0.65000000000E+04  0.15050000000E+03 0. -1.
     100001    1    1    2    0    0  0.37039711007E+04  0.28910537877E+04  0.44888479404E+04  0.65000000000E+04  0.15050000000E+03 0.  1.
</event>
<event>
 4    1  0.4630618E-004  0.6500000E+04  0.7818608E-02  0.7223770E-01
         52   -1    0    0    0    0  0.00000000000E+00  0.00000000000E+00  0.64930732323E+04  0.65000000000E+04  0.30000000000E+03 0. -1.
        -52   -1    0    0    0    0 -0.00000000000E+00 -0.00000000000E+00 -0.64930732323E+04  0.65000000000E+04  0.30000000000E+03 0.  1.
     100001    1    1    2    0    0  0.20137842834E+03 -0.41111848001E+04  0.50284148613E+04  0.65000000000E+04  0.15050000000E+03 0. -1.
     100001    1    1    2    0    0 -0.20137842834E+03  0.41111848001E+04 -0.50284148613E+04  0.65000000000E+04  0.15050000000E+03 0.  1.
</event>
<event>
 4    1  0.4760232E-004  0.6500000E+04  0.7818608E-02  0.7223770E-01
         52   -1    0    0    0    0  0.00000000000E+00  0.00000000000E+00  0.64930732323E+04  0.65000000000E+04  0.30000000000E+03 0. -1.
        -52   -1    0    0    0    0 -0.00000000000E+00 -0.00000000000E+00 -0.64930732323E+04  0.65000000000E+04  0.30000000000E+03 0. -1.
     100001    1    1    2    0    0 -0.77910081358E+02 -0.17507343557E+03 -0.64954313992E+04  0.65000000000E+04  0.15050000000E+03 0. -1.
     100001    1    1    2    0    0  0.77910081358E+02  0.17507343557E+03  0.64954313992E+04  0.65000000000E+04  0.15050000000E+03 0. -1.
</event>
<event>
 4    1  0.4630618E-004  0.6500000E+04  0.7818608E-02  0.7223770E-01
         52   -1    0    0    0    0  0.00000000000E+00  0.00000000000E+00  0.64930732323E+04  0.65000000000E+04  0.30000000000E+03 0.  1.
        -52   -1    0    0    0    0 -0.00000000000E+00 -0.00000000000E+00 -0.64930732323E+04  0.65000000000E+04  0.30000000000E+03 0. -1.
     100001    1    1    2    0    0  0.18543419287E+04  0.40670162525E+03 -0.62147694687E+04  0.65000000000E+04  0.15050000000E+03 0. -1.
     100001    1    1    2    0    0 -0.18543419287E+04 -0.40670162525E+03  0.62147694687E+04  0.65000000000E+04  0.15050000000E+03 0.  1.
</event>
<event>
 4    1  0.6203737E-004  0.6500000E+04  0.7818608E-02  0.7223770E-01
         52   -1    0    0    0    0  0.00000000000E+00  0.00000000000E+00  0.64930732323E+04  0.65000000000E+04  0.30000000000E+03 0. -1.
        -52   -1    0    0    0    0 -0.00000000000E+00 -0.00000000000E+00 -0.64930732323E+04  0.65000000000E+04  0.30000000000E+03 0. -1.
     100001    1    1    2    0    0  0.44117929782E+02  0.12924460811E+03 -0.64968222378E+04  0.65000000000E+04  0.15050000000E+03 0. -1.
     100001    1    1    2    0    0 -0.44117929782E+02 -0.12924460811E+03  0.64968222378E+04  0.65000000000E+04  0.15050000000E+03 0. -1.
</event>
<event>
 4    1  0.4630618E-004  0.6500000E+04  0.7818608E-02  0.7223770E-01
         52   -1    0    0    0    0  0.00000000000E+00  0.00000000000E+00  0.64930732323E+04  0.65000000000E+04  0.30000000000E+03 0.  1.
        -52   -1    0    0    0    0 -0.00000000000E+00 -0.00000000000E+00 -0.64930732323E+04  0.65000000000E+04  0.30000000000E+03 0. -1.
     100001    1    1    2    0    0 -0.69075575644E+03 -0.25890122225E+04 -0.59200694208E+04  0.65000000000E+04  0.15050000000E+03 0. -1.
     100001    1    1    2    0    0  0.69075575644E+03  0.25890122225E+04  0.59200694208E+04  0.65000000000E+04  0.15050000000E+03 0.  1.
</event>
<event>
 4    1  0.4630618E-004  0.6500000E+04  0.7818608E-02  0.7223770E-01
         52   -1    0    0    0    0  0.00000000000E+00  0.00000000000E+00  0.64930732323E+04  0.65000000000E+04  0.30000000000E+03 0. -1.
        -52   -1    0    0    0    0 -0.00000000000E+00 -0.00000000000E+00 -0.64930732323E+04  0.65000000000E+04  0.30000000000E+03 0.  1.
     100001    1    1    2    0    0 -0.17446426305E+04  0.19624968095E+04 -0.59440876604E+04  0.65000000000E+04  0.15050000000E+03 0.  1.
     100001    1    1    2    0    0  0.17446426305E+04 -0.19624968095E+04  0.59440876604E+04  0.65000000000E+04  0.15050000000E+03 0. -1.
</event>
<event>
 4    1  0.4630618E-004  0.6500000E+04  0.7818608E-02  0.7223770E-01
         52   -1    0    0    0    0  0.00000000000E+00  0.00000000000E+00  0.64930732323E+04  0.65000000000E+04  0.30000000000E+03 0.  1.
        -52   -1    0    0    0    0 -0.00000000000E+00 -0.00000000000E+00 -0.64930732323E+04  0.65000000000E+04  0.30000000000E+03 0.  1.
     100001    1    1    2    0    0 -0.19982542503E+03 -0.57453404798E+03 -0.64697241191E+04  0.65000000000E+04  0.15050000000E+03 0.  1.
     100001    1    1    2    0    0  0.19982542503E+03  0.57453404798E+03  0.64697241191E+04  0.65000000000E+04  0.15050000000E+03 0.  1.
</event>
<event>
 4    1  0.4630618E-004  0.6500000E+04  0.7818608E-02  0.7223770E-01
         52   -1    0    0    0    0  0.00000000000E+00  0.00000000000E+00  0.64930732323E+04  0.65000000000E+04  0.30000000000E+03 0.  1.
        -52   -1    0    0    0    0 -0.00000000000E+00 -0.00000000000E+00 -0.64930732323E+04  0.65000000000E+04  0.30000000000E+03 0. -1.
     100001    1    1    2    0    0 -0.75332706456E+03 -0.43924421166E+03 -0.64394807715E+04  0.65000000000E+04  0.15050000000E+03 0. -1.
     100001    1    1    2    0    0  0.75332706456E+03  0.43924421166E+03  0.64394807715E+04  0.65000000000E+04  0.15050000000E+03 0.  1.
</event>
<event>
 4    1  0.4630618E-004  0.6500000E+04  0.7818608E-02  0.7223770E-01
         52   -1    0    0    0    0  0.00000000000E+00  0.00000000000E+00  0.64930732323E+04  0.65000000000E+04  0.30000000000E+03 0. -1.
        -52   -1    0    0    0    0 -0.00000000000E+00 -0.00000000000E+00 -0.64930732323E+04  0.65000000000E+04  0.30000000000E+03 0.  1.
     100001    1    1    2    0    0 -0.26280192876E+03  0.33497298581E+03 -0.64842947184E+04  0.65000000000E+04  0.15050000000E+03 0.  1.
     100001    1    1    2    0    0  0.26280192876E+03 -0.33497298581E+03  0.64842947184E+04  0.65000000000E+04  0.15050000000E+03 0. -1.
</event>
<event>
 4    1  0.4630618E-004  0.6500000E+04  0.7818608E-02  0.7223770E-01
         52   -1    0    0    0    0  0.00000000000E+00  0.00000000000E+00  0.64930732323E+04  0.65000000000E+04  0.30000000000E+03 0. -1.
        -52   -1    0    0    0    0 -0.00000000000E+00 -0.00000000000E+00 -0.64930732323E+04  0.65000000000E+04  0.30000000000E+03 0.  1.
     100001    1    1    2    0    0 -0.83493096126E+03 -0.10089794175E+04 -0.63649195262E+04  0.65000000000E+04  0.15050000000E+03 0.  1.
     100001    1    1    2    0    0  0.83493096126E+03  0.10089794175E+04  0.63649195262E+04  0.65000000000E+04  0.15050000000E+03 0. -1.
</event>
<event>
 4    1  0.4630618E-004  0.6500000E+04  0.7818608E-02  0.7223770E-01
         52   -1    0    0    0    0  0.00000000000E+00  0.00000000000E+00  0.64930732323E+04  0.65000000000E+04  0.30000000000E+03 0.  1.
        -52   -1    0    0    0    0 -0.00000000000E+00 -0.00000000000E+00 -0.64930732323E+04  0.65000000000E+04  0.30000000000E+03 0. -1.
     100001    1    1    2    0    0  0.39418298242E+04  0.49523184423E+04  0.14710096645E+04  0.65000000000E+04  0.15050000000E+03 0.  1.
     100001    1    1    2    0    0 -0.39418298242E+04 -0.49523184423E+04 -0.14710096645E+04  0.65000000000E+04  0.15050000000E+03 0. -1.
</event>
<event>
 4    1  0.4630618E-004  0.6500000E+04  0.7818608E-02  0.7223770E-01
         52   -1    0    0    0    0  0.00000000000E+00  0.00000000000E+00  0.64930732323E+04  0.65000000000E+04  0.30000000000E+03 0. -1.
        -52   -1    0    0    0    0 -0.00000000000E+00 -0.00000000000E+00 -0.64930732323E+04  0.65000000000E+04  0.30000000000E+03 0.  1.
     100001    1    1    2    0    0  0.16788107943E+03  0.52206150337E+03 -0.64750766389E+04  0.65000000000E+04  0.15050000000E+03 0.  1.
     100001    1    1    2    0    0 -0.16788107943E+03 -0.52206150337E+03  0.64750766389E+04  0.65000000000E+04  0.15050000000E+03 0. -1.
</event>
<event>
 4    1  0.4630618E-004  0.6500000E+04  0.7818608E-02  0.7223770E-01
         52   -1    0    0    0    0  0.00000000000E+00  0.00000000000E+00  0.64930732323E+04  0.65000000000E+04  0.30000000000E+03 0. -1.
        -52   -1    0    0    0    0 -0.00000000000E+00 -0.00000000000E+00 -0.64930732323E+04  0.65000000000E+04  0.30000000000E+03 0. -1.
     100001    1    1    2    0    0  0.39301687355E+03 -0.59010094913E+03  0.64594634728E+04  0.65000000000E+04  0.15050000000E+03 0. -1.
     100001    1    1    2    0    0 -0.39301687355E+03  0.59010094913E+03 -0.64594634728E+04  0.65000000000E+04  0.15050000000E+03 0. -1.
</event>
<event>
 4    1  0.4630618E-004  0.6500000E+04  0.7818608E-02  0.7223770E-01
         52   -1    0    0    0    0  0.00000000000E+00  0.00000000000E+00  0.64930732323E+04  0.65000000000E+04  0.30000000000E+03 0.  1.
        -52   -1    0    0    0    0 -0.00000000000E+00 -0.00000000000E+00 -0.64930732323E+04  0.65000000000E+04  0.30000000000E+03 0. -1.
     100001    1    1    2    0    0  0.32751796734E+04  0.55969959949E+04  0.41735319556E+03  0.65000000000E+04  0.15050000000E+03 0.  1.
     100001    1    1    2    0    0 -0.32751796734E+04 -0.55969959949E+04 -0.41735319556E+03  0.65000000000E+04  0.15050000000E+03 0. -1.
</event>
<event>
 4    1  0.4630618E-004  0.6500000E+04  0.7818608E-02  0.7223770E-01
         52   -1    0    0    0    0  0.00000000000E+00  0.00000000000E+00  0.64930732323E+04  0.65000000000E+04  0.30000000000E+03 0.  1.
        -52   -1    0    0    0    0 -0.00000000000E+00 -0.00000000000E+00 -0.64930732323E+04  0.65000000000E+04  0.30000000000E+03 0. -1.
     100001    1    1    2    0    0  0.85905416220E+02  0.55872949945E+04 -0.33169420637E+04  0.65000000000E+04  0.15050000000E+03 0. -1.
     100001    1    1    2    0    0 -0.85905416220E+02 -0.55872949945E+04  0.33169420637E+04  0.65000000000E+04  0.15050000000E+03 0.  1.
</event>
<event>
 4    1  0.4630618E-004  0.6500000E+04  0.7818608E-02  0.7223770E-01
         52   -1    0    0    0    0  0.00000000000E+00  0.00000000000E+00  0.64930732323E+04  0.65000000000E+04  0.30000000000E+03 0.  1.
        -52   -1    0    0    0    0 -0.00000000000E+00 -0.00000000000E+00 -0.64930732323E+04  0.65000000000E+04  0.30000000000E+03 0. -1.
     100001    1    1    2    0    0  0.44722078129E+04 -0.43611703784E+03 -0.46943060145E+04  0.65000000000E+04  0.15050000000E+03 0. -1.
     100001    1    1    2    0    0 -0.44722078129E+04  0.43611703784E+03  0.46943060145E+04  0.65000000000E+04  0.15050000000E+03 0.  1.
</event>
<event>
 4    1  0.4630618E-004  0.6500000E+04  0.7818608E-02  0.7223770E-01
         52   -1    0    0    0    0  0.00000000000E+00  0.00000000000E+00  0.64930732323E+04  0.65000000000E+04  0.30000000000E+03 0.  1.
        -52   -1    0    0    0    0 -0.00000000000E+00 -0.00000000000E+00 -0.64930732323E+04  0.65000000000E+04  0.30000000000E+03 0. -1.
     100001    1    1    2    0    0  0.23013951183E+03  0.13893085186E+03 -0.64926946466E+04  0.65000000000E+04  0.15050000000E+03 0. -1.
     100001    1    1    2    0    0 -0.23013951183E+03 -0.13893085186E+03  0.64926946466E+04  0.65000000000E+04  0.15050000000E+03 0.  1.
</event>
<event>
 4    1  0.4630618E-004  0.6500000E+04  0.7818608E-02  0.7223770E-01
         52   -1    0    0    0    0  0.00000000000E+00  0.00000000000E+00  0.64930732323E+04  0.65000000000E+04  0.30000000000E+03 0.  1.
        -52   -1    0    0    0    0 -0.00000000000E+00 -0.00000000000E+00 -0.64930732323E+04  0.65000000000E+04  0.30000000000E+03 0.  1.
     100001    1    1    2    0    0 -0.14589233798E+03 -0.23148202614E+03  0.64924942239E+04  0.65000000000E+04  0.15050000000E+03 0.  1.
     100001    1    1    2    0    0  0.14589233798E+03  0.23148202614E+03 -0.64924942239E+04  0.65000000000E+04  0.15050000000E+03 0.  1.
</event>
<event>
 4    1  0.4630618E-004  0.6500000E+04  0.7818608E-02  0.7223770E-01
         52   -1    0    0    0    0  0.00000000000E+00  0.00000000000E+00  0.64930732323E+04  0.65000000000E+04  0.30000000000E+03 0.  1.
        -52   -1    0    0    0    0 -0.00000000000E+00 -0.00000000000E+00 -0.64930732323E+04  0.65000000000E+04  0.30000000000E+03 0. -1.
     100001    1    1    2    0    0 -0.35167573508E+04 -0.13647160800E+04 -0.52912491442E+04  0.65000000000E+04  0.15050000000E+03 0. -1.
     100001    1    1    2    0    0  0.35167573508E+04  0.13647160800E+04  0.52912491442E+04  0.65000000000E+04  0.15050000000E+03 0.  1.
</event>
<event>
 4    1  0.4630618E-004  0.6500000E+04  0.7818608E-02  0.7223770E-01
         52   -1    0    0    0    0  0.00000000000E+00  0.00000000000E+00  0.64930732323E+04  0.65000000000E+04  0.30000000000E+03 0.  1.
        -52   -1    0    0    0    0 -0.00000000000E+00 -0.00000000000E+00 -0.64930732323E+04  0.65000000000E+04  0.30000000000E+03 0. -1.
     100001    1    1    2    0    0 -0.10093283080E+04  0.36325633102E+03 -0.64091068765E+04  0.65000000000E+04  0.15050000000E+03 0. -1.
     100001    1    1    2    0    0  0.10093283080E+04 -0.36325633102E+03  0.64091068765E+04  0.65000000000E+04  0.15050000000E+03 0.  1.
</event>
<event>
 4    1  0.4630618E-004  0.6500000E+04  0.7818608E-02  0.7223770E-01
         52   -1    0    0    0    0  0.00000000000E+00  0.00000000000E+00  0.64930732323E+04  0.65000000000E+04  0.30000000000E+03 0.  1.
        -52   -1    0    0    0    0 -0.00000000000E+00 -0.00000000000E+00 -0.64930732323E+04  0.65000000000E+04  0.30000000000E+03 0. -1.
     100001    1    1    2    0    0  0.18001189225E+04  0.12840423659E+04 -0.61104956278E+04  0.65000000000E+04  0.15050000000E+03 0. -1.
     100001    1    1    2    0    0 -0.18001189225E+04 -0.12840423659E+04  0.61104956278E+04  0.65000000000E+04  0.15050000000E+03 0.  1.
</event>
<event>
 4    1  0.4630618E-004  0.6500000E+04  0.7818608E-02  0.7223770E-01
         52   -1    0    0    0    0  0.00000000000E+00  0.00000000000E+00  0.64930732323E+04  0.65000000000E+04  0.30000000000E+03 0. -1.
        -52   -1    0    0    0    0 -0.00000000000E+00 -0.00000000000E+00 -0.64930732323E+04  0.65000000000E+04  0.30000000000E+03 0.  1.
     100001    1    1    2    0    0  0.34129314321E+04  0.41281900273E+04  0.36793064413E+04  0.65000000000E+04  0.15050000000E+03 0. -1.
     100001    1    1    2    0    0 -0.34129314321E+04 -0.41281900273E+04 -0.36793064413E+04  0.65000000000E+04  0.15050000000E+03 0.  1.
</event>
<event>
 4    1  0.4999397E-004  0.6500000E+04  0.7818608E-02  0.7223770E-01
         52   -1    0    0    0    0  0.00000000000E+00  0.00000000000E+00  0.64930732323E+04  0.65000000000E+04  0.30000000000E+03 0.  1.
        -52   -1    0    0    0    0 -0.00000000000E+00 -0.00000000000E+00 -0.64930732323E+04  0.65000000000E+04  0.30000000000E+03 0.  1.
     100001    1    1    2    0    0 -0.38947515007E+02 -0.21911878461E+03  0.64944453034E+04  0.65000000000E+04  0.15050000000E+03 0.  1.
     100001    1    1    2    0    0  0.38947515007E+02  0.21911878461E+03 -0.64944453034E+04  0.65000000000E+04  0.15050000000E+03 0.  1.
</event>
<event>
 4    1  0.4712577E-004  0.6500000E+04  0.7818608E-02  0.7223770E-01
         52   -1    0    0    0    0  0.00000000000E+00  0.00000000000E+00  0.64930732323E+04  0.65000000000E+04  0.30000000000E+03 0.  1.
        -52   -1    0    0    0    0 -0.00000000000E+00 -0.00000000000E+00 -0.64930732323E+04  0.65000000000E+04  0.30000000000E+03 0.  1.
     100001    1    1    2    0    0 -0.73570338052E+02 -0.22385893550E+03  0.64939837028E+04  0.65000000000E+04  0.15050000000E+03 0.  1.
     100001    1    1    2    0    0  0.73570338052E+02  0.22385893550E+03 -0.64939837028E+04  0.65000000000E+04  0.15050000000E+03 0.  1.
</event>
<event>
 4    1  0.7231610E-004  0.6500000E+04  0.7818608E-02  0.7223770E-01
         52   -1    0    0    0    0  0.00000000000E+00  0.00000000000E+00  0.64930732323E+04  0.65000000000E+04  0.30000000000E+03 0.  1.
        -52   -1    0    0    0    0 -0.00000000000E+00 -0.00000000000E+00 -0.64930732323E+04  0.65000000000E+04  0.30000000000E+03 0.  1.
     100001    1    1    2    0    0  0.11927845034E+03 -0.18455844916E+02 -0.64971364295E+04  0.65000000000E+04  0.15050000000E+03 0.  1.
     100001    1    1    2    0    0 -0.11927845034E+03  0.18455844916E+02  0.64971364295E+04  0.65000000000E+04  0.15050000000E+03 0.  1.
</event>
<event>
 4    1  0.4630618E-004  0.6500000E+04  0.7818608E-02  0.7223770E-01
         52   -1    0    0    0    0  0.00000000000E+00  0.00000000000E+00  0.64930732323E+04  0.65000000000E+04  0.30000000000E+03 0. -1.
        -52   -1    0    0    0    0 -0.00000000000E+00 -0.00000000000E+00 -0.64930732323E+04  0.65000000000E+04  0.30000000000E+03 0.  1.
     100001    1    1    2    0    0  0.20758893977E+04 -0.31919774541E+04 -0.52658629768E+04  0.65000000000E+04  0.15050000000E+03 0.  1.
     100001    1    1    2    0    0 -0.20758893977E+04  0.31919774541E+04  0.52658629768E+04  0.65000000000E+04  0.15050000000E+03 0. -1.
</event>
<event>
 4    1  0.4630618E-004  0.6500000E+04  0.7818608E-02  0.7223770E-01
         52   -1    0    0    0    0  0.00000000000E+00  0.00000000000E+00  0.64930732323E+04  0.65000000000E+04  0.30000000000E+03 0.  1.
        -52   -1    0    0    0    0 -0.00000000000E+00 -0.00000000000E+00 -0.64930732323E+04  0.65000000000E+04  0.30000000000E+03 0. -1.
     100001    1    1    2    0    0 -0.63166961747E+03  0.11623009174E+04  0.63621851452E+04  0.65000000000E+04  0.15050000000E+03 0.  1.
     100001    1    1    2    0    0  0.63166961747E+03 -0.11623009174E+04 -0.63621851452E+04  0.65000000000E+04  0.15050000000E+03 0. -1.
</event>
<event>
 4    1  0.4630618E-004  0.6500000E+04  0.7818608E-02  0.7223770E-01
         52   -1    0    0    0    0  0.00000000000E+00  0.00000000000E+00  0.64930732323E+04  0.65000000000E+04  0.30000000000E+03 0.  1.
        -52   -1    0    0    0    0 -0.00000000000E+00 -0.00000000000E+00 -0.64930732323E+04  0.65000000000E+04  0.30000000000E+03 0. -1.
     100001    1    1    2    0    0  0.99040589651E+02  0.65402484146E+03  0.64645024726E+04  0.65000000000E+04  0.15050000000E+03 0.  1.
     100001    1    1    2    0    0 -0.99040589651E+02 -0.65402484146E+03 -0.64645024726E+04  0.65000000000E+04  0.15050000000E+03 0. -1.
</event>
<event>
 4    1  0.4630618E-004  0.6500000E+04  0.7818608E-02  0.7223770E-01
         52   -1    0    0    0    0  0.00000000000E+00  0.00000000000E+00  0.64930732323E+04  0.65000000000E+04  0.30000000000E+03 0. -1.
        -52   -1    0    0    0    0 -0.00000000000E+00 -0.00000000000E+00 -0.64930732323E+04  0.65000000000E+04  0.30000000000E+03 0. -1.
     100001    1    1    2    0    0 -0.23464257780E+03 -0.74571611661E+03 -0.64510619346E+04  0.65000000000E+04  0.15050000000E+03 0. -1.
     100001    1    1    2    0    0  0.23464257780E+03  0.74571611661E+03  0.64510619346E+04  0.65000000000E+04  0.15050000000E+03 0. -1.
</event>
<event>
 4    1  0.4630618E-004  0.6500000E+04  0.7818608E-02  0.7223770E-01
         52   -1    0    0    0    0  0.00000000000E+00  0.00000000000E+00  0.64930732323E+04  0.65000000000E+04  0.30000000000E+03 0.  1.
        -52   -1    0    0    0    0 -0.00000000000E+00 -0.00000000000E+00 -0.64930732323E+04  0.65000000000E+04  0.30000000000E+03 0. -1.
     100001    1    1    2    0    0 -0.14893200484E+04 -0.12292769626E+04 -0.62046880415E+04  0.65000000000E+04  0.15050000000E+03 0. -1.
     100001    1    1    2    0    0  0.14893200484E+04  0.12292769626E+04  0.62046880415E+04  0.65000000000E+04  0.15050000000E+03 0.  1.
</event>
<event>
 4    1  0.4630618E-004  0.6500000E+04  0.7818608E-02  0.7223770E-01
         52   -1    0    0    0    0  0.00000000000E+00  0.00000000000E+00  0.64930732323E+04  0.65000000000E+04  0.30000000000E+03 0. -1.
        -52   -1    0    0    0    0 -0.00000000000E+00 -0.00000000000E+00 -0.64930732323E+04  0.65000000000E+04  0.30000000000E+03 0.  1.
     100001    1    1    2    0    0  0.27479583341E+04 -0.58426396940E+04 -0.73459931303E+03  0.65000000000E+04  0.15050000000E+03 0. -1.
     100001    1    1    2    0    0 -0.27479583341E+04  0.58426396940E+04  0.73459931303E+03  0.65000000000E+04  0.15050000000E+03 0.  1.
</event>
<event>
 4    1  0.4630618E-004  0.6500000E+04  0.7818608E-02  0.7223770E-01
         52   -1    0    0    0    0  0.00000000000E+00  0.00000000000E+00  0.64930732323E+04  0.65000000000E+04  0.30000000000E+03 0.  1.
        -52   -1    0    0    0    0 -0.00000000000E+00 -0.00000000000E+00 -0.64930732323E+04  0.65000000000E+04  0.30000000000E+03 0. -1.
     100001    1    1    2    0    0  0.25268007942E+03  0.47437221489E+03 -0.64759920884E+04  0.65000000000E+04  0.15050000000E+03 0. -1.
     100001    1    1    2    0    0 -0.25268007942E+03 -0.47437221489E+03  0.64759920884E+04  0.65000000000E+04  0.15050000000E+03 0.  1.
</event>
<event>
 4    1  0.4630618E-004  0.6500000E+04  0.7818608E-02  0.7223770E-01
         52   -1    0    0    0    0  0.00000000000E+00  0.00000000000E+00  0.64930732323E+04  0.65000000000E+04  0.30000000000E+03 0. -1.
        -52   -1    0    0    0    0 -0.00000000000E+00 -0.00000000000E+00 -0.64930732323E+04  0.65000000000E+04  0.30000000000E+03 0.  1.
     100001    1    1    2    0    0 -0.33970134752E+03  0.31626160187E+03 -0.64816611562E+04  0.65000000000E+04  0.15050000000E+03 0.  1.
     100001    1    1    2    0    0  0.33970134752E+03 -0.31626160187E+03  0.64816611562E+04  0.65000000000E+04  0.15050000000E+03 0. -1.
</event>
<event>
 4    1  0.4630618E-004  0.6500000E+04  0.7818608E-02  0.7223770E-01
         52   -1    0    0    0    0  0.00000000000E+00  0.00000000000E+00  0.64930732323E+04  0.65000000000E+04  0.30000000000E+03 0. -1.
        -52   -1    0    0    0    0 -0.00000000000E+00 -0.00000000000E+00 -0.64930732323E+04  0.65000000000E+04  0.30000000000E+03 0.  1.
     100001    1    1    2    0    0 -0.62577864831E+04 -0.80953614115E+03  0.15530966866E+04  0.65000000000E+04  0.15050000000E+03 0.  1.
     100001    1    1    2    0    0  0.62577864831E+04  0.80953614115E+03 -0.15530966866E+04  0.65000000000E+04  0.15050000000E+03 0. -1.
</event>
<event>
 4    1  0.4630618E-004  0.6500000E+04  0.7818608E-02  0.7223770E-01
         52   -1    0    0    0    0  0.00000000000E+00  0.00000000000E+00  0.64930732323E+04  0.65000000000E+04  0.30000000000E+03 0.  1.
        -52   -1    0    0    0    0 -0.00000000000E+00 -0.00000000000E+00 -0.64930732323E+04  0.65000000000E+04  0.30000000000E+03 0. -1.
     100001    1    1    2    0    0  0.14698162706E+04 -0.15429468118E+03 -0.63279683179E+04  0.65000000000E+04  0.15050000000E+03 0. -1.
     100001    1    1    2    0    0 -0.14698162706E+04  0.15429468118E+03  0.63279683179E+04  0.65000000000E+04  0.15050000000E+03 0.  1.
</event>
<event>
 4    1  0.4630618E-004  0.6500000E+04  0.7818608E-02  0.7223770E-01
         52   -1    0    0    0    0  0.00000000000E+00  0.00000000000E+00  0.64930732323E+04  0.65000000000E+04  0.30000000000E+03 0. -1.
        -52   -1    0    0    0    0 -0.00000000000E+00 -0.00000000000E+00 -0.64930732323E+04  0.65000000000E+04  0.30000000000E+03 0.  1.
     100001    1    1    2    0    0  0.62164197173E+04  0.80374280950E+03 -0.17139058155E+04  0.65000000000E+04  0.15050000000E+03 0.  1.
     100001    1    1    2    0    0 -0.62164197173E+04 -0.80374280950E+03  0.17139058155E+04  0.65000000000E+04  0.15050000000E+03 0. -1.
</event>
<event>
 4    1  0.4630618E-004  0.6500000E+04  0.7818608E-02  0.7223770E-01
         52   -1    0    0    0    0  0.00000000000E+00  0.00000000000E+00  0.64930732323E+04  0.65000000000E+04  0.30000000000E+03 0.  1.
        -52   -1    0    0    0    0 -0.00000000000E+00 -0.00000000000E+00 -0.64930732323E+04  0.65000000000E+04  0.30000000000E+03 0. -1.
     100001    1    1    2    0    0 -0.10034093691E+04 -0.52189063232E+04  0.37394566688E+04  0.65000000000E+04  0.15050000000E+03 0.  1.
     100001    1    1    2    0    0  0.10034093691E+04  0.52189063232E+04 -0.37394566688E+04  0.65000000000E+04  0.15050000000E+03 0. -1.
</event>
<event>
 4    1  0.4630618E-004  0.6500000E+04  0.7818608E-02  0.7223770E-01
         52   -1    0    0    0    0  0.00000000000E+00  0.00000000000E+00  0.64930732323E+04  0.65000000000E+04  0.30000000000E+03 0.  1.
        -52   -1    0    0    0    0 -0.00000000000E+00 -0.00000000000E+00 -0.64930732323E+04  0.65000000000E+04  0.30000000000E+03 0. -1.
     100001    1    1    2    0    0  0.48793771463E+03  0.88919730691E+03 -0.64186131435E+04  0.65000000000E+04  0.15050000000E+03 0. -1.
     100001    1    1    2    0    0 -0.48793771463E+03 -0.88919730691E+03  0.64186131435E+04  0.65000000000E+04  0.15050000000E+03 0.  1.
</event>
<event>
 4    1  0.4630618E-004  0.6500000E+04  0.7818608E-02  0.7223770E-01
         52   -1    0    0    0    0  0.00000000000E+00  0.00000000000E+00  0.64930732323E+04  0.65000000000E+04  0.30000000000E+03 0. -1.
        -52   -1    0    0    0    0 -0.00000000000E+00 -0.00000000000E+00 -0.64930732323E+04  0.65000000000E+04  0.30000000000E+03 0.  1.
     100001    1    1    2    0    0  0.50620085556E+03  0.39371083003E+03 -0.64665371124E+04  0.65000000000E+04  0.15050000000E+03 0.  1.
     100001    1    1    2    0    0 -0.50620085556E+03 -0.39371083003E+03  0.64665371124E+04  0.65000000000E+04  0.15050000000E+03 0. -1.
</event>
<event>
 4    1  0.4630618E-004  0.6500000E+04  0.7818608E-02  0.7223770E-01
         52   -1    0    0    0    0  0.00000000000E+00  0.00000000000E+00  0.64930732323E+04  0.65000000000E+04  0.30000000000E+03 0.  1.
        -52   -1    0    0    0    0 -0.00000000000E+00 -0.00000000000E+00 -0.64930732323E+04  0.65000000000E+04  0.30000000000E+03 0.  1.
     100001    1    1    2    0    0 -0.80981599443E+02  0.89670396868E+02  0.64971340567E+04  0.65000000000E+04  0.15050000000E+03 0.  1.
     100001    1    1    2    0    0  0.80981599443E+02 -0.89670396868E+02 -0.64971340567E+04  0.65000000000E+04  0.15050000000E+03 0.  1.
</event>
<event>
 4    1  0.4630618E-004  0.6500000E+04  0.7818608E-02  0.7223770E-01
         52   -1    0    0    0    0  0.00000000000E+00  0.00000000000E+00  0.64930732323E+04  0.65000000000E+04  0.30000000000E+03 0. -1.
        -52   -1    0    0    0    0 -0.00000000000E+00 -0.00000000000E+00 -0.64930732323E+04  0.65000000000E+04  0.30000000000E+03 0.  1.
     100001    1    1    2    0    0 -0.12681915849E+04 -0.57334572890E+03  0.63474652050E+04  0.65000000000E+04  0.15050000000E+03 0. -1.
     100001    1    1    2    0    0  0.12681915849E+04  0.57334572890E+03 -0.63474652050E+04  0.65000000000E+04  0.15050000000E+03 0.  1.
</event>
<event>
 4    1  0.7124373E-004  0.6500000E+04  0.7818608E-02  0.7223770E-01
         52   -1    0    0    0    0  0.00000000000E+00  0.00000000000E+00  0.64930732323E+04  0.65000000000E+04  0.30000000000E+03 0. -1.
        -52   -1    0    0    0    0 -0.00000000000E+00 -0.00000000000E+00 -0.64930732323E+04  0.65000000000E+04  0.30000000000E+03 0. -1.
     100001    1    1    2    0    0  0.41218408775E+02  0.68660082557E+01 -0.64981230868E+04  0.65000000000E+04  0.15050000000E+03 0. -1.
     100001    1    1    2    0    0 -0.41218408775E+02 -0.68660082557E+01  0.64981230868E+04  0.65000000000E+04  0.15050000000E+03 0. -1.
</event>
<event>
 4    1  0.4630618E-004  0.6500000E+04  0.7818608E-02  0.7223770E-01
         52   -1    0    0    0    0  0.00000000000E+00  0.00000000000E+00  0.64930732323E+04  0.65000000000E+04  0.30000000000E+03 0. -1.
        -52   -1    0    0    0    0 -0.00000000000E+00 -0.00000000000E+00 -0.64930732323E+04  0.65000000000E+04  0.30000000000E+03 0. -1.
     100001    1    1    2    0    0  0.19283644614E+04 -0.32054586311E+03  0.61972583134E+04  0.65000000000E+04  0.15050000000E+03 0. -1.
     100001    1    1    2    0    0 -0.19283644614E+04  0.32054586311E+03 -0.61972583134E+04  0.65000000000E+04  0.15050000000E+03 0. -1.
</event>
<event>
 4    1  0.4630618E-004  0.6500000E+04  0.7818608E-02  0.7223770E-01
         52   -1    0    0    0    0  0.00000000000E+00  0.00000000000E+00  0.64930732323E+04  0.65000000000E+04  0.30000000000E+03 0. -1.
        -52   -1    0    0    0    0 -0.00000000000E+00 -0.00000000000E+00 -0.64930732323E+04  0.65000000000E+04  0.30000000000E+03 0.  1.
     100001    1    1    2    0    0  0.31891619228E+04 -0.38391232201E+04 -0.41614575429E+04  0.65000000000E+04  0.15050000000E+03 0.  1.
     100001    1    1    2    0    0 -0.31891619228E+04  0.38391232201E+04  0.41614575429E+04  0.65000000000E+04  0.15050000000E+03 0. -1.
</event>
<event>
 4    1  0.4630618E-004  0.6500000E+04  0.7818608E-02  0.7223770E-01
         52   -1    0    0    0    0  0.00000000000E+00  0.00000000000E+00  0.64930732323E+04  0.65000000000E+04  0.30000000000E+03 0. -1.
        -52   -1    0    0    0    0 -0.00000000000E+00 -0.00000000000E+00 -0.64930732323E+04  0.65000000000E+04  0.30000000000E+03 0.  1.
     100001    1    1    2    0    0  0.12922195438E+04 -0.19454819464E+04 -0.60640430735E+04  0.65000000000E+04  0.15050000000E+03 0.  1.
     100001    1    1    2    0    0 -0.12922195438E+04  0.19454819464E+04  0.60640430735E+04  0.65000000000E+04  0.15050000000E+03 0. -1.
</event>
<event>
 4    1  0.7290352E-004  0.6500000E+04  0.7818608E-02  0.7223770E-01
         52   -1    0    0    0    0  0.00000000000E+00  0.00000000000E+00  0.64930732323E+04  0.65000000000E+04  0.30000000000E+03 0.  1.
        -52   -1    0    0    0    0 -0.00000000000E+00 -0.00000000000E+00 -0.64930732323E+04  0.65000000000E+04  0.30000000000E+03 0.  1.
     100001    1    1    2    0    0 -0.38037517174E+02 -0.17508418645E+02  0.64981225252E+04  0.65000000000E+04  0.15050000000E+03 0.  1.
     100001    1    1    2    0    0  0.38037517174E+02  0.17508418645E+02 -0.64981225252E+04  0.65000000000E+04  0.15050000000E+03 0.  1.
</event>
<event>
 4    1  0.4630618E-004  0.6500000E+04  0.7818608E-02  0.7223770E-01
         52   -1    0    0    0    0  0.00000000000E+00  0.00000000000E+00  0.64930732323E+04  0.65000000000E+04  0.30000000000E+03 0. -1.
        -52   -1    0    0    0    0 -0.00000000000E+00 -0.00000000000E+00 -0.64930732323E+04  0.65000000000E+04  0.30000000000E+03 0.  1.
     100001    1    1    2    0    0  0.44150586722E+03 -0.11009438474E+03  0.64823068074E+04  0.65000000000E+04  0.15050000000E+03 0. -1.
     100001    1    1    2    0    0 -0.44150586722E+03  0.11009438474E+03 -0.64823068074E+04  0.65000000000E+04  0.15050000000E+03 0.  1.
</event>
<event>
 4    1  0.4630618E-004  0.6500000E+04  0.7818608E-02  0.7223770E-01
         52   -1    0    0    0    0  0.00000000000E+00  0.00000000000E+00  0.64930732323E+04  0.65000000000E+04  0.30000000000E+03 0.  1.
        -52   -1    0    0    0    0 -0.00000000000E+00 -0.00000000000E+00 -0.64930732323E+04  0.65000000000E+04  0.30000000000E+03 0. -1.
     100001    1    1    2    0    0 -0.38872376338E+04  0.14354588739E+04 -0.50056159611E+04  0.65000000000E+04  0.15050000000E+03 0. -1.
     100001    1    1    2    0    0  0.38872376338E+04 -0.14354588739E+04  0.50056159611E+04  0.65000000000E+04  0.15050000000E+03 0.  1.
</event>
<event>
 4    1  0.4630618E-004  0.6500000E+04  0.7818608E-02  0.7223770E-01
         52   -1    0    0    0    0  0.00000000000E+00  0.00000000000E+00  0.64930732323E+04  0.65000000000E+04  0.30000000000E+03 0. -1.
        -52   -1    0    0    0    0 -0.00000000000E+00 -0.00000000000E+00 -0.64930732323E+04  0.65000000000E+04  0.30000000000E+03 0. -1.
     100001    1    1    2    0    0 -0.44613710139E+03 -0.17482364431E+03 -0.64805669605E+04  0.65000000000E+04  0.15050000000E+03 0. -1.
     100001    1    1    2    0    0  0.44613710139E+03  0.17482364431E+03  0.64805669605E+04  0.65000000000E+04  0.15050000000E+03 0. -1.
</event>
<event>
 4    1  0.4630618E-004  0.6500000E+04  0.7818608E-02  0.7223770E-01
         52   -1    0    0    0    0  0.00000000000E+00  0.00000000000E+00  0.64930732323E+04  0.65000000000E+04  0.30000000000E+03 0.  1.
        -52   -1    0    0    0    0 -0.00000000000E+00 -0.00000000000E+00 -0.64930732323E+04  0.65000000000E+04  0.30000000000E+03 0. -1.
     100001    1    1    2    0    0 -0.75662876604E+03  0.22141834788E+04 -0.60623637455E+04  0.65000000000E+04  0.15050000000E+03 0. -1.
     100001    1    1    2    0    0  0.75662876604E+03 -0.22141834788E+04  0.60623637455E+04  0.65000000000E+04  0.15050000000E+03 0.  1.
</event>
<event>
 4    1  0.4630618E-004  0.6500000E+04  0.7818608E-02  0.7223770E-01
         52   -1    0    0    0    0  0.00000000000E+00  0.00000000000E+00  0.64930732323E+04  0.65000000000E+04  0.30000000000E+03 0.  1.
        -52   -1    0    0    0    0 -0.00000000000E+00 -0.00000000000E+00 -0.64930732323E+04  0.65000000000E+04  0.30000000000E+03 0.  1.
     100001    1    1    2    0    0 -0.28854413470E+03  0.11680183006E+03  0.64907972827E+04  0.65000000000E+04  0.15050000000E+03 0.  1.
     100001    1    1    2    0    0  0.28854413470E+03 -0.11680183006E+03 -0.64907972827E+04  0.65000000000E+04  0.15050000000E+03 0.  1.
</event>
<event>
 4    1  0.4630618E-004  0.6500000E+04  0.7818608E-02  0.7223770E-01
         52   -1    0    0    0    0  0.00000000000E+00  0.00000000000E+00  0.64930732323E+04  0.65000000000E+04  0.30000000000E+03 0. -1.
        -52   -1    0    0    0    0 -0.00000000000E+00 -0.00000000000E+00 -0.64930732323E+04  0.65000000000E+04  0.30000000000E+03 0.  1.
     100001    1    1    2    0    0 -0.35296217519E+04 -0.27892550435E+04  0.46892618119E+04  0.65000000000E+04  0.15050000000E+03 0. -1.
     100001    1    1    2    0    0  0.35296217519E+04  0.27892550435E+04 -0.46892618119E+04  0.65000000000E+04  0.15050000000E+03 0.  1.
</event>
<event>
 4    1  0.4630618E-004  0.6500000E+04  0.7818608E-02  0.7223770E-01
         52   -1    0    0    0    0  0.00000000000E+00  0.00000000000E+00  0.64930732323E+04  0.65000000000E+04  0.30000000000E+03 0. -1.
        -52   -1    0    0    0    0 -0.00000000000E+00 -0.00000000000E+00 -0.64930732323E+04  0.65000000000E+04  0.30000000000E+03 0.  1.
     100001    1    1    2    0    0  0.46286072007E+04  0.11201254086E+04  0.44213871353E+04  0.65000000000E+04  0.15050000000E+03 0. -1.
     100001    1    1    2    0    0 -0.46286072007E+04 -0.11201254086E+04 -0.44213871353E+04  0.65000000000E+04  0.15050000000E+03 0.  1.
</event>
<event>
 4    1  0.4630618E-004  0.6500000E+04  0.7818608E-02  0.7223770E-01
         52   -1    0    0    0    0  0.00000000000E+00  0.00000000000E+00  0.64930732323E+04  0.65000000000E+04  0.30000000000E+03 0.  1.
        -52   -1    0    0    0    0 -0.00000000000E+00 -0.00000000000E+00 -0.64930732323E+04  0.65000000000E+04  0.30000000000E+03 0. -1.
     100001    1    1    2    0    0  0.11224330990E+04  0.68801816410E+03  0.63634994063E+04  0.65000000000E+04  0.15050000000E+03 0.  1.
     100001    1    1    2    0    0 -0.11224330990E+04 -0.68801816410E+03 -0.63634994063E+04  0.65000000000E+04  0.15050000000E+03 0. -1.
</event>
<event>
 4    1  0.4630618E-004  0.6500000E+04  0.7818608E-02  0.7223770E-01
         52   -1    0    0    0    0  0.00000000000E+00  0.00000000000E+00  0.64930732323E+04  0.65000000000E+04  0.30000000000E+03 0. -1.
        -52   -1    0    0    0    0 -0.00000000000E+00 -0.00000000000E+00 -0.64930732323E+04  0.65000000000E+04  0.30000000000E+03 0.  1.
     100001    1    1    2    0    0  0.44696383102E+04 -0.43918765057E+04  0.17207858334E+04  0.65000000000E+04  0.15050000000E+03 0. -1.
     100001    1    1    2    0    0 -0.44696383102E+04  0.43918765057E+04 -0.17207858334E+04  0.65000000000E+04  0.15050000000E+03 0.  1.
</event>
<event>
 4    1  0.4630618E-004  0.6500000E+04  0.7818608E-02  0.7223770E-01
         52   -1    0    0    0    0  0.00000000000E+00  0.00000000000E+00  0.64930732323E+04  0.65000000000E+04  0.30000000000E+03 0.  1.
        -52   -1    0    0    0    0 -0.00000000000E+00 -0.00000000000E+00 -0.64930732323E+04  0.65000000000E+04  0.30000000000E+03 0. -1.
     100001    1    1    2    0    0 -0.13523654340E+03 -0.17622197405E+03  0.64944596883E+04  0.65000000000E+04  0.15050000000E+03 0.  1.
     100001    1    1    2    0    0  0.13523654340E+03  0.17622197405E+03 -0.64944596883E+04  0.65000000000E+04  0.15050000000E+03 0. -1.
</event>
<event>
 4    1  0.4630618E-004  0.6500000E+04  0.7818608E-02  0.7223770E-01
         52   -1    0    0    0    0  0.00000000000E+00  0.00000000000E+00  0.64930732323E+04  0.65000000000E+04  0.30000000000E+03 0. -1.
        -52   -1    0    0    0    0 -0.00000000000E+00 -0.00000000000E+00 -0.64930732323E+04  0.65000000000E+04  0.30000000000E+03 0.  1.
     100001    1    1    2    0    0  0.11981747288E+04  0.18124115682E+04  0.61242870097E+04  0.65000000000E+04  0.15050000000E+03 0. -1.
     100001    1    1    2    0    0 -0.11981747288E+04 -0.18124115682E+04 -0.61242870097E+04  0.65000000000E+04  0.15050000000E+03 0.  1.
</event>
<event>
 4    1  0.4630618E-004  0.6500000E+04  0.7818608E-02  0.7223770E-01
         52   -1    0    0    0    0  0.00000000000E+00  0.00000000000E+00  0.64930732323E+04  0.65000000000E+04  0.30000000000E+03 0.  1.
        -52   -1    0    0    0    0 -0.00000000000E+00 -0.00000000000E+00 -0.64930732323E+04  0.65000000000E+04  0.30000000000E+03 0. -1.
     100001    1    1    2    0    0 -0.10465864763E+04  0.11513953794E+04  0.63092230249E+04  0.65000000000E+04  0.15050000000E+03 0.  1.
     100001    1    1    2    0    0  0.10465864763E+04 -0.11513953794E+04 -0.63092230249E+04  0.65000000000E+04  0.15050000000E+03 0. -1.
</event>
<event>
 4    1  0.4630618E-004  0.6500000E+04  0.7818608E-02  0.7223770E-01
         52   -1    0    0    0    0  0.00000000000E+00  0.00000000000E+00  0.64930732323E+04  0.65000000000E+04  0.30000000000E+03 0. -1.
        -52   -1    0    0    0    0 -0.00000000000E+00 -0.00000000000E+00 -0.64930732323E+04  0.65000000000E+04  0.30000000000E+03 0.  1.
     100001    1    1    2    0    0  0.31602084140E+01 -0.51559094202E+03  0.64777701212E+04  0.65000000000E+04  0.15050000000E+03 0. -1.
     100001    1    1    2    0    0 -0.31602084140E+01  0.51559094202E+03 -0.64777701212E+04  0.65000000000E+04  0.15050000000E+03 0.  1.
</event>
<event>
 4    1  0.4630618E-004  0.6500000E+04  0.7818608E-02  0.7223770E-01
         52   -1    0    0    0    0  0.00000000000E+00  0.00000000000E+00  0.64930732323E+04  0.65000000000E+04  0.30000000000E+03 0. -1.
        -52   -1    0    0    0    0 -0.00000000000E+00 -0.00000000000E+00 -0.64930732323E+04  0.65000000000E+04  0.30000000000E+03 0. -1.
     100001    1    1    2    0    0  0.38394147877E+03  0.40783657277E+03  0.64740719814E+04  0.65000000000E+04  0.15050000000E+03 0. -1.
     100001    1    1    2    0    0 -0.38394147877E+03 -0.40783657277E+03 -0.64740719814E+04  0.65000000000E+04  0.15050000000E+03 0. -1.
</event>
<event>
 4    1  0.4630618E-004  0.6500000E+04  0.7818608E-02  0.7223770E-01
         52   -1    0    0    0    0  0.00000000000E+00  0.00000000000E+00  0.64930732323E+04  0.65000000000E+04  0.30000000000E+03 0. -1.
        -52   -1    0    0    0    0 -0.00000000000E+00 -0.00000000000E+00 -0.64930732323E+04  0.65000000000E+04  0.30000000000E+03 0. -1.
     100001    1    1    2    0    0 -0.21094126357E+03  0.31837937032E+03  0.64870245961E+04  0.65000000000E+04  0.15050000000E+03 0. -1.
     100001    1    1    2    0    0  0.21094126357E+03 -0.31837937032E+03 -0.64870245961E+04  0.65000000000E+04  0.15050000000E+03 0. -1.
</event>
<event>
 4    1  0.4630618E-004  0.6500000E+04  0.7818608E-02  0.7223770E-01
         52   -1    0    0    0    0  0.00000000000E+00  0.00000000000E+00  0.64930732323E+04  0.65000000000E+04  0.30000000000E+03 0.  1.
        -52   -1    0    0    0    0 -0.00000000000E+00 -0.00000000000E+00 -0.64930732323E+04  0.65000000000E+04  0.30000000000E+03 0. -1.
     100001    1    1    2    0    0  0.28643413958E+04  0.18411288033E+04  0.55347215691E+04  0.65000000000E+04  0.15050000000E+03 0.  1.
     100001    1    1    2    0    0 -0.28643413958E+04 -0.18411288033E+04 -0.55347215691E+04  0.65000000000E+04  0.15050000000E+03 0. -1.
</event>
<event>
 4    1  0.4630618E-004  0.6500000E+04  0.7818608E-02  0.7223770E-01
         52   -1    0    0    0    0  0.00000000000E+00  0.00000000000E+00  0.64930732323E+04  0.65000000000E+04  0.30000000000E+03 0. -1.
        -52   -1    0    0    0    0 -0.00000000000E+00 -0.00000000000E+00 -0.64930732323E+04  0.65000000000E+04  0.30000000000E+03 0.  1.
     100001    1    1    2    0    0  0.46194053138E+03 -0.17899608620E+04 -0.62297673157E+04  0.65000000000E+04  0.15050000000E+03 0.  1.
     100001    1    1    2    0    0 -0.46194053138E+03  0.17899608620E+04  0.62297673157E+04  0.65000000000E+04  0.15050000000E+03 0. -1.
</event>
<event>
 4    1  0.4630618E-004  0.6500000E+04  0.7818608E-02  0.7223770E-01
         52   -1    0    0    0    0  0.00000000000E+00  0.00000000000E+00  0.64930732323E+04  0.65000000000E+04  0.30000000000E+03 0.  1.
        -52   -1    0    0    0    0 -0.00000000000E+00 -0.00000000000E+00 -0.64930732323E+04  0.65000000000E+04  0.30000000000E+03 0. -1.
     100001    1    1    2    0    0  0.24637891400E+04  0.55032658515E+04 -0.24230472119E+04  0.65000000000E+04  0.15050000000E+03 0. -1.
     100001    1    1    2    0    0 -0.24637891400E+04 -0.55032658515E+04  0.24230472119E+04  0.65000000000E+04  0.15050000000E+03 0.  1.
</event>
<event>
 4    1  0.4630618E-004  0.6500000E+04  0.7818608E-02  0.7223770E-01
         52   -1    0    0    0    0  0.00000000000E+00  0.00000000000E+00  0.64930732323E+04  0.65000000000E+04  0.30000000000E+03 0.  1.
        -52   -1    0    0    0    0 -0.00000000000E+00 -0.00000000000E+00 -0.64930732323E+04  0.65000000000E+04  0.30000000000E+03 0. -1.
     100001    1    1    2    0    0  0.37829209951E+03  0.22067890499E+04 -0.61003546558E+04  0.65000000000E+04  0.15050000000E+03 0. -1.
     100001    1    1    2    0    0 -0.37829209951E+03 -0.22067890499E+04  0.61003546558E+04  0.65000000000E+04  0.15050000000E+03 0.  1.
</event>
<event>
 4    1  0.4630618E-004  0.6500000E+04  0.7818608E-02  0.7223770E-01
         52   -1    0    0    0    0  0.00000000000E+00  0.00000000000E+00  0.64930732323E+04  0.65000000000E+04  0.30000000000E+03 0.  1.
        -52   -1    0    0    0    0 -0.00000000000E+00 -0.00000000000E+00 -0.64930732323E+04  0.65000000000E+04  0.30000000000E+03 0. -1.
     100001    1    1    2    0    0  0.16588733354E+03  0.19089980036E+04  0.62093121813E+04  0.65000000000E+04  0.15050000000E+03 0.  1.
     100001    1    1    2    0    0 -0.16588733354E+03 -0.19089980036E+04 -0.62093121813E+04  0.65000000000E+04  0.15050000000E+03 0. -1.
</event>
<event>
 4    1  0.4630618E-004  0.6500000E+04  0.7818608E-02  0.7223770E-01
         52   -1    0    0    0    0  0.00000000000E+00  0.00000000000E+00  0.64930732323E+04  0.65000000000E+04  0.30000000000E+03 0.  1.
        -52   -1    0    0    0    0 -0.00000000000E+00 -0.00000000000E+00 -0.64930732323E+04  0.65000000000E+04  0.30000000000E+03 0.  1.
     100001    1    1    2    0    0 -0.80089067285E+02 -0.40303801107E+03  0.64852521811E+04  0.65000000000E+04  0.15050000000E+03 0.  1.
     100001    1    1    2    0    0  0.80089067285E+02  0.40303801107E+03 -0.64852521811E+04  0.65000000000E+04  0.15050000000E+03 0.  1.
</event>
<event>
 4    1  0.4630618E-004  0.6500000E+04  0.7818608E-02  0.7223770E-01
         52   -1    0    0    0    0  0.00000000000E+00  0.00000000000E+00  0.64930732323E+04  0.65000000000E+04  0.30000000000E+03 0.  1.
        -52   -1    0    0    0    0 -0.00000000000E+00 -0.00000000000E+00 -0.64930732323E+04  0.65000000000E+04  0.30000000000E+03 0. -1.
     100001    1    1    2    0    0 -0.53719923014E+03  0.19776006133E+03  0.64729944921E+04  0.65000000000E+04  0.15050000000E+03 0.  1.
     100001    1    1    2    0    0  0.53719923014E+03 -0.19776006133E+03 -0.64729944921E+04  0.65000000000E+04  0.15050000000E+03 0. -1.
</event>
<event>
 4    1  0.4630618E-004  0.6500000E+04  0.7818608E-02  0.7223770E-01
         52   -1    0    0    0    0  0.00000000000E+00  0.00000000000E+00  0.64930732323E+04  0.65000000000E+04  0.30000000000E+03 0.  1.
        -52   -1    0    0    0    0 -0.00000000000E+00 -0.00000000000E+00 -0.64930732323E+04  0.65000000000E+04  0.30000000000E+03 0. -1.
     100001    1    1    2    0    0 -0.21791898602E+04 -0.48389551687E+04 -0.37500658898E+04  0.65000000000E+04  0.15050000000E+03 0. -1.
     100001    1    1    2    0    0  0.21791898602E+04  0.48389551687E+04  0.37500658898E+04  0.65000000000E+04  0.15050000000E+03 0.  1.
</event>
<event>
 4    1  0.4630618E-004  0.6500000E+04  0.7818608E-02  0.7223770E-01
         52   -1    0    0    0    0  0.00000000000E+00  0.00000000000E+00  0.64930732323E+04  0.65000000000E+04  0.30000000000E+03 0.  1.
        -52   -1    0    0    0    0 -0.00000000000E+00 -0.00000000000E+00 -0.64930732323E+04  0.65000000000E+04  0.30000000000E+03 0. -1.
     100001    1    1    2    0    0 -0.30597122796E+03  0.12633144758E+03 -0.64898206233E+04  0.65000000000E+04  0.15050000000E+03 0. -1.
     100001    1    1    2    0    0  0.30597122796E+03 -0.12633144758E+03  0.64898206233E+04  0.65000000000E+04  0.15050000000E+03 0.  1.
</event>
<event>
 4    1  0.4630618E-004  0.6500000E+04  0.7818608E-02  0.7223770E-01
         52   -1    0    0    0    0  0.00000000000E+00  0.00000000000E+00  0.64930732323E+04  0.65000000000E+04  0.30000000000E+03 0. -1.
        -52   -1    0    0    0    0 -0.00000000000E+00 -0.00000000000E+00 -0.64930732323E+04  0.65000000000E+04  0.30000000000E+03 0.  1.
     100001    1    1    2    0    0  0.32245495659E+04  0.16832190524E+04  0.53848308672E+04  0.65000000000E+04  0.15050000000E+03 0. -1.
     100001    1    1    2    0    0 -0.32245495659E+04 -0.16832190524E+04 -0.53848308672E+04  0.65000000000E+04  0.15050000000E+03 0.  1.
</event>
<event>
 4    1  0.4630618E-004  0.6500000E+04  0.7818608E-02  0.7223770E-01
         52   -1    0    0    0    0  0.00000000000E+00  0.00000000000E+00  0.64930732323E+04  0.65000000000E+04  0.30000000000E+03 0.  1.
        -52   -1    0    0    0    0 -0.00000000000E+00 -0.00000000000E+00 -0.64930732323E+04  0.65000000000E+04  0.30000000000E+03 0. -1.
     100001    1    1    2    0    0  0.67698478054E+03 -0.25992778642E+04 -0.59171611387E+04  0.65000000000E+04  0.15050000000E+03 0. -1.
     100001    1    1    2    0    0 -0.67698478054E+03  0.25992778642E+04  0.59171611387E+04  0.65000000000E+04  0.15050000000E+03 0.  1.
</event>
<event>
 4    1  0.4630618E-004  0.6500000E+04  0.7818608E-02  0.7223770E-01
         52   -1    0    0    0    0  0.00000000000E+00  0.00000000000E+00  0.64930732323E+04  0.65000000000E+04  0.30000000000E+03 0.  1.
        -52   -1    0    0    0    0 -0.00000000000E+00 -0.00000000000E+00 -0.64930732323E+04  0.65000000000E+04  0.30000000000E+03 0. -1.
     100001    1    1    2    0    0  0.39719397994E+03 -0.24684969091E+03  0.64814081743E+04  0.65000000000E+04  0.15050000000E+03 0.  1.
     100001    1    1    2    0    0 -0.39719397994E+03  0.24684969091E+03 -0.64814081743E+04  0.65000000000E+04  0.15050000000E+03 0. -1.
</event>
<event>
 4    1  0.4630618E-004  0.6500000E+04  0.7818608E-02  0.7223770E-01
         52   -1    0    0    0    0  0.00000000000E+00  0.00000000000E+00  0.64930732323E+04  0.65000000000E+04  0.30000000000E+03 0.  1.
        -52   -1    0    0    0    0 -0.00000000000E+00 -0.00000000000E+00 -0.64930732323E+04  0.65000000000E+04  0.30000000000E+03 0. -1.
     100001    1    1    2    0    0 -0.39995878885E+04 -0.89885455556E+03  0.50420935096E+04  0.65000000000E+04  0.15050000000E+03 0.  1.
     100001    1    1    2    0    0  0.39995878885E+04  0.89885455556E+03 -0.50420935096E+04  0.65000000000E+04  0.15050000000E+03 0. -1.
</event>
<event>
 4    1  0.4630618E-004  0.6500000E+04  0.7818608E-02  0.7223770E-01
         52   -1    0    0    0    0  0.00000000000E+00  0.00000000000E+00  0.64930732323E+04  0.65000000000E+04  0.30000000000E+03 0. -1.
        -52   -1    0    0    0    0 -0.00000000000E+00 -0.00000000000E+00 -0.64930732323E+04  0.65000000000E+04  0.30000000000E+03 0.  1.
     100001    1    1    2    0    0 -0.15029691125E+03  0.65755867297E+03  0.64631553579E+04  0.65000000000E+04  0.15050000000E+03 0. -1.
     100001    1    1    2    0    0  0.15029691125E+03 -0.65755867297E+03 -0.64631553579E+04  0.65000000000E+04  0.15050000000E+03 0.  1.
</event>
<event>
 4    1  0.4630618E-004  0.6500000E+04  0.7818608E-02  0.7223770E-01
         52   -1    0    0    0    0  0.00000000000E+00  0.00000000000E+00  0.64930732323E+04  0.65000000000E+04  0.30000000000E+03 0. -1.
        -52   -1    0    0    0    0 -0.00000000000E+00 -0.00000000000E+00 -0.64930732323E+04  0.65000000000E+04  0.30000000000E+03 0.  1.
     100001    1    1    2    0    0 -0.23500529694E+04 -0.39904795986E+04 -0.45585823854E+04  0.65000000000E+04  0.15050000000E+03 0.  1.
     100001    1    1    2    0    0  0.23500529694E+04  0.39904795986E+04  0.45585823854E+04  0.65000000000E+04  0.15050000000E+03 0. -1.
</event>
<event>
 4    1  0.4630618E-004  0.6500000E+04  0.7818608E-02  0.7223770E-01
         52   -1    0    0    0    0  0.00000000000E+00  0.00000000000E+00  0.64930732323E+04  0.65000000000E+04  0.30000000000E+03 0.  1.
        -52   -1    0    0    0    0 -0.00000000000E+00 -0.00000000000E+00 -0.64930732323E+04  0.65000000000E+04  0.30000000000E+03 0.  1.
     100001    1    1    2    0    0 -0.32242964043E+03 -0.60558395935E+03  0.64619391010E+04  0.65000000000E+04  0.15050000000E+03 0.  1.
     100001    1    1    2    0    0  0.32242964043E+03  0.60558395935E+03 -0.64619391010E+04  0.65000000000E+04  0.15050000000E+03 0.  1.
</event>
<event>
 4    1  0.4630618E-004  0.6500000E+04  0.7818608E-02  0.7223770E-01
         52   -1    0    0    0    0  0.00000000000E+00  0.00000000000E+00  0.64930732323E+04  0.65000000000E+04  0.30000000000E+03 0. -1.
        -52   -1    0    0    0    0 -0.00000000000E+00 -0.00000000000E+00 -0.64930732323E+04  0.65000000000E+04  0.30000000000E+03 0.  1.
     100001    1    1    2    0    0  0.66362689387E+02  0.13001974877E+04 -0.63665086379E+04  0.65000000000E+04  0.15050000000E+03 0.  1.
     100001    1    1    2    0    0 -0.66362689387E+02 -0.13001974877E+04  0.63665086379E+04  0.65000000000E+04  0.15050000000E+03 0. -1.
</event>
<event>
 4    1  0.4630618E-004  0.6500000E+04  0.7818608E-02  0.7223770E-01
         52   -1    0    0    0    0  0.00000000000E+00  0.00000000000E+00  0.64930732323E+04  0.65000000000E+04  0.30000000000E+03 0. -1.
        -52   -1    0    0    0    0 -0.00000000000E+00 -0.00000000000E+00 -0.64930732323E+04  0.65000000000E+04  0.30000000000E+03 0.  1.
     100001    1    1    2    0    0  0.22053860611E+04 -0.13867320657E+04 -0.59532005047E+04  0.65000000000E+04  0.15050000000E+03 0.  1.
     100001    1    1    2    0    0 -0.22053860611E+04  0.13867320657E+04  0.59532005047E+04  0.65000000000E+04  0.15050000000E+03 0. -1.
</event>
<event>
 4    1  0.4630618E-004  0.6500000E+04  0.7818608E-02  0.7223770E-01
         52   -1    0    0    0    0  0.00000000000E+00  0.00000000000E+00  0.64930732323E+04  0.65000000000E+04  0.30000000000E+03 0.  1.
        -52   -1    0    0    0    0 -0.00000000000E+00 -0.00000000000E+00 -0.64930732323E+04  0.65000000000E+04  0.30000000000E+03 0. -1.
     100001    1    1    2    0    0 -0.61791300655E+02 -0.35947588355E+03 -0.64880126907E+04  0.65000000000E+04  0.15050000000E+03 0. -1.
     100001    1    1    2    0    0  0.61791300655E+02  0.35947588355E+03  0.64880126907E+04  0.65000000000E+04  0.15050000000E+03 0.  1.
</event>
<event>
 4    1  0.4630618E-004  0.6500000E+04  0.7818608E-02  0.7223770E-01
         52   -1    0    0    0    0  0.00000000000E+00  0.00000000000E+00  0.64930732323E+04  0.65000000000E+04  0.30000000000E+03 0.  1.
        -52   -1    0    0    0    0 -0.00000000000E+00 -0.00000000000E+00 -0.64930732323E+04  0.65000000000E+04  0.30000000000E+03 0. -1.
     100001    1    1    2    0    0 -0.44419598850E+04 -0.66860680135E+03 -0.46956689699E+04  0.65000000000E+04  0.15050000000E+03 0. -1.
     100001    1    1    2    0    0  0.44419598850E+04  0.66860680135E+03  0.46956689699E+04  0.65000000000E+04  0.15050000000E+03 0.  1.
</event>
<event>
 4    1  0.4630618E-004  0.6500000E+04  0.7818608E-02  0.7223770E-01
         52   -1    0    0    0    0  0.00000000000E+00  0.00000000000E+00  0.64930732323E+04  0.65000000000E+04  0.30000000000E+03 0.  1.
        -52   -1    0    0    0    0 -0.00000000000E+00 -0.00000000000E+00 -0.64930732323E+04  0.65000000000E+04  0.30000000000E+03 0. -1.
     100001    1    1    2    0    0 -0.34264981193E+03  0.64440667316E+03 -0.64571418519E+04  0.65000000000E+04  0.15050000000E+03 0. -1.
     100001    1    1    2    0    0  0.34264981193E+03 -0.64440667316E+03  0.64571418519E+04  0.65000000000E+04  0.15050000000E+03 0.  1.
</event>
<event>
 4    1  0.4630618E-004  0.6500000E+04  0.7818608E-02  0.7223770E-01
         52   -1    0    0    0    0  0.00000000000E+00  0.00000000000E+00  0.64930732323E+04  0.65000000000E+04  0.30000000000E+03 0.  1.
        -52   -1    0    0    0    0 -0.00000000000E+00 -0.00000000000E+00 -0.64930732323E+04  0.65000000000E+04  0.30000000000E+03 0. -1.
     100001    1    1    2    0    0  0.49012283628E+04  0.38912900922E+04  0.17501919051E+04  0.65000000000E+04  0.15050000000E+03 0.  1.
     100001    1    1    2    0    0 -0.49012283628E+04 -0.38912900922E+04 -0.17501919051E+04  0.65000000000E+04  0.15050000000E+03 0. -1.
</event>
<event>
 4    1  0.4630618E-004  0.6500000E+04  0.7818608E-02  0.7223770E-01
         52   -1    0    0    0    0  0.00000000000E+00  0.00000000000E+00  0.64930732323E+04  0.65000000000E+04  0.30000000000E+03 0.  1.
        -52   -1    0    0    0    0 -0.00000000000E+00 -0.00000000000E+00 -0.64930732323E+04  0.65000000000E+04  0.30000000000E+03 0. -1.
     100001    1    1    2    0    0 -0.35113862122E+02 -0.70364651728E+03  0.64599534321E+04  0.65000000000E+04  0.15050000000E+03 0.  1.
     100001    1    1    2    0    0  0.35113862122E+02  0.70364651728E+03 -0.64599534321E+04  0.65000000000E+04  0.15050000000E+03 0. -1.
</event>
<event>
 4    1  0.4630618E-004  0.6500000E+04  0.7818608E-02  0.7223770E-01
         52   -1    0    0    0    0  0.00000000000E+00  0.00000000000E+00  0.64930732323E+04  0.65000000000E+04  0.30000000000E+03 0. -1.
        -52   -1    0    0    0    0 -0.00000000000E+00 -0.00000000000E+00 -0.64930732323E+04  0.65000000000E+04  0.30000000000E+03 0.  1.
     100001    1    1    2    0    0 -0.13555622949E+03 -0.62947429591E+03  0.64662768553E+04  0.65000000000E+04  0.15050000000E+03 0. -1.
     100001    1    1    2    0    0  0.13555622949E+03  0.62947429591E+03 -0.64662768553E+04  0.65000000000E+04  0.15050000000E+03 0.  1.
</event>
<event>
 4    1  0.4630618E-004  0.6500000E+04  0.7818608E-02  0.7223770E-01
         52   -1    0    0    0    0  0.00000000000E+00  0.00000000000E+00  0.64930732323E+04  0.65000000000E+04  0.30000000000E+03 0. -1.
        -52   -1    0    0    0    0 -0.00000000000E+00 -0.00000000000E+00 -0.64930732323E+04  0.65000000000E+04  0.30000000000E+03 0.  1.
     100001    1    1    2    0    0 -0.15934947534E+03 -0.70118457440E+00  0.64963033337E+04  0.65000000000E+04  0.15050000000E+03 0. -1.
     100001    1    1    2    0    0  0.15934947534E+03  0.70118457440E+00 -0.64963033337E+04  0.65000000000E+04  0.15050000000E+03 0.  1.
</event>
<event>
 4    1  0.4630618E-004  0.6500000E+04  0.7818608E-02  0.7223770E-01
         52   -1    0    0    0    0  0.00000000000E+00  0.00000000000E+00  0.64930732323E+04  0.65000000000E+04  0.30000000000E+03 0.  1.
        -52   -1    0    0    0    0 -0.00000000000E+00 -0.00000000000E+00 -0.64930732323E+04  0.65000000000E+04  0.30000000000E+03 0. -1.
     100001    1    1    2    0    0  0.40034909032E+03  0.15417795660E+03 -0.64840804679E+04  0.65000000000E+04  0.15050000000E+03 0. -1.
     100001    1    1    2    0    0 -0.40034909032E+03 -0.15417795660E+03  0.64840804679E+04  0.65000000000E+04  0.15050000000E+03 0.  1.
</event>
<event>
 4    1  0.4630618E-004  0.6500000E+04  0.7818608E-02  0.7223770E-01
         52   -1    0    0    0    0  0.00000000000E+00  0.00000000000E+00  0.64930732323E+04  0.65000000000E+04  0.30000000000E+03 0.  1.
        -52   -1    0    0    0    0 -0.00000000000E+00 -0.00000000000E+00 -0.64930732323E+04  0.65000000000E+04  0.30000000000E+03 0. -1.
     100001    1    1    2    0    0  0.72417626853E+02 -0.10274277591E+04  0.64161123460E+04  0.65000000000E+04  0.15050000000E+03 0.  1.
     100001    1    1    2    0    0 -0.72417626853E+02  0.10274277591E+04 -0.64161123460E+04  0.65000000000E+04  0.15050000000E+03 0. -1.
</event>
<event>
 4    1  0.4630618E-004  0.6500000E+04  0.7818608E-02  0.7223770E-01
         52   -1    0    0    0    0  0.00000000000E+00  0.00000000000E+00  0.64930732323E+04  0.65000000000E+04  0.30000000000E+03 0. -1.
        -52   -1    0    0    0    0 -0.00000000000E+00 -0.00000000000E+00 -0.64930732323E+04  0.65000000000E+04  0.30000000000E+03 0.  1.
     100001    1    1    2    0    0 -0.23923831697E+04  0.16386472556E+04 -0.58153837097E+04  0.65000000000E+04  0.15050000000E+03 0.  1.
     100001    1    1    2    0    0  0.23923831697E+04 -0.16386472556E+04  0.58153837097E+04  0.65000000000E+04  0.15050000000E+03 0. -1.
</event>
<event>
 4    1  0.4630618E-004  0.6500000E+04  0.7818608E-02  0.7223770E-01
         52   -1    0    0    0    0  0.00000000000E+00  0.00000000000E+00  0.64930732323E+04  0.65000000000E+04  0.30000000000E+03 0.  1.
        -52   -1    0    0    0    0 -0.00000000000E+00 -0.00000000000E+00 -0.64930732323E+04  0.65000000000E+04  0.30000000000E+03 0. -1.
     100001    1    1    2    0    0 -0.43688409803E+04 -0.41392995671E+04 -0.24508727696E+04  0.65000000000E+04  0.15050000000E+03 0. -1.
     100001    1    1    2    0    0  0.43688409803E+04  0.41392995671E+04  0.24508727696E+04  0.65000000000E+04  0.15050000000E+03 0.  1.
</event>
<event>
 4    1  0.4630618E-004  0.6500000E+04  0.7818608E-02  0.7223770E-01
         52   -1    0    0    0    0  0.00000000000E+00  0.00000000000E+00  0.64930732323E+04  0.65000000000E+04  0.30000000000E+03 0.  1.
        -52   -1    0    0    0    0 -0.00000000000E+00 -0.00000000000E+00 -0.64930732323E+04  0.65000000000E+04  0.30000000000E+03 0. -1.
     100001    1    1    2    0    0 -0.56730880248E+04 -0.21627451127E+04  0.23164532350E+04  0.65000000000E+04  0.15050000000E+03 0.  1.
     100001    1    1    2    0    0  0.56730880248E+04  0.21627451127E+04 -0.23164532350E+04  0.65000000000E+04  0.15050000000E+03 0. -1.
</event>
<event>
 4    1  0.4630618E-004  0.6500000E+04  0.7818608E-02  0.7223770E-01
         52   -1    0    0    0    0  0.00000000000E+00  0.00000000000E+00  0.64930732323E+04  0.65000000000E+04  0.30000000000E+03 0. -1.
        -52   -1    0    0    0    0 -0.00000000000E+00 -0.00000000000E+00 -0.64930732323E+04  0.65000000000E+04  0.30000000000E+03 0.  1.
     100001    1    1    2    0    0 -0.75462917343E+03  0.28500746470E+04  0.57909376674E+04  0.65000000000E+04  0.15050000000E+03 0. -1.
     100001    1    1    2    0    0  0.75462917343E+03 -0.28500746470E+04 -0.57909376674E+04  0.65000000000E+04  0.15050000000E+03 0.  1.
</event>
<event>
 4    1  0.4630618E-004  0.6500000E+04  0.7818608E-02  0.7223770E-01
         52   -1    0    0    0    0  0.00000000000E+00  0.00000000000E+00  0.64930732323E+04  0.65000000000E+04  0.30000000000E+03 0.  1.
        -52   -1    0    0    0    0 -0.00000000000E+00 -0.00000000000E+00 -0.64930732323E+04  0.65000000000E+04  0.30000000000E+03 0. -1.
     100001    1    1    2    0    0 -0.44040265729E+03  0.56587738716E+03 -0.64585739937E+04  0.65000000000E+04  0.15050000000E+03 0. -1.
     100001    1    1    2    0    0  0.44040265729E+03 -0.56587738716E+03  0.64585739937E+04  0.65000000000E+04  0.15050000000E+03 0.  1.
</event>
<event>
 4    1  0.4630618E-004  0.6500000E+04  0.7818608E-02  0.7223770E-01
         52   -1    0    0    0    0  0.00000000000E+00  0.00000000000E+00  0.64930732323E+04  0.65000000000E+04  0.30000000000E+03 0. -1.
        -52   -1    0    0    0    0 -0.00000000000E+00 -0.00000000000E+00 -0.64930732323E+04  0.65000000000E+04  0.30000000000E+03 0.  1.
     100001    1    1    2    0    0  0.24565770813E+03 -0.15806872743E+04 -0.62982878452E+04  0.65000000000E+04  0.15050000000E+03 0.  1.
     100001    1    1    2    0    0 -0.24565770813E+03  0.15806872743E+04  0.62982878452E+04  0.65000000000E+04  0.15050000000E+03 0. -1.
</event>
<event>
 4    1  0.4630618E-004  0.6500000E+04  0.7818608E-02  0.7223770E-01
         52   -1    0    0    0    0  0.00000000000E+00  0.00000000000E+00  0.64930732323E+04  0.65000000000E+04  0.30000000000E+03 0.  1.
        -52   -1    0    0    0    0 -0.00000000000E+00 -0.00000000000E+00 -0.64930732323E+04  0.65000000000E+04  0.30000000000E+03 0. -1.
     100001    1    1    2    0    0  0.80666739564E+03  0.44713358851E+03  0.64324730094E+04  0.65000000000E+04  0.15050000000E+03 0.  1.
     100001    1    1    2    0    0 -0.80666739564E+03 -0.44713358851E+03 -0.64324730094E+04  0.65000000000E+04  0.15050000000E+03 0. -1.
</event>
<event>
 4    1  0.4630618E-004  0.6500000E+04  0.7818608E-02  0.7223770E-01
         52   -1    0    0    0    0  0.00000000000E+00  0.00000000000E+00  0.64930732323E+04  0.65000000000E+04  0.30000000000E+03 0.  1.
        -52   -1    0    0    0    0 -0.00000000000E+00 -0.00000000000E+00 -0.64930732323E+04  0.65000000000E+04  0.30000000000E+03 0.  1.
     100001    1    1    2    0    0  0.13313946508E+03 -0.10945215231E+03  0.64959713561E+04  0.65000000000E+04  0.15050000000E+03 0.  1.
     100001    1    1    2    0    0 -0.13313946508E+03  0.10945215231E+03 -0.64959713561E+04  0.65000000000E+04  0.15050000000E+03 0.  1.
</event>
<event>
 4    1  0.4630618E-004  0.6500000E+04  0.7818608E-02  0.7223770E-01
         52   -1    0    0    0    0  0.00000000000E+00  0.00000000000E+00  0.64930732323E+04  0.65000000000E+04  0.30000000000E+03 0.  1.
        -52   -1    0    0    0    0 -0.00000000000E+00 -0.00000000000E+00 -0.64930732323E+04  0.65000000000E+04  0.30000000000E+03 0. -1.
     100001    1    1    2    0    0 -0.45547761304E+03  0.10831115947E+03  0.64813701165E+04  0.65000000000E+04  0.15050000000E+03 0.  1.
     100001    1    1    2    0    0  0.45547761304E+03 -0.10831115947E+03 -0.64813701165E+04  0.65000000000E+04  0.15050000000E+03 0. -1.
</event>
<event>
 4    1  0.4630618E-004  0.6500000E+04  0.7818608E-02  0.7223770E-01
         52   -1    0    0    0    0  0.00000000000E+00  0.00000000000E+00  0.64930732323E+04  0.65000000000E+04  0.30000000000E+03 0.  1.
        -52   -1    0    0    0    0 -0.00000000000E+00 -0.00000000000E+00 -0.64930732323E+04  0.65000000000E+04  0.30000000000E+03 0. -1.
     100001    1    1    2    0    0  0.15015473568E+04 -0.43954873663E+04 -0.45444907413E+04  0.65000000000E+04  0.15050000000E+03 0. -1.
     100001    1    1    2    0    0 -0.15015473568E+04  0.43954873663E+04  0.45444907413E+04  0.65000000000E+04  0.15050000000E+03 0.  1.
</event>
<event>
 4    1  0.4630618E-004  0.6500000E+04  0.7818608E-02  0.7223770E-01
         52   -1    0    0    0    0  0.00000000000E+00  0.00000000000E+00  0.64930732323E+04  0.65000000000E+04  0.30000000000E+03 0.  1.
        -52   -1    0    0    0    0 -0.00000000000E+00 -0.00000000000E+00 -0.64930732323E+04  0.65000000000E+04  0.30000000000E+03 0. -1.
     100001    1    1    2    0    0 -0.33197814700E+03  0.51474692738E+03  0.64693257655E+04  0.65000000000E+04  0.15050000000E+03 0.  1.
     100001    1    1    2    0    0  0.33197814700E+03 -0.51474692738E+03 -0.64693257655E+04  0.65000000000E+04  0.15050000000E+03 0. -1.
</event>
<event>
 4    1  0.4630618E-004  0.6500000E+04  0.7818608E-02  0.7223770E-01
         52   -1    0    0    0    0  0.00000000000E+00  0.00000000000E+00  0.64930732323E+04  0.65000000000E+04  0.30000000000E+03 0.  1.
        -52   -1    0    0    0    0 -0.00000000000E+00 -0.00000000000E+00 -0.64930732323E+04  0.65000000000E+04  0.30000000000E+03 0. -1.
     100001    1    1    2    0    0 -0.38097298412E+03 -0.19293504798E+04  0.61935301776E+04  0.65000000000E+04  0.15050000000E+03 0.  1.
     100001    1    1    2    0    0  0.38097298412E+03  0.19293504798E+04 -0.61935301776E+04  0.65000000000E+04  0.15050000000E+03 0. -1.
</event>
<event>
 4    1  0.4630618E-004  0.6500000E+04  0.7818608E-02  0.7223770E-01
         52   -1    0    0    0    0  0.00000000000E+00  0.00000000000E+00  0.64930732323E+04  0.65000000000E+04  0.30000000000E+03 0.  1.
        -52   -1    0    0    0    0 -0.00000000000E+00 -0.00000000000E+00 -0.64930732323E+04  0.65000000000E+04  0.30000000000E+03 0. -1.
     100001    1    1    2    0    0 -0.37587071059E+04 -0.26850676641E+04  0.45705450748E+04  0.65000000000E+04  0.15050000000E+03 0.  1.
     100001    1    1    2    0    0  0.37587071059E+04  0.26850676641E+04 -0.45705450748E+04  0.65000000000E+04  0.15050000000E+03 0. -1.
</event>
<event>
 4    1  0.4630618E-004  0.6500000E+04  0.7818608E-02  0.7223770E-01
         52   -1    0    0    0    0  0.00000000000E+00  0.00000000000E+00  0.64930732323E+04  0.65000000000E+04  0.30000000000E+03 0.  1.
        -52   -1    0    0    0    0 -0.00000000000E+00 -0.00000000000E+00 -0.64930732323E+04  0.65000000000E+04  0.30000000000E+03 0. -1.
     100001    1    1    2    0    0  0.23693176239E+04  0.34890758350E+04 -0.49436862324E+04  0.65000000000E+04  0.15050000000E+03 0. -1.
     100001    1    1    2    0    0 -0.23693176239E+04 -0.34890758350E+04  0.49436862324E+04  0.65000000000E+04  0.15050000000E+03 0.  1.
</event>
<event>
 4    1  0.4630618E-004  0.6500000E+04  0.7818608E-02  0.7223770E-01
         52   -1    0    0    0    0  0.00000000000E+00  0.00000000000E+00  0.64930732323E+04  0.65000000000E+04  0.30000000000E+03 0.  1.
        -52   -1    0    0    0    0 -0.00000000000E+00 -0.00000000000E+00 -0.64930732323E+04  0.65000000000E+04  0.30000000000E+03 0. -1.
     100001    1    1    2    0    0  0.23832402459E+04 -0.56697193542E+04 -0.20980462639E+04  0.65000000000E+04  0.15050000000E+03 0. -1.
     100001    1    1    2    0    0 -0.23832402459E+04  0.56697193542E+04  0.20980462639E+04  0.65000000000E+04  0.15050000000E+03 0.  1.
</event>
<event>
 4    1  0.4630618E-004  0.6500000E+04  0.7818608E-02  0.7223770E-01
         52   -1    0    0    0    0  0.00000000000E+00  0.00000000000E+00  0.64930732323E+04  0.65000000000E+04  0.30000000000E+03 0.  1.
        -52   -1    0    0    0    0 -0.00000000000E+00 -0.00000000000E+00 -0.64930732323E+04  0.65000000000E+04  0.30000000000E+03 0. -1.
     100001    1    1    2    0    0  0.15997613416E+04 -0.55774753482E+03 -0.62735182384E+04  0.65000000000E+04  0.15050000000E+03 0. -1.
     100001    1    1    2    0    0 -0.15997613416E+04  0.55774753482E+03  0.62735182384E+04  0.65000000000E+04  0.15050000000E+03 0.  1.
</event>
<event>
 4    1  0.4630618E-004  0.6500000E+04  0.7818608E-02  0.7223770E-01
         52   -1    0    0    0    0  0.00000000000E+00  0.00000000000E+00  0.64930732323E+04  0.65000000000E+04  0.30000000000E+03 0.  1.
        -52   -1    0    0    0    0 -0.00000000000E+00 -0.00000000000E+00 -0.64930732323E+04  0.65000000000E+04  0.30000000000E+03 0. -1.
     100001    1    1    2    0    0  0.68951407250E+03  0.97843546287E+03 -0.63870638120E+04  0.65000000000E+04  0.15050000000E+03 0. -1.
     100001    1    1    2    0    0 -0.68951407250E+03 -0.97843546287E+03  0.63870638120E+04  0.65000000000E+04  0.15050000000E+03 0.  1.
</event>
<event>
 4    1  0.4630618E-004  0.6500000E+04  0.7818608E-02  0.7223770E-01
         52   -1    0    0    0    0  0.00000000000E+00  0.00000000000E+00  0.64930732323E+04  0.65000000000E+04  0.30000000000E+03 0.  1.
        -52   -1    0    0    0    0 -0.00000000000E+00 -0.00000000000E+00 -0.64930732323E+04  0.65000000000E+04  0.30000000000E+03 0. -1.
     100001    1    1    2    0    0  0.52093492484E+03 -0.61008210630E+04  0.21762258411E+04  0.65000000000E+04  0.15050000000E+03 0.  1.
     100001    1    1    2    0    0 -0.52093492484E+03  0.61008210630E+04 -0.21762258411E+04  0.65000000000E+04  0.15050000000E+03 0. -1.
</event>
<event>
 4    1  0.4630618E-004  0.6500000E+04  0.7818608E-02  0.7223770E-01
         52   -1    0    0    0    0  0.00000000000E+00  0.00000000000E+00  0.64930732323E+04  0.65000000000E+04  0.30000000000E+03 0.  1.
        -52   -1    0    0    0    0 -0.00000000000E+00 -0.00000000000E+00 -0.64930732323E+04  0.65000000000E+04  0.30000000000E+03 0. -1.
     100001    1    1    2    0    0 -0.71023473637E+03 -0.28372189034E+04  0.58028532002E+04  0.65000000000E+04  0.15050000000E+03 0.  1.
     100001    1    1    2    0    0  0.71023473637E+03  0.28372189034E+04 -0.58028532002E+04  0.65000000000E+04  0.15050000000E+03 0. -1.
</event>
<event>
 4    1  0.4630618E-004  0.6500000E+04  0.7818608E-02  0.7223770E-01
         52   -1    0    0    0    0  0.00000000000E+00  0.00000000000E+00  0.64930732323E+04  0.65000000000E+04  0.30000000000E+03 0. -1.
        -52   -1    0    0    0    0 -0.00000000000E+00 -0.00000000000E+00 -0.64930732323E+04  0.65000000000E+04  0.30000000000E+03 0.  1.
     100001    1    1    2    0    0  0.29068185543E+04 -0.18188533462E+04  0.55199210273E+04  0.65000000000E+04  0.15050000000E+03 0. -1.
     100001    1    1    2    0    0 -0.29068185543E+04  0.18188533462E+04 -0.55199210273E+04  0.65000000000E+04  0.15050000000E+03 0.  1.
</event>
<event>
 4    1  0.5506972E-004  0.6500000E+04  0.7818608E-02  0.7223770E-01
         52   -1    0    0    0    0  0.00000000000E+00  0.00000000000E+00  0.64930732323E+04  0.65000000000E+04  0.30000000000E+03 0. -1.
        -52   -1    0    0    0    0 -0.00000000000E+00 -0.00000000000E+00 -0.64930732323E+04  0.65000000000E+04  0.30000000000E+03 0.  1.
     100001    1    1    2    0    0 -0.98400225339E+02 -0.18424021953E+03  0.64948997442E+04  0.65000000000E+04  0.15050000000E+03 0. -1.
     100001    1    1    2    0    0  0.98400225339E+02  0.18424021953E+03 -0.64948997442E+04  0.65000000000E+04  0.15050000000E+03 0.  1.
</event>
<event>
 4    1  0.4630618E-004  0.6500000E+04  0.7818608E-02  0.7223770E-01
         52   -1    0    0    0    0  0.00000000000E+00  0.00000000000E+00  0.64930732323E+04  0.65000000000E+04  0.30000000000E+03 0.  1.
        -52   -1    0    0    0    0 -0.00000000000E+00 -0.00000000000E+00 -0.64930732323E+04  0.65000000000E+04  0.30000000000E+03 0. -1.
     100001    1    1    2    0    0  0.15118159698E+03 -0.99130087178E+03 -0.64204218285E+04  0.65000000000E+04  0.15050000000E+03 0. -1.
     100001    1    1    2    0    0 -0.15118159698E+03  0.99130087178E+03  0.64204218285E+04  0.65000000000E+04  0.15050000000E+03 0.  1.
</event>
<event>
 4    1  0.4630618E-004  0.6500000E+04  0.7818608E-02  0.7223770E-01
         52   -1    0    0    0    0  0.00000000000E+00  0.00000000000E+00  0.64930732323E+04  0.65000000000E+04  0.30000000000E+03 0.  1.
        -52   -1    0    0    0    0 -0.00000000000E+00 -0.00000000000E+00 -0.64930732323E+04  0.65000000000E+04  0.30000000000E+03 0. -1.
     100001    1    1    2    0    0  0.91431922055E+03 -0.85164784443E+03  0.63769950652E+04  0.65000000000E+04  0.15050000000E+03 0.  1.
     100001    1    1    2    0    0 -0.91431922055E+03  0.85164784443E+03 -0.63769950652E+04  0.65000000000E+04  0.15050000000E+03 0. -1.
</event>
<event>
 4    1  0.4630618E-004  0.6500000E+04  0.7818608E-02  0.7223770E-01
         52   -1    0    0    0    0  0.00000000000E+00  0.00000000000E+00  0.64930732323E+04  0.65000000000E+04  0.30000000000E+03 0. -1.
        -52   -1    0    0    0    0 -0.00000000000E+00 -0.00000000000E+00 -0.64930732323E+04  0.65000000000E+04  0.30000000000E+03 0.  1.
     100001    1    1    2    0    0 -0.48715095412E+04  0.42035854615E+04  0.90863293386E+03  0.65000000000E+04  0.15050000000E+03 0. -1.
     100001    1    1    2    0    0  0.48715095412E+04 -0.42035854615E+04 -0.90863293386E+03  0.65000000000E+04  0.15050000000E+03 0.  1.
</event>
<event>
 4    1  0.4630618E-004  0.6500000E+04  0.7818608E-02  0.7223770E-01
         52   -1    0    0    0    0  0.00000000000E+00  0.00000000000E+00  0.64930732323E+04  0.65000000000E+04  0.30000000000E+03 0.  1.
        -52   -1    0    0    0    0 -0.00000000000E+00 -0.00000000000E+00 -0.64930732323E+04  0.65000000000E+04  0.30000000000E+03 0. -1.
     100001    1    1    2    0    0 -0.20931127398E+03  0.12428802825E+04  0.63748558528E+04  0.65000000000E+04  0.15050000000E+03 0.  1.
     100001    1    1    2    0    0  0.20931127398E+03 -0.12428802825E+04 -0.63748558528E+04  0.65000000000E+04  0.15050000000E+03 0. -1.
</event>
<event>
 4    1  0.4630618E-004  0.6500000E+04  0.7818608E-02  0.7223770E-01
         52   -1    0    0    0    0  0.00000000000E+00  0.00000000000E+00  0.64930732323E+04  0.65000000000E+04  0.30000000000E+03 0. -1.
        -52   -1    0    0    0    0 -0.00000000000E+00 -0.00000000000E+00 -0.64930732323E+04  0.65000000000E+04  0.30000000000E+03 0.  1.
     100001    1    1    2    0    0 -0.10946244475E+04 -0.37046697195E+03  0.63946775753E+04  0.65000000000E+04  0.15050000000E+03 0. -1.
     100001    1    1    2    0    0  0.10946244475E+04  0.37046697195E+03 -0.63946775753E+04  0.65000000000E+04  0.15050000000E+03 0.  1.
</event>
<event>
 4    1  0.4630618E-004  0.6500000E+04  0.7818608E-02  0.7223770E-01
         52   -1    0    0    0    0  0.00000000000E+00  0.00000000000E+00  0.64930732323E+04  0.65000000000E+04  0.30000000000E+03 0. -1.
        -52   -1    0    0    0    0 -0.00000000000E+00 -0.00000000000E+00 -0.64930732323E+04  0.65000000000E+04  0.30000000000E+03 0.  1.
     100001    1    1    2    0    0 -0.24570865968E+03 -0.91800402676E+02  0.64929615501E+04  0.65000000000E+04  0.15050000000E+03 0. -1.
     100001    1    1    2    0    0  0.24570865968E+03  0.91800402676E+02 -0.64929615501E+04  0.65000000000E+04  0.15050000000E+03 0.  1.
</event>
<event>
 4    1  0.4630618E-004  0.6500000E+04  0.7818608E-02  0.7223770E-01
         52   -1    0    0    0    0  0.00000000000E+00  0.00000000000E+00  0.64930732323E+04  0.65000000000E+04  0.30000000000E+03 0.  1.
        -52   -1    0    0    0    0 -0.00000000000E+00 -0.00000000000E+00 -0.64930732323E+04  0.65000000000E+04  0.30000000000E+03 0.  1.
     100001    1    1    2    0    0  0.13646506505E+03 -0.13213960646E+03 -0.64954804411E+04  0.65000000000E+04  0.15050000000E+03 0.  1.
     100001    1    1    2    0    0 -0.13646506505E+03  0.13213960646E+03  0.64954804411E+04  0.65000000000E+04  0.15050000000E+03 0.  1.
</event>
<event>
 4    1  0.4630618E-004  0.6500000E+04  0.7818608E-02  0.7223770E-01
         52   -1    0    0    0    0  0.00000000000E+00  0.00000000000E+00  0.64930732323E+04  0.65000000000E+04  0.30000000000E+03 0.  1.
        -52   -1    0    0    0    0 -0.00000000000E+00 -0.00000000000E+00 -0.64930732323E+04  0.65000000000E+04  0.30000000000E+03 0. -1.
     100001    1    1    2    0    0  0.17481060462E+03 -0.23451691369E+02  0.64958633776E+04  0.65000000000E+04  0.15050000000E+03 0.  1.
     100001    1    1    2    0    0 -0.17481060462E+03  0.23451691369E+02 -0.64958633776E+04  0.65000000000E+04  0.15050000000E+03 0. -1.
</event>
<event>
 4    1  0.4630618E-004  0.6500000E+04  0.7818608E-02  0.7223770E-01
         52   -1    0    0    0    0  0.00000000000E+00  0.00000000000E+00  0.64930732323E+04  0.65000000000E+04  0.30000000000E+03 0.  1.
        -52   -1    0    0    0    0 -0.00000000000E+00 -0.00000000000E+00 -0.64930732323E+04  0.65000000000E+04  0.30000000000E+03 0. -1.
     100001    1    1    2    0    0 -0.30105654314E+04 -0.30310161573E+04 -0.48966097034E+04  0.65000000000E+04  0.15050000000E+03 0. -1.
     100001    1    1    2    0    0  0.30105654314E+04  0.30310161573E+04  0.48966097034E+04  0.65000000000E+04  0.15050000000E+03 0.  1.
</event>
<event>
 4    1  0.4630618E-004  0.6500000E+04  0.7818608E-02  0.7223770E-01
         52   -1    0    0    0    0  0.00000000000E+00  0.00000000000E+00  0.64930732323E+04  0.65000000000E+04  0.30000000000E+03 0. -1.
        -52   -1    0    0    0    0 -0.00000000000E+00 -0.00000000000E+00 -0.64930732323E+04  0.65000000000E+04  0.30000000000E+03 0.  1.
     100001    1    1    2    0    0 -0.21817360790E+03 -0.19995761891E+04 -0.61791136169E+04  0.65000000000E+04  0.15050000000E+03 0.  1.
     100001    1    1    2    0    0  0.21817360790E+03  0.19995761891E+04  0.61791136169E+04  0.65000000000E+04  0.15050000000E+03 0. -1.
</event>
<event>
 4    1  0.4630618E-004  0.6500000E+04  0.7818608E-02  0.7223770E-01
         52   -1    0    0    0    0  0.00000000000E+00  0.00000000000E+00  0.64930732323E+04  0.65000000000E+04  0.30000000000E+03 0.  1.
        -52   -1    0    0    0    0 -0.00000000000E+00 -0.00000000000E+00 -0.64930732323E+04  0.65000000000E+04  0.30000000000E+03 0. -1.
     100001    1    1    2    0    0 -0.92353418677E+03  0.61918261145E+04 -0.17423328397E+04  0.65000000000E+04  0.15050000000E+03 0. -1.
     100001    1    1    2    0    0  0.92353418677E+03 -0.61918261145E+04  0.17423328397E+04  0.65000000000E+04  0.15050000000E+03 0.  1.
</event>
<event>
 4    1  0.4630618E-004  0.6500000E+04  0.7818608E-02  0.7223770E-01
         52   -1    0    0    0    0  0.00000000000E+00  0.00000000000E+00  0.64930732323E+04  0.65000000000E+04  0.30000000000E+03 0. -1.
        -52   -1    0    0    0    0 -0.00000000000E+00 -0.00000000000E+00 -0.64930732323E+04  0.65000000000E+04  0.30000000000E+03 0.  1.
     100001    1    1    2    0    0 -0.12368164325E+04 -0.33858696871E+03  0.63704782965E+04  0.65000000000E+04  0.15050000000E+03 0. -1.
     100001    1    1    2    0    0  0.12368164325E+04  0.33858696871E+03 -0.63704782965E+04  0.65000000000E+04  0.15050000000E+03 0.  1.
</event>
<event>
 4    1  0.4630618E-004  0.6500000E+04  0.7818608E-02  0.7223770E-01
         52   -1    0    0    0    0  0.00000000000E+00  0.00000000000E+00  0.64930732323E+04  0.65000000000E+04  0.30000000000E+03 0.  1.
        -52   -1    0    0    0    0 -0.00000000000E+00 -0.00000000000E+00 -0.64930732323E+04  0.65000000000E+04  0.30000000000E+03 0. -1.
     100001    1    1    2    0    0  0.38086138301E+03 -0.67005258094E+03 -0.64523890068E+04  0.65000000000E+04  0.15050000000E+03 0. -1.
     100001    1    1    2    0    0 -0.38086138301E+03  0.67005258094E+03  0.64523890068E+04  0.65000000000E+04  0.15050000000E+03 0.  1.
</event>
<event>
 4    1  0.4630618E-004  0.6500000E+04  0.7818608E-02  0.7223770E-01
         52   -1    0    0    0    0  0.00000000000E+00  0.00000000000E+00  0.64930732323E+04  0.65000000000E+04  0.30000000000E+03 0. -1.
        -52   -1    0    0    0    0 -0.00000000000E+00 -0.00000000000E+00 -0.64930732323E+04  0.65000000000E+04  0.30000000000E+03 0.  1.
     100001    1    1    2    0    0 -0.49980360634E+03 -0.73848572270E+03 -0.64367837421E+04  0.65000000000E+04  0.15050000000E+03 0.  1.
     100001    1    1    2    0    0  0.49980360634E+03  0.73848572270E+03  0.64367837421E+04  0.65000000000E+04  0.15050000000E+03 0. -1.
</event>
<event>
 4    1  0.4630618E-004  0.6500000E+04  0.7818608E-02  0.7223770E-01
         52   -1    0    0    0    0  0.00000000000E+00  0.00000000000E+00  0.64930732323E+04  0.65000000000E+04  0.30000000000E+03 0. -1.
        -52   -1    0    0    0    0 -0.00000000000E+00 -0.00000000000E+00 -0.64930732323E+04  0.65000000000E+04  0.30000000000E+03 0.  1.
     100001    1    1    2    0    0 -0.56203121616E+04 -0.12481329025E+04 -0.30135701773E+04  0.65000000000E+04  0.15050000000E+03 0.  1.
     100001    1    1    2    0    0  0.56203121616E+04  0.12481329025E+04  0.30135701773E+04  0.65000000000E+04  0.15050000000E+03 0. -1.
</event>
<event>
 4    1  0.4630618E-004  0.6500000E+04  0.7818608E-02  0.7223770E-01
         52   -1    0    0    0    0  0.00000000000E+00  0.00000000000E+00  0.64930732323E+04  0.65000000000E+04  0.30000000000E+03 0. -1.
        -52   -1    0    0    0    0 -0.00000000000E+00 -0.00000000000E+00 -0.64930732323E+04  0.65000000000E+04  0.30000000000E+03 0.  1.
     100001    1    1    2    0    0  0.44508962662E+04 -0.44096213183E+04 -0.17239814405E+04  0.65000000000E+04  0.15050000000E+03 0.  1.
     100001    1    1    2    0    0 -0.44508962662E+04  0.44096213183E+04  0.17239814405E+04  0.65000000000E+04  0.15050000000E+03 0. -1.
</event>
<event>
 4    1  0.4630618E-004  0.6500000E+04  0.7818608E-02  0.7223770E-01
         52   -1    0    0    0    0  0.00000000000E+00  0.00000000000E+00  0.64930732323E+04  0.65000000000E+04  0.30000000000E+03 0. -1.
        -52   -1    0    0    0    0 -0.00000000000E+00 -0.00000000000E+00 -0.64930732323E+04  0.65000000000E+04  0.30000000000E+03 0.  1.
     100001    1    1    2    0    0 -0.20651126735E+03 -0.19677620247E+03  0.64919936824E+04  0.65000000000E+04  0.15050000000E+03 0. -1.
     100001    1    1    2    0    0  0.20651126735E+03  0.19677620247E+03 -0.64919936824E+04  0.65000000000E+04  0.15050000000E+03 0.  1.
</event>
<event>
 4    1  0.4630618E-004  0.6500000E+04  0.7818608E-02  0.7223770E-01
         52   -1    0    0    0    0  0.00000000000E+00  0.00000000000E+00  0.64930732323E+04  0.65000000000E+04  0.30000000000E+03 0.  1.
        -52   -1    0    0    0    0 -0.00000000000E+00 -0.00000000000E+00 -0.64930732323E+04  0.65000000000E+04  0.30000000000E+03 0.  1.
     100001    1    1    2    0    0  0.48548657792E+02 -0.53598950317E+02 -0.64978550253E+04  0.65000000000E+04  0.15050000000E+03 0.  1.
     100001    1    1    2    0    0 -0.48548657792E+02  0.53598950317E+02  0.64978550253E+04  0.65000000000E+04  0.15050000000E+03 0.  1.
</event>
<event>
 4    1  0.4630618E-004  0.6500000E+04  0.7818608E-02  0.7223770E-01
         52   -1    0    0    0    0  0.00000000000E+00  0.00000000000E+00  0.64930732323E+04  0.65000000000E+04  0.30000000000E+03 0.  1.
        -52   -1    0    0    0    0 -0.00000000000E+00 -0.00000000000E+00 -0.64930732323E+04  0.65000000000E+04  0.30000000000E+03 0.  1.
     100001    1    1    2    0    0  0.36466452092E+03  0.37520761004E+03  0.64771590058E+04  0.65000000000E+04  0.15050000000E+03 0.  1.
     100001    1    1    2    0    0 -0.36466452092E+03 -0.37520761004E+03 -0.64771590058E+04  0.65000000000E+04  0.15050000000E+03 0.  1.
</event>
<event>
 4    1  0.4630618E-004  0.6500000E+04  0.7818608E-02  0.7223770E-01
         52   -1    0    0    0    0  0.00000000000E+00  0.00000000000E+00  0.64930732323E+04  0.65000000000E+04  0.30000000000E+03 0.  1.
        -52   -1    0    0    0    0 -0.00000000000E+00 -0.00000000000E+00 -0.64930732323E+04  0.65000000000E+04  0.30000000000E+03 0. -1.
     100001    1    1    2    0    0 -0.95581076142E+03 -0.23475946620E+04 -0.59835252854E+04  0.65000000000E+04  0.15050000000E+03 0. -1.
     100001    1    1    2    0    0  0.95581076142E+03  0.23475946620E+04  0.59835252854E+04  0.65000000000E+04  0.15050000000E+03 0.  1.
</event>
<event>
 4    1  0.4630618E-004  0.6500000E+04  0.7818608E-02  0.7223770E-01
         52   -1    0    0    0    0  0.00000000000E+00  0.00000000000E+00  0.64930732323E+04  0.65000000000E+04  0.30000000000E+03 0. -1.
        -52   -1    0    0    0    0 -0.00000000000E+00 -0.00000000000E+00 -0.64930732323E+04  0.65000000000E+04  0.30000000000E+03 0.  1.
     100001    1    1    2    0    0 -0.40099151801E+04  0.21471478896E+04  0.46408712477E+04  0.65000000000E+04  0.15050000000E+03 0. -1.
     100001    1    1    2    0    0  0.40099151801E+04 -0.21471478896E+04 -0.46408712477E+04  0.65000000000E+04  0.15050000000E+03 0.  1.
</event>
<event>
 4    1  0.4630618E-004  0.6500000E+04  0.7818608E-02  0.7223770E-01
         52   -1    0    0    0    0  0.00000000000E+00  0.00000000000E+00  0.64930732323E+04  0.65000000000E+04  0.30000000000E+03 0. -1.
        -52   -1    0    0    0    0 -0.00000000000E+00 -0.00000000000E+00 -0.64930732323E+04  0.65000000000E+04  0.30000000000E+03 0.  1.
     100001    1    1    2    0    0  0.49626429822E+04  0.85830857412E+03  0.41064377230E+04  0.65000000000E+04  0.15050000000E+03 0. -1.
     100001    1    1    2    0    0 -0.49626429822E+04 -0.85830857412E+03 -0.41064377230E+04  0.65000000000E+04  0.15050000000E+03 0.  1.
</event>
<event>
 4    1  0.4630618E-004  0.6500000E+04  0.7818608E-02  0.7223770E-01
         52   -1    0    0    0    0  0.00000000000E+00  0.00000000000E+00  0.64930732323E+04  0.65000000000E+04  0.30000000000E+03 0.  1.
        -52   -1    0    0    0    0 -0.00000000000E+00 -0.00000000000E+00 -0.64930732323E+04  0.65000000000E+04  0.30000000000E+03 0. -1.
     100001    1    1    2    0    0  0.12125189344E+04 -0.20135012510E+04  0.60582968148E+04  0.65000000000E+04  0.15050000000E+03 0.  1.
     100001    1    1    2    0    0 -0.12125189344E+04  0.20135012510E+04 -0.60582968148E+04  0.65000000000E+04  0.15050000000E+03 0. -1.
</event>
<event>
 4    1  0.5797139E-004  0.6500000E+04  0.7818608E-02  0.7223770E-01
         52   -1    0    0    0    0  0.00000000000E+00  0.00000000000E+00  0.64930732323E+04  0.65000000000E+04  0.30000000000E+03 0. -1.
        -52   -1    0    0    0    0 -0.00000000000E+00 -0.00000000000E+00 -0.64930732323E+04  0.65000000000E+04  0.30000000000E+03 0. -1.
     100001    1    1    2    0    0 -0.92273454640E+02  0.15138195724E+01 -0.64976021014E+04  0.65000000000E+04  0.15050000000E+03 0. -1.
     100001    1    1    2    0    0  0.92273454640E+02 -0.15138195724E+01  0.64976021014E+04  0.65000000000E+04  0.15050000000E+03 0. -1.
</event>
<event>
 4    1  0.4630618E-004  0.6500000E+04  0.7818608E-02  0.7223770E-01
         52   -1    0    0    0    0  0.00000000000E+00  0.00000000000E+00  0.64930732323E+04  0.65000000000E+04  0.30000000000E+03 0.  1.
        -52   -1    0    0    0    0 -0.00000000000E+00 -0.00000000000E+00 -0.64930732323E+04  0.65000000000E+04  0.30000000000E+03 0. -1.
     100001    1    1    2    0    0  0.22707757203E+04 -0.24931615891E+04  0.55547342573E+04  0.65000000000E+04  0.15050000000E+03 0.  1.
     100001    1    1    2    0    0 -0.22707757203E+04  0.24931615891E+04 -0.55547342573E+04  0.65000000000E+04  0.15050000000E+03 0. -1.
</event>
<event>
 4    1  0.4630618E-004  0.6500000E+04  0.7818608E-02  0.7223770E-01
         52   -1    0    0    0    0  0.00000000000E+00  0.00000000000E+00  0.64930732323E+04  0.65000000000E+04  0.30000000000E+03 0. -1.
        -52   -1    0    0    0    0 -0.00000000000E+00 -0.00000000000E+00 -0.64930732323E+04  0.65000000000E+04  0.30000000000E+03 0.  1.
     100001    1    1    2    0    0 -0.15318326526E+04 -0.61542844342E+04  0.14161996955E+04  0.65000000000E+04  0.15050000000E+03 0. -1.
     100001    1    1    2    0    0  0.15318326526E+04  0.61542844342E+04 -0.14161996955E+04  0.65000000000E+04  0.15050000000E+03 0.  1.
</event>
<event>
 4    1  0.4630618E-004  0.6500000E+04  0.7818608E-02  0.7223770E-01
         52   -1    0    0    0    0  0.00000000000E+00  0.00000000000E+00  0.64930732323E+04  0.65000000000E+04  0.30000000000E+03 0.  1.
        -52   -1    0    0    0    0 -0.00000000000E+00 -0.00000000000E+00 -0.64930732323E+04  0.65000000000E+04  0.30000000000E+03 0. -1.
     100001    1    1    2    0    0  0.72702044268E+02 -0.30157547620E+03  0.64908486652E+04  0.65000000000E+04  0.15050000000E+03 0.  1.
     100001    1    1    2    0    0 -0.72702044268E+02  0.30157547620E+03 -0.64908486652E+04  0.65000000000E+04  0.15050000000E+03 0. -1.
</event>
<event>
 4    1  0.4630618E-004  0.6500000E+04  0.7818608E-02  0.7223770E-01
         52   -1    0    0    0    0  0.00000000000E+00  0.00000000000E+00  0.64930732323E+04  0.65000000000E+04  0.30000000000E+03 0.  1.
        -52   -1    0    0    0    0 -0.00000000000E+00 -0.00000000000E+00 -0.64930732323E+04  0.65000000000E+04  0.30000000000E+03 0. -1.
     100001    1    1    2    0    0 -0.34451014632E+03 -0.34072632653E+03 -0.64801672879E+04  0.65000000000E+04  0.15050000000E+03 0. -1.
     100001    1    1    2    0    0  0.34451014632E+03  0.34072632653E+03  0.64801672879E+04  0.65000000000E+04  0.15050000000E+03 0.  1.
</event>
<event>
 4    1  0.5423980E-004  0.6500000E+04  0.7818608E-02  0.7223770E-01
         52   -1    0    0    0    0  0.00000000000E+00  0.00000000000E+00  0.64930732323E+04  0.65000000000E+04  0.30000000000E+03 0.  1.
        -52   -1    0    0    0    0 -0.00000000000E+00 -0.00000000000E+00 -0.64930732323E+04  0.65000000000E+04  0.30000000000E+03 0. -1.
     100001    1    1    2    0    0 -0.14108928398E+03 -0.12822811906E+03 -0.64954600386E+04  0.65000000000E+04  0.15050000000E+03 0. -1.
     100001    1    1    2    0    0  0.14108928398E+03  0.12822811906E+03  0.64954600386E+04  0.65000000000E+04  0.15050000000E+03 0.  1.
</event>
<event>
 4    1  0.4630618E-004  0.6500000E+04  0.7818608E-02  0.7223770E-01
         52   -1    0    0    0    0  0.00000000000E+00  0.00000000000E+00  0.64930732323E+04  0.65000000000E+04  0.30000000000E+03 0.  1.
        -52   -1    0    0    0    0 -0.00000000000E+00 -0.00000000000E+00 -0.64930732323E+04  0.65000000000E+04  0.30000000000E+03 0. -1.
     100001    1    1    2    0    0  0.19149934418E+03  0.60142250410E+03 -0.64675318880E+04  0.65000000000E+04  0.15050000000E+03 0. -1.
     100001    1    1    2    0    0 -0.19149934418E+03 -0.60142250410E+03  0.64675318880E+04  0.65000000000E+04  0.15050000000E+03 0.  1.
</event>
<event>
 4    1  0.4630618E-004  0.6500000E+04  0.7818608E-02  0.7223770E-01
         52   -1    0    0    0    0  0.00000000000E+00  0.00000000000E+00  0.64930732323E+04  0.65000000000E+04  0.30000000000E+03 0. -1.
        -52   -1    0    0    0    0 -0.00000000000E+00 -0.00000000000E+00 -0.64930732323E+04  0.65000000000E+04  0.30000000000E+03 0.  1.
     100001    1    1    2    0    0  0.68871001600E+03 -0.54274768237E+03  0.64388239001E+04  0.65000000000E+04  0.15050000000E+03 0. -1.
     100001    1    1    2    0    0 -0.68871001600E+03  0.54274768237E+03 -0.64388239001E+04  0.65000000000E+04  0.15050000000E+03 0.  1.
</event>
<event>
 4    1  0.4630618E-004  0.6500000E+04  0.7818608E-02  0.7223770E-01
         52   -1    0    0    0    0  0.00000000000E+00  0.00000000000E+00  0.64930732323E+04  0.65000000000E+04  0.30000000000E+03 0. -1.
        -52   -1    0    0    0    0 -0.00000000000E+00 -0.00000000000E+00 -0.64930732323E+04  0.65000000000E+04  0.30000000000E+03 0. -1.
     100001    1    1    2    0    0 -0.12659411910E+03 -0.46881494978E+03  0.64800876708E+04  0.65000000000E+04  0.15050000000E+03 0. -1.
     100001    1    1    2    0    0  0.12659411910E+03  0.46881494978E+03 -0.64800876708E+04  0.65000000000E+04  0.15050000000E+03 0. -1.
</event>
<event>
 4    1  0.4630618E-004  0.6500000E+04  0.7818608E-02  0.7223770E-01
         52   -1    0    0    0    0  0.00000000000E+00  0.00000000000E+00  0.64930732323E+04  0.65000000000E+04  0.30000000000E+03 0.  1.
        -52   -1    0    0    0    0 -0.00000000000E+00 -0.00000000000E+00 -0.64930732323E+04  0.65000000000E+04  0.30000000000E+03 0. -1.
     100001    1    1    2    0    0  0.55625056667E+03 -0.16797341051E+04  0.62527136823E+04  0.65000000000E+04  0.15050000000E+03 0.  1.
     100001    1    1    2    0    0 -0.55625056667E+03  0.16797341051E+04 -0.62527136823E+04  0.65000000000E+04  0.15050000000E+03 0. -1.
</event>
<event>
 4    1  0.4630618E-004  0.6500000E+04  0.7818608E-02  0.7223770E-01
         52   -1    0    0    0    0  0.00000000000E+00  0.00000000000E+00  0.64930732323E+04  0.65000000000E+04  0.30000000000E+03 0. -1.
        -52   -1    0    0    0    0 -0.00000000000E+00 -0.00000000000E+00 -0.64930732323E+04  0.65000000000E+04  0.30000000000E+03 0.  1.
     100001    1    1    2    0    0  0.11045186869E+04 -0.35543179345E+04 -0.53267449949E+04  0.65000000000E+04  0.15050000000E+03 0.  1.
     100001    1    1    2    0    0 -0.11045186869E+04  0.35543179345E+04  0.53267449949E+04  0.65000000000E+04  0.15050000000E+03 0. -1.
</event>
<event>
 4    1  0.4630618E-004  0.6500000E+04  0.7818608E-02  0.7223770E-01
         52   -1    0    0    0    0  0.00000000000E+00  0.00000000000E+00  0.64930732323E+04  0.65000000000E+04  0.30000000000E+03 0.  1.
        -52   -1    0    0    0    0 -0.00000000000E+00 -0.00000000000E+00 -0.64930732323E+04  0.65000000000E+04  0.30000000000E+03 0. -1.
     100001    1    1    2    0    0  0.48044102295E+03 -0.12573052906E+04 -0.63573351005E+04  0.65000000000E+04  0.15050000000E+03 0. -1.
     100001    1    1    2    0    0 -0.48044102295E+03  0.12573052906E+04  0.63573351005E+04  0.65000000000E+04  0.15050000000E+03 0.  1.
</event>
<event>
 4    1  0.4630618E-004  0.6500000E+04  0.7818608E-02  0.7223770E-01
         52   -1    0    0    0    0  0.00000000000E+00  0.00000000000E+00  0.64930732323E+04  0.65000000000E+04  0.30000000000E+03 0. -1.
        -52   -1    0    0    0    0 -0.00000000000E+00 -0.00000000000E+00 -0.64930732323E+04  0.65000000000E+04  0.30000000000E+03 0. -1.
     100001    1    1    2    0    0  0.71049204519E+02  0.17900907274E+03  0.64954027983E+04  0.65000000000E+04  0.15050000000E+03 0. -1.
     100001    1    1    2    0    0 -0.71049204519E+02 -0.17900907274E+03 -0.64954027983E+04  0.65000000000E+04  0.15050000000E+03 0. -1.
</event>
<event>
 4    1  0.4630618E-004  0.6500000E+04  0.7818608E-02  0.7223770E-01
         52   -1    0    0    0    0  0.00000000000E+00  0.00000000000E+00  0.64930732323E+04  0.65000000000E+04  0.30000000000E+03 0.  1.
        -52   -1    0    0    0    0 -0.00000000000E+00 -0.00000000000E+00 -0.64930732323E+04  0.65000000000E+04  0.30000000000E+03 0. -1.
     100001    1    1    2    0    0  0.58894201870E+03  0.19605833803E+04 -0.61673827397E+04  0.65000000000E+04  0.15050000000E+03 0. -1.
     100001    1    1    2    0    0 -0.58894201870E+03 -0.19605833803E+04  0.61673827397E+04  0.65000000000E+04  0.15050000000E+03 0.  1.
</event>
<event>
 4    1  0.4630618E-004  0.6500000E+04  0.7818608E-02  0.7223770E-01
         52   -1    0    0    0    0  0.00000000000E+00  0.00000000000E+00  0.64930732323E+04  0.65000000000E+04  0.30000000000E+03 0. -1.
        -52   -1    0    0    0    0 -0.00000000000E+00 -0.00000000000E+00 -0.64930732323E+04  0.65000000000E+04  0.30000000000E+03 0.  1.
     100001    1    1    2    0    0 -0.55418274271E+03  0.15798113208E+04  0.62788874356E+04  0.65000000000E+04  0.15050000000E+03 0. -1.
     100001    1    1    2    0    0  0.55418274271E+03 -0.15798113208E+04 -0.62788874356E+04  0.65000000000E+04  0.15050000000E+03 0.  1.
</event>
<event>
 4    1  0.4630618E-004  0.6500000E+04  0.7818608E-02  0.7223770E-01
         52   -1    0    0    0    0  0.00000000000E+00  0.00000000000E+00  0.64930732323E+04  0.65000000000E+04  0.30000000000E+03 0.  1.
        -52   -1    0    0    0    0 -0.00000000000E+00 -0.00000000000E+00 -0.64930732323E+04  0.65000000000E+04  0.30000000000E+03 0. -1.
     100001    1    1    2    0    0  0.43893025933E+04 -0.35202804349E+03  0.47788543346E+04  0.65000000000E+04  0.15050000000E+03 0.  1.
     100001    1    1    2    0    0 -0.43893025933E+04  0.35202804349E+03 -0.47788543346E+04  0.65000000000E+04  0.15050000000E+03 0. -1.
</event>
<event>
 4    1  0.4630618E-004  0.6500000E+04  0.7818608E-02  0.7223770E-01
         52   -1    0    0    0    0  0.00000000000E+00  0.00000000000E+00  0.64930732323E+04  0.65000000000E+04  0.30000000000E+03 0.  1.
        -52   -1    0    0    0    0 -0.00000000000E+00 -0.00000000000E+00 -0.64930732323E+04  0.65000000000E+04  0.30000000000E+03 0. -1.
     100001    1    1    2    0    0 -0.10561812868E+03 -0.81957887238E+03  0.64455011468E+04  0.65000000000E+04  0.15050000000E+03 0.  1.
     100001    1    1    2    0    0  0.10561812868E+03  0.81957887238E+03 -0.64455011468E+04  0.65000000000E+04  0.15050000000E+03 0. -1.
</event>
<event>
 4    1  0.4630618E-004  0.6500000E+04  0.7818608E-02  0.7223770E-01
         52   -1    0    0    0    0  0.00000000000E+00  0.00000000000E+00  0.64930732323E+04  0.65000000000E+04  0.30000000000E+03 0.  1.
        -52   -1    0    0    0    0 -0.00000000000E+00 -0.00000000000E+00 -0.64930732323E+04  0.65000000000E+04  0.30000000000E+03 0. -1.
     100001    1    1    2    0    0  0.39330575596E+04  0.23120875733E+04  0.46273814449E+04  0.65000000000E+04  0.15050000000E+03 0.  1.
     100001    1    1    2    0    0 -0.39330575596E+04 -0.23120875733E+04 -0.46273814449E+04  0.65000000000E+04  0.15050000000E+03 0. -1.
</event>
<event>
 4    1  0.4630618E-004  0.6500000E+04  0.7818608E-02  0.7223770E-01
         52   -1    0    0    0    0  0.00000000000E+00  0.00000000000E+00  0.64930732323E+04  0.65000000000E+04  0.30000000000E+03 0. -1.
        -52   -1    0    0    0    0 -0.00000000000E+00 -0.00000000000E+00 -0.64930732323E+04  0.65000000000E+04  0.30000000000E+03 0.  1.
     100001    1    1    2    0    0 -0.16506462753E+03 -0.71863419108E+03  0.64562890516E+04  0.65000000000E+04  0.15050000000E+03 0. -1.
     100001    1    1    2    0    0  0.16506462753E+03  0.71863419108E+03 -0.64562890516E+04  0.65000000000E+04  0.15050000000E+03 0.  1.
</event>
<event>
 4    1  0.4630618E-004  0.6500000E+04  0.7818608E-02  0.7223770E-01
         52   -1    0    0    0    0  0.00000000000E+00  0.00000000000E+00  0.64930732323E+04  0.65000000000E+04  0.30000000000E+03 0. -1.
        -52   -1    0    0    0    0 -0.00000000000E+00 -0.00000000000E+00 -0.64930732323E+04  0.65000000000E+04  0.30000000000E+03 0.  1.
     100001    1    1    2    0    0  0.53205131301E+02 -0.46203040370E+03 -0.64815929269E+04  0.65000000000E+04  0.15050000000E+03 0.  1.
     100001    1    1    2    0    0 -0.53205131301E+02  0.46203040370E+03  0.64815929269E+04  0.65000000000E+04  0.15050000000E+03 0. -1.
</event>
<event>
 4    1  0.4630618E-004  0.6500000E+04  0.7818608E-02  0.7223770E-01
         52   -1    0    0    0    0  0.00000000000E+00  0.00000000000E+00  0.64930732323E+04  0.65000000000E+04  0.30000000000E+03 0. -1.
        -52   -1    0    0    0    0 -0.00000000000E+00 -0.00000000000E+00 -0.64930732323E+04  0.65000000000E+04  0.30000000000E+03 0.  1.
     100001    1    1    2    0    0  0.15741543274E+04 -0.24845854864E+04  0.57944993627E+04  0.65000000000E+04  0.15050000000E+03 0. -1.
     100001    1    1    2    0    0 -0.15741543274E+04  0.24845854864E+04 -0.57944993627E+04  0.65000000000E+04  0.15050000000E+03 0.  1.
</event>
<event>
 4    1  0.4630618E-004  0.6500000E+04  0.7818608E-02  0.7223770E-01
         52   -1    0    0    0    0  0.00000000000E+00  0.00000000000E+00  0.64930732323E+04  0.65000000000E+04  0.30000000000E+03 0. -1.
        -52   -1    0    0    0    0 -0.00000000000E+00 -0.00000000000E+00 -0.64930732323E+04  0.65000000000E+04  0.30000000000E+03 0.  1.
     100001    1    1    2    0    0 -0.28709563096E+04 -0.52796023908E+04  0.24719947843E+04  0.65000000000E+04  0.15050000000E+03 0. -1.
     100001    1    1    2    0    0  0.28709563096E+04  0.52796023908E+04 -0.24719947843E+04  0.65000000000E+04  0.15050000000E+03 0.  1.
</event>
