<event>
 4    1  0.5040302E-001  0.5000050E+01  0.7818608E-02  0.2136455E+00
        -11   -1    0    0    0    0  0.00000000000E+00  0.00000000000E+00  0.50000499739E+01  0.50000500000E+01  0.51100000000E-03 0. -1.
         11   -1    0    0    0    0 -0.00000000000E+00 -0.00000000000E+00 -0.50000499739E+01  0.50000500000E+01  0.51100000000E-03 0.  1.
     100001    1    1    2    0    0  0.17585767120E-01  0.10715232104E-01  0.87136155382E-02  0.50000500000E+01  0.50000000000E+01 0. -1.
     100001    1    1    2    0    0 -0.17585767120E-01 -0.10715232104E-01 -0.87136155382E-02  0.50000500000E+01  0.50000000000E+01 0.  1.
</event>
<event>
 4    1  0.5040302E-001  0.5000050E+01  0.7818608E-02  0.2136455E+00
        -11   -1    0    0    0    0  0.00000000000E+00  0.00000000000E+00  0.50000499739E+01  0.50000500000E+01  0.51100000000E-03 0. -1.
         11   -1    0    0    0    0 -0.00000000000E+00 -0.00000000000E+00 -0.50000499739E+01  0.50000500000E+01  0.51100000000E-03 0.  1.
     100001    1    1    2    0    0  0.30835314386E-02  0.84122463783E-02 -0.20487275191E-01  0.50000500000E+01  0.50000000000E+01 0.  0.
     100001    1    1    2    0    0 -0.30835314386E-02 -0.84122463783E-02  0.20487275191E-01  0.50000500000E+01  0.50000000000E+01 0.  0.
</event>
<event>
 4    1  0.5040302E-001  0.5000050E+01  0.7818608E-02  0.2136455E+00
        -11   -1    0    0    0    0  0.00000000000E+00  0.00000000000E+00  0.50000499739E+01  0.50000500000E+01  0.51100000000E-03 0.  1.
         11   -1    0    0    0    0 -0.00000000000E+00 -0.00000000000E+00 -0.50000499739E+01  0.50000500000E+01  0.51100000000E-03 0. -1.
     100001    1    1    2    0    0 -0.17437455400E-01 -0.13917753336E-01 -0.14945873180E-02  0.50000500000E+01  0.50000000000E+01 0.  1.
     100001    1    1    2    0    0  0.17437455400E-01  0.13917753336E-01  0.14945873180E-02  0.50000500000E+01  0.50000000000E+01 0.  0.
</event>
<event>
 4    1  0.5040302E-001  0.5000050E+01  0.7818608E-02  0.2136455E+00
        -11   -1    0    0    0    0  0.00000000000E+00  0.00000000000E+00  0.50000499739E+01  0.50000500000E+01  0.51100000000E-03 0.  1.
         11   -1    0    0    0    0 -0.00000000000E+00 -0.00000000000E+00 -0.50000499739E+01  0.50000500000E+01  0.51100000000E-03 0. -1.
     100001    1    1    2    0    0 -0.51730877734E-02 -0.19525849428E-01 -0.95907698865E-02  0.50000500000E+01  0.50000000000E+01 0. -1.
     100001    1    1    2    0    0  0.51730877734E-02  0.19525849428E-01  0.95907698865E-02  0.50000500000E+01  0.50000000000E+01 0.  1.
</event>
<event>
 4    1  0.5040302E-001  0.5000050E+01  0.7818608E-02  0.2136455E+00
        -11   -1    0    0    0    0  0.00000000000E+00  0.00000000000E+00  0.50000499739E+01  0.50000500000E+01  0.51100000000E-03 0. -1.
         11   -1    0    0    0    0 -0.00000000000E+00 -0.00000000000E+00 -0.50000499739E+01  0.50000500000E+01  0.51100000000E-03 0.  1.
     100001    1    1    2    0    0  0.31403763128E-02 -0.18868765613E-01  0.11580596740E-01  0.50000500000E+01  0.50000000000E+01 0. -1.
     100001    1    1    2    0    0 -0.31403763128E-02  0.18868765613E-01 -0.11580596740E-01  0.50000500000E+01  0.50000000000E+01 0.  1.
</event>
<event>
 4    1  0.5040302E-001  0.5000050E+01  0.7818608E-02  0.2136455E+00
        -11   -1    0    0    0    0  0.00000000000E+00  0.00000000000E+00  0.50000499739E+01  0.50000500000E+01  0.51100000000E-03 0. -1.
         11   -1    0    0    0    0 -0.00000000000E+00 -0.00000000000E+00 -0.50000499739E+01  0.50000500000E+01  0.51100000000E-03 0.  1.
     100001    1    1    2    0    0  0.10403317788E-01  0.11353085759E-01  0.16213603016E-01  0.50000500000E+01  0.50000000000E+01 0. -1.
     100001    1    1    2    0    0 -0.10403317788E-01 -0.11353085759E-01 -0.16213603016E-01  0.50000500000E+01  0.50000000000E+01 0. -1.
</event>
<event>
 4    1  0.5040302E-001  0.5000050E+01  0.7818608E-02  0.2136455E+00
        -11   -1    0    0    0    0  0.00000000000E+00  0.00000000000E+00  0.50000499739E+01  0.50000500000E+01  0.51100000000E-03 0. -1.
         11   -1    0    0    0    0 -0.00000000000E+00 -0.00000000000E+00 -0.50000499739E+01  0.50000500000E+01  0.51100000000E-03 0.  1.
     100001    1    1    2    0    0  0.73780099033E-02 -0.16551568453E-01  0.13100116473E-01  0.50000500000E+01  0.50000000000E+01 0.  0.
     100001    1    1    2    0    0 -0.73780099033E-02  0.16551568453E-01 -0.13100116473E-01  0.50000500000E+01  0.50000000000E+01 0. -1.
</event>
<event>
 4    1  0.5040302E-001  0.5000050E+01  0.7818608E-02  0.2136455E+00
        -11   -1    0    0    0    0  0.00000000000E+00  0.00000000000E+00  0.50000499739E+01  0.50000500000E+01  0.51100000000E-03 0. -1.
         11   -1    0    0    0    0 -0.00000000000E+00 -0.00000000000E+00 -0.50000499739E+01  0.50000500000E+01  0.51100000000E-03 0.  1.
     100001    1    1    2    0    0  0.18522841915E-01  0.53637832036E-03 -0.12514756317E-01  0.50000500000E+01  0.50000000000E+01 0.  0.
     100001    1    1    2    0    0 -0.18522841915E-01 -0.53637832036E-03  0.12514756317E-01  0.50000500000E+01  0.50000000000E+01 0.  0.
</event>
<event>
 4    1  0.5040302E-001  0.5000050E+01  0.7818608E-02  0.2136455E+00
        -11   -1    0    0    0    0  0.00000000000E+00  0.00000000000E+00  0.50000499739E+01  0.50000500000E+01  0.51100000000E-03 0. -1.
         11   -1    0    0    0    0 -0.00000000000E+00 -0.00000000000E+00 -0.50000499739E+01  0.50000500000E+01  0.51100000000E-03 0.  1.
     100001    1    1    2    0    0 -0.52944477786E-02 -0.97233737062E-02  0.19427488939E-01  0.50000500000E+01  0.50000000000E+01 0.  0.
     100001    1    1    2    0    0  0.52944477786E-02  0.97233737062E-02 -0.19427488939E-01  0.50000500000E+01  0.50000000000E+01 0.  1.
</event>
<event>
 4    1  0.5040302E-001  0.5000050E+01  0.7818608E-02  0.2136455E+00
        -11   -1    0    0    0    0  0.00000000000E+00  0.00000000000E+00  0.50000499739E+01  0.50000500000E+01  0.51100000000E-03 0. -1.
         11   -1    0    0    0    0 -0.00000000000E+00 -0.00000000000E+00 -0.50000499739E+01  0.50000500000E+01  0.51100000000E-03 0.  1.
     100001    1    1    2    0    0 -0.87039106338E-02 -0.11092040863E-01 -0.17355433419E-01  0.50000500000E+01  0.50000000000E+01 0.  1.
     100001    1    1    2    0    0  0.87039106338E-02  0.11092040863E-01  0.17355433419E-01  0.50000500000E+01  0.50000000000E+01 0. -1.
</event>
<event>
 4    1  0.5040302E-001  0.5000050E+01  0.7818608E-02  0.2136455E+00
        -11   -1    0    0    0    0  0.00000000000E+00  0.00000000000E+00  0.50000499739E+01  0.50000500000E+01  0.51100000000E-03 0. -1.
         11   -1    0    0    0    0 -0.00000000000E+00 -0.00000000000E+00 -0.50000499739E+01  0.50000500000E+01  0.51100000000E-03 0.  1.
     100001    1    1    2    0    0 -0.86405317618E-02  0.20623499730E-01 -0.12235099506E-03  0.50000500000E+01  0.50000000000E+01 0. -1.
     100001    1    1    2    0    0  0.86405317618E-02 -0.20623499730E-01  0.12235099506E-03  0.50000500000E+01  0.50000000000E+01 0.  0.
</event>
<event>
 4    1  0.5040302E-001  0.5000050E+01  0.7818608E-02  0.2136455E+00
        -11   -1    0    0    0    0  0.00000000000E+00  0.00000000000E+00  0.50000499739E+01  0.50000500000E+01  0.51100000000E-03 0. -1.
         11   -1    0    0    0    0 -0.00000000000E+00 -0.00000000000E+00 -0.50000499739E+01  0.50000500000E+01  0.51100000000E-03 0.  1.
     100001    1    1    2    0    0 -0.88620397829E-02 -0.14506577026E-01 -0.14526733077E-01  0.50000500000E+01  0.50000000000E+01 0. -1.
     100001    1    1    2    0    0  0.88620397829E-02  0.14506577026E-01  0.14526733077E-01  0.50000500000E+01  0.50000000000E+01 0.  1.
</event>
<event>
 4    1  0.5040302E-001  0.5000050E+01  0.7818608E-02  0.2136455E+00
        -11   -1    0    0    0    0  0.00000000000E+00  0.00000000000E+00  0.50000499739E+01  0.50000500000E+01  0.51100000000E-03 0. -1.
         11   -1    0    0    0    0 -0.00000000000E+00 -0.00000000000E+00 -0.50000499739E+01  0.50000500000E+01  0.51100000000E-03 0.  1.
     100001    1    1    2    0    0 -0.15942013394E-01 -0.41264513451E-02 -0.15127032367E-01  0.50000500000E+01  0.50000000000E+01 0. -1.
     100001    1    1    2    0    0  0.15942013394E-01  0.41264513451E-02  0.15127032367E-01  0.50000500000E+01  0.50000000000E+01 0.  0.
</event>
<event>
 4    1  0.5040302E-001  0.5000050E+01  0.7818608E-02  0.2136455E+00
        -11   -1    0    0    0    0  0.00000000000E+00  0.00000000000E+00  0.50000499739E+01  0.50000500000E+01  0.51100000000E-03 0.  1.
         11   -1    0    0    0    0 -0.00000000000E+00 -0.00000000000E+00 -0.50000499739E+01  0.50000500000E+01  0.51100000000E-03 0. -1.
     100001    1    1    2    0    0  0.10656731045E-02 -0.37923370466E-02  0.22011020434E-01  0.50000500000E+01  0.50000000000E+01 0.  1.
     100001    1    1    2    0    0 -0.10656731045E-02  0.37923370466E-02 -0.22011020434E-01  0.50000500000E+01  0.50000000000E+01 0.  0.
</event>
<event>
 4    1  0.5040302E-001  0.5000050E+01  0.7818608E-02  0.2136455E+00
        -11   -1    0    0    0    0  0.00000000000E+00  0.00000000000E+00  0.50000499739E+01  0.50000500000E+01  0.51100000000E-03 0.  1.
         11   -1    0    0    0    0 -0.00000000000E+00 -0.00000000000E+00 -0.50000499739E+01  0.50000500000E+01  0.51100000000E-03 0. -1.
     100001    1    1    2    0    0  0.37990045880E-02 -0.18978851433E-01 -0.11197020247E-01  0.50000500000E+01  0.50000000000E+01 0. -1.
     100001    1    1    2    0    0 -0.37990045880E-02  0.18978851433E-01  0.11197020247E-01  0.50000500000E+01  0.50000000000E+01 0.  1.
</event>
<event>
 4    1  0.5040302E-001  0.5000050E+01  0.7818608E-02  0.2136455E+00
        -11   -1    0    0    0    0  0.00000000000E+00  0.00000000000E+00  0.50000499739E+01  0.50000500000E+01  0.51100000000E-03 0. -1.
         11   -1    0    0    0    0 -0.00000000000E+00 -0.00000000000E+00 -0.50000499739E+01  0.50000500000E+01  0.51100000000E-03 0.  1.
     100001    1    1    2    0    0 -0.21022686638E-01 -0.19759160343E-02  0.73583219786E-02  0.50000500000E+01  0.50000000000E+01 0. -1.
     100001    1    1    2    0    0  0.21022686638E-01  0.19759160343E-02 -0.73583219786E-02  0.50000500000E+01  0.50000000000E+01 0.  1.
</event>
<event>
 4    1  0.5040302E-001  0.5000050E+01  0.7818608E-02  0.2136455E+00
        -11   -1    0    0    0    0  0.00000000000E+00  0.00000000000E+00  0.50000499739E+01  0.50000500000E+01  0.51100000000E-03 0.  1.
         11   -1    0    0    0    0 -0.00000000000E+00 -0.00000000000E+00 -0.50000499739E+01  0.50000500000E+01  0.51100000000E-03 0. -1.
     100001    1    1    2    0    0 -0.35684806499E-02  0.77968296951E-02 -0.20651341181E-01  0.50000500000E+01  0.50000000000E+01 0. -1.
     100001    1    1    2    0    0  0.35684806499E-02 -0.77968296951E-02  0.20651341181E-01  0.50000500000E+01  0.50000000000E+01 0.  0.
</event>
<event>
 4    1  0.5040302E-001  0.5000050E+01  0.7818608E-02  0.2136455E+00
        -11   -1    0    0    0    0  0.00000000000E+00  0.00000000000E+00  0.50000499739E+01  0.50000500000E+01  0.51100000000E-03 0.  1.
         11   -1    0    0    0    0 -0.00000000000E+00 -0.00000000000E+00 -0.50000499739E+01  0.50000500000E+01  0.51100000000E-03 0. -1.
     100001    1    1    2    0    0 -0.15547942485E-01 -0.18644705732E-02 -0.15962071731E-01  0.50000500000E+01  0.50000000000E+01 0. -1.
     100001    1    1    2    0    0  0.15547942485E-01  0.18644705732E-02  0.15962071731E-01  0.50000500000E+01  0.50000000000E+01 0.  1.
</event>
<event>
 4    1  0.5040302E-001  0.5000050E+01  0.7818608E-02  0.2136455E+00
        -11   -1    0    0    0    0  0.00000000000E+00  0.00000000000E+00  0.50000499739E+01  0.50000500000E+01  0.51100000000E-03 0.  1.
         11   -1    0    0    0    0 -0.00000000000E+00 -0.00000000000E+00 -0.50000499739E+01  0.50000500000E+01  0.51100000000E-03 0. -1.
     100001    1    1    2    0    0  0.17003979931E-01  0.28615447679E-02 -0.14236527949E-01  0.50000500000E+01  0.50000000000E+01 0. -1.
     100001    1    1    2    0    0 -0.17003979931E-01 -0.28615447679E-02  0.14236527949E-01  0.50000500000E+01  0.50000000000E+01 0.  1.
</event>
<event>
 4    1  0.5040302E-001  0.5000050E+01  0.7818608E-02  0.2136455E+00
        -11   -1    0    0    0    0  0.00000000000E+00  0.00000000000E+00  0.50000499739E+01  0.50000500000E+01  0.51100000000E-03 0. -1.
         11   -1    0    0    0    0 -0.00000000000E+00 -0.00000000000E+00 -0.50000499739E+01  0.50000500000E+01  0.51100000000E-03 0.  1.
     100001    1    1    2    0    0 -0.17702601525E-01 -0.10952836816E-01  0.81642981897E-02  0.50000500000E+01  0.50000000000E+01 0. -1.
     100001    1    1    2    0    0  0.17702601525E-01  0.10952836816E-01 -0.81642981897E-02  0.50000500000E+01  0.50000000000E+01 0.  1.
</event>
<event>
 4    1  0.5040302E-001  0.5000050E+01  0.7818608E-02  0.2136455E+00
        -11   -1    0    0    0    0  0.00000000000E+00  0.00000000000E+00  0.50000499739E+01  0.50000500000E+01  0.51100000000E-03 0. -1.
         11   -1    0    0    0    0 -0.00000000000E+00 -0.00000000000E+00 -0.50000499739E+01  0.50000500000E+01  0.51100000000E-03 0.  1.
     100001    1    1    2    0    0 -0.61519938086E-02  0.10215664887E-02  0.21473515643E-01  0.50000500000E+01  0.50000000000E+01 0.  0.
     100001    1    1    2    0    0  0.61519938086E-02 -0.10215664887E-02 -0.21473515643E-01  0.50000500000E+01  0.50000000000E+01 0.  1.
</event>
<event>
 4    1  0.5040302E-001  0.5000050E+01  0.7818608E-02  0.2136455E+00
        -11   -1    0    0    0    0  0.00000000000E+00  0.00000000000E+00  0.50000499739E+01  0.50000500000E+01  0.51100000000E-03 0. -1.
         11   -1    0    0    0    0 -0.00000000000E+00 -0.00000000000E+00 -0.50000499739E+01  0.50000500000E+01  0.51100000000E-03 0.  1.
     100001    1    1    2    0    0 -0.12353318808E-02  0.22325464514E-01  0.22380655812E-03  0.50000500000E+01  0.50000000000E+01 0.  1.
     100001    1    1    2    0    0  0.12353318808E-02 -0.22325464514E-01 -0.22380655812E-03  0.50000500000E+01  0.50000000000E+01 0. -1.
</event>
<event>
 4    1  0.5040302E-001  0.5000050E+01  0.7818608E-02  0.2136455E+00
        -11   -1    0    0    0    0  0.00000000000E+00  0.00000000000E+00  0.50000499739E+01  0.50000500000E+01  0.51100000000E-03 0.  1.
         11   -1    0    0    0    0 -0.00000000000E+00 -0.00000000000E+00 -0.50000499739E+01  0.50000500000E+01  0.51100000000E-03 0. -1.
     100001    1    1    2    0    0 -0.20951453402E-01  0.22325512349E-02 -0.74869763799E-02  0.50000500000E+01  0.50000000000E+01 0.  1.
     100001    1    1    2    0    0  0.20951453402E-01 -0.22325512349E-02  0.74869763799E-02  0.50000500000E+01  0.50000000000E+01 0. -1.
</event>
<event>
 4    1  0.5040302E-001  0.5000050E+01  0.7818608E-02  0.2136455E+00
        -11   -1    0    0    0    0  0.00000000000E+00  0.00000000000E+00  0.50000499739E+01  0.50000500000E+01  0.51100000000E-03 0. -1.
         11   -1    0    0    0    0 -0.00000000000E+00 -0.00000000000E+00 -0.50000499739E+01  0.50000500000E+01  0.51100000000E-03 0.  1.
     100001    1    1    2    0    0 -0.14324280697E-01 -0.87893009543E-02  0.14750107500E-01  0.50000500000E+01  0.50000000000E+01 0. -1.
     100001    1    1    2    0    0  0.14324280697E-01  0.87893009543E-02 -0.14750107500E-01  0.50000500000E+01  0.50000000000E+01 0.  1.
</event>
<event>
 4    1  0.5040302E-001  0.5000050E+01  0.7818608E-02  0.2136455E+00
        -11   -1    0    0    0    0  0.00000000000E+00  0.00000000000E+00  0.50000499739E+01  0.50000500000E+01  0.51100000000E-03 0. -1.
         11   -1    0    0    0    0 -0.00000000000E+00 -0.00000000000E+00 -0.50000499739E+01  0.50000500000E+01  0.51100000000E-03 0.  1.
     100001    1    1    2    0    0 -0.29329471192E-02  0.10378648781E-01  0.19587852630E-01  0.50000500000E+01  0.50000000000E+01 0.  0.
     100001    1    1    2    0    0  0.29329471192E-02 -0.10378648781E-01 -0.19587852630E-01  0.50000500000E+01  0.50000000000E+01 0. -1.
</event>
<event>
 4    1  0.5040302E-001  0.5000050E+01  0.7818608E-02  0.2136455E+00
        -11   -1    0    0    0    0  0.00000000000E+00  0.00000000000E+00  0.50000499739E+01  0.50000500000E+01  0.51100000000E-03 0. -1.
         11   -1    0    0    0    0 -0.00000000000E+00 -0.00000000000E+00 -0.50000499739E+01  0.50000500000E+01  0.51100000000E-03 0.  1.
     100001    1    1    2    0    0 -0.21582048343E-01 -0.55455284703E-02  0.18613982145E-02  0.50000500000E+01  0.50000000000E+01 0.  1.
     100001    1    1    2    0    0  0.21582048343E-01  0.55455284703E-02 -0.18613982145E-02  0.50000500000E+01  0.50000000000E+01 0. -1.
</event>
<event>
 4    1  0.5040302E-001  0.5000050E+01  0.7818608E-02  0.2136455E+00
        -11   -1    0    0    0    0  0.00000000000E+00  0.00000000000E+00  0.50000499739E+01  0.50000500000E+01  0.51100000000E-03 0. -1.
         11   -1    0    0    0    0 -0.00000000000E+00 -0.00000000000E+00 -0.50000499739E+01  0.50000500000E+01  0.51100000000E-03 0.  1.
     100001    1    1    2    0    0 -0.22454477190E-02 -0.18214458604E-01 -0.12774739227E-01  0.50000500000E+01  0.50000000000E+01 0.  0.
     100001    1    1    2    0    0  0.22454477190E-02  0.18214458604E-01  0.12774739227E-01  0.50000500000E+01  0.50000000000E+01 0.  0.
</event>
<event>
 4    1  0.5040302E-001  0.5000050E+01  0.7818608E-02  0.2136455E+00
        -11   -1    0    0    0    0  0.00000000000E+00  0.00000000000E+00  0.50000499739E+01  0.50000500000E+01  0.51100000000E-03 0. -1.
         11   -1    0    0    0    0 -0.00000000000E+00 -0.00000000000E+00 -0.50000499739E+01  0.50000500000E+01  0.51100000000E-03 0.  1.
     100001    1    1    2    0    0  0.78564433819E-02 -0.16185918519E-01  0.13277606678E-01  0.50000500000E+01  0.50000000000E+01 0. -1.
     100001    1    1    2    0    0 -0.78564433819E-02  0.16185918519E-01 -0.13277606678E-01  0.50000500000E+01  0.50000000000E+01 0.  1.
</event>
<event>
 4    1  0.5040302E-001  0.5000050E+01  0.7818608E-02  0.2136455E+00
        -11   -1    0    0    0    0  0.00000000000E+00  0.00000000000E+00  0.50000499739E+01  0.50000500000E+01  0.51100000000E-03 0.  1.
         11   -1    0    0    0    0 -0.00000000000E+00 -0.00000000000E+00 -0.50000499739E+01  0.50000500000E+01  0.51100000000E-03 0. -1.
     100001    1    1    2    0    0 -0.17496922856E-01 -0.12689181642E-01 -0.57310435207E-02  0.50000500000E+01  0.50000000000E+01 0.  1.
     100001    1    1    2    0    0  0.17496922856E-01  0.12689181642E-01  0.57310435207E-02  0.50000500000E+01  0.50000000000E+01 0. -1.
</event>
<event>
 4    1  0.5040302E-001  0.5000050E+01  0.7818608E-02  0.2136455E+00
        -11   -1    0    0    0    0  0.00000000000E+00  0.00000000000E+00  0.50000499739E+01  0.50000500000E+01  0.51100000000E-03 0. -1.
         11   -1    0    0    0    0 -0.00000000000E+00 -0.00000000000E+00 -0.50000499739E+01  0.50000500000E+01  0.51100000000E-03 0.  1.
     100001    1    1    2    0    0 -0.77657910998E-02 -0.18556225285E-01  0.97653208726E-02  0.50000500000E+01  0.50000000000E+01 0. -1.
     100001    1    1    2    0    0  0.77657910998E-02  0.18556225285E-01 -0.97653208726E-02  0.50000500000E+01  0.50000000000E+01 0.  1.
</event>
<event>
 4    1  0.5040302E-001  0.5000050E+01  0.7818608E-02  0.2136455E+00
        -11   -1    0    0    0    0  0.00000000000E+00  0.00000000000E+00  0.50000499739E+01  0.50000500000E+01  0.51100000000E-03 0.  1.
         11   -1    0    0    0    0 -0.00000000000E+00 -0.00000000000E+00 -0.50000499739E+01  0.50000500000E+01  0.51100000000E-03 0. -1.
     100001    1    1    2    0    0 -0.98202329609E-02 -0.64028818431E-02 -0.19041234957E-01  0.50000500000E+01  0.50000000000E+01 0.  0.
     100001    1    1    2    0    0  0.98202329609E-02  0.64028818431E-02  0.19041234957E-01  0.50000500000E+01  0.50000000000E+01 0.  1.
</event>
<event>
 4    1  0.5040302E-001  0.5000050E+01  0.7818608E-02  0.2136455E+00
        -11   -1    0    0    0    0  0.00000000000E+00  0.00000000000E+00  0.50000499739E+01  0.50000500000E+01  0.51100000000E-03 0. -1.
         11   -1    0    0    0    0 -0.00000000000E+00 -0.00000000000E+00 -0.50000499739E+01  0.50000500000E+01  0.51100000000E-03 0.  1.
     100001    1    1    2    0    0  0.12655707531E-01 -0.15422802529E-01  0.10098154735E-01  0.50000500000E+01  0.50000000000E+01 0. -1.
     100001    1    1    2    0    0 -0.12655707531E-01  0.15422802529E-01 -0.10098154735E-01  0.50000500000E+01  0.50000000000E+01 0.  1.
</event>
<event>
 4    1  0.5040302E-001  0.5000050E+01  0.7818608E-02  0.2136455E+00
        -11   -1    0    0    0    0  0.00000000000E+00  0.00000000000E+00  0.50000499739E+01  0.50000500000E+01  0.51100000000E-03 0.  1.
         11   -1    0    0    0    0 -0.00000000000E+00 -0.00000000000E+00 -0.50000499739E+01  0.50000500000E+01  0.51100000000E-03 0. -1.
     100001    1    1    2    0    0  0.73211746991E-02 -0.20048625267E-01 -0.66674977245E-02  0.50000500000E+01  0.50000000000E+01 0. -1.
     100001    1    1    2    0    0 -0.73211746991E-02  0.20048625267E-01  0.66674977245E-02  0.50000500000E+01  0.50000000000E+01 0.  1.
</event>
<event>
 4    1  0.5040302E-001  0.5000050E+01  0.7818608E-02  0.2136455E+00
        -11   -1    0    0    0    0  0.00000000000E+00  0.00000000000E+00  0.50000499739E+01  0.50000500000E+01  0.51100000000E-03 0. -1.
         11   -1    0    0    0    0 -0.00000000000E+00 -0.00000000000E+00 -0.50000499739E+01  0.50000500000E+01  0.51100000000E-03 0.  1.
     100001    1    1    2    0    0 -0.20585667859E-01 -0.63514616414E-02  0.59909693554E-02  0.50000500000E+01  0.50000000000E+01 0.  1.
     100001    1    1    2    0    0  0.20585667859E-01  0.63514616414E-02 -0.59909693554E-02  0.50000500000E+01  0.50000000000E+01 0. -1.
</event>
<event>
 4    1  0.5040302E-001  0.5000050E+01  0.7818608E-02  0.2136455E+00
        -11   -1    0    0    0    0  0.00000000000E+00  0.00000000000E+00  0.50000499739E+01  0.50000500000E+01  0.51100000000E-03 0.  1.
         11   -1    0    0    0    0 -0.00000000000E+00 -0.00000000000E+00 -0.50000499739E+01  0.50000500000E+01  0.51100000000E-03 0. -1.
     100001    1    1    2    0    0 -0.15498151791E-01  0.14331206025E-01  0.73774199381E-02  0.50000500000E+01  0.50000000000E+01 0.  0.
     100001    1    1    2    0    0  0.15498151791E-01 -0.14331206025E-01 -0.73774199381E-02  0.50000500000E+01  0.50000000000E+01 0.  1.
</event>
<event>
 4    1  0.5040302E-001  0.5000050E+01  0.7818608E-02  0.2136455E+00
        -11   -1    0    0    0    0  0.00000000000E+00  0.00000000000E+00  0.50000499739E+01  0.50000500000E+01  0.51100000000E-03 0. -1.
         11   -1    0    0    0    0 -0.00000000000E+00 -0.00000000000E+00 -0.50000499739E+01  0.50000500000E+01  0.51100000000E-03 0.  1.
     100001    1    1    2    0    0 -0.16474696733E-01  0.96603823505E-02  0.11630300100E-01  0.50000500000E+01  0.50000000000E+01 0.  0.
     100001    1    1    2    0    0  0.16474696733E-01 -0.96603823505E-02 -0.11630300100E-01  0.50000500000E+01  0.50000000000E+01 0. -1.
</event>
<event>
 4    1  0.5040302E-001  0.5000050E+01  0.7818608E-02  0.2136455E+00
        -11   -1    0    0    0    0  0.00000000000E+00  0.00000000000E+00  0.50000499739E+01  0.50000500000E+01  0.51100000000E-03 0.  1.
         11   -1    0    0    0    0 -0.00000000000E+00 -0.00000000000E+00 -0.50000499739E+01  0.50000500000E+01  0.51100000000E-03 0. -1.
     100001    1    1    2    0    0  0.66718626308E-02  0.20791436958E-01  0.48171462759E-02  0.50000500000E+01  0.50000000000E+01 0.  1.
     100001    1    1    2    0    0 -0.66718626308E-02 -0.20791436958E-01 -0.48171462759E-02  0.50000500000E+01  0.50000000000E+01 0. -1.
</event>
<event>
 4    1  0.5040302E-001  0.5000050E+01  0.7818608E-02  0.2136455E+00
        -11   -1    0    0    0    0  0.00000000000E+00  0.00000000000E+00  0.50000499739E+01  0.50000500000E+01  0.51100000000E-03 0.  1.
         11   -1    0    0    0    0 -0.00000000000E+00 -0.00000000000E+00 -0.50000499739E+01  0.50000500000E+01  0.51100000000E-03 0. -1.
     100001    1    1    2    0    0 -0.14746586224E-02 -0.10963323170E-01  0.19432792569E-01  0.50000500000E+01  0.50000000000E+01 0. -1.
     100001    1    1    2    0    0  0.14746586224E-02  0.10963323170E-01 -0.19432792569E-01  0.50000500000E+01  0.50000000000E+01 0. -1.
</event>
<event>
 4    1  0.5040302E-001  0.5000050E+01  0.7818608E-02  0.2136455E+00
        -11   -1    0    0    0    0  0.00000000000E+00  0.00000000000E+00  0.50000499739E+01  0.50000500000E+01  0.51100000000E-03 0.  1.
         11   -1    0    0    0    0 -0.00000000000E+00 -0.00000000000E+00 -0.50000499739E+01  0.50000500000E+01  0.51100000000E-03 0. -1.
     100001    1    1    2    0    0  0.18314675114E-01 -0.10419402210E-01 -0.74840652756E-02  0.50000500000E+01  0.50000000000E+01 0. -1.
     100001    1    1    2    0    0 -0.18314675114E-01  0.10419402210E-01  0.74840652756E-02  0.50000500000E+01  0.50000000000E+01 0.  1.
</event>
<event>
 4    1  0.5040302E-001  0.5000050E+01  0.7818608E-02  0.2136455E+00
        -11   -1    0    0    0    0  0.00000000000E+00  0.00000000000E+00  0.50000499739E+01  0.50000500000E+01  0.51100000000E-03 0. -1.
         11   -1    0    0    0    0 -0.00000000000E+00 -0.00000000000E+00 -0.50000499739E+01  0.50000500000E+01  0.51100000000E-03 0.  1.
     100001    1    1    2    0    0 -0.73374853571E-02 -0.85606124779E-03  0.21105235554E-01  0.50000500000E+01  0.50000000000E+01 0. -1.
     100001    1    1    2    0    0  0.73374853571E-02  0.85606124779E-03 -0.21105235554E-01  0.50000500000E+01  0.50000000000E+01 0.  0.
</event>
<event>
 4    1  0.5040302E-001  0.5000050E+01  0.7818608E-02  0.2136455E+00
        -11   -1    0    0    0    0  0.00000000000E+00  0.00000000000E+00  0.50000499739E+01  0.50000500000E+01  0.51100000000E-03 0.  1.
         11   -1    0    0    0    0 -0.00000000000E+00 -0.00000000000E+00 -0.50000499739E+01  0.50000500000E+01  0.51100000000E-03 0. -1.
     100001    1    1    2    0    0  0.13187008100E-03  0.93983491572E-02  0.20289311063E-01  0.50000500000E+01  0.50000000000E+01 0.  1.
     100001    1    1    2    0    0 -0.13187008100E-03 -0.93983491572E-02 -0.20289311063E-01  0.50000500000E+01  0.50000000000E+01 0. -1.
</event>
<event>
 4    1  0.5040302E-001  0.5000050E+01  0.7818608E-02  0.2136455E+00
        -11   -1    0    0    0    0  0.00000000000E+00  0.00000000000E+00  0.50000499739E+01  0.50000500000E+01  0.51100000000E-03 0.  1.
         11   -1    0    0    0    0 -0.00000000000E+00 -0.00000000000E+00 -0.50000499739E+01  0.50000500000E+01  0.51100000000E-03 0. -1.
     100001    1    1    2    0    0  0.19492280200E-01  0.89444235273E-02 -0.63285701669E-02  0.50000500000E+01  0.50000000000E+01 0. -1.
     100001    1    1    2    0    0 -0.19492280200E-01 -0.89444235273E-02  0.63285701669E-02  0.50000500000E+01  0.50000000000E+01 0.  1.
</event>
<event>
 4    1  0.5040302E-001  0.5000050E+01  0.7818608E-02  0.2136455E+00
        -11   -1    0    0    0    0  0.00000000000E+00  0.00000000000E+00  0.50000499739E+01  0.50000500000E+01  0.51100000000E-03 0.  1.
         11   -1    0    0    0    0 -0.00000000000E+00 -0.00000000000E+00 -0.50000499739E+01  0.50000500000E+01  0.51100000000E-03 0. -1.
     100001    1    1    2    0    0  0.15468148961E-01 -0.13438460952E-01  0.89524653015E-02  0.50000500000E+01  0.50000000000E+01 0. -1.
     100001    1    1    2    0    0 -0.15468148961E-01  0.13438460952E-01 -0.89524653015E-02  0.50000500000E+01  0.50000000000E+01 0.  0.
</event>
<event>
 4    1  0.5040302E-001  0.5000050E+01  0.7818608E-02  0.2136455E+00
        -11   -1    0    0    0    0  0.00000000000E+00  0.00000000000E+00  0.50000499739E+01  0.50000500000E+01  0.51100000000E-03 0. -1.
         11   -1    0    0    0    0 -0.00000000000E+00 -0.00000000000E+00 -0.50000499739E+01  0.50000500000E+01  0.51100000000E-03 0.  1.
     100001    1    1    2    0    0 -0.10460556294E-02 -0.80054093484E-02  0.20852378492E-01  0.50000500000E+01  0.50000000000E+01 0.  0.
     100001    1    1    2    0    0  0.10460556294E-02  0.80054093484E-02 -0.20852378492E-01  0.50000500000E+01  0.50000000000E+01 0.  1.
</event>
<event>
 4    1  0.5040302E-001  0.5000050E+01  0.7818608E-02  0.2136455E+00
        -11   -1    0    0    0    0  0.00000000000E+00  0.00000000000E+00  0.50000499739E+01  0.50000500000E+01  0.51100000000E-03 0. -1.
         11   -1    0    0    0    0 -0.00000000000E+00 -0.00000000000E+00 -0.50000499739E+01  0.50000500000E+01  0.51100000000E-03 0.  1.
     100001    1    1    2    0    0  0.34535395357E-02 -0.11832383614E-01  0.18656641249E-01  0.50000500000E+01  0.50000000000E+01 0. -1.
     100001    1    1    2    0    0 -0.34535395357E-02  0.11832383614E-01 -0.18656641249E-01  0.50000500000E+01  0.50000000000E+01 0.  1.
</event>
<event>
 4    1  0.5040302E-001  0.5000050E+01  0.7818608E-02  0.2136455E+00
        -11   -1    0    0    0    0  0.00000000000E+00  0.00000000000E+00  0.50000499739E+01  0.50000500000E+01  0.51100000000E-03 0.  1.
         11   -1    0    0    0    0 -0.00000000000E+00 -0.00000000000E+00 -0.50000499739E+01  0.50000500000E+01  0.51100000000E-03 0. -1.
     100001    1    1    2    0    0 -0.14253294026E-01 -0.17140967812E-01 -0.17416463185E-02  0.50000500000E+01  0.50000000000E+01 0.  0.
     100001    1    1    2    0    0  0.14253294026E-01  0.17140967812E-01  0.17416463185E-02  0.50000500000E+01  0.50000000000E+01 0. -1.
</event>
<event>
 4    1  0.5040302E-001  0.5000050E+01  0.7818608E-02  0.2136455E+00
        -11   -1    0    0    0    0  0.00000000000E+00  0.00000000000E+00  0.50000499739E+01  0.50000500000E+01  0.51100000000E-03 0.  1.
         11   -1    0    0    0    0 -0.00000000000E+00 -0.00000000000E+00 -0.50000499739E+01  0.50000500000E+01  0.51100000000E-03 0. -1.
     100001    1    1    2    0    0  0.43826178459E-04 -0.90626361294E-02 -0.20441849370E-01  0.50000500000E+01  0.50000000000E+01 0. -1.
     100001    1    1    2    0    0 -0.43826178459E-04  0.90626361294E-02  0.20441849370E-01  0.50000500000E+01  0.50000000000E+01 0.  0.
</event>
<event>
 4    1  0.5040302E-001  0.5000050E+01  0.7818608E-02  0.2136455E+00
        -11   -1    0    0    0    0  0.00000000000E+00  0.00000000000E+00  0.50000499739E+01  0.50000500000E+01  0.51100000000E-03 0.  1.
         11   -1    0    0    0    0 -0.00000000000E+00 -0.00000000000E+00 -0.50000499739E+01  0.50000500000E+01  0.51100000000E-03 0. -1.
     100001    1    1    2    0    0  0.61638212502E-02  0.39621639514E-02 -0.21126075462E-01  0.50000500000E+01  0.50000000000E+01 0. -1.
     100001    1    1    2    0    0 -0.61638212502E-02 -0.39621639514E-02  0.21126075462E-01  0.50000500000E+01  0.50000000000E+01 0.  0.
</event>
<event>
 4    1  0.5040302E-001  0.5000050E+01  0.7818608E-02  0.2136455E+00
        -11   -1    0    0    0    0  0.00000000000E+00  0.00000000000E+00  0.50000499739E+01  0.50000500000E+01  0.51100000000E-03 0.  1.
         11   -1    0    0    0    0 -0.00000000000E+00 -0.00000000000E+00 -0.50000499739E+01  0.50000500000E+01  0.51100000000E-03 0. -1.
     100001    1    1    2    0    0  0.11963567003E-01 -0.98410202070E-02  0.16125442191E-01  0.50000500000E+01  0.50000000000E+01 0.  1.
     100001    1    1    2    0    0 -0.11963567003E-01  0.98410202070E-02 -0.16125442191E-01  0.50000500000E+01  0.50000000000E+01 0. -1.
</event>
<event>
 4    1  0.5040302E-001  0.5000050E+01  0.7818608E-02  0.2136455E+00
        -11   -1    0    0    0    0  0.00000000000E+00  0.00000000000E+00  0.50000499739E+01  0.50000500000E+01  0.51100000000E-03 0. -1.
         11   -1    0    0    0    0 -0.00000000000E+00 -0.00000000000E+00 -0.50000499739E+01  0.50000500000E+01  0.51100000000E-03 0.  1.
     100001    1    1    2    0    0 -0.18974424744E-01  0.99961563772E-02 -0.63285514379E-02  0.50000500000E+01  0.50000000000E+01 0. -1.
     100001    1    1    2    0    0  0.18974424744E-01 -0.99961563772E-02  0.63285514379E-02  0.50000500000E+01  0.50000000000E+01 0.  0.
</event>
<event>
 4    1  0.5040302E-001  0.5000050E+01  0.7818608E-02  0.2136455E+00
        -11   -1    0    0    0    0  0.00000000000E+00  0.00000000000E+00  0.50000499739E+01  0.50000500000E+01  0.51100000000E-03 0.  1.
         11   -1    0    0    0    0 -0.00000000000E+00 -0.00000000000E+00 -0.50000499739E+01  0.50000500000E+01  0.51100000000E-03 0. -1.
     100001    1    1    2    0    0  0.18606585078E-01  0.10180360203E-01  0.70822141940E-02  0.50000500000E+01  0.50000000000E+01 0.  0.
     100001    1    1    2    0    0 -0.18606585078E-01 -0.10180360203E-01 -0.70822141940E-02  0.50000500000E+01  0.50000000000E+01 0.  1.
</event>
<event>
 4    1  0.5040302E-001  0.5000050E+01  0.7818608E-02  0.2136455E+00
        -11   -1    0    0    0    0  0.00000000000E+00  0.00000000000E+00  0.50000499739E+01  0.50000500000E+01  0.51100000000E-03 0.  1.
         11   -1    0    0    0    0 -0.00000000000E+00 -0.00000000000E+00 -0.50000499739E+01  0.50000500000E+01  0.51100000000E-03 0. -1.
     100001    1    1    2    0    0 -0.72653600262E-03 -0.21539579145E-01 -0.59599644020E-02  0.50000500000E+01  0.50000000000E+01 0. -1.
     100001    1    1    2    0    0  0.72653600262E-03  0.21539579145E-01  0.59599644020E-02  0.50000500000E+01  0.50000000000E+01 0.  1.
</event>
<event>
 4    1  0.5040302E-001  0.5000050E+01  0.7818608E-02  0.2136455E+00
        -11   -1    0    0    0    0  0.00000000000E+00  0.00000000000E+00  0.50000499739E+01  0.50000500000E+01  0.51100000000E-03 0.  1.
         11   -1    0    0    0    0 -0.00000000000E+00 -0.00000000000E+00 -0.50000499739E+01  0.50000500000E+01  0.51100000000E-03 0. -1.
     100001    1    1    2    0    0 -0.24036350501E-03 -0.44278917674E-02 -0.21916626106E-01  0.50000500000E+01  0.50000000000E+01 0. -1.
     100001    1    1    2    0    0  0.24036350501E-03  0.44278917674E-02  0.21916626106E-01  0.50000500000E+01  0.50000000000E+01 0.  0.
</event>
<event>
 4    1  0.5040302E-001  0.5000050E+01  0.7818608E-02  0.2136455E+00
        -11   -1    0    0    0    0  0.00000000000E+00  0.00000000000E+00  0.50000499739E+01  0.50000500000E+01  0.51100000000E-03 0. -1.
         11   -1    0    0    0    0 -0.00000000000E+00 -0.00000000000E+00 -0.50000499739E+01  0.50000500000E+01  0.51100000000E-03 0.  1.
     100001    1    1    2    0    0  0.10268418359E-01  0.16145196793E-01 -0.11571287953E-01  0.50000500000E+01  0.50000000000E+01 0.  0.
     100001    1    1    2    0    0 -0.10268418359E-01 -0.16145196793E-01  0.11571287953E-01  0.50000500000E+01  0.50000000000E+01 0.  0.
</event>
<event>
 4    1  0.5040302E-001  0.5000050E+01  0.7818608E-02  0.2136455E+00
        -11   -1    0    0    0    0  0.00000000000E+00  0.00000000000E+00  0.50000499739E+01  0.50000500000E+01  0.51100000000E-03 0. -1.
         11   -1    0    0    0    0 -0.00000000000E+00 -0.00000000000E+00 -0.50000499739E+01  0.50000500000E+01  0.51100000000E-03 0.  1.
     100001    1    1    2    0    0  0.80895564633E-02 -0.18515095458E-01 -0.95787690452E-02  0.50000500000E+01  0.50000000000E+01 0.  1.
     100001    1    1    2    0    0 -0.80895564633E-02  0.18515095458E-01  0.95787690452E-02  0.50000500000E+01  0.50000000000E+01 0. -1.
</event>
<event>
 4    1  0.5040302E-001  0.5000050E+01  0.7818608E-02  0.2136455E+00
        -11   -1    0    0    0    0  0.00000000000E+00  0.00000000000E+00  0.50000499739E+01  0.50000500000E+01  0.51100000000E-03 0. -1.
         11   -1    0    0    0    0 -0.00000000000E+00 -0.00000000000E+00 -0.50000499739E+01  0.50000500000E+01  0.51100000000E-03 0.  1.
     100001    1    1    2    0    0 -0.57916726911E-03 -0.21387245872E-01  0.65002137883E-02  0.50000500000E+01  0.50000000000E+01 0.  0.
     100001    1    1    2    0    0  0.57916726911E-03  0.21387245872E-01 -0.65002137883E-02  0.50000500000E+01  0.50000000000E+01 0. -1.
</event>
<event>
 4    1  0.5040302E-001  0.5000050E+01  0.7818608E-02  0.2136455E+00
        -11   -1    0    0    0    0  0.00000000000E+00  0.00000000000E+00  0.50000499739E+01  0.50000500000E+01  0.51100000000E-03 0.  1.
         11   -1    0    0    0    0 -0.00000000000E+00 -0.00000000000E+00 -0.50000499739E+01  0.50000500000E+01  0.51100000000E-03 0. -1.
     100001    1    1    2    0    0 -0.19416213955E-01  0.52349177953E-03 -0.11078767622E-01  0.50000500000E+01  0.50000000000E+01 0. -1.
     100001    1    1    2    0    0  0.19416213955E-01 -0.52349177953E-03  0.11078767622E-01  0.50000500000E+01  0.50000000000E+01 0.  1.
</event>
<event>
 4    1  0.5040302E-001  0.5000050E+01  0.7818608E-02  0.2136455E+00
        -11   -1    0    0    0    0  0.00000000000E+00  0.00000000000E+00  0.50000499739E+01  0.50000500000E+01  0.51100000000E-03 0.  1.
         11   -1    0    0    0    0 -0.00000000000E+00 -0.00000000000E+00 -0.50000499739E+01  0.50000500000E+01  0.51100000000E-03 0. -1.
     100001    1    1    2    0    0 -0.50996536173E-02  0.15242524037E-01 -0.15545465383E-01  0.50000500000E+01  0.50000000000E+01 0.  0.
     100001    1    1    2    0    0  0.50996536173E-02 -0.15242524037E-01  0.15545465383E-01  0.50000500000E+01  0.50000000000E+01 0.  0.
</event>
<event>
 4    1  0.5040302E-001  0.5000050E+01  0.7818608E-02  0.2136455E+00
        -11   -1    0    0    0    0  0.00000000000E+00  0.00000000000E+00  0.50000499739E+01  0.50000500000E+01  0.51100000000E-03 0.  1.
         11   -1    0    0    0    0 -0.00000000000E+00 -0.00000000000E+00 -0.50000499739E+01  0.50000500000E+01  0.51100000000E-03 0. -1.
     100001    1    1    2    0    0 -0.19991262080E-02  0.56358867944E-02 -0.21546293752E-01  0.50000500000E+01  0.50000000000E+01 0. -1.
     100001    1    1    2    0    0  0.19991262080E-02 -0.56358867944E-02  0.21546293752E-01  0.50000500000E+01  0.50000000000E+01 0.  0.
</event>
<event>
 4    1  0.5040302E-001  0.5000050E+01  0.7818608E-02  0.2136455E+00
        -11   -1    0    0    0    0  0.00000000000E+00  0.00000000000E+00  0.50000499739E+01  0.50000500000E+01  0.51100000000E-03 0. -1.
         11   -1    0    0    0    0 -0.00000000000E+00 -0.00000000000E+00 -0.50000499739E+01  0.50000500000E+01  0.51100000000E-03 0.  1.
     100001    1    1    2    0    0  0.27583243889E-04 -0.12901594717E-01  0.18263367513E-01  0.50000500000E+01  0.50000000000E+01 0.  0.
     100001    1    1    2    0    0 -0.27583243889E-04  0.12901594717E-01 -0.18263367513E-01  0.50000500000E+01  0.50000000000E+01 0.  0.
</event>
<event>
 4    1  0.5040302E-001  0.5000050E+01  0.7818608E-02  0.2136455E+00
        -11   -1    0    0    0    0  0.00000000000E+00  0.00000000000E+00  0.50000499739E+01  0.50000500000E+01  0.51100000000E-03 0.  1.
         11   -1    0    0    0    0 -0.00000000000E+00 -0.00000000000E+00 -0.50000499739E+01  0.50000500000E+01  0.51100000000E-03 0. -1.
     100001    1    1    2    0    0  0.11185667696E-01  0.19015466779E-01  0.36462804859E-02  0.50000500000E+01  0.50000000000E+01 0. -1.
     100001    1    1    2    0    0 -0.11185667696E-01 -0.19015466779E-01 -0.36462804859E-02  0.50000500000E+01  0.50000000000E+01 0.  1.
</event>
<event>
 4    1  0.5040302E-001  0.5000050E+01  0.7818608E-02  0.2136455E+00
        -11   -1    0    0    0    0  0.00000000000E+00  0.00000000000E+00  0.50000499739E+01  0.50000500000E+01  0.51100000000E-03 0.  1.
         11   -1    0    0    0    0 -0.00000000000E+00 -0.00000000000E+00 -0.50000499739E+01  0.50000500000E+01  0.51100000000E-03 0. -1.
     100001    1    1    2    0    0 -0.45138557235E-02 -0.21176319594E-01  0.55848988325E-02  0.50000500000E+01  0.50000000000E+01 0.  1.
     100001    1    1    2    0    0  0.45138557235E-02  0.21176319594E-01 -0.55848988325E-02  0.50000500000E+01  0.50000000000E+01 0. -1.
</event>
<event>
 4    1  0.5040302E-001  0.5000050E+01  0.7818608E-02  0.2136455E+00
        -11   -1    0    0    0    0  0.00000000000E+00  0.00000000000E+00  0.50000499739E+01  0.50000500000E+01  0.51100000000E-03 0.  1.
         11   -1    0    0    0    0 -0.00000000000E+00 -0.00000000000E+00 -0.50000499739E+01  0.50000500000E+01  0.51100000000E-03 0. -1.
     100001    1    1    2    0    0  0.16382232498E-01  0.18557066053E-02  0.15105671497E-01  0.50000500000E+01  0.50000000000E+01 0.  1.
     100001    1    1    2    0    0 -0.16382232498E-01 -0.18557066053E-02 -0.15105671497E-01  0.50000500000E+01  0.50000000000E+01 0. -1.
</event>
<event>
 4    1  0.5040302E-001  0.5000050E+01  0.7818608E-02  0.2136455E+00
        -11   -1    0    0    0    0  0.00000000000E+00  0.00000000000E+00  0.50000499739E+01  0.50000500000E+01  0.51100000000E-03 0. -1.
         11   -1    0    0    0    0 -0.00000000000E+00 -0.00000000000E+00 -0.50000499739E+01  0.50000500000E+01  0.51100000000E-03 0.  1.
     100001    1    1    2    0    0  0.14302844097E-01  0.63139678264E-02  0.15986399252E-01  0.50000500000E+01  0.50000000000E+01 0. -1.
     100001    1    1    2    0    0 -0.14302844097E-01 -0.63139678264E-02 -0.15986399252E-01  0.50000500000E+01  0.50000000000E+01 0. -1.
</event>
<event>
 4    1  0.5040302E-001  0.5000050E+01  0.7818608E-02  0.2136455E+00
        -11   -1    0    0    0    0  0.00000000000E+00  0.00000000000E+00  0.50000499739E+01  0.50000500000E+01  0.51100000000E-03 0. -1.
         11   -1    0    0    0    0 -0.00000000000E+00 -0.00000000000E+00 -0.50000499739E+01  0.50000500000E+01  0.51100000000E-03 0.  1.
     100001    1    1    2    0    0 -0.62342206645E-03  0.11982707264E-01  0.18868719394E-01  0.50000500000E+01  0.50000000000E+01 0.  1.
     100001    1    1    2    0    0  0.62342206645E-03 -0.11982707264E-01 -0.18868719394E-01  0.50000500000E+01  0.50000000000E+01 0.  1.
</event>
<event>
 4    1  0.5040302E-001  0.5000050E+01  0.7818608E-02  0.2136455E+00
        -11   -1    0    0    0    0  0.00000000000E+00  0.00000000000E+00  0.50000499739E+01  0.50000500000E+01  0.51100000000E-03 0.  1.
         11   -1    0    0    0    0 -0.00000000000E+00 -0.00000000000E+00 -0.50000499739E+01  0.50000500000E+01  0.51100000000E-03 0. -1.
     100001    1    1    2    0    0  0.85088460278E-02  0.20539224935E-01  0.23963051447E-02  0.50000500000E+01  0.50000000000E+01 0. -1.
     100001    1    1    2    0    0 -0.85088460278E-02 -0.20539224935E-01 -0.23963051447E-02  0.50000500000E+01  0.50000000000E+01 0.  1.
</event>
<event>
 4    1  0.5040302E-001  0.5000050E+01  0.7818608E-02  0.2136455E+00
        -11   -1    0    0    0    0  0.00000000000E+00  0.00000000000E+00  0.50000499739E+01  0.50000500000E+01  0.51100000000E-03 0. -1.
         11   -1    0    0    0    0 -0.00000000000E+00 -0.00000000000E+00 -0.50000499739E+01  0.50000500000E+01  0.51100000000E-03 0.  1.
     100001    1    1    2    0    0  0.94800770671E-02 -0.19829532910E-01 -0.41134247733E-02  0.50000500000E+01  0.50000000000E+01 0.  1.
     100001    1    1    2    0    0 -0.94800770671E-02  0.19829532910E-01  0.41134247733E-02  0.50000500000E+01  0.50000000000E+01 0. -1.
</event>
<event>
 4    1  0.5040302E-001  0.5000050E+01  0.7818608E-02  0.2136455E+00
        -11   -1    0    0    0    0  0.00000000000E+00  0.00000000000E+00  0.50000499739E+01  0.50000500000E+01  0.51100000000E-03 0.  1.
         11   -1    0    0    0    0 -0.00000000000E+00 -0.00000000000E+00 -0.50000499739E+01  0.50000500000E+01  0.51100000000E-03 0. -1.
     100001    1    1    2    0    0  0.16922756105E-01  0.14340913874E-01 -0.28215270823E-02  0.50000500000E+01  0.50000000000E+01 0. -1.
     100001    1    1    2    0    0 -0.16922756105E-01 -0.14340913874E-01  0.28215270823E-02  0.50000500000E+01  0.50000000000E+01 0.  1.
</event>
<event>
 4    1  0.5040302E-001  0.5000050E+01  0.7818608E-02  0.2136455E+00
        -11   -1    0    0    0    0  0.00000000000E+00  0.00000000000E+00  0.50000499739E+01  0.50000500000E+01  0.51100000000E-03 0.  1.
         11   -1    0    0    0    0 -0.00000000000E+00 -0.00000000000E+00 -0.50000499739E+01  0.50000500000E+01  0.51100000000E-03 0. -1.
     100001    1    1    2    0    0 -0.99444131533E-02  0.99273448188E-02 -0.17394222371E-01  0.50000500000E+01  0.50000000000E+01 0. -1.
     100001    1    1    2    0    0  0.99444131533E-02 -0.99273448188E-02  0.17394222371E-01  0.50000500000E+01  0.50000000000E+01 0.  1.
</event>
<event>
 4    1  0.5040302E-001  0.5000050E+01  0.7818608E-02  0.2136455E+00
        -11   -1    0    0    0    0  0.00000000000E+00  0.00000000000E+00  0.50000499739E+01  0.50000500000E+01  0.51100000000E-03 0.  1.
         11   -1    0    0    0    0 -0.00000000000E+00 -0.00000000000E+00 -0.50000499739E+01  0.50000500000E+01  0.51100000000E-03 0. -1.
     100001    1    1    2    0    0  0.79515836257E-02  0.70518523637E-02  0.19673489677E-01  0.50000500000E+01  0.50000000000E+01 0.  1.
     100001    1    1    2    0    0 -0.79515836257E-02 -0.70518523637E-02 -0.19673489677E-01  0.50000500000E+01  0.50000000000E+01 0.  0.
</event>
<event>
 4    1  0.5040302E-001  0.5000050E+01  0.7818608E-02  0.2136455E+00
        -11   -1    0    0    0    0  0.00000000000E+00  0.00000000000E+00  0.50000499739E+01  0.50000500000E+01  0.51100000000E-03 0.  1.
         11   -1    0    0    0    0 -0.00000000000E+00 -0.00000000000E+00 -0.50000499739E+01  0.50000500000E+01  0.51100000000E-03 0. -1.
     100001    1    1    2    0    0 -0.51796459470E-02  0.21751440470E-01 -0.22046623311E-03  0.50000500000E+01  0.50000000000E+01 0.  0.
     100001    1    1    2    0    0  0.51796459470E-02 -0.21751440470E-01  0.22046623311E-03  0.50000500000E+01  0.50000000000E+01 0. -1.
</event>
<event>
 4    1  0.5040302E-001  0.5000050E+01  0.7818608E-02  0.2136455E+00
        -11   -1    0    0    0    0  0.00000000000E+00  0.00000000000E+00  0.50000499739E+01  0.50000500000E+01  0.51100000000E-03 0. -1.
         11   -1    0    0    0    0 -0.00000000000E+00 -0.00000000000E+00 -0.50000499739E+01  0.50000500000E+01  0.51100000000E-03 0.  1.
     100001    1    1    2    0    0 -0.17468907907E-02  0.10340079856E-01  0.19749268876E-01  0.50000500000E+01  0.50000000000E+01 0. -1.
     100001    1    1    2    0    0  0.17468907907E-02 -0.10340079856E-01 -0.19749268876E-01  0.50000500000E+01  0.50000000000E+01 0.  0.
</event>
<event>
 4    1  0.5040302E-001  0.5000050E+01  0.7818608E-02  0.2136455E+00
        -11   -1    0    0    0    0  0.00000000000E+00  0.00000000000E+00  0.50000499739E+01  0.50000500000E+01  0.51100000000E-03 0.  1.
         11   -1    0    0    0    0 -0.00000000000E+00 -0.00000000000E+00 -0.50000499739E+01  0.50000500000E+01  0.51100000000E-03 0. -1.
     100001    1    1    2    0    0 -0.21065523514E-01 -0.68278159606E-02  0.31027646219E-02  0.50000500000E+01  0.50000000000E+01 0.  1.
     100001    1    1    2    0    0  0.21065523514E-01  0.68278159606E-02 -0.31027646219E-02  0.50000500000E+01  0.50000000000E+01 0. -1.
</event>
<event>
 4    1  0.5040302E-001  0.5000050E+01  0.7818608E-02  0.2136455E+00
        -11   -1    0    0    0    0  0.00000000000E+00  0.00000000000E+00  0.50000499739E+01  0.50000500000E+01  0.51100000000E-03 0.  1.
         11   -1    0    0    0    0 -0.00000000000E+00 -0.00000000000E+00 -0.50000499739E+01  0.50000500000E+01  0.51100000000E-03 0. -1.
     100001    1    1    2    0    0 -0.20995721954E-01  0.63716245501E-02  0.43109813507E-02  0.50000500000E+01  0.50000000000E+01 0.  1.
     100001    1    1    2    0    0  0.20995721954E-01 -0.63716245501E-02 -0.43109813507E-02  0.50000500000E+01  0.50000000000E+01 0. -1.
</event>
<event>
 4    1  0.5040302E-001  0.5000050E+01  0.7818608E-02  0.2136455E+00
        -11   -1    0    0    0    0  0.00000000000E+00  0.00000000000E+00  0.50000499739E+01  0.50000500000E+01  0.51100000000E-03 0.  1.
         11   -1    0    0    0    0 -0.00000000000E+00 -0.00000000000E+00 -0.50000499739E+01  0.50000500000E+01  0.51100000000E-03 0. -1.
     100001    1    1    2    0    0  0.10535150343E-01  0.88641409076E-03 -0.19703486425E-01  0.50000500000E+01  0.50000000000E+01 0.  0.
     100001    1    1    2    0    0 -0.10535150343E-01 -0.88641409076E-03  0.19703486425E-01  0.50000500000E+01  0.50000000000E+01 0.  1.
</event>
<event>
 4    1  0.5040302E-001  0.5000050E+01  0.7818608E-02  0.2136455E+00
        -11   -1    0    0    0    0  0.00000000000E+00  0.00000000000E+00  0.50000499739E+01  0.50000500000E+01  0.51100000000E-03 0. -1.
         11   -1    0    0    0    0 -0.00000000000E+00 -0.00000000000E+00 -0.50000499739E+01  0.50000500000E+01  0.51100000000E-03 0.  1.
     100001    1    1    2    0    0  0.30581702062E-02  0.21042424808E-01 -0.69185586068E-02  0.50000500000E+01  0.50000000000E+01 0.  1.
     100001    1    1    2    0    0 -0.30581702062E-02 -0.21042424808E-01  0.69185586068E-02  0.50000500000E+01  0.50000000000E+01 0.  0.
</event>
<event>
 4    1  0.5040302E-001  0.5000050E+01  0.7818608E-02  0.2136455E+00
        -11   -1    0    0    0    0  0.00000000000E+00  0.00000000000E+00  0.50000499739E+01  0.50000500000E+01  0.51100000000E-03 0. -1.
         11   -1    0    0    0    0 -0.00000000000E+00 -0.00000000000E+00 -0.50000499739E+01  0.50000500000E+01  0.51100000000E-03 0.  1.
     100001    1    1    2    0    0 -0.46436692005E-02 -0.53646650226E-02 -0.21205169312E-01  0.50000500000E+01  0.50000000000E+01 0.  0.
     100001    1    1    2    0    0  0.46436692005E-02  0.53646650226E-02  0.21205169312E-01  0.50000500000E+01  0.50000000000E+01 0. -1.
</event>
<event>
 4    1  0.5040302E-001  0.5000050E+01  0.7818608E-02  0.2136455E+00
        -11   -1    0    0    0    0  0.00000000000E+00  0.00000000000E+00  0.50000499739E+01  0.50000500000E+01  0.51100000000E-03 0.  1.
         11   -1    0    0    0    0 -0.00000000000E+00 -0.00000000000E+00 -0.50000499739E+01  0.50000500000E+01  0.51100000000E-03 0. -1.
     100001    1    1    2    0    0 -0.14075553927E-01 -0.75889427709E-02 -0.15629754613E-01  0.50000500000E+01  0.50000000000E+01 0.  0.
     100001    1    1    2    0    0  0.14075553927E-01  0.75889427709E-02  0.15629754613E-01  0.50000500000E+01  0.50000000000E+01 0. -1.
</event>
<event>
 4    1  0.5040302E-001  0.5000050E+01  0.7818608E-02  0.2136455E+00
        -11   -1    0    0    0    0  0.00000000000E+00  0.00000000000E+00  0.50000499739E+01  0.50000500000E+01  0.51100000000E-03 0. -1.
         11   -1    0    0    0    0 -0.00000000000E+00 -0.00000000000E+00 -0.50000499739E+01  0.50000500000E+01  0.51100000000E-03 0.  1.
     100001    1    1    2    0    0  0.41010697226E-02 -0.99379587274E-03  0.21958963930E-01  0.50000500000E+01  0.50000000000E+01 0.  1.
     100001    1    1    2    0    0 -0.41010697226E-02  0.99379587274E-03 -0.21958963930E-01  0.50000500000E+01  0.50000000000E+01 0.  1.
</event>
<event>
 4    1  0.5040302E-001  0.5000050E+01  0.7818608E-02  0.2136455E+00
        -11   -1    0    0    0    0  0.00000000000E+00  0.00000000000E+00  0.50000499739E+01  0.50000500000E+01  0.51100000000E-03 0.  1.
         11   -1    0    0    0    0 -0.00000000000E+00 -0.00000000000E+00 -0.50000499739E+01  0.50000500000E+01  0.51100000000E-03 0. -1.
     100001    1    1    2    0    0 -0.91586094668E-02  0.19968850900E-01 -0.41674172315E-02  0.50000500000E+01  0.50000000000E+01 0.  1.
     100001    1    1    2    0    0  0.91586094668E-02 -0.19968850900E-01  0.41674172315E-02  0.50000500000E+01  0.50000000000E+01 0.  0.
</event>
<event>
 4    1  0.5040302E-001  0.5000050E+01  0.7818608E-02  0.2136455E+00
        -11   -1    0    0    0    0  0.00000000000E+00  0.00000000000E+00  0.50000499739E+01  0.50000500000E+01  0.51100000000E-03 0. -1.
         11   -1    0    0    0    0 -0.00000000000E+00 -0.00000000000E+00 -0.50000499739E+01  0.50000500000E+01  0.51100000000E-03 0.  1.
     100001    1    1    2    0    0  0.11330478970E-01  0.18796639413E-01  0.42789126078E-02  0.50000500000E+01  0.50000000000E+01 0. -1.
     100001    1    1    2    0    0 -0.11330478970E-01 -0.18796639413E-01 -0.42789126078E-02  0.50000500000E+01  0.50000000000E+01 0.  1.
</event>
<event>
 4    1  0.5040302E-001  0.5000050E+01  0.7818608E-02  0.2136455E+00
        -11   -1    0    0    0    0  0.00000000000E+00  0.00000000000E+00  0.50000499739E+01  0.50000500000E+01  0.51100000000E-03 0.  1.
         11   -1    0    0    0    0 -0.00000000000E+00 -0.00000000000E+00 -0.50000499739E+01  0.50000500000E+01  0.51100000000E-03 0. -1.
     100001    1    1    2    0    0  0.57523722985E-02  0.18830379790E-01  0.10598561691E-01  0.50000500000E+01  0.50000000000E+01 0.  1.
     100001    1    1    2    0    0 -0.57523722985E-02 -0.18830379790E-01 -0.10598561691E-01  0.50000500000E+01  0.50000000000E+01 0. -1.
</event>
<event>
 4    1  0.5040302E-001  0.5000050E+01  0.7818608E-02  0.2136455E+00
        -11   -1    0    0    0    0  0.00000000000E+00  0.00000000000E+00  0.50000499739E+01  0.50000500000E+01  0.51100000000E-03 0. -1.
         11   -1    0    0    0    0 -0.00000000000E+00 -0.00000000000E+00 -0.50000499739E+01  0.50000500000E+01  0.51100000000E-03 0.  1.
     100001    1    1    2    0    0  0.21965890316E-03  0.16579758435E-01 -0.15002195180E-01  0.50000500000E+01  0.50000000000E+01 0.  1.
     100001    1    1    2    0    0 -0.21965890316E-03 -0.16579758435E-01  0.15002195180E-01  0.50000500000E+01  0.50000000000E+01 0.  1.
</event>
<event>
 4    1  0.5040302E-001  0.5000050E+01  0.7818608E-02  0.2136455E+00
        -11   -1    0    0    0    0  0.00000000000E+00  0.00000000000E+00  0.50000499739E+01  0.50000500000E+01  0.51100000000E-03 0.  1.
         11   -1    0    0    0    0 -0.00000000000E+00 -0.00000000000E+00 -0.50000499739E+01  0.50000500000E+01  0.51100000000E-03 0. -1.
     100001    1    1    2    0    0 -0.58420476401E-02 -0.17522606455E-01 -0.12602826762E-01  0.50000500000E+01  0.50000000000E+01 0.  0.
     100001    1    1    2    0    0  0.58420476401E-02  0.17522606455E-01  0.12602826762E-01  0.50000500000E+01  0.50000000000E+01 0.  0.
</event>
<event>
 4    1  0.5040302E-001  0.5000050E+01  0.7818608E-02  0.2136455E+00
        -11   -1    0    0    0    0  0.00000000000E+00  0.00000000000E+00  0.50000499739E+01  0.50000500000E+01  0.51100000000E-03 0. -1.
         11   -1    0    0    0    0 -0.00000000000E+00 -0.00000000000E+00 -0.50000499739E+01  0.50000500000E+01  0.51100000000E-03 0.  1.
     100001    1    1    2    0    0  0.17836084842E-01  0.46443139280E-02  0.12661237129E-01  0.50000500000E+01  0.50000000000E+01 0. -1.
     100001    1    1    2    0    0 -0.17836084842E-01 -0.46443139280E-02 -0.12661237129E-01  0.50000500000E+01  0.50000000000E+01 0.  1.
</event>
<event>
 4    1  0.5040302E-001  0.5000050E+01  0.7818608E-02  0.2136455E+00
        -11   -1    0    0    0    0  0.00000000000E+00  0.00000000000E+00  0.50000499739E+01  0.50000500000E+01  0.51100000000E-03 0. -1.
         11   -1    0    0    0    0 -0.00000000000E+00 -0.00000000000E+00 -0.50000499739E+01  0.50000500000E+01  0.51100000000E-03 0.  1.
     100001    1    1    2    0    0  0.28470689470E-02  0.18267942631E-02  0.22103382572E-01  0.50000500000E+01  0.50000000000E+01 0. -1.
     100001    1    1    2    0    0 -0.28470689470E-02 -0.18267942631E-02 -0.22103382572E-01  0.50000500000E+01  0.50000000000E+01 0.  0.
</event>
<event>
 4    1  0.5040302E-001  0.5000050E+01  0.7818608E-02  0.2136455E+00
        -11   -1    0    0    0    0  0.00000000000E+00  0.00000000000E+00  0.50000499739E+01  0.50000500000E+01  0.51100000000E-03 0. -1.
         11   -1    0    0    0    0 -0.00000000000E+00 -0.00000000000E+00 -0.50000499739E+01  0.50000500000E+01  0.51100000000E-03 0.  1.
     100001    1    1    2    0    0 -0.20171972956E-01 -0.70642769792E-02 -0.65719097554E-02  0.50000500000E+01  0.50000000000E+01 0.  0.
     100001    1    1    2    0    0  0.20171972956E-01  0.70642769792E-02  0.65719097554E-02  0.50000500000E+01  0.50000000000E+01 0.  1.
</event>
<event>
 4    1  0.5040302E-001  0.5000050E+01  0.7818608E-02  0.2136455E+00
        -11   -1    0    0    0    0  0.00000000000E+00  0.00000000000E+00  0.50000499739E+01  0.50000500000E+01  0.51100000000E-03 0.  1.
         11   -1    0    0    0    0 -0.00000000000E+00 -0.00000000000E+00 -0.50000499739E+01  0.50000500000E+01  0.51100000000E-03 0. -1.
     100001    1    1    2    0    0 -0.27321263875E-02  0.21916721247E-02 -0.22084713236E-01  0.50000500000E+01  0.50000000000E+01 0.  0.
     100001    1    1    2    0    0  0.27321263875E-02 -0.21916721247E-02  0.22084713236E-01  0.50000500000E+01  0.50000000000E+01 0.  1.
</event>
<event>
 4    1  0.5040302E-001  0.5000050E+01  0.7818608E-02  0.2136455E+00
        -11   -1    0    0    0    0  0.00000000000E+00  0.00000000000E+00  0.50000499739E+01  0.50000500000E+01  0.51100000000E-03 0. -1.
         11   -1    0    0    0    0 -0.00000000000E+00 -0.00000000000E+00 -0.50000499739E+01  0.50000500000E+01  0.51100000000E-03 0.  1.
     100001    1    1    2    0    0 -0.97979487023E-02  0.19874433928E-01  0.30015957884E-02  0.50000500000E+01  0.50000000000E+01 0. -1.
     100001    1    1    2    0    0  0.97979487023E-02 -0.19874433928E-01 -0.30015957884E-02  0.50000500000E+01  0.50000000000E+01 0.  1.
</event>
<event>
 4    1  0.5040302E-001  0.5000050E+01  0.7818608E-02  0.2136455E+00
        -11   -1    0    0    0    0  0.00000000000E+00  0.00000000000E+00  0.50000499739E+01  0.50000500000E+01  0.51100000000E-03 0.  1.
         11   -1    0    0    0    0 -0.00000000000E+00 -0.00000000000E+00 -0.50000499739E+01  0.50000500000E+01  0.51100000000E-03 0. -1.
     100001    1    1    2    0    0  0.14805117333E-01  0.15938166703E-01 -0.51755041183E-02  0.50000500000E+01  0.50000000000E+01 0. -1.
     100001    1    1    2    0    0 -0.14805117333E-01 -0.15938166703E-01  0.51755041183E-02  0.50000500000E+01  0.50000000000E+01 0.  1.
</event>
<event>
 4    1  0.5040302E-001  0.5000050E+01  0.7818608E-02  0.2136455E+00
        -11   -1    0    0    0    0  0.00000000000E+00  0.00000000000E+00  0.50000499739E+01  0.50000500000E+01  0.51100000000E-03 0. -1.
         11   -1    0    0    0    0 -0.00000000000E+00 -0.00000000000E+00 -0.50000499739E+01  0.50000500000E+01  0.51100000000E-03 0.  1.
     100001    1    1    2    0    0 -0.13907578091E-01  0.15355099007E-01  0.84144343916E-02  0.50000500000E+01  0.50000000000E+01 0.  1.
     100001    1    1    2    0    0  0.13907578091E-01 -0.15355099007E-01 -0.84144343916E-02  0.50000500000E+01  0.50000000000E+01 0. -1.
</event>
<event>
 4    1  0.5040302E-001  0.5000050E+01  0.7818608E-02  0.2136455E+00
        -11   -1    0    0    0    0  0.00000000000E+00  0.00000000000E+00  0.50000499739E+01  0.50000500000E+01  0.51100000000E-03 0.  1.
         11   -1    0    0    0    0 -0.00000000000E+00 -0.00000000000E+00 -0.50000499739E+01  0.50000500000E+01  0.51100000000E-03 0. -1.
     100001    1    1    2    0    0  0.16695060216E-01 -0.11002886306E-02  0.14834649619E-01  0.50000500000E+01  0.50000000000E+01 0.  1.
     100001    1    1    2    0    0 -0.16695060216E-01  0.11002886306E-02 -0.14834649619E-01  0.50000500000E+01  0.50000000000E+01 0. -1.
</event>
<event>
 4    1  0.5040302E-001  0.5000050E+01  0.7818608E-02  0.2136455E+00
        -11   -1    0    0    0    0  0.00000000000E+00  0.00000000000E+00  0.50000499739E+01  0.50000500000E+01  0.51100000000E-03 0. -1.
         11   -1    0    0    0    0 -0.00000000000E+00 -0.00000000000E+00 -0.50000499739E+01  0.50000500000E+01  0.51100000000E-03 0.  1.
     100001    1    1    2    0    0 -0.21136308774E-01 -0.10158913680E-02  0.72268192254E-02  0.50000500000E+01  0.50000000000E+01 0. -1.
     100001    1    1    2    0    0  0.21136308774E-01  0.10158913680E-02 -0.72268192254E-02  0.50000500000E+01  0.50000000000E+01 0.  0.
</event>
<event>
 4    1  0.5040302E-001  0.5000050E+01  0.7818608E-02  0.2136455E+00
        -11   -1    0    0    0    0  0.00000000000E+00  0.00000000000E+00  0.50000499739E+01  0.50000500000E+01  0.51100000000E-03 0.  1.
         11   -1    0    0    0    0 -0.00000000000E+00 -0.00000000000E+00 -0.50000499739E+01  0.50000500000E+01  0.51100000000E-03 0. -1.
     100001    1    1    2    0    0  0.11852588350E-01  0.18940612493E-01  0.87854867061E-03  0.50000500000E+01  0.50000000000E+01 0.  0.
     100001    1    1    2    0    0 -0.11852588350E-01 -0.18940612493E-01 -0.87854867061E-03  0.50000500000E+01  0.50000000000E+01 0. -1.
</event>
<event>
 4    1  0.5040302E-001  0.5000050E+01  0.7818608E-02  0.2136455E+00
        -11   -1    0    0    0    0  0.00000000000E+00  0.00000000000E+00  0.50000499739E+01  0.50000500000E+01  0.51100000000E-03 0. -1.
         11   -1    0    0    0    0 -0.00000000000E+00 -0.00000000000E+00 -0.50000499739E+01  0.50000500000E+01  0.51100000000E-03 0.  1.
     100001    1    1    2    0    0  0.19796873170E-01  0.66378610334E-02  0.80015694445E-02  0.50000500000E+01  0.50000000000E+01 0. -1.
     100001    1    1    2    0    0 -0.19796873170E-01 -0.66378610334E-02 -0.80015694445E-02  0.50000500000E+01  0.50000000000E+01 0. -1.
</event>
<event>
 4    1  0.5040302E-001  0.5000050E+01  0.7818608E-02  0.2136455E+00
        -11   -1    0    0    0    0  0.00000000000E+00  0.00000000000E+00  0.50000499739E+01  0.50000500000E+01  0.51100000000E-03 0.  1.
         11   -1    0    0    0    0 -0.00000000000E+00 -0.00000000000E+00 -0.50000499739E+01  0.50000500000E+01  0.51100000000E-03 0. -1.
     100001    1    1    2    0    0 -0.25104986960E-02 -0.21750184115E-01  0.45419585256E-02  0.50000500000E+01  0.50000000000E+01 0. -1.
     100001    1    1    2    0    0  0.25104986960E-02  0.21750184115E-01 -0.45419585256E-02  0.50000500000E+01  0.50000000000E+01 0.  0.
</event>
<event>
 4    1  0.5040302E-001  0.5000050E+01  0.7818608E-02  0.2136455E+00
        -11   -1    0    0    0    0  0.00000000000E+00  0.00000000000E+00  0.50000499739E+01  0.50000500000E+01  0.51100000000E-03 0.  1.
         11   -1    0    0    0    0 -0.00000000000E+00 -0.00000000000E+00 -0.50000499739E+01  0.50000500000E+01  0.51100000000E-03 0. -1.
     100001    1    1    2    0    0  0.17804636084E-01 -0.13096861059E-01 -0.33866892820E-02  0.50000500000E+01  0.50000000000E+01 0.  0.
     100001    1    1    2    0    0 -0.17804636084E-01  0.13096861059E-01  0.33866892820E-02  0.50000500000E+01  0.50000000000E+01 0.  1.
</event>
<event>
 4    1  0.5040302E-001  0.5000050E+01  0.7818608E-02  0.2136455E+00
        -11   -1    0    0    0    0  0.00000000000E+00  0.00000000000E+00  0.50000499739E+01  0.50000500000E+01  0.51100000000E-03 0.  1.
         11   -1    0    0    0    0 -0.00000000000E+00 -0.00000000000E+00 -0.50000499739E+01  0.50000500000E+01  0.51100000000E-03 0. -1.
     100001    1    1    2    0    0  0.10725657525E-01  0.18565879001E-01 -0.63459363035E-02  0.50000500000E+01  0.50000000000E+01 0. -1.
     100001    1    1    2    0    0 -0.10725657525E-01 -0.18565879001E-01  0.63459363035E-02  0.50000500000E+01  0.50000000000E+01 0.  1.
</event>
<event>
 4    1  0.5040302E-001  0.5000050E+01  0.7818608E-02  0.2136455E+00
        -11   -1    0    0    0    0  0.00000000000E+00  0.00000000000E+00  0.50000499739E+01  0.50000500000E+01  0.51100000000E-03 0.  1.
         11   -1    0    0    0    0 -0.00000000000E+00 -0.00000000000E+00 -0.50000499739E+01  0.50000500000E+01  0.51100000000E-03 0. -1.
     100001    1    1    2    0    0 -0.15701766045E-01 -0.54825794294E-02 -0.14946516848E-01  0.50000500000E+01  0.50000000000E+01 0.  1.
     100001    1    1    2    0    0  0.15701766045E-01  0.54825794294E-02  0.14946516848E-01  0.50000500000E+01  0.50000000000E+01 0.  1.
</event>
<event>
 4    1  0.5040302E-001  0.5000050E+01  0.7818608E-02  0.2136455E+00
        -11   -1    0    0    0    0  0.00000000000E+00  0.00000000000E+00  0.50000499739E+01  0.50000500000E+01  0.51100000000E-03 0.  1.
         11   -1    0    0    0    0 -0.00000000000E+00 -0.00000000000E+00 -0.50000499739E+01  0.50000500000E+01  0.51100000000E-03 0. -1.
     100001    1    1    2    0    0 -0.23584368555E-02  0.16900452476E-01 -0.14450431886E-01  0.50000500000E+01  0.50000000000E+01 0.  1.
     100001    1    1    2    0    0  0.23584368555E-02 -0.16900452476E-01  0.14450431886E-01  0.50000500000E+01  0.50000000000E+01 0.  0.
</event>
<event>
 4    1  0.5040302E-001  0.5000050E+01  0.7818608E-02  0.2136455E+00
        -11   -1    0    0    0    0  0.00000000000E+00  0.00000000000E+00  0.50000499739E+01  0.50000500000E+01  0.51100000000E-03 0.  1.
         11   -1    0    0    0    0 -0.00000000000E+00 -0.00000000000E+00 -0.50000499739E+01  0.50000500000E+01  0.51100000000E-03 0. -1.
     100001    1    1    2    0    0  0.56363255052E-02 -0.18347503833E-01  0.11471854162E-01  0.50000500000E+01  0.50000000000E+01 0.  1.
     100001    1    1    2    0    0 -0.56363255052E-02  0.18347503833E-01 -0.11471854162E-01  0.50000500000E+01  0.50000000000E+01 0. -1.
</event>
<event>
 4    1  0.5040302E-001  0.5000050E+01  0.7818608E-02  0.2136455E+00
        -11   -1    0    0    0    0  0.00000000000E+00  0.00000000000E+00  0.50000499739E+01  0.50000500000E+01  0.51100000000E-03 0. -1.
         11   -1    0    0    0    0 -0.00000000000E+00 -0.00000000000E+00 -0.50000499739E+01  0.50000500000E+01  0.51100000000E-03 0.  1.
     100001    1    1    2    0    0  0.85099134772E-02 -0.95839494633E-02  0.18322985163E-01  0.50000500000E+01  0.50000000000E+01 0. -1.
     100001    1    1    2    0    0 -0.85099134772E-02  0.95839494633E-02 -0.18322985163E-01  0.50000500000E+01  0.50000000000E+01 0.  1.
</event>
<event>
 4    1  0.5040302E-001  0.5000050E+01  0.7818608E-02  0.2136455E+00
        -11   -1    0    0    0    0  0.00000000000E+00  0.00000000000E+00  0.50000499739E+01  0.50000500000E+01  0.51100000000E-03 0. -1.
         11   -1    0    0    0    0 -0.00000000000E+00 -0.00000000000E+00 -0.50000499739E+01  0.50000500000E+01  0.51100000000E-03 0.  1.
     100001    1    1    2    0    0  0.10321886420E-01 -0.18414627412E-01 -0.73731036893E-02  0.50000500000E+01  0.50000000000E+01 0.  1.
     100001    1    1    2    0    0 -0.10321886420E-01  0.18414627412E-01  0.73731036893E-02  0.50000500000E+01  0.50000000000E+01 0. -1.
</event>
<event>
 4    1  0.5040302E-001  0.5000050E+01  0.7818608E-02  0.2136455E+00
        -11   -1    0    0    0    0  0.00000000000E+00  0.00000000000E+00  0.50000499739E+01  0.50000500000E+01  0.51100000000E-03 0.  1.
         11   -1    0    0    0    0 -0.00000000000E+00 -0.00000000000E+00 -0.50000499739E+01  0.50000500000E+01  0.51100000000E-03 0. -1.
     100001    1    1    2    0    0  0.35250565859E-02  0.21561598977E-01 -0.47617145675E-02  0.50000500000E+01  0.50000000000E+01 0. -1.
     100001    1    1    2    0    0 -0.35250565859E-02 -0.21561598977E-01  0.47617145675E-02  0.50000500000E+01  0.50000000000E+01 0.  1.
</event>
<event>
 4    1  0.5040302E-001  0.5000050E+01  0.7818608E-02  0.2136455E+00
        -11   -1    0    0    0    0  0.00000000000E+00  0.00000000000E+00  0.50000499739E+01  0.50000500000E+01  0.51100000000E-03 0.  1.
         11   -1    0    0    0    0 -0.00000000000E+00 -0.00000000000E+00 -0.50000499739E+01  0.50000500000E+01  0.51100000000E-03 0. -1.
     100001    1    1    2    0    0 -0.22283837277E-01  0.14915627044E-02 -0.10992437862E-02  0.50000500000E+01  0.50000000000E+01 0.  1.
     100001    1    1    2    0    0  0.22283837277E-01 -0.14915627044E-02  0.10992437862E-02  0.50000500000E+01  0.50000000000E+01 0. -1.
</event>
<event>
 4    1  0.5040302E-001  0.5000050E+01  0.7818608E-02  0.2136455E+00
        -11   -1    0    0    0    0  0.00000000000E+00  0.00000000000E+00  0.50000499739E+01  0.50000500000E+01  0.51100000000E-03 0. -1.
         11   -1    0    0    0    0 -0.00000000000E+00 -0.00000000000E+00 -0.50000499739E+01  0.50000500000E+01  0.51100000000E-03 0.  1.
     100001    1    1    2    0    0  0.17502906694E-01  0.13912356870E-01  0.31158242052E-03  0.50000500000E+01  0.50000000000E+01 0.  1.
     100001    1    1    2    0    0 -0.17502906694E-01 -0.13912356870E-01 -0.31158242052E-03  0.50000500000E+01  0.50000000000E+01 0.  0.
</event>
<event>
 4    1  0.5040302E-001  0.5000050E+01  0.7818608E-02  0.2136455E+00
        -11   -1    0    0    0    0  0.00000000000E+00  0.00000000000E+00  0.50000499739E+01  0.50000500000E+01  0.51100000000E-03 0.  1.
         11   -1    0    0    0    0 -0.00000000000E+00 -0.00000000000E+00 -0.50000499739E+01  0.50000500000E+01  0.51100000000E-03 0. -1.
     100001    1    1    2    0    0  0.56977956447E-02  0.20743323070E-01  0.61034558093E-02  0.50000500000E+01  0.50000000000E+01 0.  0.
     100001    1    1    2    0    0 -0.56977956447E-02 -0.20743323070E-01 -0.61034558093E-02  0.50000500000E+01  0.50000000000E+01 0.  0.
</event>
<event>
 4    1  0.5040302E-001  0.5000050E+01  0.7818608E-02  0.2136455E+00
        -11   -1    0    0    0    0  0.00000000000E+00  0.00000000000E+00  0.50000499739E+01  0.50000500000E+01  0.51100000000E-03 0.  1.
         11   -1    0    0    0    0 -0.00000000000E+00 -0.00000000000E+00 -0.50000499739E+01  0.50000500000E+01  0.51100000000E-03 0. -1.
     100001    1    1    2    0    0  0.15493785128E-01 -0.12161908030E-01  0.10584569687E-01  0.50000500000E+01  0.50000000000E+01 0. -1.
     100001    1    1    2    0    0 -0.15493785128E-01  0.12161908030E-01 -0.10584569687E-01  0.50000500000E+01  0.50000000000E+01 0.  0.
</event>
<event>
 4    1  0.5040302E-001  0.5000050E+01  0.7818608E-02  0.2136455E+00
        -11   -1    0    0    0    0  0.00000000000E+00  0.00000000000E+00  0.50000499739E+01  0.50000500000E+01  0.51100000000E-03 0. -1.
         11   -1    0    0    0    0 -0.00000000000E+00 -0.00000000000E+00 -0.50000499739E+01  0.50000500000E+01  0.51100000000E-03 0.  1.
     100001    1    1    2    0    0 -0.14560195318E-01  0.10519534359E-01 -0.13317004511E-01  0.50000500000E+01  0.50000000000E+01 0.  0.
     100001    1    1    2    0    0  0.14560195318E-01 -0.10519534359E-01  0.13317004511E-01  0.50000500000E+01  0.50000000000E+01 0.  1.
</event>
<event>
 4    1  0.5040302E-001  0.5000050E+01  0.7818608E-02  0.2136455E+00
        -11   -1    0    0    0    0  0.00000000000E+00  0.00000000000E+00  0.50000499739E+01  0.50000500000E+01  0.51100000000E-03 0.  1.
         11   -1    0    0    0    0 -0.00000000000E+00 -0.00000000000E+00 -0.50000499739E+01  0.50000500000E+01  0.51100000000E-03 0. -1.
     100001    1    1    2    0    0  0.75638113211E-02 -0.15389409164E-01  0.14351214021E-01  0.50000500000E+01  0.50000000000E+01 0.  1.
     100001    1    1    2    0    0 -0.75638113211E-02  0.15389409164E-01 -0.14351214021E-01  0.50000500000E+01  0.50000000000E+01 0. -1.
</event>
<event>
 4    1  0.5040302E-001  0.5000050E+01  0.7818608E-02  0.2136455E+00
        -11   -1    0    0    0    0  0.00000000000E+00  0.00000000000E+00  0.50000499739E+01  0.50000500000E+01  0.51100000000E-03 0.  1.
         11   -1    0    0    0    0 -0.00000000000E+00 -0.00000000000E+00 -0.50000499739E+01  0.50000500000E+01  0.51100000000E-03 0. -1.
     100001    1    1    2    0    0 -0.61835330600E-02 -0.78691181209E-02  0.19996084589E-01  0.50000500000E+01  0.50000000000E+01 0.  1.
     100001    1    1    2    0    0  0.61835330600E-02  0.78691181209E-02 -0.19996084589E-01  0.50000500000E+01  0.50000000000E+01 0. -1.
</event>
<event>
 4    1  0.5040302E-001  0.5000050E+01  0.7818608E-02  0.2136455E+00
        -11   -1    0    0    0    0  0.00000000000E+00  0.00000000000E+00  0.50000499739E+01  0.50000500000E+01  0.51100000000E-03 0. -1.
         11   -1    0    0    0    0 -0.00000000000E+00 -0.00000000000E+00 -0.50000499739E+01  0.50000500000E+01  0.51100000000E-03 0.  1.
     100001    1    1    2    0    0 -0.58398857182E-02  0.20265350124E-01 -0.74306001880E-02  0.50000500000E+01  0.50000000000E+01 0.  0.
     100001    1    1    2    0    0  0.58398857182E-02 -0.20265350124E-01  0.74306001880E-02  0.50000500000E+01  0.50000000000E+01 0.  1.
</event>
<event>
 4    1  0.5040302E-001  0.5000050E+01  0.7818608E-02  0.2136455E+00
        -11   -1    0    0    0    0  0.00000000000E+00  0.00000000000E+00  0.50000499739E+01  0.50000500000E+01  0.51100000000E-03 0.  1.
         11   -1    0    0    0    0 -0.00000000000E+00 -0.00000000000E+00 -0.50000499739E+01  0.50000500000E+01  0.51100000000E-03 0. -1.
     100001    1    1    2    0    0 -0.21611746918E-02  0.19789230984E-01  0.10184211359E-01  0.50000500000E+01  0.50000000000E+01 0.  1.
     100001    1    1    2    0    0  0.21611746918E-02 -0.19789230984E-01 -0.10184211359E-01  0.50000500000E+01  0.50000000000E+01 0. -1.
</event>
<event>
 4    1  0.5040302E-001  0.5000050E+01  0.7818608E-02  0.2136455E+00
        -11   -1    0    0    0    0  0.00000000000E+00  0.00000000000E+00  0.50000499739E+01  0.50000500000E+01  0.51100000000E-03 0.  1.
         11   -1    0    0    0    0 -0.00000000000E+00 -0.00000000000E+00 -0.50000499739E+01  0.50000500000E+01  0.51100000000E-03 0. -1.
     100001    1    1    2    0    0 -0.13740391548E-01  0.12385118547E-02  0.17597449488E-01  0.50000500000E+01  0.50000000000E+01 0.  1.
     100001    1    1    2    0    0  0.13740391548E-01 -0.12385118547E-02 -0.17597449488E-01  0.50000500000E+01  0.50000000000E+01 0. -1.
</event>
<event>
 4    1  0.5040302E-001  0.5000050E+01  0.7818608E-02  0.2136455E+00
        -11   -1    0    0    0    0  0.00000000000E+00  0.00000000000E+00  0.50000499739E+01  0.50000500000E+01  0.51100000000E-03 0. -1.
         11   -1    0    0    0    0 -0.00000000000E+00 -0.00000000000E+00 -0.50000499739E+01  0.50000500000E+01  0.51100000000E-03 0.  1.
     100001    1    1    2    0    0  0.78178779418E-02  0.19483602960E-01 -0.76988635652E-02  0.50000500000E+01  0.50000000000E+01 0.  0.
     100001    1    1    2    0    0 -0.78178779418E-02 -0.19483602960E-01  0.76988635652E-02  0.50000500000E+01  0.50000000000E+01 0.  0.
</event>
<event>
 4    1  0.5040302E-001  0.5000050E+01  0.7818608E-02  0.2136455E+00
        -11   -1    0    0    0    0  0.00000000000E+00  0.00000000000E+00  0.50000499739E+01  0.50000500000E+01  0.51100000000E-03 0. -1.
         11   -1    0    0    0    0 -0.00000000000E+00 -0.00000000000E+00 -0.50000499739E+01  0.50000500000E+01  0.51100000000E-03 0.  1.
     100001    1    1    2    0    0  0.17534560924E-01  0.12463541155E-01  0.60993290669E-02  0.50000500000E+01  0.50000000000E+01 0.  1.
     100001    1    1    2    0    0 -0.17534560924E-01 -0.12463541155E-01 -0.60993290669E-02  0.50000500000E+01  0.50000000000E+01 0. -1.
</event>
<event>
 4    1  0.5040302E-001  0.5000050E+01  0.7818608E-02  0.2136455E+00
        -11   -1    0    0    0    0  0.00000000000E+00  0.00000000000E+00  0.50000499739E+01  0.50000500000E+01  0.51100000000E-03 0.  1.
         11   -1    0    0    0    0 -0.00000000000E+00 -0.00000000000E+00 -0.50000499739E+01  0.50000500000E+01  0.51100000000E-03 0. -1.
     100001    1    1    2    0    0  0.77478819889E-02 -0.12574192062E-01  0.16788761678E-01  0.50000500000E+01  0.50000000000E+01 0. -1.
     100001    1    1    2    0    0 -0.77478819889E-02  0.12574192062E-01 -0.16788761678E-01  0.50000500000E+01  0.50000000000E+01 0. -1.
</event>
<event>
 4    1  0.5040302E-001  0.5000050E+01  0.7818608E-02  0.2136455E+00
        -11   -1    0    0    0    0  0.00000000000E+00  0.00000000000E+00  0.50000499739E+01  0.50000500000E+01  0.51100000000E-03 0. -1.
         11   -1    0    0    0    0 -0.00000000000E+00 -0.00000000000E+00 -0.50000499739E+01  0.50000500000E+01  0.51100000000E-03 0.  1.
     100001    1    1    2    0    0 -0.33283582931E-03  0.15039781046E-01 -0.16543781502E-01  0.50000500000E+01  0.50000000000E+01 0.  0.
     100001    1    1    2    0    0  0.33283582931E-03 -0.15039781046E-01  0.16543781502E-01  0.50000500000E+01  0.50000000000E+01 0.  0.
</event>
<event>
 4    1  0.5040302E-001  0.5000050E+01  0.7818608E-02  0.2136455E+00
        -11   -1    0    0    0    0  0.00000000000E+00  0.00000000000E+00  0.50000499739E+01  0.50000500000E+01  0.51100000000E-03 0. -1.
         11   -1    0    0    0    0 -0.00000000000E+00 -0.00000000000E+00 -0.50000499739E+01  0.50000500000E+01  0.51100000000E-03 0.  1.
     100001    1    1    2    0    0 -0.41687952983E-02  0.19510194543E-01  0.10098314446E-01  0.50000500000E+01  0.50000000000E+01 0. -1.
     100001    1    1    2    0    0  0.41687952983E-02 -0.19510194543E-01 -0.10098314446E-01  0.50000500000E+01  0.50000000000E+01 0.  1.
</event>
<event>
 4    1  0.5040302E-001  0.5000050E+01  0.7818608E-02  0.2136455E+00
        -11   -1    0    0    0    0  0.00000000000E+00  0.00000000000E+00  0.50000499739E+01  0.50000500000E+01  0.51100000000E-03 0. -1.
         11   -1    0    0    0    0 -0.00000000000E+00 -0.00000000000E+00 -0.50000499739E+01  0.50000500000E+01  0.51100000000E-03 0.  1.
     100001    1    1    2    0    0 -0.15402131647E-01  0.13618875505E-01  0.87922164837E-02  0.50000500000E+01  0.50000000000E+01 0. -1.
     100001    1    1    2    0    0  0.15402131647E-01 -0.13618875505E-01 -0.87922164837E-02  0.50000500000E+01  0.50000000000E+01 0.  1.
</event>
<event>
 4    1  0.5040302E-001  0.5000050E+01  0.7818608E-02  0.2136455E+00
        -11   -1    0    0    0    0  0.00000000000E+00  0.00000000000E+00  0.50000499739E+01  0.50000500000E+01  0.51100000000E-03 0. -1.
         11   -1    0    0    0    0 -0.00000000000E+00 -0.00000000000E+00 -0.50000499739E+01  0.50000500000E+01  0.51100000000E-03 0.  1.
     100001    1    1    2    0    0  0.35714208537E-02  0.11169690848E-01 -0.19039050907E-01  0.50000500000E+01  0.50000000000E+01 0.  1.
     100001    1    1    2    0    0 -0.35714208537E-02 -0.11169690848E-01  0.19039050907E-01  0.50000500000E+01  0.50000000000E+01 0.  0.
</event>
<event>
 4    1  0.5040302E-001  0.5000050E+01  0.7818608E-02  0.2136455E+00
        -11   -1    0    0    0    0  0.00000000000E+00  0.00000000000E+00  0.50000499739E+01  0.50000500000E+01  0.51100000000E-03 0. -1.
         11   -1    0    0    0    0 -0.00000000000E+00 -0.00000000000E+00 -0.50000499739E+01  0.50000500000E+01  0.51100000000E-03 0.  1.
     100001    1    1    2    0    0 -0.67422137360E-02  0.78908943612E-02  0.19806030398E-01  0.50000500000E+01  0.50000000000E+01 0. -1.
     100001    1    1    2    0    0  0.67422137360E-02 -0.78908943612E-02 -0.19806030398E-01  0.50000500000E+01  0.50000000000E+01 0.  1.
</event>
<event>
 4    1  0.5040302E-001  0.5000050E+01  0.7818608E-02  0.2136455E+00
        -11   -1    0    0    0    0  0.00000000000E+00  0.00000000000E+00  0.50000499739E+01  0.50000500000E+01  0.51100000000E-03 0.  1.
         11   -1    0    0    0    0 -0.00000000000E+00 -0.00000000000E+00 -0.50000499739E+01  0.50000500000E+01  0.51100000000E-03 0. -1.
     100001    1    1    2    0    0 -0.47698602990E-03  0.10479652684E-01 -0.19747198888E-01  0.50000500000E+01  0.50000000000E+01 0. -1.
     100001    1    1    2    0    0  0.47698602990E-03 -0.10479652684E-01  0.19747198888E-01  0.50000500000E+01  0.50000000000E+01 0.  1.
</event>
<event>
 4    1  0.5040302E-001  0.5000050E+01  0.7818608E-02  0.2136455E+00
        -11   -1    0    0    0    0  0.00000000000E+00  0.00000000000E+00  0.50000499739E+01  0.50000500000E+01  0.51100000000E-03 0. -1.
         11   -1    0    0    0    0 -0.00000000000E+00 -0.00000000000E+00 -0.50000499739E+01  0.50000500000E+01  0.51100000000E-03 0.  1.
     100001    1    1    2    0    0 -0.97027809495E-02  0.20037270601E-01 -0.20895762042E-02  0.50000500000E+01  0.50000000000E+01 0.  1.
     100001    1    1    2    0    0  0.97027809495E-02 -0.20037270601E-01  0.20895762042E-02  0.50000500000E+01  0.50000000000E+01 0. -1.
</event>
<event>
 4    1  0.5040302E-001  0.5000050E+01  0.7818608E-02  0.2136455E+00
        -11   -1    0    0    0    0  0.00000000000E+00  0.00000000000E+00  0.50000499739E+01  0.50000500000E+01  0.51100000000E-03 0.  1.
         11   -1    0    0    0    0 -0.00000000000E+00 -0.00000000000E+00 -0.50000499739E+01  0.50000500000E+01  0.51100000000E-03 0. -1.
     100001    1    1    2    0    0  0.15593932809E-01 -0.53794744516E-02  0.15096125800E-01  0.50000500000E+01  0.50000000000E+01 0.  0.
     100001    1    1    2    0    0 -0.15593932809E-01  0.53794744516E-02 -0.15096125800E-01  0.50000500000E+01  0.50000000000E+01 0.  0.
</event>
<event>
 4    1  0.5040302E-001  0.5000050E+01  0.7818608E-02  0.2136455E+00
        -11   -1    0    0    0    0  0.00000000000E+00  0.00000000000E+00  0.50000499739E+01  0.50000500000E+01  0.51100000000E-03 0. -1.
         11   -1    0    0    0    0 -0.00000000000E+00 -0.00000000000E+00 -0.50000499739E+01  0.50000500000E+01  0.51100000000E-03 0.  1.
     100001    1    1    2    0    0  0.11070558761E-01  0.58995307832E-02  0.18510558210E-01  0.50000500000E+01  0.50000000000E+01 0.  0.
     100001    1    1    2    0    0 -0.11070558761E-01 -0.58995307832E-02 -0.18510558210E-01  0.50000500000E+01  0.50000000000E+01 0.  1.
</event>
<event>
 4    1  0.5040302E-001  0.5000050E+01  0.7818608E-02  0.2136455E+00
        -11   -1    0    0    0    0  0.00000000000E+00  0.00000000000E+00  0.50000499739E+01  0.50000500000E+01  0.51100000000E-03 0. -1.
         11   -1    0    0    0    0 -0.00000000000E+00 -0.00000000000E+00 -0.50000499739E+01  0.50000500000E+01  0.51100000000E-03 0.  1.
     100001    1    1    2    0    0 -0.20246640548E-01 -0.86018902813E-02  0.40104276703E-02  0.50000500000E+01  0.50000000000E+01 0.  0.
     100001    1    1    2    0    0  0.20246640548E-01  0.86018902813E-02 -0.40104276703E-02  0.50000500000E+01  0.50000000000E+01 0.  1.
</event>
<event>
 4    1  0.5040302E-001  0.5000050E+01  0.7818608E-02  0.2136455E+00
        -11   -1    0    0    0    0  0.00000000000E+00  0.00000000000E+00  0.50000499739E+01  0.50000500000E+01  0.51100000000E-03 0.  1.
         11   -1    0    0    0    0 -0.00000000000E+00 -0.00000000000E+00 -0.50000499739E+01  0.50000500000E+01  0.51100000000E-03 0. -1.
     100001    1    1    2    0    0 -0.12298493173E-01 -0.18263565966E-01 -0.38976562023E-02  0.50000500000E+01  0.50000000000E+01 0. -1.
     100001    1    1    2    0    0  0.12298493173E-01  0.18263565966E-01  0.38976562023E-02  0.50000500000E+01  0.50000000000E+01 0.  0.
</event>
<event>
 4    1  0.5040302E-001  0.5000050E+01  0.7818608E-02  0.2136455E+00
        -11   -1    0    0    0    0  0.00000000000E+00  0.00000000000E+00  0.50000499739E+01  0.50000500000E+01  0.51100000000E-03 0.  1.
         11   -1    0    0    0    0 -0.00000000000E+00 -0.00000000000E+00 -0.50000499739E+01  0.50000500000E+01  0.51100000000E-03 0. -1.
     100001    1    1    2    0    0 -0.19175546033E-01  0.97269302724E-02  0.61390359008E-02  0.50000500000E+01  0.50000000000E+01 0. -1.
     100001    1    1    2    0    0  0.19175546033E-01 -0.97269302724E-02 -0.61390359008E-02  0.50000500000E+01  0.50000000000E+01 0.  1.
</event>
<event>
 4    1  0.5040302E-001  0.5000050E+01  0.7818608E-02  0.2136455E+00
        -11   -1    0    0    0    0  0.00000000000E+00  0.00000000000E+00  0.50000499739E+01  0.50000500000E+01  0.51100000000E-03 0.  1.
         11   -1    0    0    0    0 -0.00000000000E+00 -0.00000000000E+00 -0.50000499739E+01  0.50000500000E+01  0.51100000000E-03 0. -1.
     100001    1    1    2    0    0 -0.83064243175E-02 -0.86400718435E-02 -0.18877366702E-01  0.50000500000E+01  0.50000000000E+01 0. -1.
     100001    1    1    2    0    0  0.83064243175E-02  0.86400718435E-02  0.18877366702E-01  0.50000500000E+01  0.50000000000E+01 0.  0.
</event>
<event>
 4    1  0.5040302E-001  0.5000050E+01  0.7818608E-02  0.2136455E+00
        -11   -1    0    0    0    0  0.00000000000E+00  0.00000000000E+00  0.50000499739E+01  0.50000500000E+01  0.51100000000E-03 0. -1.
         11   -1    0    0    0    0 -0.00000000000E+00 -0.00000000000E+00 -0.50000499739E+01  0.50000500000E+01  0.51100000000E-03 0.  1.
     100001    1    1    2    0    0 -0.19902983409E-01  0.74104142456E-02 -0.69971074108E-02  0.50000500000E+01  0.50000000000E+01 0. -1.
     100001    1    1    2    0    0  0.19902983409E-01 -0.74104142456E-02  0.69971074108E-02  0.50000500000E+01  0.50000000000E+01 0.  0.
</event>
<event>
 4    1  0.5040302E-001  0.5000050E+01  0.7818608E-02  0.2136455E+00
        -11   -1    0    0    0    0  0.00000000000E+00  0.00000000000E+00  0.50000499739E+01  0.50000500000E+01  0.51100000000E-03 0. -1.
         11   -1    0    0    0    0 -0.00000000000E+00 -0.00000000000E+00 -0.50000499739E+01  0.50000500000E+01  0.51100000000E-03 0.  1.
     100001    1    1    2    0    0  0.41167970603E-02  0.20809698297E-01 -0.70718412562E-02  0.50000500000E+01  0.50000000000E+01 0.  1.
     100001    1    1    2    0    0 -0.41167970603E-02 -0.20809698297E-01  0.70718412562E-02  0.50000500000E+01  0.50000000000E+01 0. -1.
</event>
<event>
 4    1  0.5040302E-001  0.5000050E+01  0.7818608E-02  0.2136455E+00
        -11   -1    0    0    0    0  0.00000000000E+00  0.00000000000E+00  0.50000499739E+01  0.50000500000E+01  0.51100000000E-03 0.  1.
         11   -1    0    0    0    0 -0.00000000000E+00 -0.00000000000E+00 -0.50000499739E+01  0.50000500000E+01  0.51100000000E-03 0. -1.
     100001    1    1    2    0    0 -0.21449785683E-01  0.62239707226E-02  0.10823042992E-02  0.50000500000E+01  0.50000000000E+01 0.  0.
     100001    1    1    2    0    0  0.21449785683E-01 -0.62239707226E-02 -0.10823042992E-02  0.50000500000E+01  0.50000000000E+01 0. -1.
</event>
<event>
 4    1  0.5040302E-001  0.5000050E+01  0.7818608E-02  0.2136455E+00
        -11   -1    0    0    0    0  0.00000000000E+00  0.00000000000E+00  0.50000499739E+01  0.50000500000E+01  0.51100000000E-03 0. -1.
         11   -1    0    0    0    0 -0.00000000000E+00 -0.00000000000E+00 -0.50000499739E+01  0.50000500000E+01  0.51100000000E-03 0.  1.
     100001    1    1    2    0    0  0.10849613303E-01 -0.11300102541E-01 -0.15956066988E-01  0.50000500000E+01  0.50000000000E+01 0.  1.
     100001    1    1    2    0    0 -0.10849613303E-01  0.11300102541E-01  0.15956066988E-01  0.50000500000E+01  0.50000000000E+01 0. -1.
</event>
<event>
 4    1  0.5040302E-001  0.5000050E+01  0.7818608E-02  0.2136455E+00
        -11   -1    0    0    0    0  0.00000000000E+00  0.00000000000E+00  0.50000499739E+01  0.50000500000E+01  0.51100000000E-03 0. -1.
         11   -1    0    0    0    0 -0.00000000000E+00 -0.00000000000E+00 -0.50000499739E+01  0.50000500000E+01  0.51100000000E-03 0.  1.
     100001    1    1    2    0    0 -0.11737208344E-01  0.14090207030E-01 -0.12794784333E-01  0.50000500000E+01  0.50000000000E+01 0.  1.
     100001    1    1    2    0    0  0.11737208344E-01 -0.14090207030E-01  0.12794784333E-01  0.50000500000E+01  0.50000000000E+01 0. -1.
</event>
<event>
 4    1  0.5040302E-001  0.5000050E+01  0.7818608E-02  0.2136455E+00
        -11   -1    0    0    0    0  0.00000000000E+00  0.00000000000E+00  0.50000499739E+01  0.50000500000E+01  0.51100000000E-03 0.  1.
         11   -1    0    0    0    0 -0.00000000000E+00 -0.00000000000E+00 -0.50000499739E+01  0.50000500000E+01  0.51100000000E-03 0. -1.
     100001    1    1    2    0    0  0.16771917180E-01 -0.83050316147E-02  0.12236492307E-01  0.50000500000E+01  0.50000000000E+01 0. -1.
     100001    1    1    2    0    0 -0.16771917180E-01  0.83050316147E-02 -0.12236492307E-01  0.50000500000E+01  0.50000000000E+01 0.  1.
</event>
<event>
 4    1  0.5040302E-001  0.5000050E+01  0.7818608E-02  0.2136455E+00
        -11   -1    0    0    0    0  0.00000000000E+00  0.00000000000E+00  0.50000499739E+01  0.50000500000E+01  0.51100000000E-03 0. -1.
         11   -1    0    0    0    0 -0.00000000000E+00 -0.00000000000E+00 -0.50000499739E+01  0.50000500000E+01  0.51100000000E-03 0.  1.
     100001    1    1    2    0    0 -0.11455996514E-01 -0.15137520054E-01 -0.11816011615E-01  0.50000500000E+01  0.50000000000E+01 0.  1.
     100001    1    1    2    0    0  0.11455996514E-01  0.15137520054E-01  0.11816011615E-01  0.50000500000E+01  0.50000000000E+01 0. -1.
</event>
<event>
 4    1  0.5040302E-001  0.5000050E+01  0.7818608E-02  0.2136455E+00
        -11   -1    0    0    0    0  0.00000000000E+00  0.00000000000E+00  0.50000499739E+01  0.50000500000E+01  0.51100000000E-03 0. -1.
         11   -1    0    0    0    0 -0.00000000000E+00 -0.00000000000E+00 -0.50000499739E+01  0.50000500000E+01  0.51100000000E-03 0.  1.
     100001    1    1    2    0    0 -0.10997868250E-01 -0.59211965365E-02  0.18546935745E-01  0.50000500000E+01  0.50000000000E+01 0.  0.
     100001    1    1    2    0    0  0.10997868250E-01  0.59211965365E-02 -0.18546935745E-01  0.50000500000E+01  0.50000000000E+01 0.  1.
</event>
<event>
 4    1  0.5040302E-001  0.5000050E+01  0.7818608E-02  0.2136455E+00
        -11   -1    0    0    0    0  0.00000000000E+00  0.00000000000E+00  0.50000499739E+01  0.50000500000E+01  0.51100000000E-03 0. -1.
         11   -1    0    0    0    0 -0.00000000000E+00 -0.00000000000E+00 -0.50000499739E+01  0.50000500000E+01  0.51100000000E-03 0.  1.
     100001    1    1    2    0    0 -0.21811922507E-01 -0.80712282554E-03  0.48570659155E-02  0.50000500000E+01  0.50000000000E+01 0.  0.
     100001    1    1    2    0    0  0.21811922507E-01  0.80712282554E-03 -0.48570659155E-02  0.50000500000E+01  0.50000000000E+01 0.  0.
</event>
<event>
 4    1  0.5040302E-001  0.5000050E+01  0.7818608E-02  0.2136455E+00
        -11   -1    0    0    0    0  0.00000000000E+00  0.00000000000E+00  0.50000499739E+01  0.50000500000E+01  0.51100000000E-03 0. -1.
         11   -1    0    0    0    0 -0.00000000000E+00 -0.00000000000E+00 -0.50000499739E+01  0.50000500000E+01  0.51100000000E-03 0.  1.
     100001    1    1    2    0    0  0.19383754300E-01 -0.43093212358E-02  0.10281163344E-01  0.50000500000E+01  0.50000000000E+01 0. -1.
     100001    1    1    2    0    0 -0.19383754300E-01  0.43093212358E-02 -0.10281163344E-01  0.50000500000E+01  0.50000000000E+01 0.  1.
</event>
<event>
 4    1  0.5040302E-001  0.5000050E+01  0.7818608E-02  0.2136455E+00
        -11   -1    0    0    0    0  0.00000000000E+00  0.00000000000E+00  0.50000499739E+01  0.50000500000E+01  0.51100000000E-03 0.  1.
         11   -1    0    0    0    0 -0.00000000000E+00 -0.00000000000E+00 -0.50000499739E+01  0.50000500000E+01  0.51100000000E-03 0. -1.
     100001    1    1    2    0    0 -0.76652799266E-03 -0.21832388401E-01  0.47709277453E-02  0.50000500000E+01  0.50000000000E+01 0.  1.
     100001    1    1    2    0    0  0.76652799266E-03  0.21832388401E-01 -0.47709277453E-02  0.50000500000E+01  0.50000000000E+01 0. -1.
</event>
<event>
 4    1  0.5040302E-001  0.5000050E+01  0.7818608E-02  0.2136455E+00
        -11   -1    0    0    0    0  0.00000000000E+00  0.00000000000E+00  0.50000499739E+01  0.50000500000E+01  0.51100000000E-03 0. -1.
         11   -1    0    0    0    0 -0.00000000000E+00 -0.00000000000E+00 -0.50000499739E+01  0.50000500000E+01  0.51100000000E-03 0.  1.
     100001    1    1    2    0    0 -0.44322900849E-02 -0.85999761235E-03 -0.21900175997E-01  0.50000500000E+01  0.50000000000E+01 0.  0.
     100001    1    1    2    0    0  0.44322900849E-02  0.85999761235E-03  0.21900175997E-01  0.50000500000E+01  0.50000000000E+01 0. -1.
</event>
<event>
 4    1  0.5040302E-001  0.5000050E+01  0.7818608E-02  0.2136455E+00
        -11   -1    0    0    0    0  0.00000000000E+00  0.00000000000E+00  0.50000499739E+01  0.50000500000E+01  0.51100000000E-03 0. -1.
         11   -1    0    0    0    0 -0.00000000000E+00 -0.00000000000E+00 -0.50000499739E+01  0.50000500000E+01  0.51100000000E-03 0.  1.
     100001    1    1    2    0    0 -0.71607582060E-02 -0.17415129198E-01 -0.12059822426E-01  0.50000500000E+01  0.50000000000E+01 0.  1.
     100001    1    1    2    0    0  0.71607582060E-02  0.17415129198E-01  0.12059822426E-01  0.50000500000E+01  0.50000000000E+01 0. -1.
</event>
<event>
 4    1  0.5040302E-001  0.5000050E+01  0.7818608E-02  0.2136455E+00
        -11   -1    0    0    0    0  0.00000000000E+00  0.00000000000E+00  0.50000499739E+01  0.50000500000E+01  0.51100000000E-03 0. -1.
         11   -1    0    0    0    0 -0.00000000000E+00 -0.00000000000E+00 -0.50000499739E+01  0.50000500000E+01  0.51100000000E-03 0.  1.
     100001    1    1    2    0    0 -0.97760651541E-02 -0.19744371069E-01  0.38197985785E-02  0.50000500000E+01  0.50000000000E+01 0.  1.
     100001    1    1    2    0    0  0.97760651541E-02  0.19744371069E-01 -0.38197985785E-02  0.50000500000E+01  0.50000000000E+01 0.  0.
</event>
<event>
 4    1  0.5040302E-001  0.5000050E+01  0.7818608E-02  0.2136455E+00
        -11   -1    0    0    0    0  0.00000000000E+00  0.00000000000E+00  0.50000499739E+01  0.50000500000E+01  0.51100000000E-03 0.  1.
         11   -1    0    0    0    0 -0.00000000000E+00 -0.00000000000E+00 -0.50000499739E+01  0.50000500000E+01  0.51100000000E-03 0. -1.
     100001    1    1    2    0    0  0.20787488199E-01  0.22010921128E-02 -0.79396491044E-02  0.50000500000E+01  0.50000000000E+01 0. -1.
     100001    1    1    2    0    0 -0.20787488199E-01 -0.22010921128E-02  0.79396491044E-02  0.50000500000E+01  0.50000000000E+01 0.  1.
</event>
<event>
 4    1  0.5040302E-001  0.5000050E+01  0.7818608E-02  0.2136455E+00
        -11   -1    0    0    0    0  0.00000000000E+00  0.00000000000E+00  0.50000499739E+01  0.50000500000E+01  0.51100000000E-03 0.  1.
         11   -1    0    0    0    0 -0.00000000000E+00 -0.00000000000E+00 -0.50000499739E+01  0.50000500000E+01  0.51100000000E-03 0. -1.
     100001    1    1    2    0    0  0.15429416537E-01 -0.83086068717E-02 -0.13888940103E-01  0.50000500000E+01  0.50000000000E+01 0.  1.
     100001    1    1    2    0    0 -0.15429416537E-01  0.83086068717E-02  0.13888940103E-01  0.50000500000E+01  0.50000000000E+01 0.  0.
</event>
<event>
 4    1  0.5040302E-001  0.5000050E+01  0.7818608E-02  0.2136455E+00
        -11   -1    0    0    0    0  0.00000000000E+00  0.00000000000E+00  0.50000499739E+01  0.50000500000E+01  0.51100000000E-03 0.  1.
         11   -1    0    0    0    0 -0.00000000000E+00 -0.00000000000E+00 -0.50000499739E+01  0.50000500000E+01  0.51100000000E-03 0. -1.
     100001    1    1    2    0    0  0.20588018375E-01  0.84882306093E-02  0.20213709521E-02  0.50000500000E+01  0.50000000000E+01 0.  0.
     100001    1    1    2    0    0 -0.20588018375E-01 -0.84882306093E-02 -0.20213709521E-02  0.50000500000E+01  0.50000000000E+01 0. -1.
</event>
<event>
 4    1  0.5040302E-001  0.5000050E+01  0.7818608E-02  0.2136455E+00
        -11   -1    0    0    0    0  0.00000000000E+00  0.00000000000E+00  0.50000499739E+01  0.50000500000E+01  0.51100000000E-03 0.  1.
         11   -1    0    0    0    0 -0.00000000000E+00 -0.00000000000E+00 -0.50000499739E+01  0.50000500000E+01  0.51100000000E-03 0. -1.
     100001    1    1    2    0    0  0.22419986613E-02  0.15324385284E-01  0.16128830015E-01  0.50000500000E+01  0.50000000000E+01 0.  0.
     100001    1    1    2    0    0 -0.22419986613E-02 -0.15324385284E-01 -0.16128830015E-01  0.50000500000E+01  0.50000000000E+01 0.  0.
</event>
<event>
 4    1  0.5040302E-001  0.5000050E+01  0.7818608E-02  0.2136455E+00
        -11   -1    0    0    0    0  0.00000000000E+00  0.00000000000E+00  0.50000499739E+01  0.50000500000E+01  0.51100000000E-03 0.  1.
         11   -1    0    0    0    0 -0.00000000000E+00 -0.00000000000E+00 -0.50000499739E+01  0.50000500000E+01  0.51100000000E-03 0. -1.
     100001    1    1    2    0    0 -0.41287417813E-02  0.21405405349E-01 -0.49764056437E-02  0.50000500000E+01  0.50000000000E+01 0.  1.
     100001    1    1    2    0    0  0.41287417813E-02 -0.21405405349E-01  0.49764056437E-02  0.50000500000E+01  0.50000000000E+01 0. -1.
</event>
<event>
 4    1  0.5040302E-001  0.5000050E+01  0.7818608E-02  0.2136455E+00
        -11   -1    0    0    0    0  0.00000000000E+00  0.00000000000E+00  0.50000499739E+01  0.50000500000E+01  0.51100000000E-03 0. -1.
         11   -1    0    0    0    0 -0.00000000000E+00 -0.00000000000E+00 -0.50000499739E+01  0.50000500000E+01  0.51100000000E-03 0.  1.
     100001    1    1    2    0    0 -0.12898414539E-02 -0.22306230554E-01 -0.87800199313E-03  0.50000500000E+01  0.50000000000E+01 0.  1.
     100001    1    1    2    0    0  0.12898414539E-02  0.22306230554E-01  0.87800199313E-03  0.50000500000E+01  0.50000000000E+01 0. -1.
</event>
<event>
 4    1  0.5040302E-001  0.5000050E+01  0.7818608E-02  0.2136455E+00
        -11   -1    0    0    0    0  0.00000000000E+00  0.00000000000E+00  0.50000499739E+01  0.50000500000E+01  0.51100000000E-03 0.  1.
         11   -1    0    0    0    0 -0.00000000000E+00 -0.00000000000E+00 -0.50000499739E+01  0.50000500000E+01  0.51100000000E-03 0. -1.
     100001    1    1    2    0    0  0.92322132822E-02  0.17908472231E-01 -0.96982142827E-02  0.50000500000E+01  0.50000000000E+01 0.  1.
     100001    1    1    2    0    0 -0.92322132822E-02 -0.17908472231E-01  0.96982142827E-02  0.50000500000E+01  0.50000000000E+01 0.  0.
</event>
<event>
 4    1  0.5040302E-001  0.5000050E+01  0.7818608E-02  0.2136455E+00
        -11   -1    0    0    0    0  0.00000000000E+00  0.00000000000E+00  0.50000499739E+01  0.50000500000E+01  0.51100000000E-03 0.  1.
         11   -1    0    0    0    0 -0.00000000000E+00 -0.00000000000E+00 -0.50000499739E+01  0.50000500000E+01  0.51100000000E-03 0. -1.
     100001    1    1    2    0    0  0.10470096562E-01  0.80940110995E-02  0.18024055101E-01  0.50000500000E+01  0.50000000000E+01 0.  0.
     100001    1    1    2    0    0 -0.10470096562E-01 -0.80940110995E-02 -0.18024055101E-01  0.50000500000E+01  0.50000000000E+01 0.  0.
</event>
<event>
 4    1  0.5040302E-001  0.5000050E+01  0.7818608E-02  0.2136455E+00
        -11   -1    0    0    0    0  0.00000000000E+00  0.00000000000E+00  0.50000499739E+01  0.50000500000E+01  0.51100000000E-03 0.  1.
         11   -1    0    0    0    0 -0.00000000000E+00 -0.00000000000E+00 -0.50000499739E+01  0.50000500000E+01  0.51100000000E-03 0. -1.
     100001    1    1    2    0    0 -0.15572541828E-01  0.38835744325E-02 -0.15569723525E-01  0.50000500000E+01  0.50000000000E+01 0. -1.
     100001    1    1    2    0    0  0.15572541828E-01 -0.38835744325E-02  0.15569723525E-01  0.50000500000E+01  0.50000000000E+01 0.  0.
</event>
<event>
 4    1  0.5040302E-001  0.5000050E+01  0.7818608E-02  0.2136455E+00
        -11   -1    0    0    0    0  0.00000000000E+00  0.00000000000E+00  0.50000499739E+01  0.50000500000E+01  0.51100000000E-03 0.  1.
         11   -1    0    0    0    0 -0.00000000000E+00 -0.00000000000E+00 -0.50000499739E+01  0.50000500000E+01  0.51100000000E-03 0. -1.
     100001    1    1    2    0    0 -0.86491112054E-02  0.20611461958E-01 -0.60250420534E-03  0.50000500000E+01  0.50000000000E+01 0. -1.
     100001    1    1    2    0    0  0.86491112054E-02 -0.20611461958E-01  0.60250420534E-03  0.50000500000E+01  0.50000000000E+01 0.  1.
</event>
<event>
 4    1  0.5040302E-001  0.5000050E+01  0.7818608E-02  0.2136455E+00
        -11   -1    0    0    0    0  0.00000000000E+00  0.00000000000E+00  0.50000499739E+01  0.50000500000E+01  0.51100000000E-03 0. -1.
         11   -1    0    0    0    0 -0.00000000000E+00 -0.00000000000E+00 -0.50000499739E+01  0.50000500000E+01  0.51100000000E-03 0.  1.
     100001    1    1    2    0    0  0.22839273920E-02 -0.19731045111E-01  0.10269957862E-01  0.50000500000E+01  0.50000000000E+01 0. -1.
     100001    1    1    2    0    0 -0.22839273920E-02  0.19731045111E-01 -0.10269957862E-01  0.50000500000E+01  0.50000000000E+01 0.  1.
</event>
<event>
 4    1  0.5040302E-001  0.5000050E+01  0.7818608E-02  0.2136455E+00
        -11   -1    0    0    0    0  0.00000000000E+00  0.00000000000E+00  0.50000499739E+01  0.50000500000E+01  0.51100000000E-03 0.  1.
         11   -1    0    0    0    0 -0.00000000000E+00 -0.00000000000E+00 -0.50000499739E+01  0.50000500000E+01  0.51100000000E-03 0. -1.
     100001    1    1    2    0    0 -0.22275572029E-01  0.11956970772E-02 -0.15400322301E-02  0.50000500000E+01  0.50000000000E+01 0.  0.
     100001    1    1    2    0    0  0.22275572029E-01 -0.11956970772E-02  0.15400322301E-02  0.50000500000E+01  0.50000000000E+01 0. -1.
</event>
<event>
 4    1  0.5040302E-001  0.5000050E+01  0.7818608E-02  0.2136455E+00
        -11   -1    0    0    0    0  0.00000000000E+00  0.00000000000E+00  0.50000499739E+01  0.50000500000E+01  0.51100000000E-03 0.  1.
         11   -1    0    0    0    0 -0.00000000000E+00 -0.00000000000E+00 -0.50000499739E+01  0.50000500000E+01  0.51100000000E-03 0. -1.
     100001    1    1    2    0    0  0.16399736343E-01  0.42408792874E-02 -0.14596783576E-01  0.50000500000E+01  0.50000000000E+01 0.  0.
     100001    1    1    2    0    0 -0.16399736343E-01 -0.42408792874E-02  0.14596783576E-01  0.50000500000E+01  0.50000000000E+01 0. -1.
</event>
<event>
 4    1  0.5040302E-001  0.5000050E+01  0.7818608E-02  0.2136455E+00
        -11   -1    0    0    0    0  0.00000000000E+00  0.00000000000E+00  0.50000499739E+01  0.50000500000E+01  0.51100000000E-03 0. -1.
         11   -1    0    0    0    0 -0.00000000000E+00 -0.00000000000E+00 -0.50000499739E+01  0.50000500000E+01  0.51100000000E-03 0.  1.
     100001    1    1    2    0    0 -0.69377539850E-02  0.17658909456E-01  0.11833553416E-01  0.50000500000E+01  0.50000000000E+01 0. -1.
     100001    1    1    2    0    0  0.69377539850E-02 -0.17658909456E-01 -0.11833553416E-01  0.50000500000E+01  0.50000000000E+01 0.  1.
</event>
<event>
 4    1  0.5040302E-001  0.5000050E+01  0.7818608E-02  0.2136455E+00
        -11   -1    0    0    0    0  0.00000000000E+00  0.00000000000E+00  0.50000499739E+01  0.50000500000E+01  0.51100000000E-03 0.  1.
         11   -1    0    0    0    0 -0.00000000000E+00 -0.00000000000E+00 -0.50000499739E+01  0.50000500000E+01  0.51100000000E-03 0. -1.
     100001    1    1    2    0    0 -0.10692149964E-01 -0.10386032562E-01 -0.16667656007E-01  0.50000500000E+01  0.50000000000E+01 0. -1.
     100001    1    1    2    0    0  0.10692149964E-01  0.10386032562E-01  0.16667656007E-01  0.50000500000E+01  0.50000000000E+01 0. -1.
</event>
<event>
 4    1  0.5040302E-001  0.5000050E+01  0.7818608E-02  0.2136455E+00
        -11   -1    0    0    0    0  0.00000000000E+00  0.00000000000E+00  0.50000499739E+01  0.50000500000E+01  0.51100000000E-03 0.  1.
         11   -1    0    0    0    0 -0.00000000000E+00 -0.00000000000E+00 -0.50000499739E+01  0.50000500000E+01  0.51100000000E-03 0. -1.
     100001    1    1    2    0    0  0.20238078056E-01 -0.95088853553E-02 -0.61610721544E-04  0.50000500000E+01  0.50000000000E+01 0.  0.
     100001    1    1    2    0    0 -0.20238078056E-01  0.95088853553E-02  0.61610721544E-04  0.50000500000E+01  0.50000000000E+01 0. -1.
</event>
<event>
 4    1  0.5040302E-001  0.5000050E+01  0.7818608E-02  0.2136455E+00
        -11   -1    0    0    0    0  0.00000000000E+00  0.00000000000E+00  0.50000499739E+01  0.50000500000E+01  0.51100000000E-03 0. -1.
         11   -1    0    0    0    0 -0.00000000000E+00 -0.00000000000E+00 -0.50000499739E+01  0.50000500000E+01  0.51100000000E-03 0.  1.
     100001    1    1    2    0    0  0.17775859747E-01 -0.13327902416E-01 -0.25275140821E-02  0.50000500000E+01  0.50000000000E+01 0. -1.
     100001    1    1    2    0    0 -0.17775859747E-01  0.13327902416E-01  0.25275140821E-02  0.50000500000E+01  0.50000000000E+01 0.  0.
</event>
<event>
 4    1  0.5040302E-001  0.5000050E+01  0.7818608E-02  0.2136455E+00
        -11   -1    0    0    0    0  0.00000000000E+00  0.00000000000E+00  0.50000499739E+01  0.50000500000E+01  0.51100000000E-03 0. -1.
         11   -1    0    0    0    0 -0.00000000000E+00 -0.00000000000E+00 -0.50000499739E+01  0.50000500000E+01  0.51100000000E-03 0.  1.
     100001    1    1    2    0    0  0.15071600039E-01 -0.62262700196E-02  0.15299769080E-01  0.50000500000E+01  0.50000000000E+01 0.  0.
     100001    1    1    2    0    0 -0.15071600039E-01  0.62262700196E-02 -0.15299769080E-01  0.50000500000E+01  0.50000000000E+01 0.  0.
</event>
<event>
 4    1  0.5040302E-001  0.5000050E+01  0.7818608E-02  0.2136455E+00
        -11   -1    0    0    0    0  0.00000000000E+00  0.00000000000E+00  0.50000499739E+01  0.50000500000E+01  0.51100000000E-03 0. -1.
         11   -1    0    0    0    0 -0.00000000000E+00 -0.00000000000E+00 -0.50000499739E+01  0.50000500000E+01  0.51100000000E-03 0.  1.
     100001    1    1    2    0    0 -0.27400949825E-03  0.11445739879E-01  0.19207354253E-01  0.50000500000E+01  0.50000000000E+01 0.  0.
     100001    1    1    2    0    0  0.27400949825E-03 -0.11445739879E-01 -0.19207354253E-01  0.50000500000E+01  0.50000000000E+01 0.  1.
</event>
<event>
 4    1  0.5040302E-001  0.5000050E+01  0.7818608E-02  0.2136455E+00
        -11   -1    0    0    0    0  0.00000000000E+00  0.00000000000E+00  0.50000499739E+01  0.50000500000E+01  0.51100000000E-03 0. -1.
         11   -1    0    0    0    0 -0.00000000000E+00 -0.00000000000E+00 -0.50000499739E+01  0.50000500000E+01  0.51100000000E-03 0.  1.
     100001    1    1    2    0    0 -0.97047272518E-02 -0.70840341864E-02  0.18858346391E-01  0.50000500000E+01  0.50000000000E+01 0.  0.
     100001    1    1    2    0    0  0.97047272518E-02  0.70840341864E-02 -0.18858346391E-01  0.50000500000E+01  0.50000000000E+01 0.  0.
</event>
<event>
 4    1  0.5040302E-001  0.5000050E+01  0.7818608E-02  0.2136455E+00
        -11   -1    0    0    0    0  0.00000000000E+00  0.00000000000E+00  0.50000499739E+01  0.50000500000E+01  0.51100000000E-03 0. -1.
         11   -1    0    0    0    0 -0.00000000000E+00 -0.00000000000E+00 -0.50000499739E+01  0.50000500000E+01  0.51100000000E-03 0.  1.
     100001    1    1    2    0    0  0.21486982091E-01  0.56746449162E-02  0.24719437086E-02  0.50000500000E+01  0.50000000000E+01 0.  0.
     100001    1    1    2    0    0 -0.21486982091E-01 -0.56746449162E-02 -0.24719437086E-02  0.50000500000E+01  0.50000000000E+01 0. -1.
</event>
<event>
 4    1  0.5040302E-001  0.5000050E+01  0.7818608E-02  0.2136455E+00
        -11   -1    0    0    0    0  0.00000000000E+00  0.00000000000E+00  0.50000499739E+01  0.50000500000E+01  0.51100000000E-03 0. -1.
         11   -1    0    0    0    0 -0.00000000000E+00 -0.00000000000E+00 -0.50000499739E+01  0.50000500000E+01  0.51100000000E-03 0.  1.
     100001    1    1    2    0    0 -0.69274037558E-02  0.11923639115E-01 -0.17602284154E-01  0.50000500000E+01  0.50000000000E+01 0.  0.
     100001    1    1    2    0    0  0.69274037558E-02 -0.11923639115E-01  0.17602284154E-01  0.50000500000E+01  0.50000000000E+01 0.  1.
</event>
<event>
 4    1  0.5040302E-001  0.5000050E+01  0.7818608E-02  0.2136455E+00
        -11   -1    0    0    0    0  0.00000000000E+00  0.00000000000E+00  0.50000499739E+01  0.50000500000E+01  0.51100000000E-03 0.  1.
         11   -1    0    0    0    0 -0.00000000000E+00 -0.00000000000E+00 -0.50000499739E+01  0.50000500000E+01  0.51100000000E-03 0. -1.
     100001    1    1    2    0    0  0.15542363278E-01 -0.13775350191E-01 -0.82871690489E-02  0.50000500000E+01  0.50000000000E+01 0.  1.
     100001    1    1    2    0    0 -0.15542363278E-01  0.13775350191E-01  0.82871690489E-02  0.50000500000E+01  0.50000000000E+01 0.  0.
</event>
<event>
 4    1  0.5040302E-001  0.5000050E+01  0.7818608E-02  0.2136455E+00
        -11   -1    0    0    0    0  0.00000000000E+00  0.00000000000E+00  0.50000499739E+01  0.50000500000E+01  0.51100000000E-03 0.  1.
         11   -1    0    0    0    0 -0.00000000000E+00 -0.00000000000E+00 -0.50000499739E+01  0.50000500000E+01  0.51100000000E-03 0. -1.
     100001    1    1    2    0    0  0.81502241266E-02  0.86530303590E-04 -0.20822316374E-01  0.50000500000E+01  0.50000000000E+01 0.  0.
     100001    1    1    2    0    0 -0.81502241266E-02 -0.86530303590E-04  0.20822316374E-01  0.50000500000E+01  0.50000000000E+01 0.  1.
</event>
<event>
 4    1  0.5040302E-001  0.5000050E+01  0.7818608E-02  0.2136455E+00
        -11   -1    0    0    0    0  0.00000000000E+00  0.00000000000E+00  0.50000499739E+01  0.50000500000E+01  0.51100000000E-03 0.  1.
         11   -1    0    0    0    0 -0.00000000000E+00 -0.00000000000E+00 -0.50000499739E+01  0.50000500000E+01  0.51100000000E-03 0. -1.
     100001    1    1    2    0    0  0.14220872582E-01  0.83847471147E-04 -0.17255788959E-01  0.50000500000E+01  0.50000000000E+01 0.  0.
     100001    1    1    2    0    0 -0.14220872582E-01 -0.83847471147E-04  0.17255788959E-01  0.50000500000E+01  0.50000000000E+01 0.  0.
</event>
<event>
 4    1  0.5040302E-001  0.5000050E+01  0.7818608E-02  0.2136455E+00
        -11   -1    0    0    0    0  0.00000000000E+00  0.00000000000E+00  0.50000499739E+01  0.50000500000E+01  0.51100000000E-03 0. -1.
         11   -1    0    0    0    0 -0.00000000000E+00 -0.00000000000E+00 -0.50000499739E+01  0.50000500000E+01  0.51100000000E-03 0.  1.
     100001    1    1    2    0    0 -0.14387208569E-01  0.15054160834E-01  0.81475745572E-02  0.50000500000E+01  0.50000000000E+01 0.  1.
     100001    1    1    2    0    0  0.14387208569E-01 -0.15054160834E-01 -0.81475745572E-02  0.50000500000E+01  0.50000000000E+01 0.  0.
</event>
<event>
 4    1  0.5040302E-001  0.5000050E+01  0.7818608E-02  0.2136455E+00
        -11   -1    0    0    0    0  0.00000000000E+00  0.00000000000E+00  0.50000499739E+01  0.50000500000E+01  0.51100000000E-03 0.  1.
         11   -1    0    0    0    0 -0.00000000000E+00 -0.00000000000E+00 -0.50000499739E+01  0.50000500000E+01  0.51100000000E-03 0. -1.
     100001    1    1    2    0    0 -0.18048713571E-01  0.50492844571E-02  0.12196358674E-01  0.50000500000E+01  0.50000000000E+01 0.  0.
     100001    1    1    2    0    0  0.18048713571E-01 -0.50492844571E-02 -0.12196358674E-01  0.50000500000E+01  0.50000000000E+01 0.  1.
</event>
<event>
 4    1  0.5040302E-001  0.5000050E+01  0.7818608E-02  0.2136455E+00
        -11   -1    0    0    0    0  0.00000000000E+00  0.00000000000E+00  0.50000499739E+01  0.50000500000E+01  0.51100000000E-03 0.  1.
         11   -1    0    0    0    0 -0.00000000000E+00 -0.00000000000E+00 -0.50000499739E+01  0.50000500000E+01  0.51100000000E-03 0. -1.
     100001    1    1    2    0    0  0.18993410151E-01  0.11725960013E-01  0.13246632103E-02  0.50000500000E+01  0.50000000000E+01 0.  0.
     100001    1    1    2    0    0 -0.18993410151E-01 -0.11725960013E-01 -0.13246632103E-02  0.50000500000E+01  0.50000000000E+01 0.  1.
</event>
<event>
 4    1  0.5040302E-001  0.5000050E+01  0.7818608E-02  0.2136455E+00
        -11   -1    0    0    0    0  0.00000000000E+00  0.00000000000E+00  0.50000499739E+01  0.50000500000E+01  0.51100000000E-03 0. -1.
         11   -1    0    0    0    0 -0.00000000000E+00 -0.00000000000E+00 -0.50000499739E+01  0.50000500000E+01  0.51100000000E-03 0.  1.
     100001    1    1    2    0    0  0.59501641725E-02  0.61112117556E-02  0.20670054117E-01  0.50000500000E+01  0.50000000000E+01 0. -1.
     100001    1    1    2    0    0 -0.59501641725E-02 -0.61112117556E-02 -0.20670054117E-01  0.50000500000E+01  0.50000000000E+01 0.  0.
</event>
<event>
 4    1  0.5040302E-001  0.5000050E+01  0.7818608E-02  0.2136455E+00
        -11   -1    0    0    0    0  0.00000000000E+00  0.00000000000E+00  0.50000499739E+01  0.50000500000E+01  0.51100000000E-03 0.  1.
         11   -1    0    0    0    0 -0.00000000000E+00 -0.00000000000E+00 -0.50000499739E+01  0.50000500000E+01  0.51100000000E-03 0. -1.
     100001    1    1    2    0    0 -0.14598876033E-01 -0.16936296127E-01  0.19285238120E-03  0.50000500000E+01  0.50000000000E+01 0. -1.
     100001    1    1    2    0    0  0.14598876033E-01  0.16936296127E-01 -0.19285238120E-03  0.50000500000E+01  0.50000000000E+01 0.  0.
</event>
<event>
 4    1  0.5040302E-001  0.5000050E+01  0.7818608E-02  0.2136455E+00
        -11   -1    0    0    0    0  0.00000000000E+00  0.00000000000E+00  0.50000499739E+01  0.50000500000E+01  0.51100000000E-03 0.  1.
         11   -1    0    0    0    0 -0.00000000000E+00 -0.00000000000E+00 -0.50000499739E+01  0.50000500000E+01  0.51100000000E-03 0. -1.
     100001    1    1    2    0    0 -0.12647138051E-01 -0.17211097413E-01  0.66204625926E-02  0.50000500000E+01  0.50000000000E+01 0.  1.
     100001    1    1    2    0    0  0.12647138051E-01  0.17211097413E-01 -0.66204625926E-02  0.50000500000E+01  0.50000000000E+01 0.  1.
</event>
<event>
 4    1  0.5040302E-001  0.5000050E+01  0.7818608E-02  0.2136455E+00
        -11   -1    0    0    0    0  0.00000000000E+00  0.00000000000E+00  0.50000499739E+01  0.50000500000E+01  0.51100000000E-03 0.  1.
         11   -1    0    0    0    0 -0.00000000000E+00 -0.00000000000E+00 -0.50000499739E+01  0.50000500000E+01  0.51100000000E-03 0. -1.
     100001    1    1    2    0    0 -0.11661896401E-01  0.11107444248E-01  0.15512167953E-01  0.50000500000E+01  0.50000000000E+01 0. -1.
     100001    1    1    2    0    0  0.11661896401E-01 -0.11107444248E-01 -0.15512167953E-01  0.50000500000E+01  0.50000000000E+01 0.  0.
</event>
<event>
 4    1  0.5040302E-001  0.5000050E+01  0.7818608E-02  0.2136455E+00
        -11   -1    0    0    0    0  0.00000000000E+00  0.00000000000E+00  0.50000499739E+01  0.50000500000E+01  0.51100000000E-03 0.  1.
         11   -1    0    0    0    0 -0.00000000000E+00 -0.00000000000E+00 -0.50000499739E+01  0.50000500000E+01  0.51100000000E-03 0. -1.
     100001    1    1    2    0    0 -0.66368855079E-02 -0.14761157493E-01 -0.15429273484E-01  0.50000500000E+01  0.50000000000E+01 0.  0.
     100001    1    1    2    0    0  0.66368855079E-02  0.14761157493E-01  0.15429273484E-01  0.50000500000E+01  0.50000000000E+01 0.  0.
</event>
<event>
 4    1  0.5040302E-001  0.5000050E+01  0.7818608E-02  0.2136455E+00
        -11   -1    0    0    0    0  0.00000000000E+00  0.00000000000E+00  0.50000499739E+01  0.50000500000E+01  0.51100000000E-03 0. -1.
         11   -1    0    0    0    0 -0.00000000000E+00 -0.00000000000E+00 -0.50000499739E+01  0.50000500000E+01  0.51100000000E-03 0.  1.
     100001    1    1    2    0    0 -0.22304438197E-01 -0.13002443547E-02 -0.90769009826E-03  0.50000500000E+01  0.50000000000E+01 0. -1.
     100001    1    1    2    0    0  0.22304438197E-01  0.13002443547E-02  0.90769009826E-03  0.50000500000E+01  0.50000000000E+01 0.  1.
</event>
<event>
 4    1  0.5040302E-001  0.5000050E+01  0.7818608E-02  0.2136455E+00
        -11   -1    0    0    0    0  0.00000000000E+00  0.00000000000E+00  0.50000499739E+01  0.50000500000E+01  0.51100000000E-03 0.  1.
         11   -1    0    0    0    0 -0.00000000000E+00 -0.00000000000E+00 -0.50000499739E+01  0.50000500000E+01  0.51100000000E-03 0. -1.
     100001    1    1    2    0    0 -0.94548573159E-02 -0.20263146393E-01  0.11433024713E-03  0.50000500000E+01  0.50000000000E+01 0.  0.
     100001    1    1    2    0    0  0.94548573159E-02  0.20263146393E-01 -0.11433024713E-03  0.50000500000E+01  0.50000000000E+01 0. -1.
</event>
<event>
 4    1  0.5040302E-001  0.5000050E+01  0.7818608E-02  0.2136455E+00
        -11   -1    0    0    0    0  0.00000000000E+00  0.00000000000E+00  0.50000499739E+01  0.50000500000E+01  0.51100000000E-03 0.  1.
         11   -1    0    0    0    0 -0.00000000000E+00 -0.00000000000E+00 -0.50000499739E+01  0.50000500000E+01  0.51100000000E-03 0. -1.
     100001    1    1    2    0    0  0.12560324762E-01 -0.18261069398E-01  0.29621084208E-02  0.50000500000E+01  0.50000000000E+01 0.  1.
     100001    1    1    2    0    0 -0.12560324762E-01  0.18261069398E-01 -0.29621084208E-02  0.50000500000E+01  0.50000000000E+01 0. -1.
</event>
<event>
 4    1  0.5040302E-001  0.5000050E+01  0.7818608E-02  0.2136455E+00
        -11   -1    0    0    0    0  0.00000000000E+00  0.00000000000E+00  0.50000499739E+01  0.50000500000E+01  0.51100000000E-03 0. -1.
         11   -1    0    0    0    0 -0.00000000000E+00 -0.00000000000E+00 -0.50000499739E+01  0.50000500000E+01  0.51100000000E-03 0.  1.
     100001    1    1    2    0    0  0.22277710163E-01 -0.45543613475E-03 -0.18704833165E-02  0.50000500000E+01  0.50000000000E+01 0.  0.
     100001    1    1    2    0    0 -0.22277710163E-01  0.45543613475E-03  0.18704833165E-02  0.50000500000E+01  0.50000000000E+01 0. -1.
</event>
<event>
 4    1  0.5040302E-001  0.5000050E+01  0.7818608E-02  0.2136455E+00
        -11   -1    0    0    0    0  0.00000000000E+00  0.00000000000E+00  0.50000499739E+01  0.50000500000E+01  0.51100000000E-03 0. -1.
         11   -1    0    0    0    0 -0.00000000000E+00 -0.00000000000E+00 -0.50000499739E+01  0.50000500000E+01  0.51100000000E-03 0.  1.
     100001    1    1    2    0    0  0.10204411924E-01  0.88511280126E-02 -0.17819371768E-01  0.50000500000E+01  0.50000000000E+01 0.  1.
     100001    1    1    2    0    0 -0.10204411924E-01 -0.88511280126E-02  0.17819371768E-01  0.50000500000E+01  0.50000000000E+01 0.  0.
</event>
<event>
 4    1  0.5040302E-001  0.5000050E+01  0.7818608E-02  0.2136455E+00
        -11   -1    0    0    0    0  0.00000000000E+00  0.00000000000E+00  0.50000499739E+01  0.50000500000E+01  0.51100000000E-03 0.  1.
         11   -1    0    0    0    0 -0.00000000000E+00 -0.00000000000E+00 -0.50000499739E+01  0.50000500000E+01  0.51100000000E-03 0. -1.
     100001    1    1    2    0    0  0.10917567381E-01  0.13185505673E-01 -0.14385814632E-01  0.50000500000E+01  0.50000000000E+01 0.  0.
     100001    1    1    2    0    0 -0.10917567381E-01 -0.13185505673E-01  0.14385814632E-01  0.50000500000E+01  0.50000000000E+01 0.  0.
</event>
<event>
 4    1  0.5040302E-001  0.5000050E+01  0.7818608E-02  0.2136455E+00
        -11   -1    0    0    0    0  0.00000000000E+00  0.00000000000E+00  0.50000499739E+01  0.50000500000E+01  0.51100000000E-03 0.  1.
         11   -1    0    0    0    0 -0.00000000000E+00 -0.00000000000E+00 -0.50000499739E+01  0.50000500000E+01  0.51100000000E-03 0. -1.
     100001    1    1    2    0    0  0.99912575226E-02 -0.16376601063E-01  0.11488438132E-01  0.50000500000E+01  0.50000000000E+01 0. -1.
     100001    1    1    2    0    0 -0.99912575226E-02  0.16376601063E-01 -0.11488438132E-01  0.50000500000E+01  0.50000000000E+01 0.  0.
</event>
<event>
 4    1  0.5040302E-001  0.5000050E+01  0.7818608E-02  0.2136455E+00
        -11   -1    0    0    0    0  0.00000000000E+00  0.00000000000E+00  0.50000499739E+01  0.50000500000E+01  0.51100000000E-03 0.  1.
         11   -1    0    0    0    0 -0.00000000000E+00 -0.00000000000E+00 -0.50000499739E+01  0.50000500000E+01  0.51100000000E-03 0. -1.
     100001    1    1    2    0    0 -0.18634646724E-01  0.69053816833E-02  0.10250275375E-01  0.50000500000E+01  0.50000000000E+01 0.  1.
     100001    1    1    2    0    0  0.18634646724E-01 -0.69053816833E-02 -0.10250275375E-01  0.50000500000E+01  0.50000000000E+01 0. -1.
</event>
<event>
 4    1  0.5040302E-001  0.5000050E+01  0.7818608E-02  0.2136455E+00
        -11   -1    0    0    0    0  0.00000000000E+00  0.00000000000E+00  0.50000499739E+01  0.50000500000E+01  0.51100000000E-03 0. -1.
         11   -1    0    0    0    0 -0.00000000000E+00 -0.00000000000E+00 -0.50000499739E+01  0.50000500000E+01  0.51100000000E-03 0.  1.
     100001    1    1    2    0    0 -0.90292627276E-02  0.67996907950E-02  0.19293499415E-01  0.50000500000E+01  0.50000000000E+01 0.  1.
     100001    1    1    2    0    0  0.90292627276E-02 -0.67996907950E-02 -0.19293499415E-01  0.50000500000E+01  0.50000000000E+01 0.  1.
</event>
<event>
 4    1  0.5040302E-001  0.5000050E+01  0.7818608E-02  0.2136455E+00
        -11   -1    0    0    0    0  0.00000000000E+00  0.00000000000E+00  0.50000499739E+01  0.50000500000E+01  0.51100000000E-03 0. -1.
         11   -1    0    0    0    0 -0.00000000000E+00 -0.00000000000E+00 -0.50000499739E+01  0.50000500000E+01  0.51100000000E-03 0.  1.
     100001    1    1    2    0    0 -0.17904044985E-01 -0.77148815219E-03  0.13373573913E-01  0.50000500000E+01  0.50000000000E+01 0. -1.
     100001    1    1    2    0    0  0.17904044985E-01  0.77148815219E-03 -0.13373573913E-01  0.50000500000E+01  0.50000000000E+01 0. -1.
</event>
<event>
 4    1  0.5040302E-001  0.5000050E+01  0.7818608E-02  0.2136455E+00
        -11   -1    0    0    0    0  0.00000000000E+00  0.00000000000E+00  0.50000499739E+01  0.50000500000E+01  0.51100000000E-03 0. -1.
         11   -1    0    0    0    0 -0.00000000000E+00 -0.00000000000E+00 -0.50000499739E+01  0.50000500000E+01  0.51100000000E-03 0.  1.
     100001    1    1    2    0    0  0.81673735579E-04  0.62139564536E-02 -0.21479817844E-01  0.50000500000E+01  0.50000000000E+01 0.  0.
     100001    1    1    2    0    0 -0.81673735579E-04 -0.62139564536E-02  0.21479817844E-01  0.50000500000E+01  0.50000000000E+01 0. -1.
</event>
<event>
 4    1  0.5040302E-001  0.5000050E+01  0.7818608E-02  0.2136455E+00
        -11   -1    0    0    0    0  0.00000000000E+00  0.00000000000E+00  0.50000499739E+01  0.50000500000E+01  0.51100000000E-03 0.  1.
         11   -1    0    0    0    0 -0.00000000000E+00 -0.00000000000E+00 -0.50000499739E+01  0.50000500000E+01  0.51100000000E-03 0. -1.
     100001    1    1    2    0    0 -0.17081737494E-01  0.14422630858E-01  0.45217620800E-03  0.50000500000E+01  0.50000000000E+01 0. -1.
     100001    1    1    2    0    0  0.17081737494E-01 -0.14422630858E-01 -0.45217620800E-03  0.50000500000E+01  0.50000000000E+01 0.  1.
</event>
<event>
 4    1  0.5040302E-001  0.5000050E+01  0.7818608E-02  0.2136455E+00
        -11   -1    0    0    0    0  0.00000000000E+00  0.00000000000E+00  0.50000499739E+01  0.50000500000E+01  0.51100000000E-03 0. -1.
         11   -1    0    0    0    0 -0.00000000000E+00 -0.00000000000E+00 -0.50000499739E+01  0.50000500000E+01  0.51100000000E-03 0.  1.
     100001    1    1    2    0    0  0.22043792718E-01 -0.12708732517E-02 -0.35296719094E-02  0.50000500000E+01  0.50000000000E+01 0.  1.
     100001    1    1    2    0    0 -0.22043792718E-01  0.12708732517E-02  0.35296719094E-02  0.50000500000E+01  0.50000000000E+01 0. -1.
</event>
<event>
 4    1  0.5040302E-001  0.5000050E+01  0.7818608E-02  0.2136455E+00
        -11   -1    0    0    0    0  0.00000000000E+00  0.00000000000E+00  0.50000499739E+01  0.50000500000E+01  0.51100000000E-03 0. -1.
         11   -1    0    0    0    0 -0.00000000000E+00 -0.00000000000E+00 -0.50000499739E+01  0.50000500000E+01  0.51100000000E-03 0.  1.
     100001    1    1    2    0    0 -0.45073625253E-02  0.86026098687E-02 -0.20141531384E-01  0.50000500000E+01  0.50000000000E+01 0.  0.
     100001    1    1    2    0    0  0.45073625253E-02 -0.86026098687E-02  0.20141531384E-01  0.50000500000E+01  0.50000000000E+01 0.  0.
</event>
<event>
 4    1  0.5040302E-001  0.5000050E+01  0.7818608E-02  0.2136455E+00
        -11   -1    0    0    0    0  0.00000000000E+00  0.00000000000E+00  0.50000499739E+01  0.50000500000E+01  0.51100000000E-03 0. -1.
         11   -1    0    0    0    0 -0.00000000000E+00 -0.00000000000E+00 -0.50000499739E+01  0.50000500000E+01  0.51100000000E-03 0.  1.
     100001    1    1    2    0    0 -0.93781415373E-03  0.33733204352E-02  0.22084920508E-01  0.50000500000E+01  0.50000000000E+01 0. -1.
     100001    1    1    2    0    0  0.93781415373E-03 -0.33733204352E-02 -0.22084920508E-01  0.50000500000E+01  0.50000000000E+01 0.  0.
</event>
<event>
 4    1  0.5040302E-001  0.5000050E+01  0.7818608E-02  0.2136455E+00
        -11   -1    0    0    0    0  0.00000000000E+00  0.00000000000E+00  0.50000499739E+01  0.50000500000E+01  0.51100000000E-03 0.  1.
         11   -1    0    0    0    0 -0.00000000000E+00 -0.00000000000E+00 -0.50000499739E+01  0.50000500000E+01  0.51100000000E-03 0. -1.
     100001    1    1    2    0    0 -0.21014994941E-01 -0.76096151728E-02 -0.68282103212E-03  0.50000500000E+01  0.50000000000E+01 0. -1.
     100001    1    1    2    0    0  0.21014994941E-01  0.76096151728E-02  0.68282103212E-03  0.50000500000E+01  0.50000000000E+01 0.  1.
</event>
<event>
 4    1  0.5040302E-001  0.5000050E+01  0.7818608E-02  0.2136455E+00
        -11   -1    0    0    0    0  0.00000000000E+00  0.00000000000E+00  0.50000499739E+01  0.50000500000E+01  0.51100000000E-03 0. -1.
         11   -1    0    0    0    0 -0.00000000000E+00 -0.00000000000E+00 -0.50000499739E+01  0.50000500000E+01  0.51100000000E-03 0.  1.
     100001    1    1    2    0    0  0.45521089871E-02 -0.63649283093E-02  0.20946801459E-01  0.50000500000E+01  0.50000000000E+01 0. -1.
     100001    1    1    2    0    0 -0.45521089871E-02  0.63649283093E-02 -0.20946801459E-01  0.50000500000E+01  0.50000000000E+01 0.  0.
</event>
<event>
 4    1  0.5040302E-001  0.5000050E+01  0.7818608E-02  0.2136455E+00
        -11   -1    0    0    0    0  0.00000000000E+00  0.00000000000E+00  0.50000499739E+01  0.50000500000E+01  0.51100000000E-03 0. -1.
         11   -1    0    0    0    0 -0.00000000000E+00 -0.00000000000E+00 -0.50000499739E+01  0.50000500000E+01  0.51100000000E-03 0.  1.
     100001    1    1    2    0    0 -0.13123474472E-01  0.17858214719E-01 -0.29767574347E-02  0.50000500000E+01  0.50000000000E+01 0.  0.
     100001    1    1    2    0    0  0.13123474472E-01 -0.17858214719E-01  0.29767574347E-02  0.50000500000E+01  0.50000000000E+01 0.  1.
</event>
<event>
 4    1  0.5040302E-001  0.5000050E+01  0.7818608E-02  0.2136455E+00
        -11   -1    0    0    0    0  0.00000000000E+00  0.00000000000E+00  0.50000499739E+01  0.50000500000E+01  0.51100000000E-03 0.  1.
         11   -1    0    0    0    0 -0.00000000000E+00 -0.00000000000E+00 -0.50000499739E+01  0.50000500000E+01  0.51100000000E-03 0. -1.
     100001    1    1    2    0    0 -0.13263688370E-01 -0.86190330709E-02 -0.15804725234E-01  0.50000500000E+01  0.50000000000E+01 0.  0.
     100001    1    1    2    0    0  0.13263688370E-01  0.86190330709E-02  0.15804725234E-01  0.50000500000E+01  0.50000000000E+01 0.  0.
</event>
<event>
 4    1  0.5040302E-001  0.5000050E+01  0.7818608E-02  0.2136455E+00
        -11   -1    0    0    0    0  0.00000000000E+00  0.00000000000E+00  0.50000499739E+01  0.50000500000E+01  0.51100000000E-03 0.  1.
         11   -1    0    0    0    0 -0.00000000000E+00 -0.00000000000E+00 -0.50000499739E+01  0.50000500000E+01  0.51100000000E-03 0. -1.
     100001    1    1    2    0    0 -0.19924700342E-02  0.83412982918E-02 -0.20650794318E-01  0.50000500000E+01  0.50000000000E+01 0. -1.
     100001    1    1    2    0    0  0.19924700342E-02 -0.83412982918E-02  0.20650794318E-01  0.50000500000E+01  0.50000000000E+01 0.  0.
</event>
<event>
 4    1  0.5040302E-001  0.5000050E+01  0.7818608E-02  0.2136455E+00
        -11   -1    0    0    0    0  0.00000000000E+00  0.00000000000E+00  0.50000499739E+01  0.50000500000E+01  0.51100000000E-03 0. -1.
         11   -1    0    0    0    0 -0.00000000000E+00 -0.00000000000E+00 -0.50000499739E+01  0.50000500000E+01  0.51100000000E-03 0.  1.
     100001    1    1    2    0    0  0.21835468595E-01 -0.47922902085E-02  0.49876424774E-03  0.50000500000E+01  0.50000000000E+01 0. -1.
     100001    1    1    2    0    0 -0.21835468595E-01  0.47922902085E-02 -0.49876424774E-03  0.50000500000E+01  0.50000000000E+01 0.  1.
</event>
<event>
 4    1  0.5040302E-001  0.5000050E+01  0.7818608E-02  0.2136455E+00
        -11   -1    0    0    0    0  0.00000000000E+00  0.00000000000E+00  0.50000499739E+01  0.50000500000E+01  0.51100000000E-03 0. -1.
         11   -1    0    0    0    0 -0.00000000000E+00 -0.00000000000E+00 -0.50000499739E+01  0.50000500000E+01  0.51100000000E-03 0.  1.
     100001    1    1    2    0    0 -0.14881604574E-01  0.16416078539E-01 -0.30087722928E-02  0.50000500000E+01  0.50000000000E+01 0. -1.
     100001    1    1    2    0    0  0.14881604574E-01 -0.16416078539E-01  0.30087722928E-02  0.50000500000E+01  0.50000000000E+01 0.  0.
</event>
<event>
 4    1  0.5040302E-001  0.5000050E+01  0.7818608E-02  0.2136455E+00
        -11   -1    0    0    0    0  0.00000000000E+00  0.00000000000E+00  0.50000499739E+01  0.50000500000E+01  0.51100000000E-03 0. -1.
         11   -1    0    0    0    0 -0.00000000000E+00 -0.00000000000E+00 -0.50000499739E+01  0.50000500000E+01  0.51100000000E-03 0.  1.
     100001    1    1    2    0    0  0.88147128405E-02 -0.16992283727E-01 -0.11557059802E-01  0.50000500000E+01  0.50000000000E+01 0. -1.
     100001    1    1    2    0    0 -0.88147128405E-02  0.16992283727E-01  0.11557059802E-01  0.50000500000E+01  0.50000000000E+01 0.  0.
</event>
<event>
 4    1  0.5040302E-001  0.5000050E+01  0.7818608E-02  0.2136455E+00
        -11   -1    0    0    0    0  0.00000000000E+00  0.00000000000E+00  0.50000499739E+01  0.50000500000E+01  0.51100000000E-03 0.  1.
         11   -1    0    0    0    0 -0.00000000000E+00 -0.00000000000E+00 -0.50000499739E+01  0.50000500000E+01  0.51100000000E-03 0. -1.
     100001    1    1    2    0    0 -0.23041835353E-02  0.20125988764E-01 -0.94677248857E-02  0.50000500000E+01  0.50000000000E+01 0.  0.
     100001    1    1    2    0    0  0.23041835353E-02 -0.20125988764E-01  0.94677248857E-02  0.50000500000E+01  0.50000000000E+01 0. -1.
</event>
<event>
 4    1  0.5040302E-001  0.5000050E+01  0.7818608E-02  0.2136455E+00
        -11   -1    0    0    0    0  0.00000000000E+00  0.00000000000E+00  0.50000499739E+01  0.50000500000E+01  0.51100000000E-03 0.  1.
         11   -1    0    0    0    0 -0.00000000000E+00 -0.00000000000E+00 -0.50000499739E+01  0.50000500000E+01  0.51100000000E-03 0. -1.
     100001    1    1    2    0    0  0.94809563742E-02  0.19971604017E-01  0.33539527726E-02  0.50000500000E+01  0.50000000000E+01 0. -1.
     100001    1    1    2    0    0 -0.94809563742E-02 -0.19971604017E-01 -0.33539527726E-02  0.50000500000E+01  0.50000000000E+01 0.  1.
</event>
<event>
 4    1  0.5040302E-001  0.5000050E+01  0.7818608E-02  0.2136455E+00
        -11   -1    0    0    0    0  0.00000000000E+00  0.00000000000E+00  0.50000499739E+01  0.50000500000E+01  0.51100000000E-03 0. -1.
         11   -1    0    0    0    0 -0.00000000000E+00 -0.00000000000E+00 -0.50000499739E+01  0.50000500000E+01  0.51100000000E-03 0.  1.
     100001    1    1    2    0    0 -0.14844494198E-01  0.58861307806E-02 -0.15652378619E-01  0.50000500000E+01  0.50000000000E+01 0.  1.
     100001    1    1    2    0    0  0.14844494198E-01 -0.58861307806E-02  0.15652378619E-01  0.50000500000E+01  0.50000000000E+01 0. -1.
</event>
<event>
 4    1  0.5040302E-001  0.5000050E+01  0.7818608E-02  0.2136455E+00
        -11   -1    0    0    0    0  0.00000000000E+00  0.00000000000E+00  0.50000499739E+01  0.50000500000E+01  0.51100000000E-03 0.  1.
         11   -1    0    0    0    0 -0.00000000000E+00 -0.00000000000E+00 -0.50000499739E+01  0.50000500000E+01  0.51100000000E-03 0. -1.
     100001    1    1    2    0    0 -0.13276657942E-01  0.12116310135E-01 -0.13301424082E-01  0.50000500000E+01  0.50000000000E+01 0.  0.
     100001    1    1    2    0    0  0.13276657942E-01 -0.12116310135E-01  0.13301424082E-01  0.50000500000E+01  0.50000000000E+01 0.  0.
</event>
<event>
 4    1  0.5040302E-001  0.5000050E+01  0.7818608E-02  0.2136455E+00
        -11   -1    0    0    0    0  0.00000000000E+00  0.00000000000E+00  0.50000499739E+01  0.50000500000E+01  0.51100000000E-03 0. -1.
         11   -1    0    0    0    0 -0.00000000000E+00 -0.00000000000E+00 -0.50000499739E+01  0.50000500000E+01  0.51100000000E-03 0.  1.
     100001    1    1    2    0    0 -0.54117678083E-03  0.21581577853E-01  0.58262445081E-02  0.50000500000E+01  0.50000000000E+01 0.  1.
     100001    1    1    2    0    0  0.54117678083E-03 -0.21581577853E-01 -0.58262445081E-02  0.50000500000E+01  0.50000000000E+01 0.  0.
</event>
<event>
 4    1  0.5040302E-001  0.5000050E+01  0.7818608E-02  0.2136455E+00
        -11   -1    0    0    0    0  0.00000000000E+00  0.00000000000E+00  0.50000499739E+01  0.50000500000E+01  0.51100000000E-03 0.  1.
         11   -1    0    0    0    0 -0.00000000000E+00 -0.00000000000E+00 -0.50000499739E+01  0.50000500000E+01  0.51100000000E-03 0. -1.
     100001    1    1    2    0    0  0.17501254391E-01  0.80114287431E-02  0.11380931606E-01  0.50000500000E+01  0.50000000000E+01 0.  0.
     100001    1    1    2    0    0 -0.17501254391E-01 -0.80114287431E-02 -0.11380931606E-01  0.50000500000E+01  0.50000000000E+01 0.  0.
</event>
<event>
 4    1  0.5040302E-001  0.5000050E+01  0.7818608E-02  0.2136455E+00
        -11   -1    0    0    0    0  0.00000000000E+00  0.00000000000E+00  0.50000499739E+01  0.50000500000E+01  0.51100000000E-03 0. -1.
         11   -1    0    0    0    0 -0.00000000000E+00 -0.00000000000E+00 -0.50000499739E+01  0.50000500000E+01  0.51100000000E-03 0.  1.
     100001    1    1    2    0    0 -0.15878403622E-02  0.20006494964E-01 -0.98600924060E-02  0.50000500000E+01  0.50000000000E+01 0.  0.
     100001    1    1    2    0    0  0.15878403622E-02 -0.20006494964E-01  0.98600924060E-02  0.50000500000E+01  0.50000000000E+01 0.  1.
</event>
<event>
 4    1  0.5040302E-001  0.5000050E+01  0.7818608E-02  0.2136455E+00
        -11   -1    0    0    0    0  0.00000000000E+00  0.00000000000E+00  0.50000499739E+01  0.50000500000E+01  0.51100000000E-03 0. -1.
         11   -1    0    0    0    0 -0.00000000000E+00 -0.00000000000E+00 -0.50000499739E+01  0.50000500000E+01  0.51100000000E-03 0.  1.
     100001    1    1    2    0    0 -0.14160001536E-01  0.12093036975E-01  0.12379633000E-01  0.50000500000E+01  0.50000000000E+01 0. -1.
     100001    1    1    2    0    0  0.14160001536E-01 -0.12093036975E-01 -0.12379633000E-01  0.50000500000E+01  0.50000000000E+01 0.  1.
</event>
<event>
 4    1  0.5040302E-001  0.5000050E+01  0.7818608E-02  0.2136455E+00
        -11   -1    0    0    0    0  0.00000000000E+00  0.00000000000E+00  0.50000499739E+01  0.50000500000E+01  0.51100000000E-03 0.  1.
         11   -1    0    0    0    0 -0.00000000000E+00 -0.00000000000E+00 -0.50000499739E+01  0.50000500000E+01  0.51100000000E-03 0. -1.
     100001    1    1    2    0    0  0.10098107169E-01  0.67232071261E-02  0.18783748762E-01  0.50000500000E+01  0.50000000000E+01 0.  1.
     100001    1    1    2    0    0 -0.10098107169E-01 -0.67232071261E-02 -0.18783748762E-01  0.50000500000E+01  0.50000000000E+01 0. -1.
</event>
<event>
 4    1  0.5040302E-001  0.5000050E+01  0.7818608E-02  0.2136455E+00
        -11   -1    0    0    0    0  0.00000000000E+00  0.00000000000E+00  0.50000499739E+01  0.50000500000E+01  0.51100000000E-03 0. -1.
         11   -1    0    0    0    0 -0.00000000000E+00 -0.00000000000E+00 -0.50000499739E+01  0.50000500000E+01  0.51100000000E-03 0.  1.
     100001    1    1    2    0    0  0.18098483052E-01 -0.13016454223E-01 -0.17376221384E-02  0.50000500000E+01  0.50000000000E+01 0.  0.
     100001    1    1    2    0    0 -0.18098483052E-01  0.13016454223E-01  0.17376221384E-02  0.50000500000E+01  0.50000000000E+01 0.  1.
</event>
<event>
 4    1  0.5040302E-001  0.5000050E+01  0.7818608E-02  0.2136455E+00
        -11   -1    0    0    0    0  0.00000000000E+00  0.00000000000E+00  0.50000499739E+01  0.50000500000E+01  0.51100000000E-03 0.  1.
         11   -1    0    0    0    0 -0.00000000000E+00 -0.00000000000E+00 -0.50000499739E+01  0.50000500000E+01  0.51100000000E-03 0. -1.
     100001    1    1    2    0    0  0.27459631119E-02  0.22020761053E-01 -0.27474113710E-02  0.50000500000E+01  0.50000000000E+01 0. -1.
     100001    1    1    2    0    0 -0.27459631119E-02 -0.22020761053E-01  0.27474113710E-02  0.50000500000E+01  0.50000000000E+01 0.  0.
</event>
<event>
 4    1  0.5040302E-001  0.5000050E+01  0.7818608E-02  0.2136455E+00
        -11   -1    0    0    0    0  0.00000000000E+00  0.00000000000E+00  0.50000499739E+01  0.50000500000E+01  0.51100000000E-03 0. -1.
         11   -1    0    0    0    0 -0.00000000000E+00 -0.00000000000E+00 -0.50000499739E+01  0.50000500000E+01  0.51100000000E-03 0.  1.
     100001    1    1    2    0    0  0.16738206443E-01 -0.16309833254E-02  0.14736853072E-01  0.50000500000E+01  0.50000000000E+01 0.  1.
     100001    1    1    2    0    0 -0.16738206443E-01  0.16309833254E-02 -0.14736853072E-01  0.50000500000E+01  0.50000000000E+01 0.  0.
</event>
<event>
 4    1  0.5040302E-001  0.5000050E+01  0.7818608E-02  0.2136455E+00
        -11   -1    0    0    0    0  0.00000000000E+00  0.00000000000E+00  0.50000499739E+01  0.50000500000E+01  0.51100000000E-03 0. -1.
         11   -1    0    0    0    0 -0.00000000000E+00 -0.00000000000E+00 -0.50000499739E+01  0.50000500000E+01  0.51100000000E-03 0.  1.
     100001    1    1    2    0    0 -0.98586344253E-02 -0.14167990344E-01  0.14215409838E-01  0.50000500000E+01  0.50000000000E+01 0.  1.
     100001    1    1    2    0    0  0.98586344253E-02  0.14167990344E-01 -0.14215409838E-01  0.50000500000E+01  0.50000000000E+01 0. -1.
</event>
<event>
 4    1  0.5040302E-001  0.5000050E+01  0.7818608E-02  0.2136455E+00
        -11   -1    0    0    0    0  0.00000000000E+00  0.00000000000E+00  0.50000499739E+01  0.50000500000E+01  0.51100000000E-03 0. -1.
         11   -1    0    0    0    0 -0.00000000000E+00 -0.00000000000E+00 -0.50000499739E+01  0.50000500000E+01  0.51100000000E-03 0.  1.
     100001    1    1    2    0    0  0.61613291512E-02  0.21488718406E-01 -0.52488510791E-03  0.50000500000E+01  0.50000000000E+01 0.  1.
     100001    1    1    2    0    0 -0.61613291512E-02 -0.21488718406E-01  0.52488510791E-03  0.50000500000E+01  0.50000000000E+01 0.  0.
</event>
<event>
 4    1  0.5040302E-001  0.5000050E+01  0.7818608E-02  0.2136455E+00
        -11   -1    0    0    0    0  0.00000000000E+00  0.00000000000E+00  0.50000499739E+01  0.50000500000E+01  0.51100000000E-03 0. -1.
         11   -1    0    0    0    0 -0.00000000000E+00 -0.00000000000E+00 -0.50000499739E+01  0.50000500000E+01  0.51100000000E-03 0.  1.
     100001    1    1    2    0    0  0.63045798509E-02  0.19884931155E-01  0.80525949769E-02  0.50000500000E+01  0.50000000000E+01 0.  1.
     100001    1    1    2    0    0 -0.63045798509E-02 -0.19884931155E-01 -0.80525949769E-02  0.50000500000E+01  0.50000000000E+01 0. -1.
</event>
<event>
 4    1  0.5040302E-001  0.5000050E+01  0.7818608E-02  0.2136455E+00
        -11   -1    0    0    0    0  0.00000000000E+00  0.00000000000E+00  0.50000499739E+01  0.50000500000E+01  0.51100000000E-03 0.  1.
         11   -1    0    0    0    0 -0.00000000000E+00 -0.00000000000E+00 -0.50000499739E+01  0.50000500000E+01  0.51100000000E-03 0. -1.
     100001    1    1    2    0    0 -0.10533023866E-01 -0.12783406627E-01  0.15021398844E-01  0.50000500000E+01  0.50000000000E+01 0. -1.
     100001    1    1    2    0    0  0.10533023866E-01  0.12783406627E-01 -0.15021398844E-01  0.50000500000E+01  0.50000000000E+01 0. -1.
</event>
<event>
 4    1  0.5040302E-001  0.5000050E+01  0.7818608E-02  0.2136455E+00
        -11   -1    0    0    0    0  0.00000000000E+00  0.00000000000E+00  0.50000499739E+01  0.50000500000E+01  0.51100000000E-03 0. -1.
         11   -1    0    0    0    0 -0.00000000000E+00 -0.00000000000E+00 -0.50000499739E+01  0.50000500000E+01  0.51100000000E-03 0.  1.
     100001    1    1    2    0    0  0.19271902696E-01  0.51468645789E-02 -0.10104753905E-01  0.50000500000E+01  0.50000000000E+01 0. -1.
     100001    1    1    2    0    0 -0.19271902696E-01 -0.51468645789E-02  0.10104753905E-01  0.50000500000E+01  0.50000000000E+01 0.  0.
</event>
<event>
 4    1  0.5040302E-001  0.5000050E+01  0.7818608E-02  0.2136455E+00
        -11   -1    0    0    0    0  0.00000000000E+00  0.00000000000E+00  0.50000499739E+01  0.50000500000E+01  0.51100000000E-03 0. -1.
         11   -1    0    0    0    0 -0.00000000000E+00 -0.00000000000E+00 -0.50000499739E+01  0.50000500000E+01  0.51100000000E-03 0.  1.
     100001    1    1    2    0    0  0.15164805070E-01 -0.13677154038E-01 -0.91086027795E-02  0.50000500000E+01  0.50000000000E+01 0.  1.
     100001    1    1    2    0    0 -0.15164805070E-01  0.13677154038E-01  0.91086027795E-02  0.50000500000E+01  0.50000000000E+01 0. -1.
</event>
<event>
 4    1  0.5040302E-001  0.5000050E+01  0.7818608E-02  0.2136455E+00
        -11   -1    0    0    0    0  0.00000000000E+00  0.00000000000E+00  0.50000499739E+01  0.50000500000E+01  0.51100000000E-03 0.  1.
         11   -1    0    0    0    0 -0.00000000000E+00 -0.00000000000E+00 -0.50000499739E+01  0.50000500000E+01  0.51100000000E-03 0. -1.
     100001    1    1    2    0    0  0.20398091567E-01  0.55821827906E-02 -0.72635800906E-02  0.50000500000E+01  0.50000000000E+01 0.  1.
     100001    1    1    2    0    0 -0.20398091567E-01 -0.55821827906E-02  0.72635800906E-02  0.50000500000E+01  0.50000000000E+01 0.  0.
</event>
<event>
 4    1  0.5040302E-001  0.5000050E+01  0.7818608E-02  0.2136455E+00
        -11   -1    0    0    0    0  0.00000000000E+00  0.00000000000E+00  0.50000499739E+01  0.50000500000E+01  0.51100000000E-03 0.  1.
         11   -1    0    0    0    0 -0.00000000000E+00 -0.00000000000E+00 -0.50000499739E+01  0.50000500000E+01  0.51100000000E-03 0. -1.
     100001    1    1    2    0    0 -0.15789518988E-01  0.11152244098E-01  0.11239263397E-01  0.50000500000E+01  0.50000000000E+01 0.  1.
     100001    1    1    2    0    0  0.15789518988E-01 -0.11152244098E-01 -0.11239263397E-01  0.50000500000E+01  0.50000000000E+01 0.  1.
</event>
<event>
 4    1  0.5040302E-001  0.5000050E+01  0.7818608E-02  0.2136455E+00
        -11   -1    0    0    0    0  0.00000000000E+00  0.00000000000E+00  0.50000499739E+01  0.50000500000E+01  0.51100000000E-03 0. -1.
         11   -1    0    0    0    0 -0.00000000000E+00 -0.00000000000E+00 -0.50000499739E+01  0.50000500000E+01  0.51100000000E-03 0.  1.
     100001    1    1    2    0    0  0.21680437555E-01 -0.46194807307E-02 -0.29362433796E-02  0.50000500000E+01  0.50000000000E+01 0. -1.
     100001    1    1    2    0    0 -0.21680437555E-01  0.46194807307E-02  0.29362433796E-02  0.50000500000E+01  0.50000000000E+01 0.  0.
</event>
<event>
 4    1  0.5040302E-001  0.5000050E+01  0.7818608E-02  0.2136455E+00
        -11   -1    0    0    0    0  0.00000000000E+00  0.00000000000E+00  0.50000499739E+01  0.50000500000E+01  0.51100000000E-03 0. -1.
         11   -1    0    0    0    0 -0.00000000000E+00 -0.00000000000E+00 -0.50000499739E+01  0.50000500000E+01  0.51100000000E-03 0.  1.
     100001    1    1    2    0    0  0.38203159821E-02  0.17714464101E-01 -0.13099826236E-01  0.50000500000E+01  0.50000000000E+01 0.  1.
     100001    1    1    2    0    0 -0.38203159821E-02 -0.17714464101E-01  0.13099826236E-01  0.50000500000E+01  0.50000000000E+01 0.  1.
</event>
<event>
 4    1  0.5040302E-001  0.5000050E+01  0.7818608E-02  0.2136455E+00
        -11   -1    0    0    0    0  0.00000000000E+00  0.00000000000E+00  0.50000499739E+01  0.50000500000E+01  0.51100000000E-03 0.  1.
         11   -1    0    0    0    0 -0.00000000000E+00 -0.00000000000E+00 -0.50000499739E+01  0.50000500000E+01  0.51100000000E-03 0. -1.
     100001    1    1    2    0    0 -0.40132269848E-02  0.50618323928E-02  0.21407343646E-01  0.50000500000E+01  0.50000000000E+01 0.  1.
     100001    1    1    2    0    0  0.40132269848E-02 -0.50618323928E-02 -0.21407343646E-01  0.50000500000E+01  0.50000000000E+01 0. -1.
</event>
<event>
 4    1  0.5040302E-001  0.5000050E+01  0.7818608E-02  0.2136455E+00
        -11   -1    0    0    0    0  0.00000000000E+00  0.00000000000E+00  0.50000499739E+01  0.50000500000E+01  0.51100000000E-03 0.  1.
         11   -1    0    0    0    0 -0.00000000000E+00 -0.00000000000E+00 -0.50000499739E+01  0.50000500000E+01  0.51100000000E-03 0. -1.
     100001    1    1    2    0    0  0.12513968696E-01 -0.38814973615E-02  0.18120073557E-01  0.50000500000E+01  0.50000000000E+01 0.  0.
     100001    1    1    2    0    0 -0.12513968696E-01  0.38814973615E-02 -0.18120073557E-01  0.50000500000E+01  0.50000000000E+01 0.  0.
</event>
<event>
 4    1  0.5040302E-001  0.5000050E+01  0.7818608E-02  0.2136455E+00
        -11   -1    0    0    0    0  0.00000000000E+00  0.00000000000E+00  0.50000499739E+01  0.50000500000E+01  0.51100000000E-03 0.  1.
         11   -1    0    0    0    0 -0.00000000000E+00 -0.00000000000E+00 -0.50000499739E+01  0.50000500000E+01  0.51100000000E-03 0. -1.
     100001    1    1    2    0    0  0.14822441782E-01 -0.16021981520E-01 -0.48573478133E-02  0.50000500000E+01  0.50000000000E+01 0.  0.
     100001    1    1    2    0    0 -0.14822441782E-01  0.16021981520E-01  0.48573478133E-02  0.50000500000E+01  0.50000000000E+01 0.  1.
</event>
<event>
 4    1  0.5040302E-001  0.5000050E+01  0.7818608E-02  0.2136455E+00
        -11   -1    0    0    0    0  0.00000000000E+00  0.00000000000E+00  0.50000499739E+01  0.50000500000E+01  0.51100000000E-03 0.  1.
         11   -1    0    0    0    0 -0.00000000000E+00 -0.00000000000E+00 -0.50000499739E+01  0.50000500000E+01  0.51100000000E-03 0. -1.
     100001    1    1    2    0    0 -0.14743258826E-01  0.12510257634E-01  0.11230862528E-01  0.50000500000E+01  0.50000000000E+01 0.  0.
     100001    1    1    2    0    0  0.14743258826E-01 -0.12510257634E-01 -0.11230862528E-01  0.50000500000E+01  0.50000000000E+01 0.  0.
</event>
<event>
 4    1  0.5040302E-001  0.5000050E+01  0.7818608E-02  0.2136455E+00
        -11   -1    0    0    0    0  0.00000000000E+00  0.00000000000E+00  0.50000499739E+01  0.50000500000E+01  0.51100000000E-03 0.  1.
         11   -1    0    0    0    0 -0.00000000000E+00 -0.00000000000E+00 -0.50000499739E+01  0.50000500000E+01  0.51100000000E-03 0. -1.
     100001    1    1    2    0    0 -0.52039856094E-02 -0.17697567463E-01 -0.12637924658E-01  0.50000500000E+01  0.50000000000E+01 0.  0.
     100001    1    1    2    0    0  0.52039856094E-02  0.17697567463E-01  0.12637924658E-01  0.50000500000E+01  0.50000000000E+01 0.  0.
</event>
<event>
 4    1  0.5040302E-001  0.5000050E+01  0.7818608E-02  0.2136455E+00
        -11   -1    0    0    0    0  0.00000000000E+00  0.00000000000E+00  0.50000499739E+01  0.50000500000E+01  0.51100000000E-03 0. -1.
         11   -1    0    0    0    0 -0.00000000000E+00 -0.00000000000E+00 -0.50000499739E+01  0.50000500000E+01  0.51100000000E-03 0.  1.
     100001    1    1    2    0    0  0.51611012915E-02 -0.21741653642E-01  0.81610683755E-03  0.50000500000E+01  0.50000000000E+01 0.  0.
     100001    1    1    2    0    0 -0.51611012915E-02  0.21741653642E-01 -0.81610683755E-03  0.50000500000E+01  0.50000000000E+01 0.  1.
</event>
<event>
 4    1  0.5040302E-001  0.5000050E+01  0.7818608E-02  0.2136455E+00
        -11   -1    0    0    0    0  0.00000000000E+00  0.00000000000E+00  0.50000499739E+01  0.50000500000E+01  0.51100000000E-03 0.  1.
         11   -1    0    0    0    0 -0.00000000000E+00 -0.00000000000E+00 -0.50000499739E+01  0.50000500000E+01  0.51100000000E-03 0. -1.
     100001    1    1    2    0    0  0.17628073271E-01 -0.22071688061E-02  0.13578731111E-01  0.50000500000E+01  0.50000000000E+01 0.  1.
     100001    1    1    2    0    0 -0.17628073271E-01  0.22071688061E-02 -0.13578731111E-01  0.50000500000E+01  0.50000000000E+01 0. -1.
</event>
<event>
 4    1  0.5040302E-001  0.5000050E+01  0.7818608E-02  0.2136455E+00
        -11   -1    0    0    0    0  0.00000000000E+00  0.00000000000E+00  0.50000499739E+01  0.50000500000E+01  0.51100000000E-03 0.  1.
         11   -1    0    0    0    0 -0.00000000000E+00 -0.00000000000E+00 -0.50000499739E+01  0.50000500000E+01  0.51100000000E-03 0. -1.
     100001    1    1    2    0    0  0.17121785638E-01  0.14157411363E-01 -0.25327179187E-02  0.50000500000E+01  0.50000000000E+01 0. -1.
     100001    1    1    2    0    0 -0.17121785638E-01 -0.14157411363E-01  0.25327179187E-02  0.50000500000E+01  0.50000000000E+01 0.  1.
</event>
<event>
 4    1  0.5040302E-001  0.5000050E+01  0.7818608E-02  0.2136455E+00
        -11   -1    0    0    0    0  0.00000000000E+00  0.00000000000E+00  0.50000499739E+01  0.50000500000E+01  0.51100000000E-03 0.  1.
         11   -1    0    0    0    0 -0.00000000000E+00 -0.00000000000E+00 -0.50000499739E+01  0.50000500000E+01  0.51100000000E-03 0. -1.
     100001    1    1    2    0    0 -0.22108564318E-02  0.18440918407E-01 -0.12451792728E-01  0.50000500000E+01  0.50000000000E+01 0. -1.
     100001    1    1    2    0    0  0.22108564318E-02 -0.18440918407E-01  0.12451792728E-01  0.50000500000E+01  0.50000000000E+01 0.  1.
</event>
<event>
 4    1  0.5040302E-001  0.5000050E+01  0.7818608E-02  0.2136455E+00
        -11   -1    0    0    0    0  0.00000000000E+00  0.00000000000E+00  0.50000499739E+01  0.50000500000E+01  0.51100000000E-03 0.  1.
         11   -1    0    0    0    0 -0.00000000000E+00 -0.00000000000E+00 -0.50000499739E+01  0.50000500000E+01  0.51100000000E-03 0. -1.
     100001    1    1    2    0    0 -0.21380385154E-01 -0.65442167284E-02  0.23421799547E-03  0.50000500000E+01  0.50000000000E+01 0.  0.
     100001    1    1    2    0    0  0.21380385154E-01  0.65442167284E-02 -0.23421799547E-03  0.50000500000E+01  0.50000000000E+01 0.  1.
</event>
<event>
 4    1  0.5040302E-001  0.5000050E+01  0.7818608E-02  0.2136455E+00
        -11   -1    0    0    0    0  0.00000000000E+00  0.00000000000E+00  0.50000499739E+01  0.50000500000E+01  0.51100000000E-03 0.  1.
         11   -1    0    0    0    0 -0.00000000000E+00 -0.00000000000E+00 -0.50000499739E+01  0.50000500000E+01  0.51100000000E-03 0. -1.
     100001    1    1    2    0    0  0.19909619779E-01 -0.64515595728E-02 -0.78731772078E-02  0.50000500000E+01  0.50000000000E+01 0.  1.
     100001    1    1    2    0    0 -0.19909619779E-01  0.64515595728E-02  0.78731772078E-02  0.50000500000E+01  0.50000000000E+01 0.  0.
</event>
<event>
 4    1  0.5040302E-001  0.5000050E+01  0.7818608E-02  0.2136455E+00
        -11   -1    0    0    0    0  0.00000000000E+00  0.00000000000E+00  0.50000499739E+01  0.50000500000E+01  0.51100000000E-03 0.  1.
         11   -1    0    0    0    0 -0.00000000000E+00 -0.00000000000E+00 -0.50000499739E+01  0.50000500000E+01  0.51100000000E-03 0. -1.
     100001    1    1    2    0    0 -0.19302495088E-01 -0.35231721198E-02  0.10723965758E-01  0.50000500000E+01  0.50000000000E+01 0. -1.
     100001    1    1    2    0    0  0.19302495088E-01  0.35231721198E-02 -0.10723965758E-01  0.50000500000E+01  0.50000000000E+01 0.  1.
</event>
<event>
 4    1  0.5040302E-001  0.5000050E+01  0.7818608E-02  0.2136455E+00
        -11   -1    0    0    0    0  0.00000000000E+00  0.00000000000E+00  0.50000499739E+01  0.50000500000E+01  0.51100000000E-03 0. -1.
         11   -1    0    0    0    0 -0.00000000000E+00 -0.00000000000E+00 -0.50000499739E+01  0.50000500000E+01  0.51100000000E-03 0.  1.
     100001    1    1    2    0    0 -0.20921464184E-01 -0.17864037974E-02  0.76878864362E-02  0.50000500000E+01  0.50000000000E+01 0. -1.
     100001    1    1    2    0    0  0.20921464184E-01  0.17864037974E-02 -0.76878864362E-02  0.50000500000E+01  0.50000000000E+01 0.  1.
</event>
<event>
 4    1  0.5040302E-001  0.5000050E+01  0.7818608E-02  0.2136455E+00
        -11   -1    0    0    0    0  0.00000000000E+00  0.00000000000E+00  0.50000499739E+01  0.50000500000E+01  0.51100000000E-03 0. -1.
         11   -1    0    0    0    0 -0.00000000000E+00 -0.00000000000E+00 -0.50000499739E+01  0.50000500000E+01  0.51100000000E-03 0.  1.
     100001    1    1    2    0    0  0.28707392399E-02 -0.28976181265E-02  0.21985567207E-01  0.50000500000E+01  0.50000000000E+01 0.  0.
     100001    1    1    2    0    0 -0.28707392399E-02  0.28976181265E-02 -0.21985567207E-01  0.50000500000E+01  0.50000000000E+01 0.  1.
</event>
<event>
 4    1  0.5040302E-001  0.5000050E+01  0.7818608E-02  0.2136455E+00
        -11   -1    0    0    0    0  0.00000000000E+00  0.00000000000E+00  0.50000499739E+01  0.50000500000E+01  0.51100000000E-03 0.  1.
         11   -1    0    0    0    0 -0.00000000000E+00 -0.00000000000E+00 -0.50000499739E+01  0.50000500000E+01  0.51100000000E-03 0. -1.
     100001    1    1    2    0    0  0.15426204497E-01 -0.83860718171E-02  0.13845884381E-01  0.50000500000E+01  0.50000000000E+01 0.  1.
     100001    1    1    2    0    0 -0.15426204497E-01  0.83860718171E-02 -0.13845884381E-01  0.50000500000E+01  0.50000000000E+01 0. -1.
</event>
<event>
 4    1  0.5040302E-001  0.5000050E+01  0.7818608E-02  0.2136455E+00
        -11   -1    0    0    0    0  0.00000000000E+00  0.00000000000E+00  0.50000499739E+01  0.50000500000E+01  0.51100000000E-03 0. -1.
         11   -1    0    0    0    0 -0.00000000000E+00 -0.00000000000E+00 -0.50000499739E+01  0.50000500000E+01  0.51100000000E-03 0.  1.
     100001    1    1    2    0    0  0.42398197080E-02 -0.18757666731E-01 -0.11409485863E-01  0.50000500000E+01  0.50000000000E+01 0.  0.
     100001    1    1    2    0    0 -0.42398197080E-02  0.18757666731E-01  0.11409485863E-01  0.50000500000E+01  0.50000000000E+01 0.  1.
</event>
<event>
 4    1  0.5040302E-001  0.5000050E+01  0.7818608E-02  0.2136455E+00
        -11   -1    0    0    0    0  0.00000000000E+00  0.00000000000E+00  0.50000499739E+01  0.50000500000E+01  0.51100000000E-03 0.  1.
         11   -1    0    0    0    0 -0.00000000000E+00 -0.00000000000E+00 -0.50000499739E+01  0.50000500000E+01  0.51100000000E-03 0. -1.
     100001    1    1    2    0    0  0.17078669715E-01  0.14278464421E-02  0.14362548357E-01  0.50000500000E+01  0.50000000000E+01 0. -1.
     100001    1    1    2    0    0 -0.17078669715E-01 -0.14278464421E-02 -0.14362548357E-01  0.50000500000E+01  0.50000000000E+01 0.  0.
</event>
<event>
 4    1  0.5040302E-001  0.5000050E+01  0.7818608E-02  0.2136455E+00
        -11   -1    0    0    0    0  0.00000000000E+00  0.00000000000E+00  0.50000499739E+01  0.50000500000E+01  0.51100000000E-03 0.  1.
         11   -1    0    0    0    0 -0.00000000000E+00 -0.00000000000E+00 -0.50000499739E+01  0.50000500000E+01  0.51100000000E-03 0. -1.
     100001    1    1    2    0    0 -0.19195722341E-01 -0.66478489172E-02  0.93452045760E-02  0.50000500000E+01  0.50000000000E+01 0.  1.
     100001    1    1    2    0    0  0.19195722341E-01  0.66478489172E-02 -0.93452045760E-02  0.50000500000E+01  0.50000000000E+01 0. -1.
</event>
<event>
 4    1  0.5040302E-001  0.5000050E+01  0.7818608E-02  0.2136455E+00
        -11   -1    0    0    0    0  0.00000000000E+00  0.00000000000E+00  0.50000499739E+01  0.50000500000E+01  0.51100000000E-03 0.  1.
         11   -1    0    0    0    0 -0.00000000000E+00 -0.00000000000E+00 -0.50000499739E+01  0.50000500000E+01  0.51100000000E-03 0. -1.
     100001    1    1    2    0    0 -0.17238858489E-01 -0.17661422604E-02  0.14131701933E-01  0.50000500000E+01  0.50000000000E+01 0.  1.
     100001    1    1    2    0    0  0.17238858489E-01  0.17661422604E-02 -0.14131701933E-01  0.50000500000E+01  0.50000000000E+01 0.  1.
</event>
<event>
 4    1  0.5040302E-001  0.5000050E+01  0.7818608E-02  0.2136455E+00
        -11   -1    0    0    0    0  0.00000000000E+00  0.00000000000E+00  0.50000499739E+01  0.50000500000E+01  0.51100000000E-03 0. -1.
         11   -1    0    0    0    0 -0.00000000000E+00 -0.00000000000E+00 -0.50000499739E+01  0.50000500000E+01  0.51100000000E-03 0.  1.
     100001    1    1    2    0    0 -0.15729912710E-01 -0.14728383444E-01  0.59705164998E-02  0.50000500000E+01  0.50000000000E+01 0.  1.
     100001    1    1    2    0    0  0.15729912710E-01  0.14728383444E-01 -0.59705164998E-02  0.50000500000E+01  0.50000000000E+01 0.  0.
</event>
<event>
 4    1  0.5040302E-001  0.5000050E+01  0.7818608E-02  0.2136455E+00
        -11   -1    0    0    0    0  0.00000000000E+00  0.00000000000E+00  0.50000499739E+01  0.50000500000E+01  0.51100000000E-03 0.  1.
         11   -1    0    0    0    0 -0.00000000000E+00 -0.00000000000E+00 -0.50000499739E+01  0.50000500000E+01  0.51100000000E-03 0. -1.
     100001    1    1    2    0    0  0.83235538979E-03  0.17228397198E-01  0.14229968886E-01  0.50000500000E+01  0.50000000000E+01 0. -1.
     100001    1    1    2    0    0 -0.83235538979E-03 -0.17228397198E-01 -0.14229968886E-01  0.50000500000E+01  0.50000000000E+01 0.  0.
</event>
<event>
 4    1  0.5040302E-001  0.5000050E+01  0.7818608E-02  0.2136455E+00
        -11   -1    0    0    0    0  0.00000000000E+00  0.00000000000E+00  0.50000499739E+01  0.50000500000E+01  0.51100000000E-03 0.  1.
         11   -1    0    0    0    0 -0.00000000000E+00 -0.00000000000E+00 -0.50000499739E+01  0.50000500000E+01  0.51100000000E-03 0. -1.
     100001    1    1    2    0    0  0.13310539830E-01  0.16655539718E-01 -0.67398090574E-02  0.50000500000E+01  0.50000000000E+01 0. -1.
     100001    1    1    2    0    0 -0.13310539830E-01 -0.16655539718E-01  0.67398090574E-02  0.50000500000E+01  0.50000000000E+01 0.  1.
</event>
<event>
 4    1  0.5040302E-001  0.5000050E+01  0.7818608E-02  0.2136455E+00
        -11   -1    0    0    0    0  0.00000000000E+00  0.00000000000E+00  0.50000499739E+01  0.50000500000E+01  0.51100000000E-03 0.  1.
         11   -1    0    0    0    0 -0.00000000000E+00 -0.00000000000E+00 -0.50000499739E+01  0.50000500000E+01  0.51100000000E-03 0. -1.
     100001    1    1    2    0    0 -0.11136513230E-03 -0.15995733152E-01 -0.15624551793E-01  0.50000500000E+01  0.50000000000E+01 0.  1.
     100001    1    1    2    0    0  0.11136513230E-03  0.15995733152E-01  0.15624551793E-01  0.50000500000E+01  0.50000000000E+01 0.  0.
</event>
<event>
 4    1  0.5040302E-001  0.5000050E+01  0.7818608E-02  0.2136455E+00
        -11   -1    0    0    0    0  0.00000000000E+00  0.00000000000E+00  0.50000499739E+01  0.50000500000E+01  0.51100000000E-03 0.  1.
         11   -1    0    0    0    0 -0.00000000000E+00 -0.00000000000E+00 -0.50000499739E+01  0.50000500000E+01  0.51100000000E-03 0. -1.
     100001    1    1    2    0    0  0.21086666582E-01 -0.71414924216E-02 -0.20866428639E-02  0.50000500000E+01  0.50000000000E+01 0. -1.
     100001    1    1    2    0    0 -0.21086666582E-01  0.71414924216E-02  0.20866428639E-02  0.50000500000E+01  0.50000000000E+01 0.  0.
</event>
<event>
 4    1  0.5040302E-001  0.5000050E+01  0.7818608E-02  0.2136455E+00
        -11   -1    0    0    0    0  0.00000000000E+00  0.00000000000E+00  0.50000499739E+01  0.50000500000E+01  0.51100000000E-03 0.  1.
         11   -1    0    0    0    0 -0.00000000000E+00 -0.00000000000E+00 -0.50000499739E+01  0.50000500000E+01  0.51100000000E-03 0. -1.
     100001    1    1    2    0    0  0.13730603144E-02  0.22256695953E-01 -0.16603284685E-02  0.50000500000E+01  0.50000000000E+01 0.  1.
     100001    1    1    2    0    0 -0.13730603144E-02 -0.22256695953E-01  0.16603284685E-02  0.50000500000E+01  0.50000000000E+01 0. -1.
</event>
<event>
 4    1  0.5040302E-001  0.5000050E+01  0.7818608E-02  0.2136455E+00
        -11   -1    0    0    0    0  0.00000000000E+00  0.00000000000E+00  0.50000499739E+01  0.50000500000E+01  0.51100000000E-03 0.  1.
         11   -1    0    0    0    0 -0.00000000000E+00 -0.00000000000E+00 -0.50000499739E+01  0.50000500000E+01  0.51100000000E-03 0. -1.
     100001    1    1    2    0    0 -0.20009281425E-01  0.81775382968E-02 -0.57235499710E-02  0.50000500000E+01  0.50000000000E+01 0.  0.
     100001    1    1    2    0    0  0.20009281425E-01 -0.81775382968E-02  0.57235499710E-02  0.50000500000E+01  0.50000000000E+01 0.  0.
</event>
<event>
 4    1  0.5040302E-001  0.5000050E+01  0.7818608E-02  0.2136455E+00
        -11   -1    0    0    0    0  0.00000000000E+00  0.00000000000E+00  0.50000499739E+01  0.50000500000E+01  0.51100000000E-03 0.  1.
         11   -1    0    0    0    0 -0.00000000000E+00 -0.00000000000E+00 -0.50000499739E+01  0.50000500000E+01  0.51100000000E-03 0. -1.
     100001    1    1    2    0    0 -0.18666265004E-01  0.12306347991E-01  0.35615996870E-03  0.50000500000E+01  0.50000000000E+01 0.  0.
     100001    1    1    2    0    0  0.18666265004E-01 -0.12306347991E-01 -0.35615996870E-03  0.50000500000E+01  0.50000000000E+01 0.  1.
</event>
<event>
 4    1  0.5040302E-001  0.5000050E+01  0.7818608E-02  0.2136455E+00
        -11   -1    0    0    0    0  0.00000000000E+00  0.00000000000E+00  0.50000499739E+01  0.50000500000E+01  0.51100000000E-03 0. -1.
         11   -1    0    0    0    0 -0.00000000000E+00 -0.00000000000E+00 -0.50000499739E+01  0.50000500000E+01  0.51100000000E-03 0.  1.
     100001    1    1    2    0    0  0.20382120391E-01 -0.91808982625E-02  0.53176633789E-03  0.50000500000E+01  0.50000000000E+01 0.  1.
     100001    1    1    2    0    0 -0.20382120391E-01  0.91808982625E-02 -0.53176633789E-03  0.50000500000E+01  0.50000000000E+01 0. -1.
</event>
<event>
 4    1  0.5040302E-001  0.5000050E+01  0.7818608E-02  0.2136455E+00
        -11   -1    0    0    0    0  0.00000000000E+00  0.00000000000E+00  0.50000499739E+01  0.50000500000E+01  0.51100000000E-03 0.  1.
         11   -1    0    0    0    0 -0.00000000000E+00 -0.00000000000E+00 -0.50000499739E+01  0.50000500000E+01  0.51100000000E-03 0. -1.
     100001    1    1    2    0    0 -0.17973648074E-01 -0.12853935317E-01  0.34244447364E-02  0.50000500000E+01  0.50000000000E+01 0.  1.
     100001    1    1    2    0    0  0.17973648074E-01  0.12853935317E-01 -0.34244447364E-02  0.50000500000E+01  0.50000000000E+01 0.  0.
</event>
<event>
 4    1  0.2038949E+000  0.5000050E+01  0.7818608E-02  0.2136455E+00
        -11   -1    0    0    0    0  0.00000000000E+00  0.00000000000E+00  0.50000499739E+01  0.50000500000E+01  0.51100000000E-03 0. -1.
         11   -1    0    0    0    0 -0.00000000000E+00 -0.00000000000E+00 -0.50000499739E+01  0.50000500000E+01  0.51100000000E-03 0.  1.
     100001    1    1    2    0    0 -0.43035143718E-02 -0.73807111400E-04 -0.21942579989E-01  0.50000500000E+01  0.50000000000E+01 0.  1.
     100001    1    1    2    0    0  0.43035143718E-02  0.73807111400E-04  0.21942579989E-01  0.50000500000E+01  0.50000000000E+01 0.  0.
</event>
<event>
 4    1  0.5040302E-001  0.5000050E+01  0.7818608E-02  0.2136455E+00
        -11   -1    0    0    0    0  0.00000000000E+00  0.00000000000E+00  0.50000499739E+01  0.50000500000E+01  0.51100000000E-03 0.  1.
         11   -1    0    0    0    0 -0.00000000000E+00 -0.00000000000E+00 -0.50000499739E+01  0.50000500000E+01  0.51100000000E-03 0. -1.
     100001    1    1    2    0    0  0.21243047217E-01  0.38573244743E-02 -0.58186332447E-02  0.50000500000E+01  0.50000000000E+01 0. -1.
     100001    1    1    2    0    0 -0.21243047217E-01 -0.38573244743E-02  0.58186332447E-02  0.50000500000E+01  0.50000000000E+01 0.  1.
</event>
<event>
 4    1  0.5040302E-001  0.5000050E+01  0.7818608E-02  0.2136455E+00
        -11   -1    0    0    0    0  0.00000000000E+00  0.00000000000E+00  0.50000499739E+01  0.50000500000E+01  0.51100000000E-03 0. -1.
         11   -1    0    0    0    0 -0.00000000000E+00 -0.00000000000E+00 -0.50000499739E+01  0.50000500000E+01  0.51100000000E-03 0.  1.
     100001    1    1    2    0    0 -0.14127804427E-01 -0.14031035729E-01  0.10175346601E-01  0.50000500000E+01  0.50000000000E+01 0.  0.
     100001    1    1    2    0    0  0.14127804427E-01  0.14031035729E-01 -0.10175346601E-01  0.50000500000E+01  0.50000000000E+01 0. -1.
</event>
<event>
 4    1  0.5040302E-001  0.5000050E+01  0.7818608E-02  0.2136455E+00
        -11   -1    0    0    0    0  0.00000000000E+00  0.00000000000E+00  0.50000499739E+01  0.50000500000E+01  0.51100000000E-03 0. -1.
         11   -1    0    0    0    0 -0.00000000000E+00 -0.00000000000E+00 -0.50000499739E+01  0.50000500000E+01  0.51100000000E-03 0.  1.
     100001    1    1    2    0    0  0.10205626739E-01 -0.11895199639E-01  0.15948413978E-01  0.50000500000E+01  0.50000000000E+01 0. -1.
     100001    1    1    2    0    0 -0.10205626739E-01  0.11895199639E-01 -0.15948413978E-01  0.50000500000E+01  0.50000000000E+01 0.  1.
</event>
<event>
 4    1  0.5040302E-001  0.5000050E+01  0.7818608E-02  0.2136455E+00
        -11   -1    0    0    0    0  0.00000000000E+00  0.00000000000E+00  0.50000499739E+01  0.50000500000E+01  0.51100000000E-03 0. -1.
         11   -1    0    0    0    0 -0.00000000000E+00 -0.00000000000E+00 -0.50000499739E+01  0.50000500000E+01  0.51100000000E-03 0.  1.
     100001    1    1    2    0    0  0.20985898013E-01  0.64300623507E-02 -0.42718711042E-02  0.50000500000E+01  0.50000000000E+01 0.  1.
     100001    1    1    2    0    0 -0.20985898013E-01 -0.64300623507E-02  0.42718711042E-02  0.50000500000E+01  0.50000000000E+01 0. -1.
</event>
<event>
 4    1  0.5040302E-001  0.5000050E+01  0.7818608E-02  0.2136455E+00
        -11   -1    0    0    0    0  0.00000000000E+00  0.00000000000E+00  0.50000499739E+01  0.50000500000E+01  0.51100000000E-03 0. -1.
         11   -1    0    0    0    0 -0.00000000000E+00 -0.00000000000E+00 -0.50000499739E+01  0.50000500000E+01  0.51100000000E-03 0.  1.
     100001    1    1    2    0    0  0.14854577010E-01 -0.16455433130E-01 -0.29262198077E-02  0.50000500000E+01  0.50000000000E+01 0. -1.
     100001    1    1    2    0    0 -0.14854577010E-01  0.16455433130E-01  0.29262198077E-02  0.50000500000E+01  0.50000000000E+01 0.  1.
</event>
<event>
 4    1  0.5040302E-001  0.5000050E+01  0.7818608E-02  0.2136455E+00
        -11   -1    0    0    0    0  0.00000000000E+00  0.00000000000E+00  0.50000499739E+01  0.50000500000E+01  0.51100000000E-03 0. -1.
         11   -1    0    0    0    0 -0.00000000000E+00 -0.00000000000E+00 -0.50000499739E+01  0.50000500000E+01  0.51100000000E-03 0.  1.
     100001    1    1    2    0    0  0.12012295233E-01  0.18826792801E-01  0.11221123255E-02  0.50000500000E+01  0.50000000000E+01 0. -1.
     100001    1    1    2    0    0 -0.12012295233E-01 -0.18826792801E-01 -0.11221123255E-02  0.50000500000E+01  0.50000000000E+01 0.  1.
</event>
<event>
 4    1  0.5040302E-001  0.5000050E+01  0.7818608E-02  0.2136455E+00
        -11   -1    0    0    0    0  0.00000000000E+00  0.00000000000E+00  0.50000499739E+01  0.50000500000E+01  0.51100000000E-03 0. -1.
         11   -1    0    0    0    0 -0.00000000000E+00 -0.00000000000E+00 -0.50000499739E+01  0.50000500000E+01  0.51100000000E-03 0.  1.
     100001    1    1    2    0    0  0.20882016468E-01  0.25115106667E-02  0.75918510514E-02  0.50000500000E+01  0.50000000000E+01 0. -1.
     100001    1    1    2    0    0 -0.20882016468E-01 -0.25115106667E-02 -0.75918510514E-02  0.50000500000E+01  0.50000000000E+01 0. -1.
</event>
<event>
 4    1  0.5040302E-001  0.5000050E+01  0.7818608E-02  0.2136455E+00
        -11   -1    0    0    0    0  0.00000000000E+00  0.00000000000E+00  0.50000499739E+01  0.50000500000E+01  0.51100000000E-03 0. -1.
         11   -1    0    0    0    0 -0.00000000000E+00 -0.00000000000E+00 -0.50000499739E+01  0.50000500000E+01  0.51100000000E-03 0.  1.
     100001    1    1    2    0    0  0.62992603705E-02 -0.18518928760E-01 -0.10833794181E-01  0.50000500000E+01  0.50000000000E+01 0.  0.
     100001    1    1    2    0    0 -0.62992603705E-02  0.18518928760E-01  0.10833794181E-01  0.50000500000E+01  0.50000000000E+01 0.  0.
</event>
<event>
 4    1  0.5040302E-001  0.5000050E+01  0.7818608E-02  0.2136455E+00
        -11   -1    0    0    0    0  0.00000000000E+00  0.00000000000E+00  0.50000499739E+01  0.50000500000E+01  0.51100000000E-03 0.  1.
         11   -1    0    0    0    0 -0.00000000000E+00 -0.00000000000E+00 -0.50000499739E+01  0.50000500000E+01  0.51100000000E-03 0. -1.
     100001    1    1    2    0    0  0.26286611071E-02 -0.72425467607E-02  0.20991382927E-01  0.50000500000E+01  0.50000000000E+01 0.  1.
     100001    1    1    2    0    0 -0.26286611071E-02  0.72425467607E-02 -0.20991382927E-01  0.50000500000E+01  0.50000000000E+01 0.  0.
</event>
<event>
 4    1  0.5040302E-001  0.5000050E+01  0.7818608E-02  0.2136455E+00
        -11   -1    0    0    0    0  0.00000000000E+00  0.00000000000E+00  0.50000499739E+01  0.50000500000E+01  0.51100000000E-03 0. -1.
         11   -1    0    0    0    0 -0.00000000000E+00 -0.00000000000E+00 -0.50000499739E+01  0.50000500000E+01  0.51100000000E-03 0.  1.
     100001    1    1    2    0    0  0.62791375875E-03  0.13787464761E-01  0.17593011106E-01  0.50000500000E+01  0.50000000000E+01 0.  0.
     100001    1    1    2    0    0 -0.62791375875E-03 -0.13787464761E-01 -0.17593011106E-01  0.50000500000E+01  0.50000000000E+01 0.  0.
</event>
<event>
 4    1  0.5040302E-001  0.5000050E+01  0.7818608E-02  0.2136455E+00
        -11   -1    0    0    0    0  0.00000000000E+00  0.00000000000E+00  0.50000499739E+01  0.50000500000E+01  0.51100000000E-03 0. -1.
         11   -1    0    0    0    0 -0.00000000000E+00 -0.00000000000E+00 -0.50000499739E+01  0.50000500000E+01  0.51100000000E-03 0.  1.
     100001    1    1    2    0    0 -0.14851437186E-01 -0.78506727364E-02 -0.14758192677E-01  0.50000500000E+01  0.50000000000E+01 0.  1.
     100001    1    1    2    0    0  0.14851437186E-01  0.78506727364E-02  0.14758192677E-01  0.50000500000E+01  0.50000000000E+01 0. -1.
</event>
<event>
 4    1  0.5040302E-001  0.5000050E+01  0.7818608E-02  0.2136455E+00
        -11   -1    0    0    0    0  0.00000000000E+00  0.00000000000E+00  0.50000499739E+01  0.50000500000E+01  0.51100000000E-03 0. -1.
         11   -1    0    0    0    0 -0.00000000000E+00 -0.00000000000E+00 -0.50000499739E+01  0.50000500000E+01  0.51100000000E-03 0.  1.
     100001    1    1    2    0    0 -0.15240040904E-01 -0.54275439721E-02  0.15436496353E-01  0.50000500000E+01  0.50000000000E+01 0.  0.
     100001    1    1    2    0    0  0.15240040904E-01  0.54275439721E-02 -0.15436496353E-01  0.50000500000E+01  0.50000000000E+01 0. -1.
</event>
<event>
 4    1  0.5040302E-001  0.5000050E+01  0.7818608E-02  0.2136455E+00
        -11   -1    0    0    0    0  0.00000000000E+00  0.00000000000E+00  0.50000499739E+01  0.50000500000E+01  0.51100000000E-03 0.  1.
         11   -1    0    0    0    0 -0.00000000000E+00 -0.00000000000E+00 -0.50000499739E+01  0.50000500000E+01  0.51100000000E-03 0. -1.
     100001    1    1    2    0    0 -0.19514996835E-01  0.50886136668E-02 -0.96578159783E-02  0.50000500000E+01  0.50000000000E+01 0.  1.
     100001    1    1    2    0    0  0.19514996835E-01 -0.50886136668E-02  0.96578159783E-02  0.50000500000E+01  0.50000000000E+01 0. -1.
</event>
<event>
 4    1  0.5040302E-001  0.5000050E+01  0.7818608E-02  0.2136455E+00
        -11   -1    0    0    0    0  0.00000000000E+00  0.00000000000E+00  0.50000499739E+01  0.50000500000E+01  0.51100000000E-03 0. -1.
         11   -1    0    0    0    0 -0.00000000000E+00 -0.00000000000E+00 -0.50000499739E+01  0.50000500000E+01  0.51100000000E-03 0.  1.
     100001    1    1    2    0    0 -0.16442448249E-01 -0.13397780551E-01 -0.70815162133E-02  0.50000500000E+01  0.50000000000E+01 0.  1.
     100001    1    1    2    0    0  0.16442448249E-01  0.13397780551E-01  0.70815162133E-02  0.50000500000E+01  0.50000000000E+01 0. -1.
</event>
<event>
 4    1  0.5040302E-001  0.5000050E+01  0.7818608E-02  0.2136455E+00
        -11   -1    0    0    0    0  0.00000000000E+00  0.00000000000E+00  0.50000499739E+01  0.50000500000E+01  0.51100000000E-03 0. -1.
         11   -1    0    0    0    0 -0.00000000000E+00 -0.00000000000E+00 -0.50000499739E+01  0.50000500000E+01  0.51100000000E-03 0.  1.
     100001    1    1    2    0    0  0.13467029848E-01  0.16285693345E-01 -0.73087481392E-02  0.50000500000E+01  0.50000000000E+01 0.  1.
     100001    1    1    2    0    0 -0.13467029848E-01 -0.16285693345E-01  0.73087481392E-02  0.50000500000E+01  0.50000000000E+01 0. -1.
</event>
<event>
 4    1  0.5040302E-001  0.5000050E+01  0.7818608E-02  0.2136455E+00
        -11   -1    0    0    0    0  0.00000000000E+00  0.00000000000E+00  0.50000499739E+01  0.50000500000E+01  0.51100000000E-03 0. -1.
         11   -1    0    0    0    0 -0.00000000000E+00 -0.00000000000E+00 -0.50000499739E+01  0.50000500000E+01  0.51100000000E-03 0.  1.
     100001    1    1    2    0    0  0.20902881802E-01  0.70671757171E-02 -0.36231284459E-02  0.50000500000E+01  0.50000000000E+01 0.  1.
     100001    1    1    2    0    0 -0.20902881802E-01 -0.70671757171E-02  0.36231284459E-02  0.50000500000E+01  0.50000000000E+01 0. -1.
</event>
<event>
 4    1  0.5040302E-001  0.5000050E+01  0.7818608E-02  0.2136455E+00
        -11   -1    0    0    0    0  0.00000000000E+00  0.00000000000E+00  0.50000499739E+01  0.50000500000E+01  0.51100000000E-03 0. -1.
         11   -1    0    0    0    0 -0.00000000000E+00 -0.00000000000E+00 -0.50000499739E+01  0.50000500000E+01  0.51100000000E-03 0.  1.
     100001    1    1    2    0    0  0.21478807120E-01  0.40468247724E-02  0.47208636875E-02  0.50000500000E+01  0.50000000000E+01 0.  1.
     100001    1    1    2    0    0 -0.21478807120E-01 -0.40468247724E-02 -0.47208636875E-02  0.50000500000E+01  0.50000000000E+01 0. -1.
</event>
<event>
 4    1  0.5040302E-001  0.5000050E+01  0.7818608E-02  0.2136455E+00
        -11   -1    0    0    0    0  0.00000000000E+00  0.00000000000E+00  0.50000499739E+01  0.50000500000E+01  0.51100000000E-03 0. -1.
         11   -1    0    0    0    0 -0.00000000000E+00 -0.00000000000E+00 -0.50000499739E+01  0.50000500000E+01  0.51100000000E-03 0.  1.
     100001    1    1    2    0    0 -0.16141405800E-01 -0.14032646269E-01 -0.65224502668E-02  0.50000500000E+01  0.50000000000E+01 0.  1.
     100001    1    1    2    0    0  0.16141405800E-01  0.14032646269E-01  0.65224502668E-02  0.50000500000E+01  0.50000000000E+01 0. -1.
</event>
<event>
 4    1  0.5040302E-001  0.5000050E+01  0.7818608E-02  0.2136455E+00
        -11   -1    0    0    0    0  0.00000000000E+00  0.00000000000E+00  0.50000499739E+01  0.50000500000E+01  0.51100000000E-03 0.  1.
         11   -1    0    0    0    0 -0.00000000000E+00 -0.00000000000E+00 -0.50000499739E+01  0.50000500000E+01  0.51100000000E-03 0. -1.
     100001    1    1    2    0    0 -0.19698122230E-01  0.52338636830E-02  0.91974535367E-02  0.50000500000E+01  0.50000000000E+01 0.  1.
     100001    1    1    2    0    0  0.19698122230E-01 -0.52338636830E-02 -0.91974535367E-02  0.50000500000E+01  0.50000000000E+01 0. -1.
</event>
<event>
 4    1  0.5040302E-001  0.5000050E+01  0.7818608E-02  0.2136455E+00
        -11   -1    0    0    0    0  0.00000000000E+00  0.00000000000E+00  0.50000499739E+01  0.50000500000E+01  0.51100000000E-03 0.  1.
         11   -1    0    0    0    0 -0.00000000000E+00 -0.00000000000E+00 -0.50000499739E+01  0.50000500000E+01  0.51100000000E-03 0. -1.
     100001    1    1    2    0    0  0.36789374277E-03 -0.22325162015E-01 -0.12059416257E-02  0.50000500000E+01  0.50000000000E+01 0.  1.
     100001    1    1    2    0    0 -0.36789374277E-03  0.22325162015E-01  0.12059416257E-02  0.50000500000E+01  0.50000000000E+01 0.  0.
</event>
<event>
 4    1  0.5040302E-001  0.5000050E+01  0.7818608E-02  0.2136455E+00
        -11   -1    0    0    0    0  0.00000000000E+00  0.00000000000E+00  0.50000499739E+01  0.50000500000E+01  0.51100000000E-03 0.  1.
         11   -1    0    0    0    0 -0.00000000000E+00 -0.00000000000E+00 -0.50000499739E+01  0.50000500000E+01  0.51100000000E-03 0. -1.
     100001    1    1    2    0    0  0.18449398131E-01 -0.81766296612E-02  0.96314555478E-02  0.50000500000E+01  0.50000000000E+01 0.  1.
     100001    1    1    2    0    0 -0.18449398131E-01  0.81766296612E-02 -0.96314555478E-02  0.50000500000E+01  0.50000000000E+01 0.  1.
</event>
<event>
 4    1  0.5040302E-001  0.5000050E+01  0.7818608E-02  0.2136455E+00
        -11   -1    0    0    0    0  0.00000000000E+00  0.00000000000E+00  0.50000499739E+01  0.50000500000E+01  0.51100000000E-03 0. -1.
         11   -1    0    0    0    0 -0.00000000000E+00 -0.00000000000E+00 -0.50000499739E+01  0.50000500000E+01  0.51100000000E-03 0.  1.
     100001    1    1    2    0    0 -0.11154830137E-01  0.17135067426E-01  0.90532717250E-02  0.50000500000E+01  0.50000000000E+01 0. -1.
     100001    1    1    2    0    0  0.11154830137E-01 -0.17135067426E-01 -0.90532717250E-02  0.50000500000E+01  0.50000000000E+01 0.  1.
</event>
<event>
 4    1  0.5040302E-001  0.5000050E+01  0.7818608E-02  0.2136455E+00
        -11   -1    0    0    0    0  0.00000000000E+00  0.00000000000E+00  0.50000499739E+01  0.50000500000E+01  0.51100000000E-03 0.  1.
         11   -1    0    0    0    0 -0.00000000000E+00 -0.00000000000E+00 -0.50000499739E+01  0.50000500000E+01  0.51100000000E-03 0. -1.
     100001    1    1    2    0    0  0.12968044709E-01 -0.49110574293E-02  0.17541773894E-01  0.50000500000E+01  0.50000000000E+01 0.  0.
     100001    1    1    2    0    0 -0.12968044709E-01  0.49110574293E-02 -0.17541773894E-01  0.50000500000E+01  0.50000000000E+01 0.  0.
</event>
<event>
 4    1  0.5040302E-001  0.5000050E+01  0.7818608E-02  0.2136455E+00
        -11   -1    0    0    0    0  0.00000000000E+00  0.00000000000E+00  0.50000499739E+01  0.50000500000E+01  0.51100000000E-03 0.  1.
         11   -1    0    0    0    0 -0.00000000000E+00 -0.00000000000E+00 -0.50000499739E+01  0.50000500000E+01  0.51100000000E-03 0. -1.
     100001    1    1    2    0    0  0.17208644559E-02  0.20156092133E-01 -0.95274905123E-02  0.50000500000E+01  0.50000000000E+01 0. -1.
     100001    1    1    2    0    0 -0.17208644559E-02 -0.20156092133E-01  0.95274905123E-02  0.50000500000E+01  0.50000000000E+01 0.  1.
</event>
<event>
 4    1  0.5040302E-001  0.5000050E+01  0.7818608E-02  0.2136455E+00
        -11   -1    0    0    0    0  0.00000000000E+00  0.00000000000E+00  0.50000499739E+01  0.50000500000E+01  0.51100000000E-03 0. -1.
         11   -1    0    0    0    0 -0.00000000000E+00 -0.00000000000E+00 -0.50000499739E+01  0.50000500000E+01  0.51100000000E-03 0.  1.
     100001    1    1    2    0    0 -0.19339629027E-01  0.11000692362E-01  0.22284561144E-02  0.50000500000E+01  0.50000000000E+01 0.  0.
     100001    1    1    2    0    0  0.19339629027E-01 -0.11000692362E-01 -0.22284561144E-02  0.50000500000E+01  0.50000000000E+01 0. -1.
</event>
<event>
 4    1  0.5040302E-001  0.5000050E+01  0.7818608E-02  0.2136455E+00
        -11   -1    0    0    0    0  0.00000000000E+00  0.00000000000E+00  0.50000499739E+01  0.50000500000E+01  0.51100000000E-03 0.  1.
         11   -1    0    0    0    0 -0.00000000000E+00 -0.00000000000E+00 -0.50000499739E+01  0.50000500000E+01  0.51100000000E-03 0. -1.
     100001    1    1    2    0    0 -0.17296138324E-01 -0.13945610485E-01 -0.25231027108E-02  0.50000500000E+01  0.50000000000E+01 0.  1.
     100001    1    1    2    0    0  0.17296138324E-01  0.13945610485E-01  0.25231027108E-02  0.50000500000E+01  0.50000000000E+01 0. -1.
</event>
<event>
 4    1  0.5040302E-001  0.5000050E+01  0.7818608E-02  0.2136455E+00
        -11   -1    0    0    0    0  0.00000000000E+00  0.00000000000E+00  0.50000499739E+01  0.50000500000E+01  0.51100000000E-03 0. -1.
         11   -1    0    0    0    0 -0.00000000000E+00 -0.00000000000E+00 -0.50000499739E+01  0.50000500000E+01  0.51100000000E-03 0.  1.
     100001    1    1    2    0    0 -0.12740503833E-01 -0.16109192630E-01  0.88417178692E-02  0.50000500000E+01  0.50000000000E+01 0.  1.
     100001    1    1    2    0    0  0.12740503833E-01  0.16109192630E-01 -0.88417178692E-02  0.50000500000E+01  0.50000000000E+01 0.  0.
</event>
<event>
 4    1  0.5040302E-001  0.5000050E+01  0.7818608E-02  0.2136455E+00
        -11   -1    0    0    0    0  0.00000000000E+00  0.00000000000E+00  0.50000499739E+01  0.50000500000E+01  0.51100000000E-03 0.  1.
         11   -1    0    0    0    0 -0.00000000000E+00 -0.00000000000E+00 -0.50000499739E+01  0.50000500000E+01  0.51100000000E-03 0. -1.
     100001    1    1    2    0    0  0.88508462234E-02 -0.20532986413E-01  0.24797198666E-03  0.50000500000E+01  0.50000000000E+01 0.  1.
     100001    1    1    2    0    0 -0.88508462234E-02  0.20532986413E-01 -0.24797198666E-03  0.50000500000E+01  0.50000000000E+01 0. -1.
</event>
<event>
 4    1  0.5040302E-001  0.5000050E+01  0.7818608E-02  0.2136455E+00
        -11   -1    0    0    0    0  0.00000000000E+00  0.00000000000E+00  0.50000499739E+01  0.50000500000E+01  0.51100000000E-03 0.  1.
         11   -1    0    0    0    0 -0.00000000000E+00 -0.00000000000E+00 -0.50000499739E+01  0.50000500000E+01  0.51100000000E-03 0. -1.
     100001    1    1    2    0    0  0.18061731743E-01  0.12166871960E-01  0.50738124871E-02  0.50000500000E+01  0.50000000000E+01 0. -1.
     100001    1    1    2    0    0 -0.18061731743E-01 -0.12166871960E-01 -0.50738124871E-02  0.50000500000E+01  0.50000000000E+01 0.  0.
</event>
<event>
 4    1  0.5040302E-001  0.5000050E+01  0.7818608E-02  0.2136455E+00
        -11   -1    0    0    0    0  0.00000000000E+00  0.00000000000E+00  0.50000499739E+01  0.50000500000E+01  0.51100000000E-03 0. -1.
         11   -1    0    0    0    0 -0.00000000000E+00 -0.00000000000E+00 -0.50000499739E+01  0.50000500000E+01  0.51100000000E-03 0.  1.
     100001    1    1    2    0    0 -0.47833786418E-02  0.20784486634E-01 -0.67176561491E-02  0.50000500000E+01  0.50000000000E+01 0.  1.
     100001    1    1    2    0    0  0.47833786418E-02 -0.20784486634E-01  0.67176561491E-02  0.50000500000E+01  0.50000000000E+01 0. -1.
</event>
<event>
 4    1  0.5040302E-001  0.5000050E+01  0.7818608E-02  0.2136455E+00
        -11   -1    0    0    0    0  0.00000000000E+00  0.00000000000E+00  0.50000499739E+01  0.50000500000E+01  0.51100000000E-03 0. -1.
         11   -1    0    0    0    0 -0.00000000000E+00 -0.00000000000E+00 -0.50000499739E+01  0.50000500000E+01  0.51100000000E-03 0.  1.
     100001    1    1    2    0    0  0.16911009643E-02 -0.14610472094E-01 -0.16842707108E-01  0.50000500000E+01  0.50000000000E+01 0.  0.
     100001    1    1    2    0    0 -0.16911009643E-02  0.14610472094E-01  0.16842707108E-01  0.50000500000E+01  0.50000000000E+01 0.  0.
</event>
<event>
 4    1  0.5040302E-001  0.5000050E+01  0.7818608E-02  0.2136455E+00
        -11   -1    0    0    0    0  0.00000000000E+00  0.00000000000E+00  0.50000499739E+01  0.50000500000E+01  0.51100000000E-03 0. -1.
         11   -1    0    0    0    0 -0.00000000000E+00 -0.00000000000E+00 -0.50000499739E+01  0.50000500000E+01  0.51100000000E-03 0.  1.
     100001    1    1    2    0    0  0.12768756858E-01  0.14841193047E-01 -0.10802793029E-01  0.50000500000E+01  0.50000000000E+01 0. -1.
     100001    1    1    2    0    0 -0.12768756858E-01 -0.14841193047E-01  0.10802793029E-01  0.50000500000E+01  0.50000000000E+01 0.  0.
</event>
<event>
 4    1  0.5040302E-001  0.5000050E+01  0.7818608E-02  0.2136455E+00
        -11   -1    0    0    0    0  0.00000000000E+00  0.00000000000E+00  0.50000499739E+01  0.50000500000E+01  0.51100000000E-03 0.  1.
         11   -1    0    0    0    0 -0.00000000000E+00 -0.00000000000E+00 -0.50000499739E+01  0.50000500000E+01  0.51100000000E-03 0. -1.
     100001    1    1    2    0    0 -0.20398365920E-01  0.90956760210E-02 -0.10852859172E-02  0.50000500000E+01  0.50000000000E+01 0.  1.
     100001    1    1    2    0    0  0.20398365920E-01 -0.90956760210E-02  0.10852859172E-02  0.50000500000E+01  0.50000000000E+01 0.  0.
</event>
<event>
 4    1  0.5040302E-001  0.5000050E+01  0.7818608E-02  0.2136455E+00
        -11   -1    0    0    0    0  0.00000000000E+00  0.00000000000E+00  0.50000499739E+01  0.50000500000E+01  0.51100000000E-03 0.  1.
         11   -1    0    0    0    0 -0.00000000000E+00 -0.00000000000E+00 -0.50000499739E+01  0.50000500000E+01  0.51100000000E-03 0. -1.
     100001    1    1    2    0    0 -0.21870684856E-02 -0.21049061765E-01  0.72219270444E-02  0.50000500000E+01  0.50000000000E+01 0.  0.
     100001    1    1    2    0    0  0.21870684856E-02  0.21049061765E-01 -0.72219270444E-02  0.50000500000E+01  0.50000000000E+01 0.  1.
</event>
<event>
 4    1  0.5040302E-001  0.5000050E+01  0.7818608E-02  0.2136455E+00
        -11   -1    0    0    0    0  0.00000000000E+00  0.00000000000E+00  0.50000499739E+01  0.50000500000E+01  0.51100000000E-03 0. -1.
         11   -1    0    0    0    0 -0.00000000000E+00 -0.00000000000E+00 -0.50000499739E+01  0.50000500000E+01  0.51100000000E-03 0.  1.
     100001    1    1    2    0    0  0.31230954156E-03  0.92653265711E-02  0.20348432035E-01  0.50000500000E+01  0.50000000000E+01 0. -1.
     100001    1    1    2    0    0 -0.31230954156E-03 -0.92653265711E-02 -0.20348432035E-01  0.50000500000E+01  0.50000000000E+01 0.  0.
</event>
<event>
 4    1  0.5040302E-001  0.5000050E+01  0.7818608E-02  0.2136455E+00
        -11   -1    0    0    0    0  0.00000000000E+00  0.00000000000E+00  0.50000499739E+01  0.50000500000E+01  0.51100000000E-03 0.  1.
         11   -1    0    0    0    0 -0.00000000000E+00 -0.00000000000E+00 -0.50000499739E+01  0.50000500000E+01  0.51100000000E-03 0. -1.
     100001    1    1    2    0    0 -0.13570754417E-01  0.87568677872E-02  0.15464617393E-01  0.50000500000E+01  0.50000000000E+01 0.  1.
     100001    1    1    2    0    0  0.13570754417E-01 -0.87568677872E-02 -0.15464617393E-01  0.50000500000E+01  0.50000000000E+01 0. -1.
</event>
<event>
 4    1  0.5040302E-001  0.5000050E+01  0.7818608E-02  0.2136455E+00
        -11   -1    0    0    0    0  0.00000000000E+00  0.00000000000E+00  0.50000499739E+01  0.50000500000E+01  0.51100000000E-03 0.  1.
         11   -1    0    0    0    0 -0.00000000000E+00 -0.00000000000E+00 -0.50000499739E+01  0.50000500000E+01  0.51100000000E-03 0. -1.
     100001    1    1    2    0    0  0.12464636963E-01  0.13648588291E-01 -0.12583773799E-01  0.50000500000E+01  0.50000000000E+01 0. -1.
     100001    1    1    2    0    0 -0.12464636963E-01 -0.13648588291E-01  0.12583773799E-01  0.50000500000E+01  0.50000000000E+01 0.  1.
</event>
<event>
 4    1  0.5040302E-001  0.5000050E+01  0.7818608E-02  0.2136455E+00
        -11   -1    0    0    0    0  0.00000000000E+00  0.00000000000E+00  0.50000499739E+01  0.50000500000E+01  0.51100000000E-03 0. -1.
         11   -1    0    0    0    0 -0.00000000000E+00 -0.00000000000E+00 -0.50000499739E+01  0.50000500000E+01  0.51100000000E-03 0.  1.
     100001    1    1    2    0    0  0.34629894334E-02 -0.21149108703E-01  0.63816459668E-02  0.50000500000E+01  0.50000000000E+01 0.  0.
     100001    1    1    2    0    0 -0.34629894334E-02  0.21149108703E-01 -0.63816459668E-02  0.50000500000E+01  0.50000000000E+01 0. -1.
</event>
<event>
 4    1  0.5040302E-001  0.5000050E+01  0.7818608E-02  0.2136455E+00
        -11   -1    0    0    0    0  0.00000000000E+00  0.00000000000E+00  0.50000499739E+01  0.50000500000E+01  0.51100000000E-03 0.  1.
         11   -1    0    0    0    0 -0.00000000000E+00 -0.00000000000E+00 -0.50000499739E+01  0.50000500000E+01  0.51100000000E-03 0. -1.
     100001    1    1    2    0    0 -0.12317282631E-01  0.17450423383E-01 -0.66158727555E-02  0.50000500000E+01  0.50000000000E+01 0. -1.
     100001    1    1    2    0    0  0.12317282631E-01 -0.17450423383E-01  0.66158727555E-02  0.50000500000E+01  0.50000000000E+01 0.  1.
</event>
<event>
 4    1  0.5040302E-001  0.5000050E+01  0.7818608E-02  0.2136455E+00
        -11   -1    0    0    0    0  0.00000000000E+00  0.00000000000E+00  0.50000499739E+01  0.50000500000E+01  0.51100000000E-03 0. -1.
         11   -1    0    0    0    0 -0.00000000000E+00 -0.00000000000E+00 -0.50000499739E+01  0.50000500000E+01  0.51100000000E-03 0.  1.
     100001    1    1    2    0    0 -0.11111142278E-01  0.17983128385E-01 -0.72905494142E-02  0.50000500000E+01  0.50000000000E+01 0.  1.
     100001    1    1    2    0    0  0.11111142278E-01 -0.17983128385E-01  0.72905494142E-02  0.50000500000E+01  0.50000000000E+01 0. -1.
</event>
<event>
 4    1  0.5040302E-001  0.5000050E+01  0.7818608E-02  0.2136455E+00
        -11   -1    0    0    0    0  0.00000000000E+00  0.00000000000E+00  0.50000499739E+01  0.50000500000E+01  0.51100000000E-03 0.  1.
         11   -1    0    0    0    0 -0.00000000000E+00 -0.00000000000E+00 -0.50000499739E+01  0.50000500000E+01  0.51100000000E-03 0. -1.
     100001    1    1    2    0    0 -0.17800864728E-01  0.25123535503E-02 -0.13297360436E-01  0.50000500000E+01  0.50000000000E+01 0.  1.
     100001    1    1    2    0    0  0.17800864728E-01 -0.25123535503E-02  0.13297360436E-01  0.50000500000E+01  0.50000000000E+01 0.  0.
</event>
<event>
 4    1  0.5040302E-001  0.5000050E+01  0.7818608E-02  0.2136455E+00
        -11   -1    0    0    0    0  0.00000000000E+00  0.00000000000E+00  0.50000499739E+01  0.50000500000E+01  0.51100000000E-03 0. -1.
         11   -1    0    0    0    0 -0.00000000000E+00 -0.00000000000E+00 -0.50000499739E+01  0.50000500000E+01  0.51100000000E-03 0.  1.
     100001    1    1    2    0    0  0.73241249498E-02 -0.11223984805E-01  0.17899213916E-01  0.50000500000E+01  0.50000000000E+01 0.  1.
     100001    1    1    2    0    0 -0.73241249498E-02  0.11223984805E-01 -0.17899213916E-01  0.50000500000E+01  0.50000000000E+01 0.  1.
</event>
<event>
 4    1  0.5040302E-001  0.5000050E+01  0.7818608E-02  0.2136455E+00
        -11   -1    0    0    0    0  0.00000000000E+00  0.00000000000E+00  0.50000499739E+01  0.50000500000E+01  0.51100000000E-03 0.  1.
         11   -1    0    0    0    0 -0.00000000000E+00 -0.00000000000E+00 -0.50000499739E+01  0.50000500000E+01  0.51100000000E-03 0. -1.
     100001    1    1    2    0    0 -0.37756133990E-02 -0.17965486792E-01  0.12766696041E-01  0.50000500000E+01  0.50000000000E+01 0.  0.
     100001    1    1    2    0    0  0.37756133990E-02  0.17965486792E-01 -0.12766696041E-01  0.50000500000E+01  0.50000000000E+01 0. -1.
</event>
<event>
 4    1  0.5040302E-001  0.5000050E+01  0.7818608E-02  0.2136455E+00
        -11   -1    0    0    0    0  0.00000000000E+00  0.00000000000E+00  0.50000499739E+01  0.50000500000E+01  0.51100000000E-03 0.  1.
         11   -1    0    0    0    0 -0.00000000000E+00 -0.00000000000E+00 -0.50000499739E+01  0.50000500000E+01  0.51100000000E-03 0. -1.
     100001    1    1    2    0    0 -0.85203267240E-02  0.15672659701E-01 -0.13482368873E-01  0.50000500000E+01  0.50000000000E+01 0. -1.
     100001    1    1    2    0    0  0.85203267240E-02 -0.15672659701E-01  0.13482368873E-01  0.50000500000E+01  0.50000000000E+01 0.  1.
</event>
<event>
 4    1  0.5040302E-001  0.5000050E+01  0.7818608E-02  0.2136455E+00
        -11   -1    0    0    0    0  0.00000000000E+00  0.00000000000E+00  0.50000499739E+01  0.50000500000E+01  0.51100000000E-03 0. -1.
         11   -1    0    0    0    0 -0.00000000000E+00 -0.00000000000E+00 -0.50000499739E+01  0.50000500000E+01  0.51100000000E-03 0.  1.
     100001    1    1    2    0    0 -0.61766814395E-02 -0.21488653264E-01 -0.29813972177E-03  0.50000500000E+01  0.50000000000E+01 0.  0.
     100001    1    1    2    0    0  0.61766814395E-02  0.21488653264E-01  0.29813972176E-03  0.50000500000E+01  0.50000000000E+01 0.  1.
</event>
<event>
 4    1  0.5040302E-001  0.5000050E+01  0.7818608E-02  0.2136455E+00
        -11   -1    0    0    0    0  0.00000000000E+00  0.00000000000E+00  0.50000499739E+01  0.50000500000E+01  0.51100000000E-03 0.  1.
         11   -1    0    0    0    0 -0.00000000000E+00 -0.00000000000E+00 -0.50000499739E+01  0.50000500000E+01  0.51100000000E-03 0. -1.
     100001    1    1    2    0    0  0.13406846565E-01  0.31057500947E-04 -0.17895753703E-01  0.50000500000E+01  0.50000000000E+01 0. -1.
     100001    1    1    2    0    0 -0.13406846565E-01 -0.31057500947E-04  0.17895753703E-01  0.50000500000E+01  0.50000000000E+01 0.  1.
</event>
<event>
 4    1  0.5040302E-001  0.5000050E+01  0.7818608E-02  0.2136455E+00
        -11   -1    0    0    0    0  0.00000000000E+00  0.00000000000E+00  0.50000499739E+01  0.50000500000E+01  0.51100000000E-03 0. -1.
         11   -1    0    0    0    0 -0.00000000000E+00 -0.00000000000E+00 -0.50000499739E+01  0.50000500000E+01  0.51100000000E-03 0.  1.
     100001    1    1    2    0    0 -0.78709667814E-02 -0.33919754332E-02  0.20652963095E-01  0.50000500000E+01  0.50000000000E+01 0.  0.
     100001    1    1    2    0    0  0.78709667814E-02  0.33919754332E-02 -0.20652963095E-01  0.50000500000E+01  0.50000000000E+01 0.  0.
</event>
<event>
 4    1  0.5040302E-001  0.5000050E+01  0.7818608E-02  0.2136455E+00
        -11   -1    0    0    0    0  0.00000000000E+00  0.00000000000E+00  0.50000499739E+01  0.50000500000E+01  0.51100000000E-03 0.  1.
         11   -1    0    0    0    0 -0.00000000000E+00 -0.00000000000E+00 -0.50000499739E+01  0.50000500000E+01  0.51100000000E-03 0. -1.
     100001    1    1    2    0    0 -0.71897250976E-02  0.19490921545E-01  0.82712955663E-02  0.50000500000E+01  0.50000000000E+01 0.  0.
     100001    1    1    2    0    0  0.71897250976E-02 -0.19490921545E-01 -0.82712955663E-02  0.50000500000E+01  0.50000000000E+01 0.  1.
</event>
<event>
 4    1  0.5040302E-001  0.5000050E+01  0.7818608E-02  0.2136455E+00
        -11   -1    0    0    0    0  0.00000000000E+00  0.00000000000E+00  0.50000499739E+01  0.50000500000E+01  0.51100000000E-03 0. -1.
         11   -1    0    0    0    0 -0.00000000000E+00 -0.00000000000E+00 -0.50000499739E+01  0.50000500000E+01  0.51100000000E-03 0.  1.
     100001    1    1    2    0    0  0.21765904107E-01 -0.43045418809E-02  0.27782796128E-02  0.50000500000E+01  0.50000000000E+01 0. -1.
     100001    1    1    2    0    0 -0.21765904107E-01  0.43045418809E-02 -0.27782796128E-02  0.50000500000E+01  0.50000000000E+01 0.  1.
</event>
<event>
 4    1  0.5040302E-001  0.5000050E+01  0.7818608E-02  0.2136455E+00
        -11   -1    0    0    0    0  0.00000000000E+00  0.00000000000E+00  0.50000499739E+01  0.50000500000E+01  0.51100000000E-03 0.  1.
         11   -1    0    0    0    0 -0.00000000000E+00 -0.00000000000E+00 -0.50000499739E+01  0.50000500000E+01  0.51100000000E-03 0. -1.
     100001    1    1    2    0    0 -0.22197389269E-01 -0.20698249995E-03 -0.26899010896E-02  0.50000500000E+01  0.50000000000E+01 0.  0.
     100001    1    1    2    0    0  0.22197389269E-01  0.20698249995E-03  0.26899010896E-02  0.50000500000E+01  0.50000000000E+01 0. -1.
</event>
<event>
 4    1  0.5040302E-001  0.5000050E+01  0.7818608E-02  0.2136455E+00
        -11   -1    0    0    0    0  0.00000000000E+00  0.00000000000E+00  0.50000499739E+01  0.50000500000E+01  0.51100000000E-03 0. -1.
         11   -1    0    0    0    0 -0.00000000000E+00 -0.00000000000E+00 -0.50000499739E+01  0.50000500000E+01  0.51100000000E-03 0.  1.
     100001    1    1    2    0    0 -0.74484240065E-02 -0.20902558530E-01  0.27579932397E-02  0.50000500000E+01  0.50000000000E+01 0. -1.
     100001    1    1    2    0    0  0.74484240065E-02  0.20902558530E-01 -0.27579932397E-02  0.50000500000E+01  0.50000000000E+01 0.  0.
</event>
<event>
 4    1  0.5040302E-001  0.5000050E+01  0.7818608E-02  0.2136455E+00
        -11   -1    0    0    0    0  0.00000000000E+00  0.00000000000E+00  0.50000499739E+01  0.50000500000E+01  0.51100000000E-03 0. -1.
         11   -1    0    0    0    0 -0.00000000000E+00 -0.00000000000E+00 -0.50000499739E+01  0.50000500000E+01  0.51100000000E-03 0.  1.
     100001    1    1    2    0    0  0.10567442774E-01 -0.52919597287E-02  0.18982276350E-01  0.50000500000E+01  0.50000000000E+01 0. -1.
     100001    1    1    2    0    0 -0.10567442774E-01  0.52919597287E-02 -0.18982276350E-01  0.50000500000E+01  0.50000000000E+01 0.  0.
</event>
<event>
 4    1  0.5040302E-001  0.5000050E+01  0.7818608E-02  0.2136455E+00
        -11   -1    0    0    0    0  0.00000000000E+00  0.00000000000E+00  0.50000499739E+01  0.50000500000E+01  0.51100000000E-03 0. -1.
         11   -1    0    0    0    0 -0.00000000000E+00 -0.00000000000E+00 -0.50000499739E+01  0.50000500000E+01  0.51100000000E-03 0.  1.
     100001    1    1    2    0    0 -0.13005386292E-01 -0.17891287888E-01  0.32808909008E-02  0.50000500000E+01  0.50000000000E+01 0.  1.
     100001    1    1    2    0    0  0.13005386292E-01  0.17891287888E-01 -0.32808909008E-02  0.50000500000E+01  0.50000000000E+01 0. -1.
</event>
<event>
 4    1  0.5040302E-001  0.5000050E+01  0.7818608E-02  0.2136455E+00
        -11   -1    0    0    0    0  0.00000000000E+00  0.00000000000E+00  0.50000499739E+01  0.50000500000E+01  0.51100000000E-03 0.  1.
         11   -1    0    0    0    0 -0.00000000000E+00 -0.00000000000E+00 -0.50000499739E+01  0.50000500000E+01  0.51100000000E-03 0. -1.
     100001    1    1    2    0    0  0.91821678771E-02  0.16848051580E-01  0.11481874891E-01  0.50000500000E+01  0.50000000000E+01 0.  1.
     100001    1    1    2    0    0 -0.91821678771E-02 -0.16848051580E-01 -0.11481874891E-01  0.50000500000E+01  0.50000000000E+01 0.  1.
</event>
<event>
 4    1  0.5040302E-001  0.5000050E+01  0.7818608E-02  0.2136455E+00
        -11   -1    0    0    0    0  0.00000000000E+00  0.00000000000E+00  0.50000499739E+01  0.50000500000E+01  0.51100000000E-03 0.  1.
         11   -1    0    0    0    0 -0.00000000000E+00 -0.00000000000E+00 -0.50000499739E+01  0.50000500000E+01  0.51100000000E-03 0. -1.
     100001    1    1    2    0    0 -0.25927293458E-02 -0.25835631607E-02  0.22059135430E-01  0.50000500000E+01  0.50000000000E+01 0.  1.
     100001    1    1    2    0    0  0.25927293458E-02  0.25835631607E-02 -0.22059135430E-01  0.50000500000E+01  0.50000000000E+01 0.  0.
</event>
<event>
 4    1  0.5040302E-001  0.5000050E+01  0.7818608E-02  0.2136455E+00
        -11   -1    0    0    0    0  0.00000000000E+00  0.00000000000E+00  0.50000499739E+01  0.50000500000E+01  0.51100000000E-03 0. -1.
         11   -1    0    0    0    0 -0.00000000000E+00 -0.00000000000E+00 -0.50000499739E+01  0.50000500000E+01  0.51100000000E-03 0.  1.
     100001    1    1    2    0    0  0.62997737538E-02  0.23739300499E-02 -0.21323222242E-01  0.50000500000E+01  0.50000000000E+01 0.  1.
     100001    1    1    2    0    0 -0.62997737538E-02 -0.23739300499E-02  0.21323222242E-01  0.50000500000E+01  0.50000000000E+01 0.  0.
</event>
<event>
 4    1  0.5040302E-001  0.5000050E+01  0.7818608E-02  0.2136455E+00
        -11   -1    0    0    0    0  0.00000000000E+00  0.00000000000E+00  0.50000499739E+01  0.50000500000E+01  0.51100000000E-03 0.  1.
         11   -1    0    0    0    0 -0.00000000000E+00 -0.00000000000E+00 -0.50000499739E+01  0.50000500000E+01  0.51100000000E-03 0. -1.
     100001    1    1    2    0    0  0.15181000874E-01 -0.61327489578E-02 -0.15229218715E-01  0.50000500000E+01  0.50000000000E+01 0.  0.
     100001    1    1    2    0    0 -0.15181000874E-01  0.61327489578E-02  0.15229218715E-01  0.50000500000E+01  0.50000000000E+01 0.  1.
</event>
<event>
 4    1  0.5040302E-001  0.5000050E+01  0.7818608E-02  0.2136455E+00
        -11   -1    0    0    0    0  0.00000000000E+00  0.00000000000E+00  0.50000499739E+01  0.50000500000E+01  0.51100000000E-03 0.  1.
         11   -1    0    0    0    0 -0.00000000000E+00 -0.00000000000E+00 -0.50000499739E+01  0.50000500000E+01  0.51100000000E-03 0. -1.
     100001    1    1    2    0    0  0.11597550179E-01 -0.98866493013E-02  0.16363174980E-01  0.50000500000E+01  0.50000000000E+01 0.  1.
     100001    1    1    2    0    0 -0.11597550179E-01  0.98866493013E-02 -0.16363174980E-01  0.50000500000E+01  0.50000000000E+01 0.  1.
</event>
<event>
 4    1  0.5040302E-001  0.5000050E+01  0.7818608E-02  0.2136455E+00
        -11   -1    0    0    0    0  0.00000000000E+00  0.00000000000E+00  0.50000499739E+01  0.50000500000E+01  0.51100000000E-03 0. -1.
         11   -1    0    0    0    0 -0.00000000000E+00 -0.00000000000E+00 -0.50000499739E+01  0.50000500000E+01  0.51100000000E-03 0.  1.
     100001    1    1    2    0    0  0.10117501905E-01  0.34529386023E-02 -0.19639650461E-01  0.50000500000E+01  0.50000000000E+01 0.  0.
     100001    1    1    2    0    0 -0.10117501905E-01 -0.34529386023E-02  0.19639650461E-01  0.50000500000E+01  0.50000000000E+01 0. -1.
</event>
<event>
 4    1  0.5040302E-001  0.5000050E+01  0.7818608E-02  0.2136455E+00
        -11   -1    0    0    0    0  0.00000000000E+00  0.00000000000E+00  0.50000499739E+01  0.50000500000E+01  0.51100000000E-03 0. -1.
         11   -1    0    0    0    0 -0.00000000000E+00 -0.00000000000E+00 -0.50000499739E+01  0.50000500000E+01  0.51100000000E-03 0.  1.
     100001    1    1    2    0    0 -0.14708215854E-01  0.45131240023E-02  0.16226601558E-01  0.50000500000E+01  0.50000000000E+01 0.  0.
     100001    1    1    2    0    0  0.14708215854E-01 -0.45131240023E-02 -0.16226601558E-01  0.50000500000E+01  0.50000000000E+01 0.  0.
</event>
<event>
 4    1  0.5040302E-001  0.5000050E+01  0.7818608E-02  0.2136455E+00
        -11   -1    0    0    0    0  0.00000000000E+00  0.00000000000E+00  0.50000499739E+01  0.50000500000E+01  0.51100000000E-03 0. -1.
         11   -1    0    0    0    0 -0.00000000000E+00 -0.00000000000E+00 -0.50000499739E+01  0.50000500000E+01  0.51100000000E-03 0.  1.
     100001    1    1    2    0    0 -0.14045202895E-02  0.91685678528E-02  0.20346183580E-01  0.50000500000E+01  0.50000000000E+01 0. -1.
     100001    1    1    2    0    0  0.14045202895E-02 -0.91685678528E-02 -0.20346183580E-01  0.50000500000E+01  0.50000000000E+01 0.  1.
</event>
<event>
 4    1  0.5040302E-001  0.5000050E+01  0.7818608E-02  0.2136455E+00
        -11   -1    0    0    0    0  0.00000000000E+00  0.00000000000E+00  0.50000499739E+01  0.50000500000E+01  0.51100000000E-03 0. -1.
         11   -1    0    0    0    0 -0.00000000000E+00 -0.00000000000E+00 -0.50000499739E+01  0.50000500000E+01  0.51100000000E-03 0.  1.
     100001    1    1    2    0    0  0.20144496619E-01  0.96725250229E-02 -0.80250584627E-03  0.50000500000E+01  0.50000000000E+01 0.  1.
     100001    1    1    2    0    0 -0.20144496619E-01 -0.96725250229E-02  0.80250584627E-03  0.50000500000E+01  0.50000000000E+01 0. -1.
</event>
<event>
 4    1  0.5040302E-001  0.5000050E+01  0.7818608E-02  0.2136455E+00
        -11   -1    0    0    0    0  0.00000000000E+00  0.00000000000E+00  0.50000499739E+01  0.50000500000E+01  0.51100000000E-03 0.  1.
         11   -1    0    0    0    0 -0.00000000000E+00 -0.00000000000E+00 -0.50000499739E+01  0.50000500000E+01  0.51100000000E-03 0. -1.
     100001    1    1    2    0    0 -0.13920313960E-01  0.57907405175E-02 -0.16513469760E-01  0.50000500000E+01  0.50000000000E+01 0.  1.
     100001    1    1    2    0    0  0.13920313960E-01 -0.57907405175E-02  0.16513469760E-01  0.50000500000E+01  0.50000000000E+01 0. -1.
</event>
<event>
 4    1  0.5040302E-001  0.5000050E+01  0.7818608E-02  0.2136455E+00
        -11   -1    0    0    0    0  0.00000000000E+00  0.00000000000E+00  0.50000499739E+01  0.50000500000E+01  0.51100000000E-03 0. -1.
         11   -1    0    0    0    0 -0.00000000000E+00 -0.00000000000E+00 -0.50000499739E+01  0.50000500000E+01  0.51100000000E-03 0.  1.
     100001    1    1    2    0    0  0.15789733957E-02 -0.15738807673E-01 -0.15805039578E-01  0.50000500000E+01  0.50000000000E+01 0.  1.
     100001    1    1    2    0    0 -0.15789733957E-02  0.15738807673E-01  0.15805039578E-01  0.50000500000E+01  0.50000000000E+01 0. -1.
</event>
<event>
 4    1  0.5040302E-001  0.5000050E+01  0.7818608E-02  0.2136455E+00
        -11   -1    0    0    0    0  0.00000000000E+00  0.00000000000E+00  0.50000499739E+01  0.50000500000E+01  0.51100000000E-03 0.  1.
         11   -1    0    0    0    0 -0.00000000000E+00 -0.00000000000E+00 -0.50000499739E+01  0.50000500000E+01  0.51100000000E-03 0. -1.
     100001    1    1    2    0    0  0.83528208742E-02 -0.20733918966E-01 -0.58093695004E-03  0.50000500000E+01  0.50000000000E+01 0. -1.
     100001    1    1    2    0    0 -0.83528208742E-02  0.20733918966E-01  0.58093695004E-03  0.50000500000E+01  0.50000000000E+01 0.  1.
</event>
<event>
 4    1  0.5040302E-001  0.5000050E+01  0.7818608E-02  0.2136455E+00
        -11   -1    0    0    0    0  0.00000000000E+00  0.00000000000E+00  0.50000499739E+01  0.50000500000E+01  0.51100000000E-03 0. -1.
         11   -1    0    0    0    0 -0.00000000000E+00 -0.00000000000E+00 -0.50000499739E+01  0.50000500000E+01  0.51100000000E-03 0.  1.
     100001    1    1    2    0    0 -0.92843920930E-02 -0.13629019456E-01  0.15101403648E-01  0.50000500000E+01  0.50000000000E+01 0. -1.
     100001    1    1    2    0    0  0.92843920930E-02  0.13629019456E-01 -0.15101403648E-01  0.50000500000E+01  0.50000000000E+01 0.  1.
</event>
<event>
 4    1  0.5040302E-001  0.5000050E+01  0.7818608E-02  0.2136455E+00
        -11   -1    0    0    0    0  0.00000000000E+00  0.00000000000E+00  0.50000499739E+01  0.50000500000E+01  0.51100000000E-03 0. -1.
         11   -1    0    0    0    0 -0.00000000000E+00 -0.00000000000E+00 -0.50000499739E+01  0.50000500000E+01  0.51100000000E-03 0.  1.
     100001    1    1    2    0    0  0.90750722530E-02  0.20432038591E-01  0.42114439397E-03  0.50000500000E+01  0.50000000000E+01 0.  1.
     100001    1    1    2    0    0 -0.90750722530E-02 -0.20432038591E-01 -0.42114439397E-03  0.50000500000E+01  0.50000000000E+01 0. -1.
</event>
<event>
 4    1  0.5040302E-001  0.5000050E+01  0.7818608E-02  0.2136455E+00
        -11   -1    0    0    0    0  0.00000000000E+00  0.00000000000E+00  0.50000499739E+01  0.50000500000E+01  0.51100000000E-03 0. -1.
         11   -1    0    0    0    0 -0.00000000000E+00 -0.00000000000E+00 -0.50000499739E+01  0.50000500000E+01  0.51100000000E-03 0.  1.
     100001    1    1    2    0    0 -0.17905804655E-01 -0.61730040168E-02  0.11886070884E-01  0.50000500000E+01  0.50000000000E+01 0.  0.
     100001    1    1    2    0    0  0.17905804655E-01  0.61730040168E-02 -0.11886070884E-01  0.50000500000E+01  0.50000000000E+01 0.  0.
</event>
<event>
 4    1  0.5040302E-001  0.5000050E+01  0.7818608E-02  0.2136455E+00
        -11   -1    0    0    0    0  0.00000000000E+00  0.00000000000E+00  0.50000499739E+01  0.50000500000E+01  0.51100000000E-03 0.  1.
         11   -1    0    0    0    0 -0.00000000000E+00 -0.00000000000E+00 -0.50000499739E+01  0.50000500000E+01  0.51100000000E-03 0. -1.
     100001    1    1    2    0    0  0.13139178699E-01  0.14810608324E-01  0.10392803481E-01  0.50000500000E+01  0.50000000000E+01 0. -1.
     100001    1    1    2    0    0 -0.13139178699E-01 -0.14810608324E-01 -0.10392803481E-01  0.50000500000E+01  0.50000000000E+01 0.  0.
</event>
<event>
 4    1  0.5040302E-001  0.5000050E+01  0.7818608E-02  0.2136455E+00
        -11   -1    0    0    0    0  0.00000000000E+00  0.00000000000E+00  0.50000499739E+01  0.50000500000E+01  0.51100000000E-03 0. -1.
         11   -1    0    0    0    0 -0.00000000000E+00 -0.00000000000E+00 -0.50000499739E+01  0.50000500000E+01  0.51100000000E-03 0.  1.
     100001    1    1    2    0    0  0.56478980275E-02  0.70313170636E-02 -0.20461288528E-01  0.50000500000E+01  0.50000000000E+01 0.  0.
     100001    1    1    2    0    0 -0.56478980275E-02 -0.70313170636E-02  0.20461288528E-01  0.50000500000E+01  0.50000000000E+01 0.  0.
</event>
<event>
 4    1  0.5040302E-001  0.5000050E+01  0.7818608E-02  0.2136455E+00
        -11   -1    0    0    0    0  0.00000000000E+00  0.00000000000E+00  0.50000499739E+01  0.50000500000E+01  0.51100000000E-03 0.  1.
         11   -1    0    0    0    0 -0.00000000000E+00 -0.00000000000E+00 -0.50000499739E+01  0.50000500000E+01  0.51100000000E-03 0. -1.
     100001    1    1    2    0    0  0.20809806479E-01 -0.66561903404E-02 -0.47591579586E-02  0.50000500000E+01  0.50000000000E+01 0.  0.
     100001    1    1    2    0    0 -0.20809806479E-01  0.66561903404E-02  0.47591579586E-02  0.50000500000E+01  0.50000000000E+01 0. -1.
</event>
<event>
 4    1  0.5040302E-001  0.5000050E+01  0.7818608E-02  0.2136455E+00
        -11   -1    0    0    0    0  0.00000000000E+00  0.00000000000E+00  0.50000499739E+01  0.50000500000E+01  0.51100000000E-03 0. -1.
         11   -1    0    0    0    0 -0.00000000000E+00 -0.00000000000E+00 -0.50000499739E+01  0.50000500000E+01  0.51100000000E-03 0.  1.
     100001    1    1    2    0    0  0.12820189381E-01  0.17366266354E-01 -0.58359264184E-02  0.50000500000E+01  0.50000000000E+01 0. -1.
     100001    1    1    2    0    0 -0.12820189381E-01 -0.17366266354E-01  0.58359264184E-02  0.50000500000E+01  0.50000000000E+01 0.  0.
</event>
<event>
 4    1  0.5040302E-001  0.5000050E+01  0.7818608E-02  0.2136455E+00
        -11   -1    0    0    0    0  0.00000000000E+00  0.00000000000E+00  0.50000499739E+01  0.50000500000E+01  0.51100000000E-03 0.  1.
         11   -1    0    0    0    0 -0.00000000000E+00 -0.00000000000E+00 -0.50000499739E+01  0.50000500000E+01  0.51100000000E-03 0. -1.
     100001    1    1    2    0    0 -0.19857226655E-02  0.99859913049E-02 -0.19908274238E-01  0.50000500000E+01  0.50000000000E+01 0. -1.
     100001    1    1    2    0    0  0.19857226655E-02 -0.99859913049E-02  0.19908274238E-01  0.50000500000E+01  0.50000000000E+01 0.  1.
</event>
<event>
 4    1  0.5040302E-001  0.5000050E+01  0.7818608E-02  0.2136455E+00
        -11   -1    0    0    0    0  0.00000000000E+00  0.00000000000E+00  0.50000499739E+01  0.50000500000E+01  0.51100000000E-03 0.  1.
         11   -1    0    0    0    0 -0.00000000000E+00 -0.00000000000E+00 -0.50000499739E+01  0.50000500000E+01  0.51100000000E-03 0. -1.
     100001    1    1    2    0    0 -0.50631733993E-02  0.21678392270E-01 -0.21009720905E-02  0.50000500000E+01  0.50000000000E+01 0.  1.
     100001    1    1    2    0    0  0.50631733993E-02 -0.21678392270E-01  0.21009720905E-02  0.50000500000E+01  0.50000000000E+01 0. -1.
</event>
<event>
 4    1  0.5040302E-001  0.5000050E+01  0.7818608E-02  0.2136455E+00
        -11   -1    0    0    0    0  0.00000000000E+00  0.00000000000E+00  0.50000499739E+01  0.50000500000E+01  0.51100000000E-03 0.  1.
         11   -1    0    0    0    0 -0.00000000000E+00 -0.00000000000E+00 -0.50000499739E+01  0.50000500000E+01  0.51100000000E-03 0. -1.
     100001    1    1    2    0    0 -0.15997377377E-01 -0.71001916503E-02  0.13916669702E-01  0.50000500000E+01  0.50000000000E+01 0.  0.
     100001    1    1    2    0    0  0.15997377377E-01  0.71001916503E-02 -0.13916669702E-01  0.50000500000E+01  0.50000000000E+01 0.  0.
</event>
<event>
 4    1  0.5040302E-001  0.5000050E+01  0.7818608E-02  0.2136455E+00
        -11   -1    0    0    0    0  0.00000000000E+00  0.00000000000E+00  0.50000499739E+01  0.50000500000E+01  0.51100000000E-03 0. -1.
         11   -1    0    0    0    0 -0.00000000000E+00 -0.00000000000E+00 -0.50000499739E+01  0.50000500000E+01  0.51100000000E-03 0.  1.
     100001    1    1    2    0    0 -0.18273328613E-01 -0.10466514678E-01 -0.75193105998E-02  0.50000500000E+01  0.50000000000E+01 0.  0.
     100001    1    1    2    0    0  0.18273328613E-01  0.10466514678E-01  0.75193105998E-02  0.50000500000E+01  0.50000000000E+01 0.  0.
</event>
<event>
 4    1  0.5040302E-001  0.5000050E+01  0.7818608E-02  0.2136455E+00
        -11   -1    0    0    0    0  0.00000000000E+00  0.00000000000E+00  0.50000499739E+01  0.50000500000E+01  0.51100000000E-03 0. -1.
         11   -1    0    0    0    0 -0.00000000000E+00 -0.00000000000E+00 -0.50000499739E+01  0.50000500000E+01  0.51100000000E-03 0.  1.
     100001    1    1    2    0    0 -0.11120884084E-01  0.12107795814E-02 -0.19361364879E-01  0.50000500000E+01  0.50000000000E+01 0.  1.
     100001    1    1    2    0    0  0.11120884084E-01 -0.12107795814E-02  0.19361364879E-01  0.50000500000E+01  0.50000000000E+01 0.  0.
</event>
<event>
 4    1  0.5040302E-001  0.5000050E+01  0.7818608E-02  0.2136455E+00
        -11   -1    0    0    0    0  0.00000000000E+00  0.00000000000E+00  0.50000499739E+01  0.50000500000E+01  0.51100000000E-03 0. -1.
         11   -1    0    0    0    0 -0.00000000000E+00 -0.00000000000E+00 -0.50000499739E+01  0.50000500000E+01  0.51100000000E-03 0.  1.
     100001    1    1    2    0    0 -0.15407227055E-01  0.12695552983E-01 -0.10071881102E-01  0.50000500000E+01  0.50000000000E+01 0.  1.
     100001    1    1    2    0    0  0.15407227055E-01 -0.12695552983E-01  0.10071881102E-01  0.50000500000E+01  0.50000000000E+01 0. -1.
</event>
<event>
 4    1  0.5040302E-001  0.5000050E+01  0.7818608E-02  0.2136455E+00
        -11   -1    0    0    0    0  0.00000000000E+00  0.00000000000E+00  0.50000499739E+01  0.50000500000E+01  0.51100000000E-03 0. -1.
         11   -1    0    0    0    0 -0.00000000000E+00 -0.00000000000E+00 -0.50000499739E+01  0.50000500000E+01  0.51100000000E-03 0.  1.
     100001    1    1    2    0    0 -0.35545460053E-02 -0.20939559036E-01 -0.69930372559E-02  0.50000500000E+01  0.50000000000E+01 0.  1.
     100001    1    1    2    0    0  0.35545460053E-02  0.20939559036E-01  0.69930372559E-02  0.50000500000E+01  0.50000000000E+01 0. -1.
</event>
<event>
 4    1  0.5040302E-001  0.5000050E+01  0.7818608E-02  0.2136455E+00
        -11   -1    0    0    0    0  0.00000000000E+00  0.00000000000E+00  0.50000499739E+01  0.50000500000E+01  0.51100000000E-03 0. -1.
         11   -1    0    0    0    0 -0.00000000000E+00 -0.00000000000E+00 -0.50000499739E+01  0.50000500000E+01  0.51100000000E-03 0.  1.
     100001    1    1    2    0    0  0.14852886466E-01  0.11083313142E-01  0.12512171412E-01  0.50000500000E+01  0.50000000000E+01 0. -1.
     100001    1    1    2    0    0 -0.14852886466E-01 -0.11083313142E-01 -0.12512171412E-01  0.50000500000E+01  0.50000000000E+01 0.  1.
</event>
<event>
 4    1  0.5040302E-001  0.5000050E+01  0.7818608E-02  0.2136455E+00
        -11   -1    0    0    0    0  0.00000000000E+00  0.00000000000E+00  0.50000499739E+01  0.50000500000E+01  0.51100000000E-03 0. -1.
         11   -1    0    0    0    0 -0.00000000000E+00 -0.00000000000E+00 -0.50000499739E+01  0.50000500000E+01  0.51100000000E-03 0.  1.
     100001    1    1    2    0    0 -0.20482685067E-01  0.89613119504E-02 -0.39623298530E-03  0.50000500000E+01  0.50000000000E+01 0. -1.
     100001    1    1    2    0    0  0.20482685067E-01 -0.89613119504E-02  0.39623298530E-03  0.50000500000E+01  0.50000000000E+01 0.  1.
</event>
<event>
 4    1  0.5040302E-001  0.5000050E+01  0.7818608E-02  0.2136455E+00
        -11   -1    0    0    0    0  0.00000000000E+00  0.00000000000E+00  0.50000499739E+01  0.50000500000E+01  0.51100000000E-03 0.  1.
         11   -1    0    0    0    0 -0.00000000000E+00 -0.00000000000E+00 -0.50000499739E+01  0.50000500000E+01  0.51100000000E-03 0. -1.
     100001    1    1    2    0    0  0.17771020316E-01 -0.75406155864E-02 -0.11284168267E-01  0.50000500000E+01  0.50000000000E+01 0. -1.
     100001    1    1    2    0    0 -0.17771020316E-01  0.75406155864E-02  0.11284168267E-01  0.50000500000E+01  0.50000000000E+01 0.  1.
</event>
<event>
 4    1  0.5040302E-001  0.5000050E+01  0.7818608E-02  0.2136455E+00
        -11   -1    0    0    0    0  0.00000000000E+00  0.00000000000E+00  0.50000499739E+01  0.50000500000E+01  0.51100000000E-03 0.  1.
         11   -1    0    0    0    0 -0.00000000000E+00 -0.00000000000E+00 -0.50000499739E+01  0.50000500000E+01  0.51100000000E-03 0. -1.
     100001    1    1    2    0    0  0.33049297398E-02  0.21912577526E-01 -0.29864503277E-02  0.50000500000E+01  0.50000000000E+01 0.  1.
     100001    1    1    2    0    0 -0.33049297398E-02 -0.21912577526E-01  0.29864503277E-02  0.50000500000E+01  0.50000000000E+01 0.  0.
</event>
<event>
 4    1  0.5040302E-001  0.5000050E+01  0.7818608E-02  0.2136455E+00
        -11   -1    0    0    0    0  0.00000000000E+00  0.00000000000E+00  0.50000499739E+01  0.50000500000E+01  0.51100000000E-03 0.  1.
         11   -1    0    0    0    0 -0.00000000000E+00 -0.00000000000E+00 -0.50000499739E+01  0.50000500000E+01  0.51100000000E-03 0. -1.
     100001    1    1    2    0    0 -0.11606067148E-01 -0.19013842947E-01 -0.19430598903E-02  0.50000500000E+01  0.50000000000E+01 0.  1.
     100001    1    1    2    0    0  0.11606067148E-01  0.19013842947E-01  0.19430598903E-02  0.50000500000E+01  0.50000000000E+01 0.  1.
</event>
<event>
 4    1  0.5040302E-001  0.5000050E+01  0.7818608E-02  0.2136455E+00
        -11   -1    0    0    0    0  0.00000000000E+00  0.00000000000E+00  0.50000499739E+01  0.50000500000E+01  0.51100000000E-03 0. -1.
         11   -1    0    0    0    0 -0.00000000000E+00 -0.00000000000E+00 -0.50000499739E+01  0.50000500000E+01  0.51100000000E-03 0.  1.
     100001    1    1    2    0    0 -0.80738773020E-02  0.13779441511E-01  0.15650622893E-01  0.50000500000E+01  0.50000000000E+01 0. -1.
     100001    1    1    2    0    0  0.80738773020E-02 -0.13779441511E-01 -0.15650622893E-01  0.50000500000E+01  0.50000000000E+01 0.  1.
</event>
<event>
 4    1  0.5040302E-001  0.5000050E+01  0.7818608E-02  0.2136455E+00
        -11   -1    0    0    0    0  0.00000000000E+00  0.00000000000E+00  0.50000499739E+01  0.50000500000E+01  0.51100000000E-03 0.  1.
         11   -1    0    0    0    0 -0.00000000000E+00 -0.00000000000E+00 -0.50000499739E+01  0.50000500000E+01  0.51100000000E-03 0. -1.
     100001    1    1    2    0    0 -0.67398971498E-02  0.18165195374E-01 -0.11162524957E-01  0.50000500000E+01  0.50000000000E+01 0. -1.
     100001    1    1    2    0    0  0.67398971498E-02 -0.18165195374E-01  0.11162524957E-01  0.50000500000E+01  0.50000000000E+01 0.  1.
</event>
<event>
 4    1  0.5040302E-001  0.5000050E+01  0.7818608E-02  0.2136455E+00
        -11   -1    0    0    0    0  0.00000000000E+00  0.00000000000E+00  0.50000499739E+01  0.50000500000E+01  0.51100000000E-03 0. -1.
         11   -1    0    0    0    0 -0.00000000000E+00 -0.00000000000E+00 -0.50000499739E+01  0.50000500000E+01  0.51100000000E-03 0.  1.
     100001    1    1    2    0    0  0.11737594451E-01 -0.14007278827E-01  0.12885166525E-01  0.50000500000E+01  0.50000000000E+01 0. -1.
     100001    1    1    2    0    0 -0.11737594451E-01  0.14007278827E-01 -0.12885166525E-01  0.50000500000E+01  0.50000000000E+01 0.  1.
</event>
<event>
 4    1  0.5040302E-001  0.5000050E+01  0.7818608E-02  0.2136455E+00
        -11   -1    0    0    0    0  0.00000000000E+00  0.00000000000E+00  0.50000499739E+01  0.50000500000E+01  0.51100000000E-03 0. -1.
         11   -1    0    0    0    0 -0.00000000000E+00 -0.00000000000E+00 -0.50000499739E+01  0.50000500000E+01  0.51100000000E-03 0.  1.
     100001    1    1    2    0    0 -0.81128553185E-03 -0.19175111656E-01 -0.11474293389E-01  0.50000500000E+01  0.50000000000E+01 0.  0.
     100001    1    1    2    0    0  0.81128553185E-03  0.19175111656E-01  0.11474293389E-01  0.50000500000E+01  0.50000000000E+01 0.  0.
</event>
<event>
 4    1  0.5040302E-001  0.5000050E+01  0.7818608E-02  0.2136455E+00
        -11   -1    0    0    0    0  0.00000000000E+00  0.00000000000E+00  0.50000499739E+01  0.50000500000E+01  0.51100000000E-03 0. -1.
         11   -1    0    0    0    0 -0.00000000000E+00 -0.00000000000E+00 -0.50000499739E+01  0.50000500000E+01  0.51100000000E-03 0.  1.
     100001    1    1    2    0    0 -0.19046374891E-01 -0.97973043117E-02  0.64226888243E-02  0.50000500000E+01  0.50000000000E+01 0. -1.
     100001    1    1    2    0    0  0.19046374891E-01  0.97973043117E-02 -0.64226888243E-02  0.50000500000E+01  0.50000000000E+01 0.  1.
</event>
<event>
 4    1  0.5040302E-001  0.5000050E+01  0.7818608E-02  0.2136455E+00
        -11   -1    0    0    0    0  0.00000000000E+00  0.00000000000E+00  0.50000499739E+01  0.50000500000E+01  0.51100000000E-03 0. -1.
         11   -1    0    0    0    0 -0.00000000000E+00 -0.00000000000E+00 -0.50000499739E+01  0.50000500000E+01  0.51100000000E-03 0.  1.
     100001    1    1    2    0    0  0.16301452498E-01  0.11970284064E-01  0.95382097839E-02  0.50000500000E+01  0.50000000000E+01 0. -1.
     100001    1    1    2    0    0 -0.16301452498E-01 -0.11970284064E-01 -0.95382097839E-02  0.50000500000E+01  0.50000000000E+01 0.  1.
</event>
<event>
 4    1  0.5040302E-001  0.5000050E+01  0.7818608E-02  0.2136455E+00
        -11   -1    0    0    0    0  0.00000000000E+00  0.00000000000E+00  0.50000499739E+01  0.50000500000E+01  0.51100000000E-03 0. -1.
         11   -1    0    0    0    0 -0.00000000000E+00 -0.00000000000E+00 -0.50000499739E+01  0.50000500000E+01  0.51100000000E-03 0.  1.
     100001    1    1    2    0    0  0.12183494369E-01 -0.18739062424E-01 -0.64226506545E-03  0.50000500000E+01  0.50000000000E+01 0.  1.
     100001    1    1    2    0    0 -0.12183494369E-01  0.18739062424E-01  0.64226506545E-03  0.50000500000E+01  0.50000000000E+01 0.  0.
</event>
<event>
 4    1  0.5040302E-001  0.5000050E+01  0.7818608E-02  0.2136455E+00
        -11   -1    0    0    0    0  0.00000000000E+00  0.00000000000E+00  0.50000499739E+01  0.50000500000E+01  0.51100000000E-03 0. -1.
         11   -1    0    0    0    0 -0.00000000000E+00 -0.00000000000E+00 -0.50000499739E+01  0.50000500000E+01  0.51100000000E-03 0.  1.
     100001    1    1    2    0    0  0.14762269783E-01 -0.15828211440E-01  0.56165481810E-02  0.50000500000E+01  0.50000000000E+01 0. -1.
     100001    1    1    2    0    0 -0.14762269783E-01  0.15828211440E-01 -0.56165481810E-02  0.50000500000E+01  0.50000000000E+01 0.  1.
</event>
<event>
 4    1  0.5040302E-001  0.5000050E+01  0.7818608E-02  0.2136455E+00
        -11   -1    0    0    0    0  0.00000000000E+00  0.00000000000E+00  0.50000499739E+01  0.50000500000E+01  0.51100000000E-03 0. -1.
         11   -1    0    0    0    0 -0.00000000000E+00 -0.00000000000E+00 -0.50000499739E+01  0.50000500000E+01  0.51100000000E-03 0.  1.
     100001    1    1    2    0    0 -0.46277307777E-02 -0.19627846041E-01 -0.96609661862E-02  0.50000500000E+01  0.50000000000E+01 0.  1.
     100001    1    1    2    0    0  0.46277307777E-02  0.19627846041E-01  0.96609661862E-02  0.50000500000E+01  0.50000000000E+01 0. -1.
</event>
<event>
 4    1  0.5040302E-001  0.5000050E+01  0.7818608E-02  0.2136455E+00
        -11   -1    0    0    0    0  0.00000000000E+00  0.00000000000E+00  0.50000499739E+01  0.50000500000E+01  0.51100000000E-03 0. -1.
         11   -1    0    0    0    0 -0.00000000000E+00 -0.00000000000E+00 -0.50000499739E+01  0.50000500000E+01  0.51100000000E-03 0.  1.
     100001    1    1    2    0    0 -0.21899499509E-01 -0.44716970176E-02  0.64679752179E-03  0.50000500000E+01  0.50000000000E+01 0. -1.
     100001    1    1    2    0    0  0.21899499509E-01  0.44716970176E-02 -0.64679752179E-03  0.50000500000E+01  0.50000000000E+01 0.  0.
</event>
<event>
 4    1  0.5040302E-001  0.5000050E+01  0.7818608E-02  0.2136455E+00
        -11   -1    0    0    0    0  0.00000000000E+00  0.00000000000E+00  0.50000499739E+01  0.50000500000E+01  0.51100000000E-03 0.  1.
         11   -1    0    0    0    0 -0.00000000000E+00 -0.00000000000E+00 -0.50000499739E+01  0.50000500000E+01  0.51100000000E-03 0. -1.
     100001    1    1    2    0    0  0.17922715062E-01  0.13070129970E-01 -0.28196608637E-02  0.50000500000E+01  0.50000000000E+01 0.  0.
     100001    1    1    2    0    0 -0.17922715062E-01 -0.13070129970E-01  0.28196608637E-02  0.50000500000E+01  0.50000000000E+01 0.  1.
</event>
<event>
 4    1  0.5040302E-001  0.5000050E+01  0.7818608E-02  0.2136455E+00
        -11   -1    0    0    0    0  0.00000000000E+00  0.00000000000E+00  0.50000499739E+01  0.50000500000E+01  0.51100000000E-03 0. -1.
         11   -1    0    0    0    0 -0.00000000000E+00 -0.00000000000E+00 -0.50000499739E+01  0.50000500000E+01  0.51100000000E-03 0.  1.
     100001    1    1    2    0    0  0.15026235097E-01  0.15785905016E-01 -0.50019957653E-02  0.50000500000E+01  0.50000000000E+01 0. -1.
     100001    1    1    2    0    0 -0.15026235097E-01 -0.15785905016E-01  0.50019957653E-02  0.50000500000E+01  0.50000000000E+01 0.  0.
</event>
<event>
 4    1  0.5040302E-001  0.5000050E+01  0.7818608E-02  0.2136455E+00
        -11   -1    0    0    0    0  0.00000000000E+00  0.00000000000E+00  0.50000499739E+01  0.50000500000E+01  0.51100000000E-03 0.  1.
         11   -1    0    0    0    0 -0.00000000000E+00 -0.00000000000E+00 -0.50000499739E+01  0.50000500000E+01  0.51100000000E-03 0. -1.
     100001    1    1    2    0    0 -0.12593960159E-01 -0.99804424067E-02  0.15549451337E-01  0.50000500000E+01  0.50000000000E+01 0. -1.
     100001    1    1    2    0    0  0.12593960159E-01  0.99804424067E-02 -0.15549451337E-01  0.50000500000E+01  0.50000000000E+01 0.  0.
</event>
<event>
 4    1  0.5040302E-001  0.5000050E+01  0.7818608E-02  0.2136455E+00
        -11   -1    0    0    0    0  0.00000000000E+00  0.00000000000E+00  0.50000499739E+01  0.50000500000E+01  0.51100000000E-03 0.  1.
         11   -1    0    0    0    0 -0.00000000000E+00 -0.00000000000E+00 -0.50000499739E+01  0.50000500000E+01  0.51100000000E-03 0. -1.
     100001    1    1    2    0    0  0.22063188417E-01  0.29178939472E-02  0.21688964416E-02  0.50000500000E+01  0.50000000000E+01 0.  1.
     100001    1    1    2    0    0 -0.22063188417E-01 -0.29178939472E-02 -0.21688964416E-02  0.50000500000E+01  0.50000000000E+01 0. -1.
</event>
<event>
 4    1  0.5040302E-001  0.5000050E+01  0.7818608E-02  0.2136455E+00
        -11   -1    0    0    0    0  0.00000000000E+00  0.00000000000E+00  0.50000499739E+01  0.50000500000E+01  0.51100000000E-03 0.  1.
         11   -1    0    0    0    0 -0.00000000000E+00 -0.00000000000E+00 -0.50000499739E+01  0.50000500000E+01  0.51100000000E-03 0. -1.
     100001    1    1    2    0    0 -0.97429002247E-02 -0.16918589186E-01 -0.10901363914E-01  0.50000500000E+01  0.50000000000E+01 0.  0.
     100001    1    1    2    0    0  0.97429002247E-02  0.16918589186E-01  0.10901363914E-01  0.50000500000E+01  0.50000000000E+01 0.  0.
</event>
<event>
 4    1  0.5040302E-001  0.5000050E+01  0.7818608E-02  0.2136455E+00
        -11   -1    0    0    0    0  0.00000000000E+00  0.00000000000E+00  0.50000499739E+01  0.50000500000E+01  0.51100000000E-03 0.  1.
         11   -1    0    0    0    0 -0.00000000000E+00 -0.00000000000E+00 -0.50000499739E+01  0.50000500000E+01  0.51100000000E-03 0. -1.
     100001    1    1    2    0    0  0.14317377242E-01 -0.18638857654E-02  0.17074575800E-01  0.50000500000E+01  0.50000000000E+01 0.  0.
     100001    1    1    2    0    0 -0.14317377242E-01  0.18638857654E-02 -0.17074575800E-01  0.50000500000E+01  0.50000000000E+01 0.  0.
</event>
<event>
 4    1  0.5040302E-001  0.5000050E+01  0.7818608E-02  0.2136455E+00
        -11   -1    0    0    0    0  0.00000000000E+00  0.00000000000E+00  0.50000499739E+01  0.50000500000E+01  0.51100000000E-03 0. -1.
         11   -1    0    0    0    0 -0.00000000000E+00 -0.00000000000E+00 -0.50000499739E+01  0.50000500000E+01  0.51100000000E-03 0.  1.
     100001    1    1    2    0    0  0.24056622275E-02  0.22002134749E-01 -0.31814078225E-02  0.50000500000E+01  0.50000000000E+01 0.  1.
     100001    1    1    2    0    0 -0.24056622275E-02 -0.22002134749E-01  0.31814078225E-02  0.50000500000E+01  0.50000000000E+01 0. -1.
</event>
<event>
 4    1  0.5040302E-001  0.5000050E+01  0.7818608E-02  0.2136455E+00
        -11   -1    0    0    0    0  0.00000000000E+00  0.00000000000E+00  0.50000499739E+01  0.50000500000E+01  0.51100000000E-03 0.  1.
         11   -1    0    0    0    0 -0.00000000000E+00 -0.00000000000E+00 -0.50000499739E+01  0.50000500000E+01  0.51100000000E-03 0. -1.
     100001    1    1    2    0    0  0.33356661474E-02 -0.21680978943E-01  0.43371630630E-02  0.50000500000E+01  0.50000000000E+01 0.  0.
     100001    1    1    2    0    0 -0.33356661474E-02  0.21680978943E-01 -0.43371630630E-02  0.50000500000E+01  0.50000000000E+01 0.  1.
</event>
<event>
 4    1  0.5040302E-001  0.5000050E+01  0.7818608E-02  0.2136455E+00
        -11   -1    0    0    0    0  0.00000000000E+00  0.00000000000E+00  0.50000499739E+01  0.50000500000E+01  0.51100000000E-03 0.  1.
         11   -1    0    0    0    0 -0.00000000000E+00 -0.00000000000E+00 -0.50000499739E+01  0.50000500000E+01  0.51100000000E-03 0. -1.
     100001    1    1    2    0    0  0.22647108222E-02 -0.22105926366E-01 -0.24903020645E-02  0.50000500000E+01  0.50000000000E+01 0.  0.
     100001    1    1    2    0    0 -0.22647108222E-02  0.22105926366E-01  0.24903020645E-02  0.50000500000E+01  0.50000000000E+01 0.  1.
</event>
<event>
 4    1  0.5040302E-001  0.5000050E+01  0.7818608E-02  0.2136455E+00
        -11   -1    0    0    0    0  0.00000000000E+00  0.00000000000E+00  0.50000499739E+01  0.50000500000E+01  0.51100000000E-03 0.  1.
         11   -1    0    0    0    0 -0.00000000000E+00 -0.00000000000E+00 -0.50000499739E+01  0.50000500000E+01  0.51100000000E-03 0. -1.
     100001    1    1    2    0    0 -0.50034536422E-02 -0.17397562464E-01  0.13126034129E-01  0.50000500000E+01  0.50000000000E+01 0. -1.
     100001    1    1    2    0    0  0.50034536422E-02  0.17397562464E-01 -0.13126034129E-01  0.50000500000E+01  0.50000000000E+01 0. -1.
</event>
<event>
 4    1  0.5040302E-001  0.5000050E+01  0.7818608E-02  0.2136455E+00
        -11   -1    0    0    0    0  0.00000000000E+00  0.00000000000E+00  0.50000499739E+01  0.50000500000E+01  0.51100000000E-03 0. -1.
         11   -1    0    0    0    0 -0.00000000000E+00 -0.00000000000E+00 -0.50000499739E+01  0.50000500000E+01  0.51100000000E-03 0.  1.
     100001    1    1    2    0    0 -0.11862409326E-01 -0.89235130504E-02 -0.16722938134E-01  0.50000500000E+01  0.50000000000E+01 0.  0.
     100001    1    1    2    0    0  0.11862409326E-01  0.89235130504E-02  0.16722938134E-01  0.50000500000E+01  0.50000000000E+01 0. -1.
</event>
<event>
 4    1  0.5040302E-001  0.5000050E+01  0.7818608E-02  0.2136455E+00
        -11   -1    0    0    0    0  0.00000000000E+00  0.00000000000E+00  0.50000499739E+01  0.50000500000E+01  0.51100000000E-03 0. -1.
         11   -1    0    0    0    0 -0.00000000000E+00 -0.00000000000E+00 -0.50000499739E+01  0.50000500000E+01  0.51100000000E-03 0.  1.
     100001    1    1    2    0    0 -0.74552034643E-02  0.73646186950E-03  0.21068461387E-01  0.50000500000E+01  0.50000000000E+01 0. -1.
     100001    1    1    2    0    0  0.74552034643E-02 -0.73646186950E-03 -0.21068461387E-01  0.50000500000E+01  0.50000000000E+01 0.  0.
</event>
<event>
 4    1  0.5040302E-001  0.5000050E+01  0.7818608E-02  0.2136455E+00
        -11   -1    0    0    0    0  0.00000000000E+00  0.00000000000E+00  0.50000499739E+01  0.50000500000E+01  0.51100000000E-03 0.  1.
         11   -1    0    0    0    0 -0.00000000000E+00 -0.00000000000E+00 -0.50000499739E+01  0.50000500000E+01  0.51100000000E-03 0. -1.
     100001    1    1    2    0    0  0.19216394236E-01  0.72714308149E-02 -0.88237739349E-02  0.50000500000E+01  0.50000000000E+01 0.  0.
     100001    1    1    2    0    0 -0.19216394236E-01 -0.72714308149E-02  0.88237739349E-02  0.50000500000E+01  0.50000000000E+01 0.  0.
</event>
<event>
 4    1  0.5040302E-001  0.5000050E+01  0.7818608E-02  0.2136455E+00
        -11   -1    0    0    0    0  0.00000000000E+00  0.00000000000E+00  0.50000499739E+01  0.50000500000E+01  0.51100000000E-03 0.  1.
         11   -1    0    0    0    0 -0.00000000000E+00 -0.00000000000E+00 -0.50000499739E+01  0.50000500000E+01  0.51100000000E-03 0. -1.
     100001    1    1    2    0    0  0.81422569478E-02 -0.85214324917E-02 -0.19002403534E-01  0.50000500000E+01  0.50000000000E+01 0.  0.
     100001    1    1    2    0    0 -0.81422569478E-02  0.85214324917E-02  0.19002403534E-01  0.50000500000E+01  0.50000000000E+01 0.  0.
</event>
<event>
 4    1  0.5040302E-001  0.5000050E+01  0.7818608E-02  0.2136455E+00
        -11   -1    0    0    0    0  0.00000000000E+00  0.00000000000E+00  0.50000499739E+01  0.50000500000E+01  0.51100000000E-03 0.  1.
         11   -1    0    0    0    0 -0.00000000000E+00 -0.00000000000E+00 -0.50000499739E+01  0.50000500000E+01  0.51100000000E-03 0. -1.
     100001    1    1    2    0    0  0.13103038164E-01  0.17703666101E-01 -0.38591576096E-02  0.50000500000E+01  0.50000000000E+01 0.  0.
     100001    1    1    2    0    0 -0.13103038164E-01 -0.17703666101E-01  0.38591576096E-02  0.50000500000E+01  0.50000000000E+01 0. -1.
</event>
<event>
 4    1  0.1791863E+000  0.5000050E+01  0.7818608E-02  0.2136455E+00
        -11   -1    0    0    0    0  0.00000000000E+00  0.00000000000E+00  0.50000499739E+01  0.50000500000E+01  0.51100000000E-03 0.  1.
         11   -1    0    0    0    0 -0.00000000000E+00 -0.00000000000E+00 -0.50000499739E+01  0.50000500000E+01  0.51100000000E-03 0. -1.
     100001    1    1    2    0    0  0.30995792221E-02 -0.94829912975E-04 -0.22144663374E-01  0.50000500000E+01  0.50000000000E+01 0. -1.
     100001    1    1    2    0    0 -0.30995792221E-02  0.94829912975E-04  0.22144663374E-01  0.50000500000E+01  0.50000000000E+01 0.  0.
</event>
<event>
 4    1  0.5040302E-001  0.5000050E+01  0.7818608E-02  0.2136455E+00
        -11   -1    0    0    0    0  0.00000000000E+00  0.00000000000E+00  0.50000499739E+01  0.50000500000E+01  0.51100000000E-03 0.  1.
         11   -1    0    0    0    0 -0.00000000000E+00 -0.00000000000E+00 -0.50000499739E+01  0.50000500000E+01  0.51100000000E-03 0. -1.
     100001    1    1    2    0    0  0.34981783111E-02 -0.19561028646E-01 -0.10253360756E-01  0.50000500000E+01  0.50000000000E+01 0.  0.
     100001    1    1    2    0    0 -0.34981783111E-02  0.19561028646E-01  0.10253360756E-01  0.50000500000E+01  0.50000000000E+01 0.  0.
</event>
<event>
 4    1  0.5040302E-001  0.5000050E+01  0.7818608E-02  0.2136455E+00
        -11   -1    0    0    0    0  0.00000000000E+00  0.00000000000E+00  0.50000499739E+01  0.50000500000E+01  0.51100000000E-03 0. -1.
         11   -1    0    0    0    0 -0.00000000000E+00 -0.00000000000E+00 -0.50000499739E+01  0.50000500000E+01  0.51100000000E-03 0.  1.
     100001    1    1    2    0    0  0.16924612982E-01  0.12358321443E-01  0.77994786062E-02  0.50000500000E+01  0.50000000000E+01 0.  0.
     100001    1    1    2    0    0 -0.16924612982E-01 -0.12358321443E-01 -0.77994786062E-02  0.50000500000E+01  0.50000000000E+01 0. -1.
</event>
<event>
 4    1  0.5040302E-001  0.5000050E+01  0.7818608E-02  0.2136455E+00
        -11   -1    0    0    0    0  0.00000000000E+00  0.00000000000E+00  0.50000499739E+01  0.50000500000E+01  0.51100000000E-03 0.  1.
         11   -1    0    0    0    0 -0.00000000000E+00 -0.00000000000E+00 -0.50000499739E+01  0.50000500000E+01  0.51100000000E-03 0. -1.
     100001    1    1    2    0    0 -0.15469350766E-01  0.10905037947E-02 -0.16109391309E-01  0.50000500000E+01  0.50000000000E+01 0. -1.
     100001    1    1    2    0    0  0.15469350766E-01 -0.10905037947E-02  0.16109391309E-01  0.50000500000E+01  0.50000000000E+01 0.  1.
</event>
<event>
 4    1  0.5040302E-001  0.5000050E+01  0.7818608E-02  0.2136455E+00
        -11   -1    0    0    0    0  0.00000000000E+00  0.00000000000E+00  0.50000499739E+01  0.50000500000E+01  0.51100000000E-03 0.  1.
         11   -1    0    0    0    0 -0.00000000000E+00 -0.00000000000E+00 -0.50000499739E+01  0.50000500000E+01  0.51100000000E-03 0. -1.
     100001    1    1    2    0    0 -0.99524815871E-02  0.19319935467E-01 -0.52621957206E-02  0.50000500000E+01  0.50000000000E+01 0.  1.
     100001    1    1    2    0    0  0.99524815871E-02 -0.19319935467E-01  0.52621957206E-02  0.50000500000E+01  0.50000000000E+01 0.  0.
</event>
<event>
 4    1  0.5040302E-001  0.5000050E+01  0.7818608E-02  0.2136455E+00
        -11   -1    0    0    0    0  0.00000000000E+00  0.00000000000E+00  0.50000499739E+01  0.50000500000E+01  0.51100000000E-03 0.  1.
         11   -1    0    0    0    0 -0.00000000000E+00 -0.00000000000E+00 -0.50000499739E+01  0.50000500000E+01  0.51100000000E-03 0. -1.
     100001    1    1    2    0    0  0.20439031369E-01 -0.62119284625E-03  0.90477962030E-02  0.50000500000E+01  0.50000000000E+01 0.  1.
     100001    1    1    2    0    0 -0.20439031369E-01  0.62119284625E-03 -0.90477962030E-02  0.50000500000E+01  0.50000000000E+01 0.  1.
</event>
<event>
 4    1  0.5040302E-001  0.5000050E+01  0.7818608E-02  0.2136455E+00
        -11   -1    0    0    0    0  0.00000000000E+00  0.00000000000E+00  0.50000499739E+01  0.50000500000E+01  0.51100000000E-03 0. -1.
         11   -1    0    0    0    0 -0.00000000000E+00 -0.00000000000E+00 -0.50000499739E+01  0.50000500000E+01  0.51100000000E-03 0.  1.
     100001    1    1    2    0    0 -0.20555861627E-01  0.70877065966E-02 -0.52176113299E-02  0.50000500000E+01  0.50000000000E+01 0.  1.
     100001    1    1    2    0    0  0.20555861627E-01 -0.70877065966E-02  0.52176113299E-02  0.50000500000E+01  0.50000000000E+01 0. -1.
</event>
<event>
 4    1  0.5040302E-001  0.5000050E+01  0.7818608E-02  0.2136455E+00
        -11   -1    0    0    0    0  0.00000000000E+00  0.00000000000E+00  0.50000499739E+01  0.50000500000E+01  0.51100000000E-03 0. -1.
         11   -1    0    0    0    0 -0.00000000000E+00 -0.00000000000E+00 -0.50000499739E+01  0.50000500000E+01  0.51100000000E-03 0.  1.
     100001    1    1    2    0    0  0.47853205460E-02  0.17914292227E-01  0.12497253349E-01  0.50000500000E+01  0.50000000000E+01 0.  1.
     100001    1    1    2    0    0 -0.47853205460E-02 -0.17914292227E-01 -0.12497253349E-01  0.50000500000E+01  0.50000000000E+01 0.  1.
</event>
<event>
 4    1  0.5040302E-001  0.5000050E+01  0.7818608E-02  0.2136455E+00
        -11   -1    0    0    0    0  0.00000000000E+00  0.00000000000E+00  0.50000499739E+01  0.50000500000E+01  0.51100000000E-03 0.  1.
         11   -1    0    0    0    0 -0.00000000000E+00 -0.00000000000E+00 -0.50000499739E+01  0.50000500000E+01  0.51100000000E-03 0. -1.
     100001    1    1    2    0    0 -0.20642977600E-01  0.65085063373E-02  0.56133164038E-02  0.50000500000E+01  0.50000000000E+01 0.  1.
     100001    1    1    2    0    0  0.20642977600E-01 -0.65085063373E-02 -0.56133164038E-02  0.50000500000E+01  0.50000000000E+01 0. -1.
</event>
<event>
 4    1  0.5040302E-001  0.5000050E+01  0.7818608E-02  0.2136455E+00
        -11   -1    0    0    0    0  0.00000000000E+00  0.00000000000E+00  0.50000499739E+01  0.50000500000E+01  0.51100000000E-03 0. -1.
         11   -1    0    0    0    0 -0.00000000000E+00 -0.00000000000E+00 -0.50000499739E+01  0.50000500000E+01  0.51100000000E-03 0.  1.
     100001    1    1    2    0    0  0.10011291036E-01 -0.14810692209E-01 -0.13432049288E-01  0.50000500000E+01  0.50000000000E+01 0.  0.
     100001    1    1    2    0    0 -0.10011291036E-01  0.14810692209E-01  0.13432049288E-01  0.50000500000E+01  0.50000000000E+01 0. -1.
</event>
<event>
 4    1  0.5040302E-001  0.5000050E+01  0.7818608E-02  0.2136455E+00
        -11   -1    0    0    0    0  0.00000000000E+00  0.00000000000E+00  0.50000499739E+01  0.50000500000E+01  0.51100000000E-03 0.  1.
         11   -1    0    0    0    0 -0.00000000000E+00 -0.00000000000E+00 -0.50000499739E+01  0.50000500000E+01  0.51100000000E-03 0. -1.
     100001    1    1    2    0    0 -0.29133262560E-02  0.92078139953E-02  0.20167577731E-01  0.50000500000E+01  0.50000000000E+01 0.  0.
     100001    1    1    2    0    0  0.29133262560E-02 -0.92078139953E-02 -0.20167577731E-01  0.50000500000E+01  0.50000000000E+01 0. -1.
</event>
<event>
 4    1  0.5040302E-001  0.5000050E+01  0.7818608E-02  0.2136455E+00
        -11   -1    0    0    0    0  0.00000000000E+00  0.00000000000E+00  0.50000499739E+01  0.50000500000E+01  0.51100000000E-03 0.  1.
         11   -1    0    0    0    0 -0.00000000000E+00 -0.00000000000E+00 -0.50000499739E+01  0.50000500000E+01  0.51100000000E-03 0. -1.
     100001    1    1    2    0    0  0.18569183823E-01  0.12443686768E-01  0.58529631300E-03  0.50000500000E+01  0.50000000000E+01 0.  1.
     100001    1    1    2    0    0 -0.18569183823E-01 -0.12443686768E-01 -0.58529631300E-03  0.50000500000E+01  0.50000000000E+01 0. -1.
</event>
<event>
 4    1  0.5040302E-001  0.5000050E+01  0.7818608E-02  0.2136455E+00
        -11   -1    0    0    0    0  0.00000000000E+00  0.00000000000E+00  0.50000499739E+01  0.50000500000E+01  0.51100000000E-03 0. -1.
         11   -1    0    0    0    0 -0.00000000000E+00 -0.00000000000E+00 -0.50000499739E+01  0.50000500000E+01  0.51100000000E-03 0.  1.
     100001    1    1    2    0    0  0.79837497066E-02  0.20657396463E-01  0.30877519285E-02  0.50000500000E+01  0.50000000000E+01 0. -1.
     100001    1    1    2    0    0 -0.79837497066E-02 -0.20657396463E-01 -0.30877519285E-02  0.50000500000E+01  0.50000000000E+01 0.  1.
</event>
<event>
 4    1  0.5040302E-001  0.5000050E+01  0.7818608E-02  0.2136455E+00
        -11   -1    0    0    0    0  0.00000000000E+00  0.00000000000E+00  0.50000499739E+01  0.50000500000E+01  0.51100000000E-03 0. -1.
         11   -1    0    0    0    0 -0.00000000000E+00 -0.00000000000E+00 -0.50000499739E+01  0.50000500000E+01  0.51100000000E-03 0.  1.
     100001    1    1    2    0    0  0.92071416363E-02  0.82160056945E-02  0.18647474181E-01  0.50000500000E+01  0.50000000000E+01 0. -1.
     100001    1    1    2    0    0 -0.92071416363E-02 -0.82160056945E-02 -0.18647474181E-01  0.50000500000E+01  0.50000000000E+01 0.  0.
</event>
<event>
 4    1  0.5040302E-001  0.5000050E+01  0.7818608E-02  0.2136455E+00
        -11   -1    0    0    0    0  0.00000000000E+00  0.00000000000E+00  0.50000499739E+01  0.50000500000E+01  0.51100000000E-03 0.  1.
         11   -1    0    0    0    0 -0.00000000000E+00 -0.00000000000E+00 -0.50000499739E+01  0.50000500000E+01  0.51100000000E-03 0. -1.
     100001    1    1    2    0    0 -0.72852402569E-02  0.10207886901E-01 -0.18512882526E-01  0.50000500000E+01  0.50000000000E+01 0. -1.
     100001    1    1    2    0    0  0.72852402569E-02 -0.10207886901E-01  0.18512882526E-01  0.50000500000E+01  0.50000000000E+01 0.  0.
</event>
<event>
 4    1  0.5040302E-001  0.5000050E+01  0.7818608E-02  0.2136455E+00
        -11   -1    0    0    0    0  0.00000000000E+00  0.00000000000E+00  0.50000499739E+01  0.50000500000E+01  0.51100000000E-03 0.  1.
         11   -1    0    0    0    0 -0.00000000000E+00 -0.00000000000E+00 -0.50000499739E+01  0.50000500000E+01  0.51100000000E-03 0. -1.
     100001    1    1    2    0    0 -0.78668078568E-03  0.19704471007E-01 -0.10541226479E-01  0.50000500000E+01  0.50000000000E+01 0. -1.
     100001    1    1    2    0    0  0.78668078568E-03 -0.19704471007E-01  0.10541226479E-01  0.50000500000E+01  0.50000000000E+01 0.  1.
</event>
<event>
 4    1  0.5040302E-001  0.5000050E+01  0.7818608E-02  0.2136455E+00
        -11   -1    0    0    0    0  0.00000000000E+00  0.00000000000E+00  0.50000499739E+01  0.50000500000E+01  0.51100000000E-03 0. -1.
         11   -1    0    0    0    0 -0.00000000000E+00 -0.00000000000E+00 -0.50000499739E+01  0.50000500000E+01  0.51100000000E-03 0.  1.
     100001    1    1    2    0    0 -0.18094409072E-01 -0.69731826149E-02  0.11134162947E-01  0.50000500000E+01  0.50000000000E+01 0. -1.
     100001    1    1    2    0    0  0.18094409072E-01  0.69731826149E-02 -0.11134162947E-01  0.50000500000E+01  0.50000000000E+01 0.  1.
</event>
<event>
 4    1  0.5040302E-001  0.5000050E+01  0.7818608E-02  0.2136455E+00
        -11   -1    0    0    0    0  0.00000000000E+00  0.00000000000E+00  0.50000499739E+01  0.50000500000E+01  0.51100000000E-03 0.  1.
         11   -1    0    0    0    0 -0.00000000000E+00 -0.00000000000E+00 -0.50000499739E+01  0.50000500000E+01  0.51100000000E-03 0. -1.
     100001    1    1    2    0    0 -0.19500504177E-01 -0.90633995968E-02 -0.61308746989E-02  0.50000500000E+01  0.50000000000E+01 0. -1.
     100001    1    1    2    0    0  0.19500504177E-01  0.90633995968E-02  0.61308746989E-02  0.50000500000E+01  0.50000000000E+01 0.  1.
</event>
<event>
 4    1  0.5040302E-001  0.5000050E+01  0.7818608E-02  0.2136455E+00
        -11   -1    0    0    0    0  0.00000000000E+00  0.00000000000E+00  0.50000499739E+01  0.50000500000E+01  0.51100000000E-03 0.  1.
         11   -1    0    0    0    0 -0.00000000000E+00 -0.00000000000E+00 -0.50000499739E+01  0.50000500000E+01  0.51100000000E-03 0. -1.
     100001    1    1    2    0    0  0.65099978760E-02 -0.19972093234E-01 -0.76640667720E-02  0.50000500000E+01  0.50000000000E+01 0.  0.
     100001    1    1    2    0    0 -0.65099978760E-02  0.19972093234E-01  0.76640667720E-02  0.50000500000E+01  0.50000000000E+01 0. -1.
</event>
<event>
 4    1  0.5040302E-001  0.5000050E+01  0.7818608E-02  0.2136455E+00
        -11   -1    0    0    0    0  0.00000000000E+00  0.00000000000E+00  0.50000499739E+01  0.50000500000E+01  0.51100000000E-03 0. -1.
         11   -1    0    0    0    0 -0.00000000000E+00 -0.00000000000E+00 -0.50000499739E+01  0.50000500000E+01  0.51100000000E-03 0.  1.
     100001    1    1    2    0    0  0.69928378855E-02  0.19838733397E-01  0.75846803167E-02  0.50000500000E+01  0.50000000000E+01 0.  1.
     100001    1    1    2    0    0 -0.69928378855E-02 -0.19838733397E-01 -0.75846803167E-02  0.50000500000E+01  0.50000000000E+01 0. -1.
</event>
<event>
 4    1  0.5040302E-001  0.5000050E+01  0.7818608E-02  0.2136455E+00
        -11   -1    0    0    0    0  0.00000000000E+00  0.00000000000E+00  0.50000499739E+01  0.50000500000E+01  0.51100000000E-03 0.  1.
         11   -1    0    0    0    0 -0.00000000000E+00 -0.00000000000E+00 -0.50000499739E+01  0.50000500000E+01  0.51100000000E-03 0. -1.
     100001    1    1    2    0    0  0.39499424998E-02  0.17902444339E-01  0.12802458394E-01  0.50000500000E+01  0.50000000000E+01 0. -1.
     100001    1    1    2    0    0 -0.39499424998E-02 -0.17902444339E-01 -0.12802458394E-01  0.50000500000E+01  0.50000000000E+01 0.  0.
</event>
<event>
 4    1  0.5040302E-001  0.5000050E+01  0.7818608E-02  0.2136455E+00
        -11   -1    0    0    0    0  0.00000000000E+00  0.00000000000E+00  0.50000499739E+01  0.50000500000E+01  0.51100000000E-03 0.  1.
         11   -1    0    0    0    0 -0.00000000000E+00 -0.00000000000E+00 -0.50000499739E+01  0.50000500000E+01  0.51100000000E-03 0. -1.
     100001    1    1    2    0    0  0.18842429021E-01  0.61374124821E-02  0.10358452423E-01  0.50000500000E+01  0.50000000000E+01 0.  1.
     100001    1    1    2    0    0 -0.18842429021E-01 -0.61374124821E-02 -0.10358452423E-01  0.50000500000E+01  0.50000000000E+01 0. -1.
</event>
<event>
 4    1  0.5040302E-001  0.5000050E+01  0.7818608E-02  0.2136455E+00
        -11   -1    0    0    0    0  0.00000000000E+00  0.00000000000E+00  0.50000499739E+01  0.50000500000E+01  0.51100000000E-03 0. -1.
         11   -1    0    0    0    0 -0.00000000000E+00 -0.00000000000E+00 -0.50000499739E+01  0.50000500000E+01  0.51100000000E-03 0.  1.
     100001    1    1    2    0    0  0.17280468824E-01 -0.64540211824E-02  0.12638572222E-01  0.50000500000E+01  0.50000000000E+01 0.  0.
     100001    1    1    2    0    0 -0.17280468824E-01  0.64540211824E-02 -0.12638572222E-01  0.50000500000E+01  0.50000000000E+01 0. -1.
</event>
<event>
 4    1  0.5040302E-001  0.5000050E+01  0.7818608E-02  0.2136455E+00
        -11   -1    0    0    0    0  0.00000000000E+00  0.00000000000E+00  0.50000499739E+01  0.50000500000E+01  0.51100000000E-03 0. -1.
         11   -1    0    0    0    0 -0.00000000000E+00 -0.00000000000E+00 -0.50000499739E+01  0.50000500000E+01  0.51100000000E-03 0.  1.
     100001    1    1    2    0    0 -0.17918268392E-01  0.10836538947E-01 -0.78426769319E-02  0.50000500000E+01  0.50000000000E+01 0.  0.
     100001    1    1    2    0    0  0.17918268392E-01 -0.10836538947E-01  0.78426769319E-02  0.50000500000E+01  0.50000000000E+01 0.  1.
</event>
<event>
 4    1  0.5040302E-001  0.5000050E+01  0.7818608E-02  0.2136455E+00
        -11   -1    0    0    0    0  0.00000000000E+00  0.00000000000E+00  0.50000499739E+01  0.50000500000E+01  0.51100000000E-03 0.  1.
         11   -1    0    0    0    0 -0.00000000000E+00 -0.00000000000E+00 -0.50000499739E+01  0.50000500000E+01  0.51100000000E-03 0. -1.
     100001    1    1    2    0    0 -0.30876119257E-02 -0.14332516221E-01 -0.16883368484E-01  0.50000500000E+01  0.50000000000E+01 0. -1.
     100001    1    1    2    0    0  0.30876119257E-02  0.14332516221E-01  0.16883368484E-01  0.50000500000E+01  0.50000000000E+01 0.  1.
</event>
<event>
 4    1  0.5040302E-001  0.5000050E+01  0.7818608E-02  0.2136455E+00
        -11   -1    0    0    0    0  0.00000000000E+00  0.00000000000E+00  0.50000499739E+01  0.50000500000E+01  0.51100000000E-03 0. -1.
         11   -1    0    0    0    0 -0.00000000000E+00 -0.00000000000E+00 -0.50000499739E+01  0.50000500000E+01  0.51100000000E-03 0.  1.
     100001    1    1    2    0    0  0.24612774889E-02  0.20470649197E-01  0.86543130617E-02  0.50000500000E+01  0.50000000000E+01 0. -1.
     100001    1    1    2    0    0 -0.24612774889E-02 -0.20470649197E-01 -0.86543130617E-02  0.50000500000E+01  0.50000000000E+01 0.  1.
</event>
<event>
 4    1  0.5040302E-001  0.5000050E+01  0.7818608E-02  0.2136455E+00
        -11   -1    0    0    0    0  0.00000000000E+00  0.00000000000E+00  0.50000499739E+01  0.50000500000E+01  0.51100000000E-03 0.  1.
         11   -1    0    0    0    0 -0.00000000000E+00 -0.00000000000E+00 -0.50000499739E+01  0.50000500000E+01  0.51100000000E-03 0. -1.
     100001    1    1    2    0    0  0.28889620975E-02 -0.21564853617E-01  0.51588260764E-02  0.50000500000E+01  0.50000000000E+01 0.  0.
     100001    1    1    2    0    0 -0.28889620975E-02  0.21564853617E-01 -0.51588260764E-02  0.50000500000E+01  0.50000000000E+01 0.  1.
</event>
<event>
 4    1  0.5040302E-001  0.5000050E+01  0.7818608E-02  0.2136455E+00
        -11   -1    0    0    0    0  0.00000000000E+00  0.00000000000E+00  0.50000499739E+01  0.50000500000E+01  0.51100000000E-03 0. -1.
         11   -1    0    0    0    0 -0.00000000000E+00 -0.00000000000E+00 -0.50000499739E+01  0.50000500000E+01  0.51100000000E-03 0.  1.
     100001    1    1    2    0    0 -0.32496308860E-02 -0.19563098705E-02 -0.22036679668E-01  0.50000500000E+01  0.50000000000E+01 0.  0.
     100001    1    1    2    0    0  0.32496308860E-02  0.19563098705E-02  0.22036679668E-01  0.50000500000E+01  0.50000000000E+01 0. -1.
</event>
<event>
 4    1  0.5040302E-001  0.5000050E+01  0.7818608E-02  0.2136455E+00
        -11   -1    0    0    0    0  0.00000000000E+00  0.00000000000E+00  0.50000499739E+01  0.50000500000E+01  0.51100000000E-03 0. -1.
         11   -1    0    0    0    0 -0.00000000000E+00 -0.00000000000E+00 -0.50000499739E+01  0.50000500000E+01  0.51100000000E-03 0.  1.
     100001    1    1    2    0    0 -0.90310945123E-02  0.19637463150E-01  0.57281648846E-02  0.50000500000E+01  0.50000000000E+01 0. -1.
     100001    1    1    2    0    0  0.90310945123E-02 -0.19637463150E-01 -0.57281648846E-02  0.50000500000E+01  0.50000000000E+01 0.  1.
</event>
<event>
 4    1  0.5040302E-001  0.5000050E+01  0.7818608E-02  0.2136455E+00
        -11   -1    0    0    0    0  0.00000000000E+00  0.00000000000E+00  0.50000499739E+01  0.50000500000E+01  0.51100000000E-03 0.  1.
         11   -1    0    0    0    0 -0.00000000000E+00 -0.00000000000E+00 -0.50000499739E+01  0.50000500000E+01  0.51100000000E-03 0. -1.
     100001    1    1    2    0    0 -0.82246369075E-02 -0.12992785066E-01  0.16234080940E-01  0.50000500000E+01  0.50000000000E+01 0.  0.
     100001    1    1    2    0    0  0.82246369075E-02  0.12992785066E-01 -0.16234080940E-01  0.50000500000E+01  0.50000000000E+01 0.  0.
</event>
<event>
 4    1  0.5040302E-001  0.5000050E+01  0.7818608E-02  0.2136455E+00
        -11   -1    0    0    0    0  0.00000000000E+00  0.00000000000E+00  0.50000499739E+01  0.50000500000E+01  0.51100000000E-03 0. -1.
         11   -1    0    0    0    0 -0.00000000000E+00 -0.00000000000E+00 -0.50000499739E+01  0.50000500000E+01  0.51100000000E-03 0.  1.
     100001    1    1    2    0    0 -0.17112020231E-01  0.69227637781E-02 -0.12619691173E-01  0.50000500000E+01  0.50000000000E+01 0.  0.
     100001    1    1    2    0    0  0.17112020231E-01 -0.69227637781E-02  0.12619691173E-01  0.50000500000E+01  0.50000000000E+01 0.  0.
</event>
<event>
 4    1  0.5040302E-001  0.5000050E+01  0.7818608E-02  0.2136455E+00
        -11   -1    0    0    0    0  0.00000000000E+00  0.00000000000E+00  0.50000499739E+01  0.50000500000E+01  0.51100000000E-03 0.  1.
         11   -1    0    0    0    0 -0.00000000000E+00 -0.00000000000E+00 -0.50000499739E+01  0.50000500000E+01  0.51100000000E-03 0. -1.
     100001    1    1    2    0    0 -0.78105087425E-02  0.20369066146E-01 -0.49091340896E-02  0.50000500000E+01  0.50000000000E+01 0. -1.
     100001    1    1    2    0    0  0.78105087425E-02 -0.20369066146E-01  0.49091340896E-02  0.50000500000E+01  0.50000000000E+01 0.  1.
</event>
<event>
 4    1  0.5040302E-001  0.5000050E+01  0.7818608E-02  0.2136455E+00
        -11   -1    0    0    0    0  0.00000000000E+00  0.00000000000E+00  0.50000499739E+01  0.50000500000E+01  0.51100000000E-03 0.  1.
         11   -1    0    0    0    0 -0.00000000000E+00 -0.00000000000E+00 -0.50000499739E+01  0.50000500000E+01  0.51100000000E-03 0. -1.
     100001    1    1    2    0    0  0.15429290189E-01 -0.12426189570E-01  0.10369634373E-01  0.50000500000E+01  0.50000000000E+01 0. -1.
     100001    1    1    2    0    0 -0.15429290189E-01  0.12426189570E-01 -0.10369634373E-01  0.50000500000E+01  0.50000000000E+01 0.  0.
</event>
<event>
 4    1  0.5040302E-001  0.5000050E+01  0.7818608E-02  0.2136455E+00
        -11   -1    0    0    0    0  0.00000000000E+00  0.00000000000E+00  0.50000499739E+01  0.50000500000E+01  0.51100000000E-03 0. -1.
         11   -1    0    0    0    0 -0.00000000000E+00 -0.00000000000E+00 -0.50000499739E+01  0.50000500000E+01  0.51100000000E-03 0.  1.
     100001    1    1    2    0    0 -0.20222909348E-01 -0.95330780240E-02  0.39605668753E-03  0.50000500000E+01  0.50000000000E+01 0.  1.
     100001    1    1    2    0    0  0.20222909348E-01  0.95330780240E-02 -0.39605668753E-03  0.50000500000E+01  0.50000000000E+01 0. -1.
</event>
<event>
 4    1  0.5040302E-001  0.5000050E+01  0.7818608E-02  0.2136455E+00
        -11   -1    0    0    0    0  0.00000000000E+00  0.00000000000E+00  0.50000499739E+01  0.50000500000E+01  0.51100000000E-03 0.  1.
         11   -1    0    0    0    0 -0.00000000000E+00 -0.00000000000E+00 -0.50000499739E+01  0.50000500000E+01  0.51100000000E-03 0. -1.
     100001    1    1    2    0    0 -0.12032356406E-01  0.26228395704E-02  0.18664019179E-01  0.50000500000E+01  0.50000000000E+01 0.  1.
     100001    1    1    2    0    0  0.12032356406E-01 -0.26228395704E-02 -0.18664019179E-01  0.50000500000E+01  0.50000000000E+01 0.  0.
</event>
<event>
 4    1  0.5040302E-001  0.5000050E+01  0.7818608E-02  0.2136455E+00
        -11   -1    0    0    0    0  0.00000000000E+00  0.00000000000E+00  0.50000499739E+01  0.50000500000E+01  0.51100000000E-03 0. -1.
         11   -1    0    0    0    0 -0.00000000000E+00 -0.00000000000E+00 -0.50000499739E+01  0.50000500000E+01  0.51100000000E-03 0.  1.
     100001    1    1    2    0    0  0.69576960254E-02  0.11486077963E-01  0.17879121316E-01  0.50000500000E+01  0.50000000000E+01 0.  0.
     100001    1    1    2    0    0 -0.69576960254E-02 -0.11486077963E-01 -0.17879121316E-01  0.50000500000E+01  0.50000000000E+01 0.  1.
</event>
<event>
 4    1  0.5040302E-001  0.5000050E+01  0.7818608E-02  0.2136455E+00
        -11   -1    0    0    0    0  0.00000000000E+00  0.00000000000E+00  0.50000499739E+01  0.50000500000E+01  0.51100000000E-03 0.  1.
         11   -1    0    0    0    0 -0.00000000000E+00 -0.00000000000E+00 -0.50000499739E+01  0.50000500000E+01  0.51100000000E-03 0. -1.
     100001    1    1    2    0    0 -0.13987010063E-01  0.63400930610E-02 -0.16253284883E-01  0.50000500000E+01  0.50000000000E+01 0.  1.
     100001    1    1    2    0    0  0.13987010063E-01 -0.63400930610E-02  0.16253284883E-01  0.50000500000E+01  0.50000000000E+01 0.  1.
</event>
<event>
 4    1  0.5040302E-001  0.5000050E+01  0.7818608E-02  0.2136455E+00
        -11   -1    0    0    0    0  0.00000000000E+00  0.00000000000E+00  0.50000499739E+01  0.50000500000E+01  0.51100000000E-03 0.  1.
         11   -1    0    0    0    0 -0.00000000000E+00 -0.00000000000E+00 -0.50000499739E+01  0.50000500000E+01  0.51100000000E-03 0. -1.
     100001    1    1    2    0    0 -0.60005743949E-02  0.11493260128E-02  0.21509873469E-01  0.50000500000E+01  0.50000000000E+01 0.  1.
     100001    1    1    2    0    0  0.60005743949E-02 -0.11493260128E-02 -0.21509873469E-01  0.50000500000E+01  0.50000000000E+01 0. -1.
</event>
<event>
 4    1  0.5040302E-001  0.5000050E+01  0.7818608E-02  0.2136455E+00
        -11   -1    0    0    0    0  0.00000000000E+00  0.00000000000E+00  0.50000499739E+01  0.50000500000E+01  0.51100000000E-03 0.  1.
         11   -1    0    0    0    0 -0.00000000000E+00 -0.00000000000E+00 -0.50000499739E+01  0.50000500000E+01  0.51100000000E-03 0. -1.
     100001    1    1    2    0    0  0.15763140966E-01 -0.15248865231E-01 -0.43586690686E-02  0.50000500000E+01  0.50000000000E+01 0.  1.
     100001    1    1    2    0    0 -0.15763140966E-01  0.15248865231E-01  0.43586690686E-02  0.50000500000E+01  0.50000000000E+01 0. -1.
</event>
<event>
 4    1  0.5040302E-001  0.5000050E+01  0.7818608E-02  0.2136455E+00
        -11   -1    0    0    0    0  0.00000000000E+00  0.00000000000E+00  0.50000499739E+01  0.50000500000E+01  0.51100000000E-03 0. -1.
         11   -1    0    0    0    0 -0.00000000000E+00 -0.00000000000E+00 -0.50000499739E+01  0.50000500000E+01  0.51100000000E-03 0.  1.
     100001    1    1    2    0    0  0.69491205807E-02  0.25576703932E-02 -0.21099065034E-01  0.50000500000E+01  0.50000000000E+01 0.  1.
     100001    1    1    2    0    0 -0.69491205807E-02 -0.25576703932E-02  0.21099065034E-01  0.50000500000E+01  0.50000000000E+01 0. -1.
</event>
<event>
 4    1  0.5040302E-001  0.5000050E+01  0.7818608E-02  0.2136455E+00
        -11   -1    0    0    0    0  0.00000000000E+00  0.00000000000E+00  0.50000499739E+01  0.50000500000E+01  0.51100000000E-03 0. -1.
         11   -1    0    0    0    0 -0.00000000000E+00 -0.00000000000E+00 -0.50000499739E+01  0.50000500000E+01  0.51100000000E-03 0.  1.
     100001    1    1    2    0    0 -0.11934741893E-01 -0.99783801424E-02  0.16062265273E-01  0.50000500000E+01  0.50000000000E+01 0.  0.
     100001    1    1    2    0    0  0.11934741893E-01  0.99783801424E-02 -0.16062265273E-01  0.50000500000E+01  0.50000000000E+01 0.  0.
</event>
<event>
 4    1  0.5040302E-001  0.5000050E+01  0.7818608E-02  0.2136455E+00
        -11   -1    0    0    0    0  0.00000000000E+00  0.00000000000E+00  0.50000499739E+01  0.50000500000E+01  0.51100000000E-03 0. -1.
         11   -1    0    0    0    0 -0.00000000000E+00 -0.00000000000E+00 -0.50000499739E+01  0.50000500000E+01  0.51100000000E-03 0.  1.
     100001    1    1    2    0    0  0.89422524124E-02  0.15490016439E-01  0.13420060078E-01  0.50000500000E+01  0.50000000000E+01 0.  0.
     100001    1    1    2    0    0 -0.89422524124E-02 -0.15490016439E-01 -0.13420060078E-01  0.50000500000E+01  0.50000000000E+01 0.  0.
</event>
<event>
 4    1  0.5040302E-001  0.5000050E+01  0.7818608E-02  0.2136455E+00
        -11   -1    0    0    0    0  0.00000000000E+00  0.00000000000E+00  0.50000499739E+01  0.50000500000E+01  0.51100000000E-03 0.  1.
         11   -1    0    0    0    0 -0.00000000000E+00 -0.00000000000E+00 -0.50000499739E+01  0.50000500000E+01  0.51100000000E-03 0. -1.
     100001    1    1    2    0    0 -0.79103843691E-02  0.13845850615E-02 -0.20868906137E-01  0.50000500000E+01  0.50000000000E+01 0.  0.
     100001    1    1    2    0    0  0.79103843691E-02 -0.13845850615E-02  0.20868906137E-01  0.50000500000E+01  0.50000000000E+01 0.  1.
</event>
<event>
 4    1  0.5040302E-001  0.5000050E+01  0.7818608E-02  0.2136455E+00
        -11   -1    0    0    0    0  0.00000000000E+00  0.00000000000E+00  0.50000499739E+01  0.50000500000E+01  0.51100000000E-03 0.  1.
         11   -1    0    0    0    0 -0.00000000000E+00 -0.00000000000E+00 -0.50000499739E+01  0.50000500000E+01  0.51100000000E-03 0. -1.
     100001    1    1    2    0    0 -0.57082764747E-02 -0.21615167602E-01 -0.45012133598E-03  0.50000500000E+01  0.50000000000E+01 0. -1.
     100001    1    1    2    0    0  0.57082764747E-02  0.21615167602E-01  0.45012133598E-03  0.50000500000E+01  0.50000000000E+01 0.  1.
</event>
<event>
 4    1  0.5040302E-001  0.5000050E+01  0.7818608E-02  0.2136455E+00
        -11   -1    0    0    0    0  0.00000000000E+00  0.00000000000E+00  0.50000499739E+01  0.50000500000E+01  0.51100000000E-03 0.  1.
         11   -1    0    0    0    0 -0.00000000000E+00 -0.00000000000E+00 -0.50000499739E+01  0.50000500000E+01  0.51100000000E-03 0. -1.
     100001    1    1    2    0    0  0.10189468739E-01  0.17581031910E-01 -0.93319099749E-02  0.50000500000E+01  0.50000000000E+01 0.  1.
     100001    1    1    2    0    0 -0.10189468739E-01 -0.17581031910E-01  0.93319099749E-02  0.50000500000E+01  0.50000000000E+01 0.  0.
</event>
<event>
 4    1  0.5040302E-001  0.5000050E+01  0.7818608E-02  0.2136455E+00
        -11   -1    0    0    0    0  0.00000000000E+00  0.00000000000E+00  0.50000499739E+01  0.50000500000E+01  0.51100000000E-03 0.  1.
         11   -1    0    0    0    0 -0.00000000000E+00 -0.00000000000E+00 -0.50000499739E+01  0.50000500000E+01  0.51100000000E-03 0. -1.
     100001    1    1    2    0    0 -0.12266648579E-01 -0.62274716728E-02 -0.17628114738E-01  0.50000500000E+01  0.50000000000E+01 0.  0.
     100001    1    1    2    0    0  0.12266648579E-01  0.62274716728E-02  0.17628114738E-01  0.50000500000E+01  0.50000000000E+01 0.  1.
</event>
<event>
 4    1  0.5040302E-001  0.5000050E+01  0.7818608E-02  0.2136455E+00
        -11   -1    0    0    0    0  0.00000000000E+00  0.00000000000E+00  0.50000499739E+01  0.50000500000E+01  0.51100000000E-03 0. -1.
         11   -1    0    0    0    0 -0.00000000000E+00 -0.00000000000E+00 -0.50000499739E+01  0.50000500000E+01  0.51100000000E-03 0.  1.
     100001    1    1    2    0    0  0.33459921333E-02 -0.21315872973E-01 -0.58685940438E-02  0.50000500000E+01  0.50000000000E+01 0.  1.
     100001    1    1    2    0    0 -0.33459921333E-02  0.21315872973E-01  0.58685940438E-02  0.50000500000E+01  0.50000000000E+01 0. -1.
</event>
<event>
 4    1  0.5040302E-001  0.5000050E+01  0.7818608E-02  0.2136455E+00
        -11   -1    0    0    0    0  0.00000000000E+00  0.00000000000E+00  0.50000499739E+01  0.50000500000E+01  0.51100000000E-03 0. -1.
         11   -1    0    0    0    0 -0.00000000000E+00 -0.00000000000E+00 -0.50000499739E+01  0.50000500000E+01  0.51100000000E-03 0.  1.
     100001    1    1    2    0    0  0.39329029889E-02 -0.49603567537E-02  0.21445970133E-01  0.50000500000E+01  0.50000000000E+01 0.  0.
     100001    1    1    2    0    0 -0.39329029889E-02  0.49603567537E-02 -0.21445970133E-01  0.50000500000E+01  0.50000000000E+01 0.  1.
</event>
<event>
 4    1  0.5040302E-001  0.5000050E+01  0.7818608E-02  0.2136455E+00
        -11   -1    0    0    0    0  0.00000000000E+00  0.00000000000E+00  0.50000499739E+01  0.50000500000E+01  0.51100000000E-03 0.  1.
         11   -1    0    0    0    0 -0.00000000000E+00 -0.00000000000E+00 -0.50000499739E+01  0.50000500000E+01  0.51100000000E-03 0. -1.
     100001    1    1    2    0    0 -0.12722480806E-01  0.17430206557E-01 -0.58590853836E-02  0.50000500000E+01  0.50000000000E+01 0. -1.
     100001    1    1    2    0    0  0.12722480806E-01 -0.17430206557E-01  0.58590853836E-02  0.50000500000E+01  0.50000000000E+01 0.  1.
</event>
<event>
 4    1  0.5040302E-001  0.5000050E+01  0.7818608E-02  0.2136455E+00
        -11   -1    0    0    0    0  0.00000000000E+00  0.00000000000E+00  0.50000499739E+01  0.50000500000E+01  0.51100000000E-03 0. -1.
         11   -1    0    0    0    0 -0.00000000000E+00 -0.00000000000E+00 -0.50000499739E+01  0.50000500000E+01  0.51100000000E-03 0.  1.
     100001    1    1    2    0    0  0.40905855465E-02 -0.17839024952E-01  0.12846742725E-01  0.50000500000E+01  0.50000000000E+01 0.  0.
     100001    1    1    2    0    0 -0.40905855465E-02  0.17839024952E-01 -0.12846742725E-01  0.50000500000E+01  0.50000000000E+01 0. -1.
</event>
<event>
 4    1  0.5040302E-001  0.5000050E+01  0.7818608E-02  0.2136455E+00
        -11   -1    0    0    0    0  0.00000000000E+00  0.00000000000E+00  0.50000499739E+01  0.50000500000E+01  0.51100000000E-03 0. -1.
         11   -1    0    0    0    0 -0.00000000000E+00 -0.00000000000E+00 -0.50000499739E+01  0.50000500000E+01  0.51100000000E-03 0.  1.
     100001    1    1    2    0    0 -0.20077711296E-01 -0.58900769724E-02 -0.78863808160E-02  0.50000500000E+01  0.50000000000E+01 0. -1.
     100001    1    1    2    0    0  0.20077711296E-01  0.58900769724E-02  0.78863808160E-02  0.50000500000E+01  0.50000000000E+01 0.  0.
</event>
<event>
 4    1  0.5040302E-001  0.5000050E+01  0.7818608E-02  0.2136455E+00
        -11   -1    0    0    0    0  0.00000000000E+00  0.00000000000E+00  0.50000499739E+01  0.50000500000E+01  0.51100000000E-03 0. -1.
         11   -1    0    0    0    0 -0.00000000000E+00 -0.00000000000E+00 -0.50000499739E+01  0.50000500000E+01  0.51100000000E-03 0.  1.
     100001    1    1    2    0    0 -0.19811233147E-01 -0.97552249064E-02  0.35147017268E-02  0.50000500000E+01  0.50000000000E+01 0.  1.
     100001    1    1    2    0    0  0.19811233147E-01  0.97552249064E-02 -0.35147017268E-02  0.50000500000E+01  0.50000000000E+01 0.  0.
</event>
<event>
 4    1  0.5040302E-001  0.5000050E+01  0.7818608E-02  0.2136455E+00
        -11   -1    0    0    0    0  0.00000000000E+00  0.00000000000E+00  0.50000499739E+01  0.50000500000E+01  0.51100000000E-03 0.  1.
         11   -1    0    0    0    0 -0.00000000000E+00 -0.00000000000E+00 -0.50000499739E+01  0.50000500000E+01  0.51100000000E-03 0. -1.
     100001    1    1    2    0    0 -0.17796092196E-01  0.56232410148E-02 -0.12315874433E-01  0.50000500000E+01  0.50000000000E+01 0.  1.
     100001    1    1    2    0    0  0.17796092196E-01 -0.56232410148E-02  0.12315874433E-01  0.50000500000E+01  0.50000000000E+01 0. -1.
</event>
<event>
 4    1  0.5040302E-001  0.5000050E+01  0.7818608E-02  0.2136455E+00
        -11   -1    0    0    0    0  0.00000000000E+00  0.00000000000E+00  0.50000499739E+01  0.50000500000E+01  0.51100000000E-03 0.  1.
         11   -1    0    0    0    0 -0.00000000000E+00 -0.00000000000E+00 -0.50000499739E+01  0.50000500000E+01  0.51100000000E-03 0. -1.
     100001    1    1    2    0    0  0.10361931857E-01 -0.19557180539E-01 -0.31858370270E-02  0.50000500000E+01  0.50000000000E+01 0.  0.
     100001    1    1    2    0    0 -0.10361931857E-01  0.19557180539E-01  0.31858370270E-02  0.50000500000E+01  0.50000000000E+01 0. -1.
</event>
<event>
 4    1  0.5040302E-001  0.5000050E+01  0.7818608E-02  0.2136455E+00
        -11   -1    0    0    0    0  0.00000000000E+00  0.00000000000E+00  0.50000499739E+01  0.50000500000E+01  0.51100000000E-03 0. -1.
         11   -1    0    0    0    0 -0.00000000000E+00 -0.00000000000E+00 -0.50000499739E+01  0.50000500000E+01  0.51100000000E-03 0.  1.
     100001    1    1    2    0    0 -0.17633824053E-01  0.10368831217E-01  0.90298443210E-02  0.50000500000E+01  0.50000000000E+01 0.  0.
     100001    1    1    2    0    0  0.17633824053E-01 -0.10368831217E-01 -0.90298443210E-02  0.50000500000E+01  0.50000000000E+01 0.  0.
</event>
<event>
 4    1  0.5040302E-001  0.5000050E+01  0.7818608E-02  0.2136455E+00
        -11   -1    0    0    0    0  0.00000000000E+00  0.00000000000E+00  0.50000499739E+01  0.50000500000E+01  0.51100000000E-03 0. -1.
         11   -1    0    0    0    0 -0.00000000000E+00 -0.00000000000E+00 -0.50000499739E+01  0.50000500000E+01  0.51100000000E-03 0.  1.
     100001    1    1    2    0    0  0.13052087656E-01 -0.16277804666E-01 -0.80422996130E-02  0.50000500000E+01  0.50000000000E+01 0. -1.
     100001    1    1    2    0    0 -0.13052087656E-01  0.16277804666E-01  0.80422996130E-02  0.50000500000E+01  0.50000000000E+01 0.  1.
</event>
<event>
 4    1  0.5040302E-001  0.5000050E+01  0.7818608E-02  0.2136455E+00
        -11   -1    0    0    0    0  0.00000000000E+00  0.00000000000E+00  0.50000499739E+01  0.50000500000E+01  0.51100000000E-03 0. -1.
         11   -1    0    0    0    0 -0.00000000000E+00 -0.00000000000E+00 -0.50000499739E+01  0.50000500000E+01  0.51100000000E-03 0.  1.
     100001    1    1    2    0    0  0.11827384567E-02  0.85577233283E-02 -0.20624475779E-01  0.50000500000E+01  0.50000000000E+01 0.  0.
     100001    1    1    2    0    0 -0.11827384567E-02 -0.85577233283E-02  0.20624475779E-01  0.50000500000E+01  0.50000000000E+01 0.  0.
</event>
<event>
 4    1  0.5040302E-001  0.5000050E+01  0.7818608E-02  0.2136455E+00
        -11   -1    0    0    0    0  0.00000000000E+00  0.00000000000E+00  0.50000499739E+01  0.50000500000E+01  0.51100000000E-03 0. -1.
         11   -1    0    0    0    0 -0.00000000000E+00 -0.00000000000E+00 -0.50000499739E+01  0.50000500000E+01  0.51100000000E-03 0.  1.
     100001    1    1    2    0    0  0.11037365817E-01  0.17372199150E-01  0.87398943076E-02  0.50000500000E+01  0.50000000000E+01 0. -1.
     100001    1    1    2    0    0 -0.11037365817E-01 -0.17372199150E-01 -0.87398943076E-02  0.50000500000E+01  0.50000000000E+01 0.  1.
</event>
<event>
 4    1  0.5040302E-001  0.5000050E+01  0.7818608E-02  0.2136455E+00
        -11   -1    0    0    0    0  0.00000000000E+00  0.00000000000E+00  0.50000499739E+01  0.50000500000E+01  0.51100000000E-03 0. -1.
         11   -1    0    0    0    0 -0.00000000000E+00 -0.00000000000E+00 -0.50000499739E+01  0.50000500000E+01  0.51100000000E-03 0.  1.
     100001    1    1    2    0    0  0.97223337747E-02 -0.20026279741E-01 -0.21040070562E-02  0.50000500000E+01  0.50000000000E+01 0. -1.
     100001    1    1    2    0    0 -0.97223337747E-02  0.20026279741E-01  0.21040070562E-02  0.50000500000E+01  0.50000000000E+01 0.  1.
</event>
<event>
 4    1  0.5040302E-001  0.5000050E+01  0.7818608E-02  0.2136455E+00
        -11   -1    0    0    0    0  0.00000000000E+00  0.00000000000E+00  0.50000499739E+01  0.50000500000E+01  0.51100000000E-03 0.  1.
         11   -1    0    0    0    0 -0.00000000000E+00 -0.00000000000E+00 -0.50000499739E+01  0.50000500000E+01  0.51100000000E-03 0. -1.
     100001    1    1    2    0    0  0.49164806223E-02  0.14780161511E-01 -0.16042990494E-01  0.50000500000E+01  0.50000000000E+01 0. -1.
     100001    1    1    2    0    0 -0.49164806223E-02 -0.14780161511E-01  0.16042990494E-01  0.50000500000E+01  0.50000000000E+01 0.  1.
</event>
<event>
 4    1  0.5040302E-001  0.5000050E+01  0.7818608E-02  0.2136455E+00
        -11   -1    0    0    0    0  0.00000000000E+00  0.00000000000E+00  0.50000499739E+01  0.50000500000E+01  0.51100000000E-03 0.  1.
         11   -1    0    0    0    0 -0.00000000000E+00 -0.00000000000E+00 -0.50000499739E+01  0.50000500000E+01  0.51100000000E-03 0. -1.
     100001    1    1    2    0    0  0.14690109919E-01 -0.84388968891E-02  0.14594114905E-01  0.50000500000E+01  0.50000000000E+01 0.  1.
     100001    1    1    2    0    0 -0.14690109919E-01  0.84388968891E-02 -0.14594114905E-01  0.50000500000E+01  0.50000000000E+01 0. -1.
</event>
<event>
 4    1  0.5040302E-001  0.5000050E+01  0.7818608E-02  0.2136455E+00
        -11   -1    0    0    0    0  0.00000000000E+00  0.00000000000E+00  0.50000499739E+01  0.50000500000E+01  0.51100000000E-03 0.  1.
         11   -1    0    0    0    0 -0.00000000000E+00 -0.00000000000E+00 -0.50000499739E+01  0.50000500000E+01  0.51100000000E-03 0. -1.
     100001    1    1    2    0    0 -0.17050260516E-01 -0.13442815330E-01 -0.53461979349E-02  0.50000500000E+01  0.50000000000E+01 0. -1.
     100001    1    1    2    0    0  0.17050260516E-01  0.13442815330E-01  0.53461979349E-02  0.50000500000E+01  0.50000000000E+01 0.  1.
</event>
<event>
 4    1  0.5040302E-001  0.5000050E+01  0.7818608E-02  0.2136455E+00
        -11   -1    0    0    0    0  0.00000000000E+00  0.00000000000E+00  0.50000499739E+01  0.50000500000E+01  0.51100000000E-03 0.  1.
         11   -1    0    0    0    0 -0.00000000000E+00 -0.00000000000E+00 -0.50000499739E+01  0.50000500000E+01  0.51100000000E-03 0. -1.
     100001    1    1    2    0    0 -0.10863474445E-01 -0.51080321651E-02 -0.18865190971E-01  0.50000500000E+01  0.50000000000E+01 0.  0.
     100001    1    1    2    0    0  0.10863474445E-01  0.51080321651E-02  0.18865190971E-01  0.50000500000E+01  0.50000000000E+01 0.  1.
</event>
<event>
 4    1  0.5040302E-001  0.5000050E+01  0.7818608E-02  0.2136455E+00
        -11   -1    0    0    0    0  0.00000000000E+00  0.00000000000E+00  0.50000499739E+01  0.50000500000E+01  0.51100000000E-03 0.  1.
         11   -1    0    0    0    0 -0.00000000000E+00 -0.00000000000E+00 -0.50000499739E+01  0.50000500000E+01  0.51100000000E-03 0. -1.
     100001    1    1    2    0    0 -0.19569151947E-01 -0.58263698587E-02 -0.91161508521E-02  0.50000500000E+01  0.50000000000E+01 0.  1.
     100001    1    1    2    0    0  0.19569151947E-01  0.58263698587E-02  0.91161508521E-02  0.50000500000E+01  0.50000000000E+01 0.  0.
</event>
<event>
 4    1  0.5040302E-001  0.5000050E+01  0.7818608E-02  0.2136455E+00
        -11   -1    0    0    0    0  0.00000000000E+00  0.00000000000E+00  0.50000499739E+01  0.50000500000E+01  0.51100000000E-03 0. -1.
         11   -1    0    0    0    0 -0.00000000000E+00 -0.00000000000E+00 -0.50000499739E+01  0.50000500000E+01  0.51100000000E-03 0.  1.
     100001    1    1    2    0    0 -0.16332551821E-01  0.40565401938E-02 -0.14723950987E-01  0.50000500000E+01  0.50000000000E+01 0.  1.
     100001    1    1    2    0    0  0.16332551821E-01 -0.40565401938E-02  0.14723950987E-01  0.50000500000E+01  0.50000000000E+01 0. -1.
</event>
<event>
 4    1  0.5040302E-001  0.5000050E+01  0.7818608E-02  0.2136455E+00
        -11   -1    0    0    0    0  0.00000000000E+00  0.00000000000E+00  0.50000499739E+01  0.50000500000E+01  0.51100000000E-03 0.  1.
         11   -1    0    0    0    0 -0.00000000000E+00 -0.00000000000E+00 -0.50000499739E+01  0.50000500000E+01  0.51100000000E-03 0. -1.
     100001    1    1    2    0    0 -0.13714054136E-01 -0.32095602966E-02  0.17367381549E-01  0.50000500000E+01  0.50000000000E+01 0.  0.
     100001    1    1    2    0    0  0.13714054136E-01  0.32095602966E-02 -0.17367381549E-01  0.50000500000E+01  0.50000000000E+01 0.  0.
</event>
<event>
 4    1  0.5040302E-001  0.5000050E+01  0.7818608E-02  0.2136455E+00
        -11   -1    0    0    0    0  0.00000000000E+00  0.00000000000E+00  0.50000499739E+01  0.50000500000E+01  0.51100000000E-03 0.  1.
         11   -1    0    0    0    0 -0.00000000000E+00 -0.00000000000E+00 -0.50000499739E+01  0.50000500000E+01  0.51100000000E-03 0. -1.
     100001    1    1    2    0    0  0.60740061861E-02 -0.83401073819E-02 -0.19838133927E-01  0.50000500000E+01  0.50000000000E+01 0.  0.
     100001    1    1    2    0    0 -0.60740061861E-02  0.83401073819E-02  0.19838133927E-01  0.50000500000E+01  0.50000000000E+01 0.  1.
</event>
<event>
 4    1  0.5040302E-001  0.5000050E+01  0.7818608E-02  0.2136455E+00
        -11   -1    0    0    0    0  0.00000000000E+00  0.00000000000E+00  0.50000499739E+01  0.50000500000E+01  0.51100000000E-03 0. -1.
         11   -1    0    0    0    0 -0.00000000000E+00 -0.00000000000E+00 -0.50000499739E+01  0.50000500000E+01  0.51100000000E-03 0.  1.
     100001    1    1    2    0    0  0.49362016782E-02  0.20128171665E-01 -0.83960180098E-02  0.50000500000E+01  0.50000000000E+01 0.  0.
     100001    1    1    2    0    0 -0.49362016782E-02 -0.20128171665E-01  0.83960180098E-02  0.50000500000E+01  0.50000000000E+01 0.  1.
</event>
<event>
 4    1  0.5040302E-001  0.5000050E+01  0.7818608E-02  0.2136455E+00
        -11   -1    0    0    0    0  0.00000000000E+00  0.00000000000E+00  0.50000499739E+01  0.50000500000E+01  0.51100000000E-03 0.  1.
         11   -1    0    0    0    0 -0.00000000000E+00 -0.00000000000E+00 -0.50000499739E+01  0.50000500000E+01  0.51100000000E-03 0. -1.
     100001    1    1    2    0    0 -0.21691769605E-01 -0.49903656212E-02 -0.21367925404E-02  0.50000500000E+01  0.50000000000E+01 0.  0.
     100001    1    1    2    0    0  0.21691769605E-01  0.49903656212E-02  0.21367925404E-02  0.50000500000E+01  0.50000000000E+01 0. -1.
</event>
<event>
 4    1  0.5040302E-001  0.5000050E+01  0.7818608E-02  0.2136455E+00
        -11   -1    0    0    0    0  0.00000000000E+00  0.00000000000E+00  0.50000499739E+01  0.50000500000E+01  0.51100000000E-03 0. -1.
         11   -1    0    0    0    0 -0.00000000000E+00 -0.00000000000E+00 -0.50000499739E+01  0.50000500000E+01  0.51100000000E-03 0.  1.
     100001    1    1    2    0    0 -0.17025662825E-01  0.14491448774E-01  0.35667607535E-03  0.50000500000E+01  0.50000000000E+01 0.  0.
     100001    1    1    2    0    0  0.17025662825E-01 -0.14491448774E-01 -0.35667607535E-03  0.50000500000E+01  0.50000000000E+01 0.  1.
</event>
<event>
 4    1  0.5040302E-001  0.5000050E+01  0.7818608E-02  0.2136455E+00
        -11   -1    0    0    0    0  0.00000000000E+00  0.00000000000E+00  0.50000499739E+01  0.50000500000E+01  0.51100000000E-03 0.  1.
         11   -1    0    0    0    0 -0.00000000000E+00 -0.00000000000E+00 -0.50000499739E+01  0.50000500000E+01  0.51100000000E-03 0. -1.
     100001    1    1    2    0    0  0.67951108953E-02  0.19033037019E-01 -0.95693505391E-02  0.50000500000E+01  0.50000000000E+01 0.  0.
     100001    1    1    2    0    0 -0.67951108953E-02 -0.19033037019E-01  0.95693505391E-02  0.50000500000E+01  0.50000000000E+01 0. -1.
</event>
<event>
 4    1  0.5040302E-001  0.5000050E+01  0.7818608E-02  0.2136455E+00
        -11   -1    0    0    0    0  0.00000000000E+00  0.00000000000E+00  0.50000499739E+01  0.50000500000E+01  0.51100000000E-03 0. -1.
         11   -1    0    0    0    0 -0.00000000000E+00 -0.00000000000E+00 -0.50000499739E+01  0.50000500000E+01  0.51100000000E-03 0.  1.
     100001    1    1    2    0    0  0.16555391092E-01 -0.11514907032E-01  0.96606646684E-02  0.50000500000E+01  0.50000000000E+01 0. -1.
     100001    1    1    2    0    0 -0.16555391092E-01  0.11514907032E-01 -0.96606646684E-02  0.50000500000E+01  0.50000000000E+01 0.  1.
</event>
<event>
 4    1  0.5040302E-001  0.5000050E+01  0.7818608E-02  0.2136455E+00
        -11   -1    0    0    0    0  0.00000000000E+00  0.00000000000E+00  0.50000499739E+01  0.50000500000E+01  0.51100000000E-03 0. -1.
         11   -1    0    0    0    0 -0.00000000000E+00 -0.00000000000E+00 -0.50000499739E+01  0.50000500000E+01  0.51100000000E-03 0.  1.
     100001    1    1    2    0    0 -0.42874642950E-02 -0.19523856958E-01  0.10021933916E-01  0.50000500000E+01  0.50000000000E+01 0.  1.
     100001    1    1    2    0    0  0.42874642950E-02  0.19523856958E-01 -0.10021933916E-01  0.50000500000E+01  0.50000000000E+01 0.  1.
</event>
<event>
 4    1  0.5040302E-001  0.5000050E+01  0.7818608E-02  0.2136455E+00
        -11   -1    0    0    0    0  0.00000000000E+00  0.00000000000E+00  0.50000499739E+01  0.50000500000E+01  0.51100000000E-03 0.  1.
         11   -1    0    0    0    0 -0.00000000000E+00 -0.00000000000E+00 -0.50000499739E+01  0.50000500000E+01  0.51100000000E-03 0. -1.
     100001    1    1    2    0    0 -0.20974579368E-01 -0.70928528798E-02  0.31242532514E-02  0.50000500000E+01  0.50000000000E+01 0. -1.
     100001    1    1    2    0    0  0.20974579368E-01  0.70928528798E-02 -0.31242532514E-02  0.50000500000E+01  0.50000000000E+01 0. -1.
</event>
<event>
 4    1  0.5040302E-001  0.5000050E+01  0.7818608E-02  0.2136455E+00
        -11   -1    0    0    0    0  0.00000000000E+00  0.00000000000E+00  0.50000499739E+01  0.50000500000E+01  0.51100000000E-03 0.  1.
         11   -1    0    0    0    0 -0.00000000000E+00 -0.00000000000E+00 -0.50000499739E+01  0.50000500000E+01  0.51100000000E-03 0. -1.
     100001    1    1    2    0    0 -0.15926961083E-01 -0.15609165870E-01  0.16396193159E-02  0.50000500000E+01  0.50000000000E+01 0. -1.
     100001    1    1    2    0    0  0.15926961083E-01  0.15609165870E-01 -0.16396193159E-02  0.50000500000E+01  0.50000000000E+01 0.  1.
</event>
<event>
 4    1  0.5040302E-001  0.5000050E+01  0.7818608E-02  0.2136455E+00
        -11   -1    0    0    0    0  0.00000000000E+00  0.00000000000E+00  0.50000499739E+01  0.50000500000E+01  0.51100000000E-03 0.  1.
         11   -1    0    0    0    0 -0.00000000000E+00 -0.00000000000E+00 -0.50000499739E+01  0.50000500000E+01  0.51100000000E-03 0. -1.
     100001    1    1    2    0    0  0.10432730072E-01 -0.19777318199E-01  0.13538130364E-03  0.50000500000E+01  0.50000000000E+01 0.  1.
     100001    1    1    2    0    0 -0.10432730072E-01  0.19777318199E-01 -0.13538130364E-03  0.50000500000E+01  0.50000000000E+01 0. -1.
</event>
<event>
 4    1  0.5040302E-001  0.5000050E+01  0.7818608E-02  0.2136455E+00
        -11   -1    0    0    0    0  0.00000000000E+00  0.00000000000E+00  0.50000499739E+01  0.50000500000E+01  0.51100000000E-03 0.  1.
         11   -1    0    0    0    0 -0.00000000000E+00 -0.00000000000E+00 -0.50000499739E+01  0.50000500000E+01  0.51100000000E-03 0. -1.
     100001    1    1    2    0    0  0.33438965303E-02 -0.15362968951E-01 -0.15899686821E-01  0.50000500000E+01  0.50000000000E+01 0.  0.
     100001    1    1    2    0    0 -0.33438965303E-02  0.15362968951E-01  0.15899686821E-01  0.50000500000E+01  0.50000000000E+01 0. -1.
</event>
<event>
 4    1  0.5040302E-001  0.5000050E+01  0.7818608E-02  0.2136455E+00
        -11   -1    0    0    0    0  0.00000000000E+00  0.00000000000E+00  0.50000499739E+01  0.50000500000E+01  0.51100000000E-03 0.  1.
         11   -1    0    0    0    0 -0.00000000000E+00 -0.00000000000E+00 -0.50000499739E+01  0.50000500000E+01  0.51100000000E-03 0. -1.
     100001    1    1    2    0    0  0.18611088583E-01 -0.74118025571E-02  0.99345389733E-02  0.50000500000E+01  0.50000000000E+01 0.  0.
     100001    1    1    2    0    0 -0.18611088583E-01  0.74118025571E-02 -0.99345389733E-02  0.50000500000E+01  0.50000000000E+01 0.  1.
</event>
<event>
 4    1  0.5040302E-001  0.5000050E+01  0.7818608E-02  0.2136455E+00
        -11   -1    0    0    0    0  0.00000000000E+00  0.00000000000E+00  0.50000499739E+01  0.50000500000E+01  0.51100000000E-03 0. -1.
         11   -1    0    0    0    0 -0.00000000000E+00 -0.00000000000E+00 -0.50000499739E+01  0.50000500000E+01  0.51100000000E-03 0.  1.
     100001    1    1    2    0    0 -0.28037381650E-02 -0.15145603862E-01 -0.16209634047E-01  0.50000500000E+01  0.50000000000E+01 0.  0.
     100001    1    1    2    0    0  0.28037381650E-02  0.15145603862E-01  0.16209634047E-01  0.50000500000E+01  0.50000000000E+01 0.  1.
</event>
<event>
 4    1  0.5040302E-001  0.5000050E+01  0.7818608E-02  0.2136455E+00
        -11   -1    0    0    0    0  0.00000000000E+00  0.00000000000E+00  0.50000499739E+01  0.50000500000E+01  0.51100000000E-03 0.  1.
         11   -1    0    0    0    0 -0.00000000000E+00 -0.00000000000E+00 -0.50000499739E+01  0.50000500000E+01  0.51100000000E-03 0. -1.
     100001    1    1    2    0    0  0.15052128070E-01  0.91260611066E-02  0.13789523170E-01  0.50000500000E+01  0.50000000000E+01 0.  0.
     100001    1    1    2    0    0 -0.15052128070E-01 -0.91260611066E-02 -0.13789523170E-01  0.50000500000E+01  0.50000000000E+01 0.  0.
</event>
<event>
 4    1  0.5040302E-001  0.5000050E+01  0.7818608E-02  0.2136455E+00
        -11   -1    0    0    0    0  0.00000000000E+00  0.00000000000E+00  0.50000499739E+01  0.50000500000E+01  0.51100000000E-03 0.  1.
         11   -1    0    0    0    0 -0.00000000000E+00 -0.00000000000E+00 -0.50000499739E+01  0.50000500000E+01  0.51100000000E-03 0. -1.
     100001    1    1    2    0    0 -0.29914087517E-02  0.14403561643E-01  0.16840171783E-01  0.50000500000E+01  0.50000000000E+01 0.  0.
     100001    1    1    2    0    0  0.29914087517E-02 -0.14403561643E-01 -0.16840171783E-01  0.50000500000E+01  0.50000000000E+01 0.  0.
</event>
<event>
 4    1  0.5040302E-001  0.5000050E+01  0.7818608E-02  0.2136455E+00
        -11   -1    0    0    0    0  0.00000000000E+00  0.00000000000E+00  0.50000499739E+01  0.50000500000E+01  0.51100000000E-03 0. -1.
         11   -1    0    0    0    0 -0.00000000000E+00 -0.00000000000E+00 -0.50000499739E+01  0.50000500000E+01  0.51100000000E-03 0.  1.
     100001    1    1    2    0    0  0.14694840598E-02 -0.13304926783E-01 -0.17911505796E-01  0.50000500000E+01  0.50000000000E+01 0. -1.
     100001    1    1    2    0    0 -0.14694840598E-02  0.13304926783E-01  0.17911505796E-01  0.50000500000E+01  0.50000000000E+01 0. -1.
</event>
<event>
 4    1  0.5040302E-001  0.5000050E+01  0.7818608E-02  0.2136455E+00
        -11   -1    0    0    0    0  0.00000000000E+00  0.00000000000E+00  0.50000499739E+01  0.50000500000E+01  0.51100000000E-03 0. -1.
         11   -1    0    0    0    0 -0.00000000000E+00 -0.00000000000E+00 -0.50000499739E+01  0.50000500000E+01  0.51100000000E-03 0.  1.
     100001    1    1    2    0    0  0.11960136776E-01  0.82112093078E-02 -0.17015688937E-01  0.50000500000E+01  0.50000000000E+01 0.  0.
     100001    1    1    2    0    0 -0.11960136776E-01 -0.82112093078E-02  0.17015688937E-01  0.50000500000E+01  0.50000000000E+01 0.  0.
</event>
<event>
 4    1  0.5040302E-001  0.5000050E+01  0.7818608E-02  0.2136455E+00
        -11   -1    0    0    0    0  0.00000000000E+00  0.00000000000E+00  0.50000499739E+01  0.50000500000E+01  0.51100000000E-03 0. -1.
         11   -1    0    0    0    0 -0.00000000000E+00 -0.00000000000E+00 -0.50000499739E+01  0.50000500000E+01  0.51100000000E-03 0.  1.
     100001    1    1    2    0    0  0.14229107117E-01 -0.16094999904E-01 -0.62037076607E-02  0.50000500000E+01  0.50000000000E+01 0.  0.
     100001    1    1    2    0    0 -0.14229107117E-01  0.16094999904E-01  0.62037076607E-02  0.50000500000E+01  0.50000000000E+01 0.  1.
</event>
<event>
 4    1  0.5040302E-001  0.5000050E+01  0.7818608E-02  0.2136455E+00
        -11   -1    0    0    0    0  0.00000000000E+00  0.00000000000E+00  0.50000499739E+01  0.50000500000E+01  0.51100000000E-03 0.  1.
         11   -1    0    0    0    0 -0.00000000000E+00 -0.00000000000E+00 -0.50000499739E+01  0.50000500000E+01  0.51100000000E-03 0. -1.
     100001    1    1    2    0    0 -0.18809197627E-02 -0.21122202842E-01  0.70934609286E-02  0.50000500000E+01  0.50000000000E+01 0.  1.
     100001    1    1    2    0    0  0.18809197627E-02  0.21122202842E-01 -0.70934609286E-02  0.50000500000E+01  0.50000000000E+01 0. -1.
</event>
<event>
 4    1  0.5040302E-001  0.5000050E+01  0.7818608E-02  0.2136455E+00
        -11   -1    0    0    0    0  0.00000000000E+00  0.00000000000E+00  0.50000499739E+01  0.50000500000E+01  0.51100000000E-03 0.  1.
         11   -1    0    0    0    0 -0.00000000000E+00 -0.00000000000E+00 -0.50000499739E+01  0.50000500000E+01  0.51100000000E-03 0. -1.
     100001    1    1    2    0    0 -0.10820688864E-01 -0.11506132434E-01  0.15827953402E-01  0.50000500000E+01  0.50000000000E+01 0.  0.
     100001    1    1    2    0    0  0.10820688864E-01  0.11506132434E-01 -0.15827953402E-01  0.50000500000E+01  0.50000000000E+01 0. -1.
</event>
<event>
 4    1  0.5040302E-001  0.5000050E+01  0.7818608E-02  0.2136455E+00
        -11   -1    0    0    0    0  0.00000000000E+00  0.00000000000E+00  0.50000499739E+01  0.50000500000E+01  0.51100000000E-03 0.  1.
         11   -1    0    0    0    0 -0.00000000000E+00 -0.00000000000E+00 -0.50000499739E+01  0.50000500000E+01  0.51100000000E-03 0. -1.
     100001    1    1    2    0    0  0.56878977159E-03  0.77674508149E-02 -0.20960574563E-01  0.50000500000E+01  0.50000000000E+01 0.  0.
     100001    1    1    2    0    0 -0.56878977159E-03 -0.77674508149E-02  0.20960574563E-01  0.50000500000E+01  0.50000000000E+01 0.  1.
</event>
<event>
 4    1  0.5040302E-001  0.5000050E+01  0.7818608E-02  0.2136455E+00
        -11   -1    0    0    0    0  0.00000000000E+00  0.00000000000E+00  0.50000499739E+01  0.50000500000E+01  0.51100000000E-03 0. -1.
         11   -1    0    0    0    0 -0.00000000000E+00 -0.00000000000E+00 -0.50000499739E+01  0.50000500000E+01  0.51100000000E-03 0.  1.
     100001    1    1    2    0    0  0.13606022044E-01 -0.17158121666E-01  0.45252099431E-02  0.50000500000E+01  0.50000000000E+01 0.  0.
     100001    1    1    2    0    0 -0.13606022044E-01  0.17158121666E-01 -0.45252099431E-02  0.50000500000E+01  0.50000000000E+01 0. -1.
</event>
<event>
 4    1  0.5040302E-001  0.5000050E+01  0.7818608E-02  0.2136455E+00
        -11   -1    0    0    0    0  0.00000000000E+00  0.00000000000E+00  0.50000499739E+01  0.50000500000E+01  0.51100000000E-03 0. -1.
         11   -1    0    0    0    0 -0.00000000000E+00 -0.00000000000E+00 -0.50000499739E+01  0.50000500000E+01  0.51100000000E-03 0.  1.
     100001    1    1    2    0    0  0.20876396645E-01 -0.15938397788E-02  0.78510023494E-02  0.50000500000E+01  0.50000000000E+01 0. -1.
     100001    1    1    2    0    0 -0.20876396645E-01  0.15938397788E-02 -0.78510023494E-02  0.50000500000E+01  0.50000000000E+01 0.  1.
</event>
<event>
 4    1  0.5040302E-001  0.5000050E+01  0.7818608E-02  0.2136455E+00
        -11   -1    0    0    0    0  0.00000000000E+00  0.00000000000E+00  0.50000499739E+01  0.50000500000E+01  0.51100000000E-03 0. -1.
         11   -1    0    0    0    0 -0.00000000000E+00 -0.00000000000E+00 -0.50000499739E+01  0.50000500000E+01  0.51100000000E-03 0.  1.
     100001    1    1    2    0    0 -0.16391374415E-01 -0.12554433015E-01  0.85855434574E-02  0.50000500000E+01  0.50000000000E+01 0.  0.
     100001    1    1    2    0    0  0.16391374415E-01  0.12554433015E-01 -0.85855434574E-02  0.50000500000E+01  0.50000000000E+01 0.  0.
</event>
<event>
 4    1  0.5040302E-001  0.5000050E+01  0.7818608E-02  0.2136455E+00
        -11   -1    0    0    0    0  0.00000000000E+00  0.00000000000E+00  0.50000499739E+01  0.50000500000E+01  0.51100000000E-03 0. -1.
         11   -1    0    0    0    0 -0.00000000000E+00 -0.00000000000E+00 -0.50000499739E+01  0.50000500000E+01  0.51100000000E-03 0.  1.
     100001    1    1    2    0    0  0.11369478893E-01 -0.17297960795E-01  0.84568316777E-02  0.50000500000E+01  0.50000000000E+01 0. -1.
     100001    1    1    2    0    0 -0.11369478893E-01  0.17297960795E-01 -0.84568316777E-02  0.50000500000E+01  0.50000000000E+01 0.  1.
</event>
<event>
 4    1  0.5040302E-001  0.5000050E+01  0.7818608E-02  0.2136455E+00
        -11   -1    0    0    0    0  0.00000000000E+00  0.00000000000E+00  0.50000499739E+01  0.50000500000E+01  0.51100000000E-03 0. -1.
         11   -1    0    0    0    0 -0.00000000000E+00 -0.00000000000E+00 -0.50000499739E+01  0.50000500000E+01  0.51100000000E-03 0.  1.
     100001    1    1    2    0    0 -0.10049035378E-01  0.39529636817E-02  0.19580435799E-01  0.50000500000E+01  0.50000000000E+01 0.  0.
     100001    1    1    2    0    0  0.10049035378E-01 -0.39529636817E-02 -0.19580435799E-01  0.50000500000E+01  0.50000000000E+01 0.  1.
</event>
<event>
 4    1  0.5040302E-001  0.5000050E+01  0.7818608E-02  0.2136455E+00
        -11   -1    0    0    0    0  0.00000000000E+00  0.00000000000E+00  0.50000499739E+01  0.50000500000E+01  0.51100000000E-03 0. -1.
         11   -1    0    0    0    0 -0.00000000000E+00 -0.00000000000E+00 -0.50000499739E+01  0.50000500000E+01  0.51100000000E-03 0.  1.
     100001    1    1    2    0    0 -0.21791670555E-01  0.49909237337E-02  0.46505344172E-03  0.50000500000E+01  0.50000000000E+01 0.  0.
     100001    1    1    2    0    0  0.21791670555E-01 -0.49909237337E-02 -0.46505344172E-03  0.50000500000E+01  0.50000000000E+01 0.  1.
</event>
<event>
 4    1  0.5040302E-001  0.5000050E+01  0.7818608E-02  0.2136455E+00
        -11   -1    0    0    0    0  0.00000000000E+00  0.00000000000E+00  0.50000499739E+01  0.50000500000E+01  0.51100000000E-03 0.  1.
         11   -1    0    0    0    0 -0.00000000000E+00 -0.00000000000E+00 -0.50000499739E+01  0.50000500000E+01  0.51100000000E-03 0. -1.
     100001    1    1    2    0    0 -0.70534446829E-02 -0.18357404249E-01 -0.10642233194E-01  0.50000500000E+01  0.50000000000E+01 0. -1.
     100001    1    1    2    0    0  0.70534446829E-02  0.18357404249E-01  0.10642233194E-01  0.50000500000E+01  0.50000000000E+01 0.  1.
</event>
<event>
 4    1  0.5040302E-001  0.5000050E+01  0.7818608E-02  0.2136455E+00
        -11   -1    0    0    0    0  0.00000000000E+00  0.00000000000E+00  0.50000499739E+01  0.50000500000E+01  0.51100000000E-03 0. -1.
         11   -1    0    0    0    0 -0.00000000000E+00 -0.00000000000E+00 -0.50000499739E+01  0.50000500000E+01  0.51100000000E-03 0.  1.
     100001    1    1    2    0    0  0.20113388355E-01 -0.89917231958E-02 -0.38213901720E-02  0.50000500000E+01  0.50000000000E+01 0.  1.
     100001    1    1    2    0    0 -0.20113388355E-01  0.89917231958E-02  0.38213901720E-02  0.50000500000E+01  0.50000000000E+01 0. -1.
</event>
<event>
 4    1  0.5040302E-001  0.5000050E+01  0.7818608E-02  0.2136455E+00
        -11   -1    0    0    0    0  0.00000000000E+00  0.00000000000E+00  0.50000499739E+01  0.50000500000E+01  0.51100000000E-03 0.  1.
         11   -1    0    0    0    0 -0.00000000000E+00 -0.00000000000E+00 -0.50000499739E+01  0.50000500000E+01  0.51100000000E-03 0. -1.
     100001    1    1    2    0    0  0.20804596237E-01 -0.43324960612E-03 -0.81843491010E-02  0.50000500000E+01  0.50000000000E+01 0.  0.
     100001    1    1    2    0    0 -0.20804596237E-01  0.43324960612E-03  0.81843491010E-02  0.50000500000E+01  0.50000000000E+01 0. -1.
</event>
<event>
 4    1  0.5040302E-001  0.5000050E+01  0.7818608E-02  0.2136455E+00
        -11   -1    0    0    0    0  0.00000000000E+00  0.00000000000E+00  0.50000499739E+01  0.50000500000E+01  0.51100000000E-03 0. -1.
         11   -1    0    0    0    0 -0.00000000000E+00 -0.00000000000E+00 -0.50000499739E+01  0.50000500000E+01  0.51100000000E-03 0.  1.
     100001    1    1    2    0    0  0.41706505831E-02  0.21719880943E-01 -0.32946844345E-02  0.50000500000E+01  0.50000000000E+01 0.  1.
     100001    1    1    2    0    0 -0.41706505831E-02 -0.21719880943E-01  0.32946844345E-02  0.50000500000E+01  0.50000000000E+01 0. -1.
</event>
<event>
 4    1  0.5040302E-001  0.5000050E+01  0.7818608E-02  0.2136455E+00
        -11   -1    0    0    0    0  0.00000000000E+00  0.00000000000E+00  0.50000499739E+01  0.50000500000E+01  0.51100000000E-03 0. -1.
         11   -1    0    0    0    0 -0.00000000000E+00 -0.00000000000E+00 -0.50000499739E+01  0.50000500000E+01  0.51100000000E-03 0.  1.
     100001    1    1    2    0    0  0.44349368519E-02  0.19470385996E-01 -0.10061704840E-01  0.50000500000E+01  0.50000000000E+01 0.  1.
     100001    1    1    2    0    0 -0.44349368519E-02 -0.19470385996E-01  0.10061704840E-01  0.50000500000E+01  0.50000000000E+01 0. -1.
</event>
<event>
 4    1  0.5040302E-001  0.5000050E+01  0.7818608E-02  0.2136455E+00
        -11   -1    0    0    0    0  0.00000000000E+00  0.00000000000E+00  0.50000499739E+01  0.50000500000E+01  0.51100000000E-03 0. -1.
         11   -1    0    0    0    0 -0.00000000000E+00 -0.00000000000E+00 -0.50000499739E+01  0.50000500000E+01  0.51100000000E-03 0.  1.
     100001    1    1    2    0    0 -0.78966808019E-02 -0.20783197924E-02  0.20816472303E-01  0.50000500000E+01  0.50000000000E+01 0.  0.
     100001    1    1    2    0    0  0.78966808019E-02  0.20783197924E-02 -0.20816472303E-01  0.50000500000E+01  0.50000000000E+01 0.  1.
</event>
<event>
 4    1  0.5040302E-001  0.5000050E+01  0.7818608E-02  0.2136455E+00
        -11   -1    0    0    0    0  0.00000000000E+00  0.00000000000E+00  0.50000499739E+01  0.50000500000E+01  0.51100000000E-03 0. -1.
         11   -1    0    0    0    0 -0.00000000000E+00 -0.00000000000E+00 -0.50000499739E+01  0.50000500000E+01  0.51100000000E-03 0.  1.
     100001    1    1    2    0    0  0.28082665585E-02 -0.20225620679E-01  0.91126509365E-02  0.50000500000E+01  0.50000000000E+01 0. -1.
     100001    1    1    2    0    0 -0.28082665585E-02  0.20225620679E-01 -0.91126509365E-02  0.50000500000E+01  0.50000000000E+01 0.  1.
</event>
<event>
 4    1  0.5040302E-001  0.5000050E+01  0.7818608E-02  0.2136455E+00
        -11   -1    0    0    0    0  0.00000000000E+00  0.00000000000E+00  0.50000499739E+01  0.50000500000E+01  0.51100000000E-03 0.  1.
         11   -1    0    0    0    0 -0.00000000000E+00 -0.00000000000E+00 -0.50000499739E+01  0.50000500000E+01  0.51100000000E-03 0. -1.
     100001    1    1    2    0    0  0.21835981029E-01 -0.26453482923E-02 -0.40242471235E-02  0.50000500000E+01  0.50000000000E+01 0. -1.
     100001    1    1    2    0    0 -0.21835981029E-01  0.26453482923E-02  0.40242471235E-02  0.50000500000E+01  0.50000000000E+01 0.  1.
</event>
<event>
 4    1  0.5040302E-001  0.5000050E+01  0.7818608E-02  0.2136455E+00
        -11   -1    0    0    0    0  0.00000000000E+00  0.00000000000E+00  0.50000499739E+01  0.50000500000E+01  0.51100000000E-03 0.  1.
         11   -1    0    0    0    0 -0.00000000000E+00 -0.00000000000E+00 -0.50000499739E+01  0.50000500000E+01  0.51100000000E-03 0. -1.
     100001    1    1    2    0    0  0.16642050693E-01 -0.24071146229E-02 -0.14739418168E-01  0.50000500000E+01  0.50000000000E+01 0. -1.
     100001    1    1    2    0    0 -0.16642050693E-01  0.24071146229E-02  0.14739418168E-01  0.50000500000E+01  0.50000000000E+01 0. -1.
</event>
<event>
 4    1  0.5040302E-001  0.5000050E+01  0.7818608E-02  0.2136455E+00
        -11   -1    0    0    0    0  0.00000000000E+00  0.00000000000E+00  0.50000499739E+01  0.50000500000E+01  0.51100000000E-03 0.  1.
         11   -1    0    0    0    0 -0.00000000000E+00 -0.00000000000E+00 -0.50000499739E+01  0.50000500000E+01  0.51100000000E-03 0. -1.
     100001    1    1    2    0    0 -0.70282900022E-02  0.62663314077E-02 -0.20281487380E-01  0.50000500000E+01  0.50000000000E+01 0. -1.
     100001    1    1    2    0    0  0.70282900022E-02 -0.62663314077E-02  0.20281487380E-01  0.50000500000E+01  0.50000000000E+01 0.  0.
</event>
<event>
 4    1  0.5040302E-001  0.5000050E+01  0.7818608E-02  0.2136455E+00
        -11   -1    0    0    0    0  0.00000000000E+00  0.00000000000E+00  0.50000499739E+01  0.50000500000E+01  0.51100000000E-03 0.  1.
         11   -1    0    0    0    0 -0.00000000000E+00 -0.00000000000E+00 -0.50000499739E+01  0.50000500000E+01  0.51100000000E-03 0. -1.
     100001    1    1    2    0    0 -0.10090178786E-01 -0.15648119181E-01 -0.12382534399E-01  0.50000500000E+01  0.50000000000E+01 0. -1.
     100001    1    1    2    0    0  0.10090178786E-01  0.15648119181E-01  0.12382534399E-01  0.50000500000E+01  0.50000000000E+01 0.  1.
</event>
<event>
 4    1  0.5040302E-001  0.5000050E+01  0.7818608E-02  0.2136455E+00
        -11   -1    0    0    0    0  0.00000000000E+00  0.00000000000E+00  0.50000499739E+01  0.50000500000E+01  0.51100000000E-03 0.  1.
         11   -1    0    0    0    0 -0.00000000000E+00 -0.00000000000E+00 -0.50000499739E+01  0.50000500000E+01  0.51100000000E-03 0. -1.
     100001    1    1    2    0    0 -0.16388746731E-01  0.10380586409E-01 -0.11120022770E-01  0.50000500000E+01  0.50000000000E+01 0. -1.
     100001    1    1    2    0    0  0.16388746731E-01 -0.10380586409E-01  0.11120022770E-01  0.50000500000E+01  0.50000000000E+01 0.  1.
</event>
<event>
 4    1  0.5040302E-001  0.5000050E+01  0.7818608E-02  0.2136455E+00
        -11   -1    0    0    0    0  0.00000000000E+00  0.00000000000E+00  0.50000499739E+01  0.50000500000E+01  0.51100000000E-03 0. -1.
         11   -1    0    0    0    0 -0.00000000000E+00 -0.00000000000E+00 -0.50000499739E+01  0.50000500000E+01  0.51100000000E-03 0.  1.
     100001    1    1    2    0    0 -0.47812934550E-02 -0.91613594944E-02 -0.19829554335E-01  0.50000500000E+01  0.50000000000E+01 0.  1.
     100001    1    1    2    0    0  0.47812934550E-02  0.91613594944E-02  0.19829554335E-01  0.50000500000E+01  0.50000000000E+01 0.  0.
</event>
<event>
 4    1  0.5040302E-001  0.5000050E+01  0.7818608E-02  0.2136455E+00
        -11   -1    0    0    0    0  0.00000000000E+00  0.00000000000E+00  0.50000499739E+01  0.50000500000E+01  0.51100000000E-03 0.  1.
         11   -1    0    0    0    0 -0.00000000000E+00 -0.00000000000E+00 -0.50000499739E+01  0.50000500000E+01  0.51100000000E-03 0. -1.
     100001    1    1    2    0    0 -0.15942143456E-01 -0.14669414702E-01 -0.55370420203E-02  0.50000500000E+01  0.50000000000E+01 0.  1.
     100001    1    1    2    0    0  0.15942143456E-01  0.14669414702E-01  0.55370420203E-02  0.50000500000E+01  0.50000000000E+01 0.  0.
</event>
<event>
 4    1  0.5040302E-001  0.5000050E+01  0.7818608E-02  0.2136455E+00
        -11   -1    0    0    0    0  0.00000000000E+00  0.00000000000E+00  0.50000499739E+01  0.50000500000E+01  0.51100000000E-03 0.  1.
         11   -1    0    0    0    0 -0.00000000000E+00 -0.00000000000E+00 -0.50000499739E+01  0.50000500000E+01  0.51100000000E-03 0. -1.
     100001    1    1    2    0    0 -0.13238396923E-01  0.88154915761E-02  0.15717329773E-01  0.50000500000E+01  0.50000000000E+01 0.  1.
     100001    1    1    2    0    0  0.13238396923E-01 -0.88154915761E-02 -0.15717329773E-01  0.50000500000E+01  0.50000000000E+01 0. -1.
</event>
<event>
 4    1  0.5040302E-001  0.5000050E+01  0.7818608E-02  0.2136455E+00
        -11   -1    0    0    0    0  0.00000000000E+00  0.00000000000E+00  0.50000499739E+01  0.50000500000E+01  0.51100000000E-03 0.  1.
         11   -1    0    0    0    0 -0.00000000000E+00 -0.00000000000E+00 -0.50000499739E+01  0.50000500000E+01  0.51100000000E-03 0. -1.
     100001    1    1    2    0    0  0.18745007582E-01 -0.11663183363E-01 -0.35492738098E-02  0.50000500000E+01  0.50000000000E+01 0.  1.
     100001    1    1    2    0    0 -0.18745007582E-01  0.11663183363E-01  0.35492738098E-02  0.50000500000E+01  0.50000000000E+01 0. -1.
</event>
<event>
 4    1  0.5040302E-001  0.5000050E+01  0.7818608E-02  0.2136455E+00
        -11   -1    0    0    0    0  0.00000000000E+00  0.00000000000E+00  0.50000499739E+01  0.50000500000E+01  0.51100000000E-03 0. -1.
         11   -1    0    0    0    0 -0.00000000000E+00 -0.00000000000E+00 -0.50000499739E+01  0.50000500000E+01  0.51100000000E-03 0.  1.
     100001    1    1    2    0    0 -0.19386707944E-01  0.26020406127E-02  0.10834548433E-01  0.50000500000E+01  0.50000000000E+01 0. -1.
     100001    1    1    2    0    0  0.19386707944E-01 -0.26020406127E-02 -0.10834548433E-01  0.50000500000E+01  0.50000000000E+01 0.  1.
</event>
<event>
 4    1  0.5040302E-001  0.5000050E+01  0.7818608E-02  0.2136455E+00
        -11   -1    0    0    0    0  0.00000000000E+00  0.00000000000E+00  0.50000499739E+01  0.50000500000E+01  0.51100000000E-03 0.  1.
         11   -1    0    0    0    0 -0.00000000000E+00 -0.00000000000E+00 -0.50000499739E+01  0.50000500000E+01  0.51100000000E-03 0. -1.
     100001    1    1    2    0    0 -0.15034580658E-01  0.16391917998E-01 -0.22954103743E-02  0.50000500000E+01  0.50000000000E+01 0. -1.
     100001    1    1    2    0    0  0.15034580658E-01 -0.16391917998E-01  0.22954103743E-02  0.50000500000E+01  0.50000000000E+01 0.  1.
</event>
<event>
 4    1  0.5040302E-001  0.5000050E+01  0.7818608E-02  0.2136455E+00
        -11   -1    0    0    0    0  0.00000000000E+00  0.00000000000E+00  0.50000499739E+01  0.50000500000E+01  0.51100000000E-03 0.  1.
         11   -1    0    0    0    0 -0.00000000000E+00 -0.00000000000E+00 -0.50000499739E+01  0.50000500000E+01  0.51100000000E-03 0. -1.
     100001    1    1    2    0    0 -0.13427451611E-01  0.14123247796E-01  0.10965396250E-01  0.50000500000E+01  0.50000000000E+01 0.  1.
     100001    1    1    2    0    0  0.13427451611E-01 -0.14123247796E-01 -0.10965396250E-01  0.50000500000E+01  0.50000000000E+01 0. -1.
</event>
<event>
 4    1  0.5040302E-001  0.5000050E+01  0.7818608E-02  0.2136455E+00
        -11   -1    0    0    0    0  0.00000000000E+00  0.00000000000E+00  0.50000499739E+01  0.50000500000E+01  0.51100000000E-03 0. -1.
         11   -1    0    0    0    0 -0.00000000000E+00 -0.00000000000E+00 -0.50000499739E+01  0.50000500000E+01  0.51100000000E-03 0.  1.
     100001    1    1    2    0    0 -0.57489223374E-02  0.16889076833E-01 -0.13480039900E-01  0.50000500000E+01  0.50000000000E+01 0.  0.
     100001    1    1    2    0    0  0.57489223374E-02 -0.16889076833E-01  0.13480039900E-01  0.50000500000E+01  0.50000000000E+01 0.  0.
</event>
<event>
 4    1  0.5040302E-001  0.5000050E+01  0.7818608E-02  0.2136455E+00
        -11   -1    0    0    0    0  0.00000000000E+00  0.00000000000E+00  0.50000499739E+01  0.50000500000E+01  0.51100000000E-03 0.  1.
         11   -1    0    0    0    0 -0.00000000000E+00 -0.00000000000E+00 -0.50000499739E+01  0.50000500000E+01  0.51100000000E-03 0. -1.
     100001    1    1    2    0    0 -0.96690023972E-02 -0.47970326987E-02  0.19583191005E-01  0.50000500000E+01  0.50000000000E+01 0.  1.
     100001    1    1    2    0    0  0.96690023972E-02  0.47970326987E-02 -0.19583191005E-01  0.50000500000E+01  0.50000000000E+01 0.  0.
</event>
<event>
 4    1  0.5040302E-001  0.5000050E+01  0.7818608E-02  0.2136455E+00
        -11   -1    0    0    0    0  0.00000000000E+00  0.00000000000E+00  0.50000499739E+01  0.50000500000E+01  0.51100000000E-03 0. -1.
         11   -1    0    0    0    0 -0.00000000000E+00 -0.00000000000E+00 -0.50000499739E+01  0.50000500000E+01  0.51100000000E-03 0.  1.
     100001    1    1    2    0    0 -0.64363105371E-02 -0.19441161827E-01  0.89787322864E-02  0.50000500000E+01  0.50000000000E+01 0. -1.
     100001    1    1    2    0    0  0.64363105371E-02  0.19441161827E-01 -0.89787322864E-02  0.50000500000E+01  0.50000000000E+01 0.  1.
</event>
<event>
 4    1  0.5040302E-001  0.5000050E+01  0.7818608E-02  0.2136455E+00
        -11   -1    0    0    0    0  0.00000000000E+00  0.00000000000E+00  0.50000499739E+01  0.50000500000E+01  0.51100000000E-03 0.  1.
         11   -1    0    0    0    0 -0.00000000000E+00 -0.00000000000E+00 -0.50000499739E+01  0.50000500000E+01  0.51100000000E-03 0. -1.
     100001    1    1    2    0    0  0.18858350752E-01 -0.84622130530E-02  0.85297161233E-02  0.50000500000E+01  0.50000000000E+01 0.  0.
     100001    1    1    2    0    0 -0.18858350752E-01  0.84622130530E-02 -0.85297161233E-02  0.50000500000E+01  0.50000000000E+01 0.  0.
</event>
<event>
 4    1  0.5040302E-001  0.5000050E+01  0.7818608E-02  0.2136455E+00
        -11   -1    0    0    0    0  0.00000000000E+00  0.00000000000E+00  0.50000499739E+01  0.50000500000E+01  0.51100000000E-03 0.  1.
         11   -1    0    0    0    0 -0.00000000000E+00 -0.00000000000E+00 -0.50000499739E+01  0.50000500000E+01  0.51100000000E-03 0. -1.
     100001    1    1    2    0    0 -0.18780118557E-01 -0.56864533673E-02 -0.10722588078E-01  0.50000500000E+01  0.50000000000E+01 0. -1.
     100001    1    1    2    0    0  0.18780118557E-01  0.56864533673E-02  0.10722588078E-01  0.50000500000E+01  0.50000000000E+01 0.  1.
</event>
<event>
 4    1  0.5040302E-001  0.5000050E+01  0.7818608E-02  0.2136455E+00
        -11   -1    0    0    0    0  0.00000000000E+00  0.00000000000E+00  0.50000499739E+01  0.50000500000E+01  0.51100000000E-03 0. -1.
         11   -1    0    0    0    0 -0.00000000000E+00 -0.00000000000E+00 -0.50000499739E+01  0.50000500000E+01  0.51100000000E-03 0.  1.
     100001    1    1    2    0    0 -0.75581520045E-02  0.15214232244E-01 -0.14539737807E-01  0.50000500000E+01  0.50000000000E+01 0.  1.
     100001    1    1    2    0    0  0.75581520045E-02 -0.15214232244E-01  0.14539737807E-01  0.50000500000E+01  0.50000000000E+01 0. -1.
</event>
<event>
 4    1  0.5040302E-001  0.5000050E+01  0.7818608E-02  0.2136455E+00
        -11   -1    0    0    0    0  0.00000000000E+00  0.00000000000E+00  0.50000499739E+01  0.50000500000E+01  0.51100000000E-03 0.  1.
         11   -1    0    0    0    0 -0.00000000000E+00 -0.00000000000E+00 -0.50000499739E+01  0.50000500000E+01  0.51100000000E-03 0. -1.
     100001    1    1    2    0    0 -0.11498415551E-02 -0.18346018102E-01  0.12732006291E-01  0.50000500000E+01  0.50000000000E+01 0.  0.
     100001    1    1    2    0    0  0.11498415551E-02  0.18346018102E-01 -0.12732006291E-01  0.50000500000E+01  0.50000000000E+01 0.  0.
</event>
<event>
 4    1  0.5040302E-001  0.5000050E+01  0.7818608E-02  0.2136455E+00
        -11   -1    0    0    0    0  0.00000000000E+00  0.00000000000E+00  0.50000499739E+01  0.50000500000E+01  0.51100000000E-03 0.  1.
         11   -1    0    0    0    0 -0.00000000000E+00 -0.00000000000E+00 -0.50000499739E+01  0.50000500000E+01  0.51100000000E-03 0. -1.
     100001    1    1    2    0    0  0.43826613766E-02  0.17451711591E-01 -0.13275260517E-01  0.50000500000E+01  0.50000000000E+01 0.  1.
     100001    1    1    2    0    0 -0.43826613766E-02 -0.17451711591E-01  0.13275260517E-01  0.50000500000E+01  0.50000000000E+01 0.  0.
</event>
<event>
 4    1  0.5040302E-001  0.5000050E+01  0.7818608E-02  0.2136455E+00
        -11   -1    0    0    0    0  0.00000000000E+00  0.00000000000E+00  0.50000499739E+01  0.50000500000E+01  0.51100000000E-03 0. -1.
         11   -1    0    0    0    0 -0.00000000000E+00 -0.00000000000E+00 -0.50000499739E+01  0.50000500000E+01  0.51100000000E-03 0.  1.
     100001    1    1    2    0    0  0.10173637698E-01 -0.60996597815E-04 -0.19912204183E-01  0.50000500000E+01  0.50000000000E+01 0.  1.
     100001    1    1    2    0    0 -0.10173637698E-01  0.60996597815E-04  0.19912204183E-01  0.50000500000E+01  0.50000000000E+01 0.  0.
</event>
<event>
 4    1  0.5040302E-001  0.5000050E+01  0.7818608E-02  0.2136455E+00
        -11   -1    0    0    0    0  0.00000000000E+00  0.00000000000E+00  0.50000499739E+01  0.50000500000E+01  0.51100000000E-03 0.  1.
         11   -1    0    0    0    0 -0.00000000000E+00 -0.00000000000E+00 -0.50000499739E+01  0.50000500000E+01  0.51100000000E-03 0. -1.
     100001    1    1    2    0    0 -0.13445976962E-01 -0.40927265349E-02  0.17391313724E-01  0.50000500000E+01  0.50000000000E+01 0.  0.
     100001    1    1    2    0    0  0.13445976962E-01  0.40927265349E-02 -0.17391313724E-01  0.50000500000E+01  0.50000000000E+01 0.  0.
</event>
<event>
 4    1  0.5040302E-001  0.5000050E+01  0.7818608E-02  0.2136455E+00
        -11   -1    0    0    0    0  0.00000000000E+00  0.00000000000E+00  0.50000499739E+01  0.50000500000E+01  0.51100000000E-03 0. -1.
         11   -1    0    0    0    0 -0.00000000000E+00 -0.00000000000E+00 -0.50000499739E+01  0.50000500000E+01  0.51100000000E-03 0.  1.
     100001    1    1    2    0    0  0.18349758289E-01 -0.90402883628E-02  0.90311714102E-02  0.50000500000E+01  0.50000000000E+01 0. -1.
     100001    1    1    2    0    0 -0.18349758289E-01  0.90402883628E-02 -0.90311714102E-02  0.50000500000E+01  0.50000000000E+01 0.  1.
</event>
<event>
 4    1  0.5040302E-001  0.5000050E+01  0.7818608E-02  0.2136455E+00
        -11   -1    0    0    0    0  0.00000000000E+00  0.00000000000E+00  0.50000499739E+01  0.50000500000E+01  0.51100000000E-03 0.  1.
         11   -1    0    0    0    0 -0.00000000000E+00 -0.00000000000E+00 -0.50000499739E+01  0.50000500000E+01  0.51100000000E-03 0. -1.
     100001    1    1    2    0    0 -0.10241737794E-02  0.21970154777E-01 -0.40330964722E-02  0.50000500000E+01  0.50000000000E+01 0.  0.
     100001    1    1    2    0    0  0.10241737794E-02 -0.21970154777E-01  0.40330964722E-02  0.50000500000E+01  0.50000000000E+01 0.  0.
</event>
<event>
 4    1  0.5040302E-001  0.5000050E+01  0.7818608E-02  0.2136455E+00
        -11   -1    0    0    0    0  0.00000000000E+00  0.00000000000E+00  0.50000499739E+01  0.50000500000E+01  0.51100000000E-03 0. -1.
         11   -1    0    0    0    0 -0.00000000000E+00 -0.00000000000E+00 -0.50000499739E+01  0.50000500000E+01  0.51100000000E-03 0.  1.
     100001    1    1    2    0    0 -0.15915897057E-01 -0.13519742802E-01  0.79939524296E-02  0.50000500000E+01  0.50000000000E+01 0. -1.
     100001    1    1    2    0    0  0.15915897057E-01  0.13519742802E-01 -0.79939524296E-02  0.50000500000E+01  0.50000000000E+01 0.  1.
</event>
<event>
 4    1  0.5040302E-001  0.5000050E+01  0.7818608E-02  0.2136455E+00
        -11   -1    0    0    0    0  0.00000000000E+00  0.00000000000E+00  0.50000499739E+01  0.50000500000E+01  0.51100000000E-03 0.  1.
         11   -1    0    0    0    0 -0.00000000000E+00 -0.00000000000E+00 -0.50000499739E+01  0.50000500000E+01  0.51100000000E-03 0. -1.
     100001    1    1    2    0    0 -0.18999773637E-02 -0.18302210518E-01  0.12705183043E-01  0.50000500000E+01  0.50000000000E+01 0.  1.
     100001    1    1    2    0    0  0.18999773637E-02  0.18302210518E-01 -0.12705183043E-01  0.50000500000E+01  0.50000000000E+01 0. -1.
</event>
<event>
 4    1  0.5040302E-001  0.5000050E+01  0.7818608E-02  0.2136455E+00
        -11   -1    0    0    0    0  0.00000000000E+00  0.00000000000E+00  0.50000499739E+01  0.50000500000E+01  0.51100000000E-03 0.  1.
         11   -1    0    0    0    0 -0.00000000000E+00 -0.00000000000E+00 -0.50000499739E+01  0.50000500000E+01  0.51100000000E-03 0. -1.
     100001    1    1    2    0    0  0.19525013012E-01 -0.91908861995E-02 -0.58569597684E-02  0.50000500000E+01  0.50000000000E+01 0.  0.
     100001    1    1    2    0    0 -0.19525013012E-01  0.91908861995E-02  0.58569597684E-02  0.50000500000E+01  0.50000000000E+01 0.  0.
</event>
<event>
 4    1  0.5040302E-001  0.5000050E+01  0.7818608E-02  0.2136455E+00
        -11   -1    0    0    0    0  0.00000000000E+00  0.00000000000E+00  0.50000499739E+01  0.50000500000E+01  0.51100000000E-03 0. -1.
         11   -1    0    0    0    0 -0.00000000000E+00 -0.00000000000E+00 -0.50000499739E+01  0.50000500000E+01  0.51100000000E-03 0.  1.
     100001    1    1    2    0    0 -0.18052251872E-01 -0.13124825792E-01 -0.13629564538E-02  0.50000500000E+01  0.50000000000E+01 0.  1.
     100001    1    1    2    0    0  0.18052251872E-01  0.13124825792E-01  0.13629564538E-02  0.50000500000E+01  0.50000000000E+01 0.  0.
</event>
<event>
 4    1  0.5040302E-001  0.5000050E+01  0.7818608E-02  0.2136455E+00
        -11   -1    0    0    0    0  0.00000000000E+00  0.00000000000E+00  0.50000499739E+01  0.50000500000E+01  0.51100000000E-03 0.  1.
         11   -1    0    0    0    0 -0.00000000000E+00 -0.00000000000E+00 -0.50000499739E+01  0.50000500000E+01  0.51100000000E-03 0. -1.
     100001    1    1    2    0    0 -0.16789477869E-01 -0.14130746934E-01 -0.42939403792E-02  0.50000500000E+01  0.50000000000E+01 0.  0.
     100001    1    1    2    0    0  0.16789477869E-01  0.14130746934E-01  0.42939403792E-02  0.50000500000E+01  0.50000000000E+01 0.  1.
</event>
<event>
 4    1  0.5040302E-001  0.5000050E+01  0.7818608E-02  0.2136455E+00
        -11   -1    0    0    0    0  0.00000000000E+00  0.00000000000E+00  0.50000499739E+01  0.50000500000E+01  0.51100000000E-03 0.  1.
         11   -1    0    0    0    0 -0.00000000000E+00 -0.00000000000E+00 -0.50000499739E+01  0.50000500000E+01  0.51100000000E-03 0. -1.
     100001    1    1    2    0    0 -0.10878150039E-01  0.17019709071E-01  0.95915512224E-02  0.50000500000E+01  0.50000000000E+01 0.  0.
     100001    1    1    2    0    0  0.10878150039E-01 -0.17019709071E-01 -0.95915512224E-02  0.50000500000E+01  0.50000000000E+01 0.  0.
</event>
<event>
 4    1  0.5040302E-001  0.5000050E+01  0.7818608E-02  0.2136455E+00
        -11   -1    0    0    0    0  0.00000000000E+00  0.00000000000E+00  0.50000499739E+01  0.50000500000E+01  0.51100000000E-03 0.  1.
         11   -1    0    0    0    0 -0.00000000000E+00 -0.00000000000E+00 -0.50000499739E+01  0.50000500000E+01  0.51100000000E-03 0. -1.
     100001    1    1    2    0    0 -0.12517800899E-01 -0.17207679934E-01  0.68704375345E-02  0.50000500000E+01  0.50000000000E+01 0.  1.
     100001    1    1    2    0    0  0.12517800899E-01  0.17207679934E-01 -0.68704375345E-02  0.50000500000E+01  0.50000000000E+01 0. -1.
</event>
<event>
 4    1  0.5040302E-001  0.5000050E+01  0.7818608E-02  0.2136455E+00
        -11   -1    0    0    0    0  0.00000000000E+00  0.00000000000E+00  0.50000499739E+01  0.50000500000E+01  0.51100000000E-03 0.  1.
         11   -1    0    0    0    0 -0.00000000000E+00 -0.00000000000E+00 -0.50000499739E+01  0.50000500000E+01  0.51100000000E-03 0. -1.
     100001    1    1    2    0    0  0.17166249416E-01 -0.11630613704E-02  0.14281795028E-01  0.50000500000E+01  0.50000000000E+01 0.  1.
     100001    1    1    2    0    0 -0.17166249416E-01  0.11630613704E-02 -0.14281795028E-01  0.50000500000E+01  0.50000000000E+01 0. -1.
</event>
<event>
 4    1  0.5040302E-001  0.5000050E+01  0.7818608E-02  0.2136455E+00
        -11   -1    0    0    0    0  0.00000000000E+00  0.00000000000E+00  0.50000499739E+01  0.50000500000E+01  0.51100000000E-03 0.  1.
         11   -1    0    0    0    0 -0.00000000000E+00 -0.00000000000E+00 -0.50000499739E+01  0.50000500000E+01  0.51100000000E-03 0. -1.
     100001    1    1    2    0    0  0.10719906501E-02  0.18276679533E-01 -0.12838080904E-01  0.50000500000E+01  0.50000000000E+01 0.  0.
     100001    1    1    2    0    0 -0.10719906501E-02 -0.18276679533E-01  0.12838080904E-01  0.50000500000E+01  0.50000000000E+01 0.  0.
</event>
<event>
 4    1  0.5040302E-001  0.5000050E+01  0.7818608E-02  0.2136455E+00
        -11   -1    0    0    0    0  0.00000000000E+00  0.00000000000E+00  0.50000499739E+01  0.50000500000E+01  0.51100000000E-03 0.  1.
         11   -1    0    0    0    0 -0.00000000000E+00 -0.00000000000E+00 -0.50000499739E+01  0.50000500000E+01  0.51100000000E-03 0. -1.
     100001    1    1    2    0    0  0.14558716688E-01 -0.96350816597E-03 -0.16944554299E-01  0.50000500000E+01  0.50000000000E+01 0. -1.
     100001    1    1    2    0    0 -0.14558716688E-01  0.96350816597E-03  0.16944554299E-01  0.50000500000E+01  0.50000000000E+01 0.  1.
</event>
<event>
 4    1  0.5040302E-001  0.5000050E+01  0.7818608E-02  0.2136455E+00
        -11   -1    0    0    0    0  0.00000000000E+00  0.00000000000E+00  0.50000499739E+01  0.50000500000E+01  0.51100000000E-03 0. -1.
         11   -1    0    0    0    0 -0.00000000000E+00 -0.00000000000E+00 -0.50000499739E+01  0.50000500000E+01  0.51100000000E-03 0.  1.
     100001    1    1    2    0    0 -0.25276360570E-02 -0.21270706354E-01 -0.64164325885E-02  0.50000500000E+01  0.50000000000E+01 0.  1.
     100001    1    1    2    0    0  0.25276360570E-02  0.21270706354E-01  0.64164325885E-02  0.50000500000E+01  0.50000000000E+01 0. -1.
</event>
<event>
 4    1  0.5040302E-001  0.5000050E+01  0.7818608E-02  0.2136455E+00
        -11   -1    0    0    0    0  0.00000000000E+00  0.00000000000E+00  0.50000499739E+01  0.50000500000E+01  0.51100000000E-03 0.  1.
         11   -1    0    0    0    0 -0.00000000000E+00 -0.00000000000E+00 -0.50000499739E+01  0.50000500000E+01  0.51100000000E-03 0. -1.
     100001    1    1    2    0    0  0.56307290354E-02 -0.60427492768E-03 -0.21631741547E-01  0.50000500000E+01  0.50000000000E+01 0. -1.
     100001    1    1    2    0    0 -0.56307290354E-02  0.60427492768E-03  0.21631741547E-01  0.50000500000E+01  0.50000000000E+01 0.  0.
</event>
<event>
 4    1  0.5040302E-001  0.5000050E+01  0.7818608E-02  0.2136455E+00
        -11   -1    0    0    0    0  0.00000000000E+00  0.00000000000E+00  0.50000499739E+01  0.50000500000E+01  0.51100000000E-03 0.  1.
         11   -1    0    0    0    0 -0.00000000000E+00 -0.00000000000E+00 -0.50000499739E+01  0.50000500000E+01  0.51100000000E-03 0. -1.
     100001    1    1    2    0    0  0.10004668530E-01  0.55651429041E-03 -0.19989982478E-01  0.50000500000E+01  0.50000000000E+01 0.  0.
     100001    1    1    2    0    0 -0.10004668530E-01 -0.55651429041E-03  0.19989982478E-01  0.50000500000E+01  0.50000000000E+01 0.  1.
</event>
<event>
 4    1  0.5040302E-001  0.5000050E+01  0.7818608E-02  0.2136455E+00
        -11   -1    0    0    0    0  0.00000000000E+00  0.00000000000E+00  0.50000499739E+01  0.50000500000E+01  0.51100000000E-03 0. -1.
         11   -1    0    0    0    0 -0.00000000000E+00 -0.00000000000E+00 -0.50000499739E+01  0.50000500000E+01  0.51100000000E-03 0.  1.
     100001    1    1    2    0    0  0.21004769787E-01 -0.58158414363E-03 -0.76461693722E-02  0.50000500000E+01  0.50000000000E+01 0.  1.
     100001    1    1    2    0    0 -0.21004769787E-01  0.58158414363E-03  0.76461693722E-02  0.50000500000E+01  0.50000000000E+01 0. -1.
</event>
<event>
 4    1  0.5040302E-001  0.5000050E+01  0.7818608E-02  0.2136455E+00
        -11   -1    0    0    0    0  0.00000000000E+00  0.00000000000E+00  0.50000499739E+01  0.50000500000E+01  0.51100000000E-03 0. -1.
         11   -1    0    0    0    0 -0.00000000000E+00 -0.00000000000E+00 -0.50000499739E+01  0.50000500000E+01  0.51100000000E-03 0.  1.
     100001    1    1    2    0    0  0.13999797977E-01 -0.16792422337E-01 -0.46928358879E-02  0.50000500000E+01  0.50000000000E+01 0. -1.
     100001    1    1    2    0    0 -0.13999797977E-01  0.16792422337E-01  0.46928358879E-02  0.50000500000E+01  0.50000000000E+01 0. -1.
</event>
<event>
 4    1  0.5040302E-001  0.5000050E+01  0.7818608E-02  0.2136455E+00
        -11   -1    0    0    0    0  0.00000000000E+00  0.00000000000E+00  0.50000499739E+01  0.50000500000E+01  0.51100000000E-03 0. -1.
         11   -1    0    0    0    0 -0.00000000000E+00 -0.00000000000E+00 -0.50000499739E+01  0.50000500000E+01  0.51100000000E-03 0.  1.
     100001    1    1    2    0    0  0.10494004913E-01  0.11292191697E-01  0.16197677845E-01  0.50000500000E+01  0.50000000000E+01 0.  0.
     100001    1    1    2    0    0 -0.10494004913E-01 -0.11292191697E-01 -0.16197677845E-01  0.50000500000E+01  0.50000000000E+01 0.  0.
</event>
<event>
 4    1  0.5040302E-001  0.5000050E+01  0.7818608E-02  0.2136455E+00
        -11   -1    0    0    0    0  0.00000000000E+00  0.00000000000E+00  0.50000499739E+01  0.50000500000E+01  0.51100000000E-03 0. -1.
         11   -1    0    0    0    0 -0.00000000000E+00 -0.00000000000E+00 -0.50000499739E+01  0.50000500000E+01  0.51100000000E-03 0.  1.
     100001    1    1    2    0    0 -0.13525114413E-01 -0.47890636894E-02  0.17150470813E-01  0.50000500000E+01  0.50000000000E+01 0. -1.
     100001    1    1    2    0    0  0.13525114413E-01  0.47890636894E-02 -0.17150470813E-01  0.50000500000E+01  0.50000000000E+01 0.  0.
</event>
<event>
 4    1  0.5040302E-001  0.5000050E+01  0.7818608E-02  0.2136455E+00
        -11   -1    0    0    0    0  0.00000000000E+00  0.00000000000E+00  0.50000499739E+01  0.50000500000E+01  0.51100000000E-03 0. -1.
         11   -1    0    0    0    0 -0.00000000000E+00 -0.00000000000E+00 -0.50000499739E+01  0.50000500000E+01  0.51100000000E-03 0.  1.
     100001    1    1    2    0    0  0.11606863077E-02  0.12437578616E-01  0.18546211081E-01  0.50000500000E+01  0.50000000000E+01 0.  0.
     100001    1    1    2    0    0 -0.11606863077E-02 -0.12437578616E-01 -0.18546211081E-01  0.50000500000E+01  0.50000000000E+01 0.  0.
</event>
<event>
 4    1  0.5040302E-001  0.5000050E+01  0.7818608E-02  0.2136455E+00
        -11   -1    0    0    0    0  0.00000000000E+00  0.00000000000E+00  0.50000499739E+01  0.50000500000E+01  0.51100000000E-03 0.  1.
         11   -1    0    0    0    0 -0.00000000000E+00 -0.00000000000E+00 -0.50000499739E+01  0.50000500000E+01  0.51100000000E-03 0. -1.
     100001    1    1    2    0    0  0.19865813621E-01 -0.10258726625E-01 -0.33238113962E-03  0.50000500000E+01  0.50000000000E+01 0.  0.
     100001    1    1    2    0    0 -0.19865813621E-01  0.10258726625E-01  0.33238113962E-03  0.50000500000E+01  0.50000000000E+01 0. -1.
</event>
<event>
 4    1  0.5040302E-001  0.5000050E+01  0.7818608E-02  0.2136455E+00
        -11   -1    0    0    0    0  0.00000000000E+00  0.00000000000E+00  0.50000499739E+01  0.50000500000E+01  0.51100000000E-03 0. -1.
         11   -1    0    0    0    0 -0.00000000000E+00 -0.00000000000E+00 -0.50000499739E+01  0.50000500000E+01  0.51100000000E-03 0.  1.
     100001    1    1    2    0    0  0.18982135896E-01  0.11319583118E-01  0.33982429055E-02  0.50000500000E+01  0.50000000000E+01 0.  0.
     100001    1    1    2    0    0 -0.18982135896E-01 -0.11319583118E-01 -0.33982429055E-02  0.50000500000E+01  0.50000000000E+01 0. -1.
</event>
<event>
 4    1  0.5040302E-001  0.5000050E+01  0.7818608E-02  0.2136455E+00
        -11   -1    0    0    0    0  0.00000000000E+00  0.00000000000E+00  0.50000499739E+01  0.50000500000E+01  0.51100000000E-03 0.  1.
         11   -1    0    0    0    0 -0.00000000000E+00 -0.00000000000E+00 -0.50000499739E+01  0.50000500000E+01  0.51100000000E-03 0. -1.
     100001    1    1    2    0    0 -0.26338253314E-02  0.89437057705E-02  0.20324261148E-01  0.50000500000E+01  0.50000000000E+01 0.  0.
     100001    1    1    2    0    0  0.26338253314E-02 -0.89437057705E-02 -0.20324261148E-01  0.50000500000E+01  0.50000000000E+01 0.  1.
</event>
<event>
 4    1  0.5040302E-001  0.5000050E+01  0.7818608E-02  0.2136455E+00
        -11   -1    0    0    0    0  0.00000000000E+00  0.00000000000E+00  0.50000499739E+01  0.50000500000E+01  0.51100000000E-03 0.  1.
         11   -1    0    0    0    0 -0.00000000000E+00 -0.00000000000E+00 -0.50000499739E+01  0.50000500000E+01  0.51100000000E-03 0. -1.
     100001    1    1    2    0    0 -0.23647545281E-02  0.21876525640E-01  0.39784496885E-02  0.50000500000E+01  0.50000000000E+01 0.  1.
     100001    1    1    2    0    0  0.23647545281E-02 -0.21876525640E-01 -0.39784496885E-02  0.50000500000E+01  0.50000000000E+01 0. -1.
</event>
<event>
 4    1  0.5040302E-001  0.5000050E+01  0.7818608E-02  0.2136455E+00
        -11   -1    0    0    0    0  0.00000000000E+00  0.00000000000E+00  0.50000499739E+01  0.50000500000E+01  0.51100000000E-03 0.  1.
         11   -1    0    0    0    0 -0.00000000000E+00 -0.00000000000E+00 -0.50000499739E+01  0.50000500000E+01  0.51100000000E-03 0. -1.
     100001    1    1    2    0    0 -0.14742701963E-01 -0.10532062559E-01  0.13104613581E-01  0.50000500000E+01  0.50000000000E+01 0.  0.
     100001    1    1    2    0    0  0.14742701963E-01  0.10532062559E-01 -0.13104613581E-01  0.50000500000E+01  0.50000000000E+01 0.  0.
</event>
<event>
 4    1  0.5040302E-001  0.5000050E+01  0.7818608E-02  0.2136455E+00
        -11   -1    0    0    0    0  0.00000000000E+00  0.00000000000E+00  0.50000499739E+01  0.50000500000E+01  0.51100000000E-03 0.  1.
         11   -1    0    0    0    0 -0.00000000000E+00 -0.00000000000E+00 -0.50000499739E+01  0.50000500000E+01  0.51100000000E-03 0. -1.
     100001    1    1    2    0    0  0.11576699770E-02 -0.19188864588E-01 -0.11421461205E-01  0.50000500000E+01  0.50000000000E+01 0. -1.
     100001    1    1    2    0    0 -0.11576699770E-02  0.19188864588E-01  0.11421461205E-01  0.50000500000E+01  0.50000000000E+01 0.  1.
</event>
<event>
 4    1  0.5040302E-001  0.5000050E+01  0.7818608E-02  0.2136455E+00
        -11   -1    0    0    0    0  0.00000000000E+00  0.00000000000E+00  0.50000499739E+01  0.50000500000E+01  0.51100000000E-03 0. -1.
         11   -1    0    0    0    0 -0.00000000000E+00 -0.00000000000E+00 -0.50000499739E+01  0.50000500000E+01  0.51100000000E-03 0.  1.
     100001    1    1    2    0    0 -0.15274877059E-01  0.20707910090E-02  0.16198532508E-01  0.50000500000E+01  0.50000000000E+01 0.  1.
     100001    1    1    2    0    0  0.15274877059E-01 -0.20707910090E-02 -0.16198532508E-01  0.50000500000E+01  0.50000000000E+01 0.  0.
</event>
<event>
 4    1  0.5040302E-001  0.5000050E+01  0.7818608E-02  0.2136455E+00
        -11   -1    0    0    0    0  0.00000000000E+00  0.00000000000E+00  0.50000499739E+01  0.50000500000E+01  0.51100000000E-03 0.  1.
         11   -1    0    0    0    0 -0.00000000000E+00 -0.00000000000E+00 -0.50000499739E+01  0.50000500000E+01  0.51100000000E-03 0. -1.
     100001    1    1    2    0    0 -0.11402882518E-01  0.11643009809E-01 -0.15310685577E-01  0.50000500000E+01  0.50000000000E+01 0. -1.
     100001    1    1    2    0    0  0.11402882518E-01 -0.11643009809E-01  0.15310685577E-01  0.50000500000E+01  0.50000000000E+01 0.  1.
</event>
<event>
 4    1  0.5040302E-001  0.5000050E+01  0.7818608E-02  0.2136455E+00
        -11   -1    0    0    0    0  0.00000000000E+00  0.00000000000E+00  0.50000499739E+01  0.50000500000E+01  0.51100000000E-03 0. -1.
         11   -1    0    0    0    0 -0.00000000000E+00 -0.00000000000E+00 -0.50000499739E+01  0.50000500000E+01  0.51100000000E-03 0.  1.
     100001    1    1    2    0    0  0.63309797410E-02  0.12388012936E-01  0.17505951303E-01  0.50000500000E+01  0.50000000000E+01 0.  0.
     100001    1    1    2    0    0 -0.63309797410E-02 -0.12388012936E-01 -0.17505951303E-01  0.50000500000E+01  0.50000000000E+01 0.  1.
</event>
<event>
 4    1  0.5040302E-001  0.5000050E+01  0.7818608E-02  0.2136455E+00
        -11   -1    0    0    0    0  0.00000000000E+00  0.00000000000E+00  0.50000499739E+01  0.50000500000E+01  0.51100000000E-03 0. -1.
         11   -1    0    0    0    0 -0.00000000000E+00 -0.00000000000E+00 -0.50000499739E+01  0.50000500000E+01  0.51100000000E-03 0.  1.
     100001    1    1    2    0    0 -0.18775699929E-01 -0.31883237105E-02 -0.11717942826E-01  0.50000500000E+01  0.50000000000E+01 0. -1.
     100001    1    1    2    0    0  0.18775699929E-01  0.31883237105E-02  0.11717942826E-01  0.50000500000E+01  0.50000000000E+01 0.  0.
</event>
<event>
 4    1  0.5040302E-001  0.5000050E+01  0.7818608E-02  0.2136455E+00
        -11   -1    0    0    0    0  0.00000000000E+00  0.00000000000E+00  0.50000499739E+01  0.50000500000E+01  0.51100000000E-03 0. -1.
         11   -1    0    0    0    0 -0.00000000000E+00 -0.00000000000E+00 -0.50000499739E+01  0.50000500000E+01  0.51100000000E-03 0.  1.
     100001    1    1    2    0    0 -0.37578466921E-02  0.10746512055E-01 -0.19245611627E-01  0.50000500000E+01  0.50000000000E+01 0.  0.
     100001    1    1    2    0    0  0.37578466921E-02 -0.10746512055E-01  0.19245611627E-01  0.50000500000E+01  0.50000000000E+01 0.  0.
</event>
<event>
 4    1  0.5040302E-001  0.5000050E+01  0.7818608E-02  0.2136455E+00
        -11   -1    0    0    0    0  0.00000000000E+00  0.00000000000E+00  0.50000499739E+01  0.50000500000E+01  0.51100000000E-03 0.  1.
         11   -1    0    0    0    0 -0.00000000000E+00 -0.00000000000E+00 -0.50000499739E+01  0.50000500000E+01  0.51100000000E-03 0. -1.
     100001    1    1    2    0    0 -0.15536575180E-01  0.85007058426E-02 -0.13651202579E-01  0.50000500000E+01  0.50000000000E+01 0. -1.
     100001    1    1    2    0    0  0.15536575180E-01 -0.85007058426E-02  0.13651202579E-01  0.50000500000E+01  0.50000000000E+01 0. -1.
</event>
<event>
 4    1  0.5040302E-001  0.5000050E+01  0.7818608E-02  0.2136455E+00
        -11   -1    0    0    0    0  0.00000000000E+00  0.00000000000E+00  0.50000499739E+01  0.50000500000E+01  0.51100000000E-03 0. -1.
         11   -1    0    0    0    0 -0.00000000000E+00 -0.00000000000E+00 -0.50000499739E+01  0.50000500000E+01  0.51100000000E-03 0.  1.
     100001    1    1    2    0    0 -0.69355782154E-02 -0.14344618187E-01  0.15688600444E-01  0.50000500000E+01  0.50000000000E+01 0.  0.
     100001    1    1    2    0    0  0.69355782154E-02  0.14344618187E-01 -0.15688600444E-01  0.50000500000E+01  0.50000000000E+01 0. -1.
</event>
<event>
 4    1  0.5040302E-001  0.5000050E+01  0.7818608E-02  0.2136455E+00
        -11   -1    0    0    0    0  0.00000000000E+00  0.00000000000E+00  0.50000499739E+01  0.50000500000E+01  0.51100000000E-03 0.  1.
         11   -1    0    0    0    0 -0.00000000000E+00 -0.00000000000E+00 -0.50000499739E+01  0.50000500000E+01  0.51100000000E-03 0. -1.
     100001    1    1    2    0    0 -0.21408343715E-01  0.45068493964E-02  0.46231621104E-02  0.50000500000E+01  0.50000000000E+01 0.  1.
     100001    1    1    2    0    0  0.21408343715E-01 -0.45068493964E-02 -0.46231621104E-02  0.50000500000E+01  0.50000000000E+01 0.  0.
</event>
<event>
 4    1  0.5040302E-001  0.5000050E+01  0.7818608E-02  0.2136455E+00
        -11   -1    0    0    0    0  0.00000000000E+00  0.00000000000E+00  0.50000499739E+01  0.50000500000E+01  0.51100000000E-03 0.  1.
         11   -1    0    0    0    0 -0.00000000000E+00 -0.00000000000E+00 -0.50000499739E+01  0.50000500000E+01  0.51100000000E-03 0. -1.
     100001    1    1    2    0    0  0.39471455831E-02 -0.13088930513E-01 -0.17694700895E-01  0.50000500000E+01  0.50000000000E+01 0. -1.
     100001    1    1    2    0    0 -0.39471455831E-02  0.13088930513E-01  0.17694700895E-01  0.50000500000E+01  0.50000000000E+01 0.  0.
</event>
<event>
 4    1  0.5040302E-001  0.5000050E+01  0.7818608E-02  0.2136455E+00
        -11   -1    0    0    0    0  0.00000000000E+00  0.00000000000E+00  0.50000499739E+01  0.50000500000E+01  0.51100000000E-03 0.  1.
         11   -1    0    0    0    0 -0.00000000000E+00 -0.00000000000E+00 -0.50000499739E+01  0.50000500000E+01  0.51100000000E-03 0. -1.
     100001    1    1    2    0    0 -0.14202516230E-02  0.20891548957E-01 -0.78440147555E-02  0.50000500000E+01  0.50000000000E+01 0. -1.
     100001    1    1    2    0    0  0.14202516230E-02 -0.20891548957E-01  0.78440147555E-02  0.50000500000E+01  0.50000000000E+01 0.  1.
</event>
<event>
 4    1  0.5040302E-001  0.5000050E+01  0.7818608E-02  0.2136455E+00
        -11   -1    0    0    0    0  0.00000000000E+00  0.00000000000E+00  0.50000499739E+01  0.50000500000E+01  0.51100000000E-03 0.  1.
         11   -1    0    0    0    0 -0.00000000000E+00 -0.00000000000E+00 -0.50000499739E+01  0.50000500000E+01  0.51100000000E-03 0. -1.
     100001    1    1    2    0    0 -0.15970530561E-01  0.86444795391E-02 -0.13046747760E-01  0.50000500000E+01  0.50000000000E+01 0. -1.
     100001    1    1    2    0    0  0.15970530561E-01 -0.86444795391E-02  0.13046747760E-01  0.50000500000E+01  0.50000000000E+01 0.  1.
</event>
<event>
 4    1  0.5040302E-001  0.5000050E+01  0.7818608E-02  0.2136455E+00
        -11   -1    0    0    0    0  0.00000000000E+00  0.00000000000E+00  0.50000499739E+01  0.50000500000E+01  0.51100000000E-03 0.  1.
         11   -1    0    0    0    0 -0.00000000000E+00 -0.00000000000E+00 -0.50000499739E+01  0.50000500000E+01  0.51100000000E-03 0. -1.
     100001    1    1    2    0    0  0.15539898098E-01  0.99230604466E-02 -0.12650965911E-01  0.50000500000E+01  0.50000000000E+01 0.  1.
     100001    1    1    2    0    0 -0.15539898098E-01 -0.99230604466E-02  0.12650965911E-01  0.50000500000E+01  0.50000000000E+01 0.  0.
</event>
<event>
 4    1  0.5040302E-001  0.5000050E+01  0.7818608E-02  0.2136455E+00
        -11   -1    0    0    0    0  0.00000000000E+00  0.00000000000E+00  0.50000499739E+01  0.50000500000E+01  0.51100000000E-03 0. -1.
         11   -1    0    0    0    0 -0.00000000000E+00 -0.00000000000E+00 -0.50000499739E+01  0.50000500000E+01  0.51100000000E-03 0.  1.
     100001    1    1    2    0    0 -0.14238196762E-01  0.14714241870E-01  0.89870651032E-02  0.50000500000E+01  0.50000000000E+01 0. -1.
     100001    1    1    2    0    0  0.14238196762E-01 -0.14714241870E-01 -0.89870651032E-02  0.50000500000E+01  0.50000000000E+01 0.  1.
</event>
<event>
 4    1  0.5040302E-001  0.5000050E+01  0.7818608E-02  0.2136455E+00
        -11   -1    0    0    0    0  0.00000000000E+00  0.00000000000E+00  0.50000499739E+01  0.50000500000E+01  0.51100000000E-03 0. -1.
         11   -1    0    0    0    0 -0.00000000000E+00 -0.00000000000E+00 -0.50000499739E+01  0.50000500000E+01  0.51100000000E-03 0.  1.
     100001    1    1    2    0    0  0.11425021339E-01  0.18571567902E-01 -0.49566372728E-02  0.50000500000E+01  0.50000000000E+01 0. -1.
     100001    1    1    2    0    0 -0.11425021339E-01 -0.18571567902E-01  0.49566372728E-02  0.50000500000E+01  0.50000000000E+01 0.  1.
</event>
<event>
 4    1  0.5040302E-001  0.5000050E+01  0.7818608E-02  0.2136455E+00
        -11   -1    0    0    0    0  0.00000000000E+00  0.00000000000E+00  0.50000499739E+01  0.50000500000E+01  0.51100000000E-03 0.  1.
         11   -1    0    0    0    0 -0.00000000000E+00 -0.00000000000E+00 -0.50000499739E+01  0.50000500000E+01  0.51100000000E-03 0. -1.
     100001    1    1    2    0    0  0.44479464645E-02 -0.93177152152E-02 -0.19834274764E-01  0.50000500000E+01  0.50000000000E+01 0.  0.
     100001    1    1    2    0    0 -0.44479464645E-02  0.93177152152E-02  0.19834274764E-01  0.50000500000E+01  0.50000000000E+01 0.  0.
</event>
<event>
 4    1  0.5040302E-001  0.5000050E+01  0.7818608E-02  0.2136455E+00
        -11   -1    0    0    0    0  0.00000000000E+00  0.00000000000E+00  0.50000499739E+01  0.50000500000E+01  0.51100000000E-03 0.  1.
         11   -1    0    0    0    0 -0.00000000000E+00 -0.00000000000E+00 -0.50000499739E+01  0.50000500000E+01  0.51100000000E-03 0. -1.
     100001    1    1    2    0    0 -0.17346923004E-01  0.34453083012E-02  0.13682712194E-01  0.50000500000E+01  0.50000000000E+01 0. -1.
     100001    1    1    2    0    0  0.17346923004E-01 -0.34453083012E-02 -0.13682712194E-01  0.50000500000E+01  0.50000000000E+01 0.  0.
</event>
<event>
 4    1  0.5040302E-001  0.5000050E+01  0.7818608E-02  0.2136455E+00
        -11   -1    0    0    0    0  0.00000000000E+00  0.00000000000E+00  0.50000499739E+01  0.50000500000E+01  0.51100000000E-03 0.  1.
         11   -1    0    0    0    0 -0.00000000000E+00 -0.00000000000E+00 -0.50000499739E+01  0.50000500000E+01  0.51100000000E-03 0. -1.
     100001    1    1    2    0    0  0.12894683155E-01 -0.82658625984E-02 -0.16291260290E-01  0.50000500000E+01  0.50000000000E+01 0.  1.
     100001    1    1    2    0    0 -0.12894683155E-01  0.82658625984E-02  0.16291260290E-01  0.50000500000E+01  0.50000000000E+01 0.  0.
</event>
<event>
 4    1  0.5040302E-001  0.5000050E+01  0.7818608E-02  0.2136455E+00
        -11   -1    0    0    0    0  0.00000000000E+00  0.00000000000E+00  0.50000499739E+01  0.50000500000E+01  0.51100000000E-03 0.  1.
         11   -1    0    0    0    0 -0.00000000000E+00 -0.00000000000E+00 -0.50000499739E+01  0.50000500000E+01  0.51100000000E-03 0. -1.
     100001    1    1    2    0    0 -0.69812028276E-02  0.13572691406E-01  0.16341583616E-01  0.50000500000E+01  0.50000000000E+01 0.  1.
     100001    1    1    2    0    0  0.69812028276E-02 -0.13572691406E-01 -0.16341583616E-01  0.50000500000E+01  0.50000000000E+01 0. -1.
</event>
<event>
 4    1  0.5040302E-001  0.5000050E+01  0.7818608E-02  0.2136455E+00
        -11   -1    0    0    0    0  0.00000000000E+00  0.00000000000E+00  0.50000499739E+01  0.50000500000E+01  0.51100000000E-03 0. -1.
         11   -1    0    0    0    0 -0.00000000000E+00 -0.00000000000E+00 -0.50000499739E+01  0.50000500000E+01  0.51100000000E-03 0.  1.
     100001    1    1    2    0    0  0.12914226238E-01  0.15579194035E-01 -0.95138832181E-02  0.50000500000E+01  0.50000000000E+01 0.  0.
     100001    1    1    2    0    0 -0.12914226238E-01 -0.15579194035E-01  0.95138832181E-02  0.50000500000E+01  0.50000000000E+01 0.  0.
</event>
<event>
 4    1  0.5040302E-001  0.5000050E+01  0.7818608E-02  0.2136455E+00
        -11   -1    0    0    0    0  0.00000000000E+00  0.00000000000E+00  0.50000499739E+01  0.50000500000E+01  0.51100000000E-03 0.  1.
         11   -1    0    0    0    0 -0.00000000000E+00 -0.00000000000E+00 -0.50000499739E+01  0.50000500000E+01  0.51100000000E-03 0. -1.
     100001    1    1    2    0    0  0.15842315344E-01 -0.32120957314E-02  0.15450112801E-01  0.50000500000E+01  0.50000000000E+01 0.  0.
     100001    1    1    2    0    0 -0.15842315344E-01  0.32120957314E-02 -0.15450112801E-01  0.50000500000E+01  0.50000000000E+01 0.  1.
</event>
<event>
 4    1  0.5040302E-001  0.5000050E+01  0.7818608E-02  0.2136455E+00
        -11   -1    0    0    0    0  0.00000000000E+00  0.00000000000E+00  0.50000499739E+01  0.50000500000E+01  0.51100000000E-03 0.  1.
         11   -1    0    0    0    0 -0.00000000000E+00 -0.00000000000E+00 -0.50000499739E+01  0.50000500000E+01  0.51100000000E-03 0. -1.
     100001    1    1    2    0    0 -0.15455256396E-01 -0.15391855984E-01  0.49222270455E-02  0.50000500000E+01  0.50000000000E+01 0.  1.
     100001    1    1    2    0    0  0.15455256396E-01  0.15391855984E-01 -0.49222270455E-02  0.50000500000E+01  0.50000000000E+01 0. -1.
</event>
<event>
 4    1  0.5040302E-001  0.5000050E+01  0.7818608E-02  0.2136455E+00
        -11   -1    0    0    0    0  0.00000000000E+00  0.00000000000E+00  0.50000499739E+01  0.50000500000E+01  0.51100000000E-03 0.  1.
         11   -1    0    0    0    0 -0.00000000000E+00 -0.00000000000E+00 -0.50000499739E+01  0.50000500000E+01  0.51100000000E-03 0. -1.
     100001    1    1    2    0    0 -0.12622407943E-01  0.17492540166E-01  0.58896821865E-02  0.50000500000E+01  0.50000000000E+01 0.  1.
     100001    1    1    2    0    0  0.12622407943E-01 -0.17492540166E-01 -0.58896821865E-02  0.50000500000E+01  0.50000000000E+01 0. -1.
</event>
<event>
 4    1  0.5040302E-001  0.5000050E+01  0.7818608E-02  0.2136455E+00
        -11   -1    0    0    0    0  0.00000000000E+00  0.00000000000E+00  0.50000499739E+01  0.50000500000E+01  0.51100000000E-03 0. -1.
         11   -1    0    0    0    0 -0.00000000000E+00 -0.00000000000E+00 -0.50000499739E+01  0.50000500000E+01  0.51100000000E-03 0.  1.
     100001    1    1    2    0    0  0.11766819623E-01  0.13928272302E-02 -0.18963240448E-01  0.50000500000E+01  0.50000000000E+01 0.  0.
     100001    1    1    2    0    0 -0.11766819623E-01 -0.13928272302E-02  0.18963240448E-01  0.50000500000E+01  0.50000000000E+01 0.  0.
</event>
<event>
 4    1  0.5040302E-001  0.5000050E+01  0.7818608E-02  0.2136455E+00
        -11   -1    0    0    0    0  0.00000000000E+00  0.00000000000E+00  0.50000499739E+01  0.50000500000E+01  0.51100000000E-03 0.  1.
         11   -1    0    0    0    0 -0.00000000000E+00 -0.00000000000E+00 -0.50000499739E+01  0.50000500000E+01  0.51100000000E-03 0. -1.
     100001    1    1    2    0    0  0.11423690443E-01  0.36371880068E-02  0.18875186358E-01  0.50000500000E+01  0.50000000000E+01 0.  1.
     100001    1    1    2    0    0 -0.11423690443E-01 -0.36371880068E-02 -0.18875186358E-01  0.50000500000E+01  0.50000000000E+01 0. -1.
</event>
<event>
 4    1  0.5040302E-001  0.5000050E+01  0.7818608E-02  0.2136455E+00
        -11   -1    0    0    0    0  0.00000000000E+00  0.00000000000E+00  0.50000499739E+01  0.50000500000E+01  0.51100000000E-03 0. -1.
         11   -1    0    0    0    0 -0.00000000000E+00 -0.00000000000E+00 -0.50000499739E+01  0.50000500000E+01  0.51100000000E-03 0.  1.
     100001    1    1    2    0    0  0.11189258030E-01 -0.16004813061E-01 -0.10892610506E-01  0.50000500000E+01  0.50000000000E+01 0. -1.
     100001    1    1    2    0    0 -0.11189258030E-01  0.16004813061E-01  0.10892610506E-01  0.50000500000E+01  0.50000000000E+01 0. -1.
</event>
<event>
 4    1  0.5040302E-001  0.5000050E+01  0.7818608E-02  0.2136455E+00
        -11   -1    0    0    0    0  0.00000000000E+00  0.00000000000E+00  0.50000499739E+01  0.50000500000E+01  0.51100000000E-03 0. -1.
         11   -1    0    0    0    0 -0.00000000000E+00 -0.00000000000E+00 -0.50000499739E+01  0.50000500000E+01  0.51100000000E-03 0.  1.
     100001    1    1    2    0    0 -0.59227333143E-02  0.11274363951E-01 -0.18379674850E-01  0.50000500000E+01  0.50000000000E+01 0.  0.
     100001    1    1    2    0    0  0.59227333143E-02 -0.11274363951E-01  0.18379674850E-01  0.50000500000E+01  0.50000000000E+01 0. -1.
</event>
<event>
 4    1  0.5040302E-001  0.5000050E+01  0.7818608E-02  0.2136455E+00
        -11   -1    0    0    0    0  0.00000000000E+00  0.00000000000E+00  0.50000499739E+01  0.50000500000E+01  0.51100000000E-03 0. -1.
         11   -1    0    0    0    0 -0.00000000000E+00 -0.00000000000E+00 -0.50000499739E+01  0.50000500000E+01  0.51100000000E-03 0.  1.
     100001    1    1    2    0    0 -0.10056812945E-01 -0.61425905017E-02 -0.19003462719E-01  0.50000500000E+01  0.50000000000E+01 0. -1.
     100001    1    1    2    0    0  0.10056812945E-01  0.61425905017E-02  0.19003462719E-01  0.50000500000E+01  0.50000000000E+01 0. -1.
</event>
<event>
 4    1  0.5040302E-001  0.5000050E+01  0.7818608E-02  0.2136455E+00
        -11   -1    0    0    0    0  0.00000000000E+00  0.00000000000E+00  0.50000499739E+01  0.50000500000E+01  0.51100000000E-03 0. -1.
         11   -1    0    0    0    0 -0.00000000000E+00 -0.00000000000E+00 -0.50000499739E+01  0.50000500000E+01  0.51100000000E-03 0.  1.
     100001    1    1    2    0    0  0.85540165013E-02 -0.10804867497E-01 -0.17609262905E-01  0.50000500000E+01  0.50000000000E+01 0.  1.
     100001    1    1    2    0    0 -0.85540165013E-02  0.10804867497E-01  0.17609262905E-01  0.50000500000E+01  0.50000000000E+01 0.  0.
</event>
<event>
 4    1  0.5040302E-001  0.5000050E+01  0.7818608E-02  0.2136455E+00
        -11   -1    0    0    0    0  0.00000000000E+00  0.00000000000E+00  0.50000499739E+01  0.50000500000E+01  0.51100000000E-03 0. -1.
         11   -1    0    0    0    0 -0.00000000000E+00 -0.00000000000E+00 -0.50000499739E+01  0.50000500000E+01  0.51100000000E-03 0.  1.
     100001    1    1    2    0    0  0.21570192090E-01  0.35344370854E-02  0.47156195437E-02  0.50000500000E+01  0.50000000000E+01 0.  1.
     100001    1    1    2    0    0 -0.21570192090E-01 -0.35344370854E-02 -0.47156195437E-02  0.50000500000E+01  0.50000000000E+01 0.  0.
</event>
<event>
 4    1  0.5040302E-001  0.5000050E+01  0.7818608E-02  0.2136455E+00
        -11   -1    0    0    0    0  0.00000000000E+00  0.00000000000E+00  0.50000499739E+01  0.50000500000E+01  0.51100000000E-03 0.  1.
         11   -1    0    0    0    0 -0.00000000000E+00 -0.00000000000E+00 -0.50000499739E+01  0.50000500000E+01  0.51100000000E-03 0. -1.
     100001    1    1    2    0    0  0.78240006163E-02  0.23314530575E-02 -0.20817104530E-01  0.50000500000E+01  0.50000000000E+01 0. -1.
     100001    1    1    2    0    0 -0.78240006163E-02 -0.23314530575E-02  0.20817104530E-01  0.50000500000E+01  0.50000000000E+01 0.  0.
</event>
<event>
 4    1  0.5040302E-001  0.5000050E+01  0.7818608E-02  0.2136455E+00
        -11   -1    0    0    0    0  0.00000000000E+00  0.00000000000E+00  0.50000499739E+01  0.50000500000E+01  0.51100000000E-03 0. -1.
         11   -1    0    0    0    0 -0.00000000000E+00 -0.00000000000E+00 -0.50000499739E+01  0.50000500000E+01  0.51100000000E-03 0.  1.
     100001    1    1    2    0    0 -0.22354083452E-01 -0.53445267506E-03 -0.10868928154E-03  0.50000500000E+01  0.50000000000E+01 0.  0.
     100001    1    1    2    0    0  0.22354083452E-01  0.53445267506E-03  0.10868928154E-03  0.50000500000E+01  0.50000000000E+01 0. -1.
</event>
<event>
 4    1  0.5040302E-001  0.5000050E+01  0.7818608E-02  0.2136455E+00
        -11   -1    0    0    0    0  0.00000000000E+00  0.00000000000E+00  0.50000499739E+01  0.50000500000E+01  0.51100000000E-03 0.  1.
         11   -1    0    0    0    0 -0.00000000000E+00 -0.00000000000E+00 -0.50000499739E+01  0.50000500000E+01  0.51100000000E-03 0. -1.
     100001    1    1    2    0    0 -0.25254354497E-03 -0.17656227187E-01 -0.13718467964E-01  0.50000500000E+01  0.50000000000E+01 0. -1.
     100001    1    1    2    0    0  0.25254354497E-03  0.17656227187E-01  0.13718467964E-01  0.50000500000E+01  0.50000000000E+01 0.  1.
</event>
<event>
 4    1  0.5040302E-001  0.5000050E+01  0.7818608E-02  0.2136455E+00
        -11   -1    0    0    0    0  0.00000000000E+00  0.00000000000E+00  0.50000499739E+01  0.50000500000E+01  0.51100000000E-03 0.  1.
         11   -1    0    0    0    0 -0.00000000000E+00 -0.00000000000E+00 -0.50000499739E+01  0.50000500000E+01  0.51100000000E-03 0. -1.
     100001    1    1    2    0    0  0.22141775343E-01 -0.20926221785E-02  0.23162938239E-02  0.50000500000E+01  0.50000000000E+01 0. -1.
     100001    1    1    2    0    0 -0.22141775343E-01  0.20926221785E-02 -0.23162938239E-02  0.50000500000E+01  0.50000000000E+01 0.  0.
</event>
<event>
 4    1  0.5040302E-001  0.5000050E+01  0.7818608E-02  0.2136455E+00
        -11   -1    0    0    0    0  0.00000000000E+00  0.00000000000E+00  0.50000499739E+01  0.50000500000E+01  0.51100000000E-03 0.  1.
         11   -1    0    0    0    0 -0.00000000000E+00 -0.00000000000E+00 -0.50000499739E+01  0.50000500000E+01  0.51100000000E-03 0. -1.
     100001    1    1    2    0    0  0.91284530705E-02 -0.17173777102E-01  0.11033368688E-01  0.50000500000E+01  0.50000000000E+01 0. -1.
     100001    1    1    2    0    0 -0.91284530705E-02  0.17173777102E-01 -0.11033368688E-01  0.50000500000E+01  0.50000000000E+01 0.  0.
</event>
<event>
 4    1  0.5040302E-001  0.5000050E+01  0.7818608E-02  0.2136455E+00
        -11   -1    0    0    0    0  0.00000000000E+00  0.00000000000E+00  0.50000499739E+01  0.50000500000E+01  0.51100000000E-03 0.  1.
         11   -1    0    0    0    0 -0.00000000000E+00 -0.00000000000E+00 -0.50000499739E+01  0.50000500000E+01  0.51100000000E-03 0. -1.
     100001    1    1    2    0    0  0.21505519381E-01 -0.40681921315E-02  0.45787497133E-02  0.50000500000E+01  0.50000000000E+01 0.  1.
     100001    1    1    2    0    0 -0.21505519381E-01  0.40681921315E-02 -0.45787497133E-02  0.50000500000E+01  0.50000000000E+01 0. -1.
</event>
<event>
 4    1  0.5040302E-001  0.5000050E+01  0.7818608E-02  0.2136455E+00
        -11   -1    0    0    0    0  0.00000000000E+00  0.00000000000E+00  0.50000499739E+01  0.50000500000E+01  0.51100000000E-03 0.  1.
         11   -1    0    0    0    0 -0.00000000000E+00 -0.00000000000E+00 -0.50000499739E+01  0.50000500000E+01  0.51100000000E-03 0. -1.
     100001    1    1    2    0    0 -0.10216641477E-01 -0.18995755905E-01 -0.58977957351E-02  0.50000500000E+01  0.50000000000E+01 0.  0.
     100001    1    1    2    0    0  0.10216641477E-01  0.18995755905E-01  0.58977957351E-02  0.50000500000E+01  0.50000000000E+01 0.  0.
</event>
<event>
 4    1  0.5040302E-001  0.5000050E+01  0.7818608E-02  0.2136455E+00
        -11   -1    0    0    0    0  0.00000000000E+00  0.00000000000E+00  0.50000499739E+01  0.50000500000E+01  0.51100000000E-03 0.  1.
         11   -1    0    0    0    0 -0.00000000000E+00 -0.00000000000E+00 -0.50000499739E+01  0.50000500000E+01  0.51100000000E-03 0. -1.
     100001    1    1    2    0    0  0.19168940843E-01  0.10257874074E-01  0.52278319079E-02  0.50000500000E+01  0.50000000000E+01 0.  0.
     100001    1    1    2    0    0 -0.19168940843E-01 -0.10257874074E-01 -0.52278319079E-02  0.50000500000E+01  0.50000000000E+01 0.  0.
</event>
<event>
 4    1  0.5040302E-001  0.5000050E+01  0.7818608E-02  0.2136455E+00
        -11   -1    0    0    0    0  0.00000000000E+00  0.00000000000E+00  0.50000499739E+01  0.50000500000E+01  0.51100000000E-03 0. -1.
         11   -1    0    0    0    0 -0.00000000000E+00 -0.00000000000E+00 -0.50000499739E+01  0.50000500000E+01  0.51100000000E-03 0.  1.
     100001    1    1    2    0    0 -0.20673490431E-01 -0.78215030798E-02  0.33813285781E-02  0.50000500000E+01  0.50000000000E+01 0. -1.
     100001    1    1    2    0    0  0.20673490431E-01  0.78215030798E-02 -0.33813285781E-02  0.50000500000E+01  0.50000000000E+01 0.  1.
</event>
<event>
 4    1  0.5040302E-001  0.5000050E+01  0.7818608E-02  0.2136455E+00
        -11   -1    0    0    0    0  0.00000000000E+00  0.00000000000E+00  0.50000499739E+01  0.50000500000E+01  0.51100000000E-03 0.  1.
         11   -1    0    0    0    0 -0.00000000000E+00 -0.00000000000E+00 -0.50000499739E+01  0.50000500000E+01  0.51100000000E-03 0. -1.
     100001    1    1    2    0    0  0.59761776601E-02 -0.16193934222E-01  0.14214228610E-01  0.50000500000E+01  0.50000000000E+01 0.  0.
     100001    1    1    2    0    0 -0.59761776601E-02  0.16193934222E-01 -0.14214228610E-01  0.50000500000E+01  0.50000000000E+01 0.  0.
</event>
<event>
 4    1  0.5040302E-001  0.5000050E+01  0.7818608E-02  0.2136455E+00
        -11   -1    0    0    0    0  0.00000000000E+00  0.00000000000E+00  0.50000499739E+01  0.50000500000E+01  0.51100000000E-03 0. -1.
         11   -1    0    0    0    0 -0.00000000000E+00 -0.00000000000E+00 -0.50000499739E+01  0.50000500000E+01  0.51100000000E-03 0.  1.
     100001    1    1    2    0    0  0.10221468576E-02 -0.76715813903E-02 -0.20978669042E-01  0.50000500000E+01  0.50000000000E+01 0.  1.
     100001    1    1    2    0    0 -0.10221468576E-02  0.76715813903E-02  0.20978669042E-01  0.50000500000E+01  0.50000000000E+01 0.  0.
</event>
<event>
 4    1  0.5040302E-001  0.5000050E+01  0.7818608E-02  0.2136455E+00
        -11   -1    0    0    0    0  0.00000000000E+00  0.00000000000E+00  0.50000499739E+01  0.50000500000E+01  0.51100000000E-03 0.  1.
         11   -1    0    0    0    0 -0.00000000000E+00 -0.00000000000E+00 -0.50000499739E+01  0.50000500000E+01  0.51100000000E-03 0. -1.
     100001    1    1    2    0    0 -0.16538628528E-01 -0.29406314908E-02 -0.14759029536E-01  0.50000500000E+01  0.50000000000E+01 0. -1.
     100001    1    1    2    0    0  0.16538628528E-01  0.29406314908E-02  0.14759029536E-01  0.50000500000E+01  0.50000000000E+01 0.  0.
</event>
<event>
 4    1  0.5040302E-001  0.5000050E+01  0.7818608E-02  0.2136455E+00
        -11   -1    0    0    0    0  0.00000000000E+00  0.00000000000E+00  0.50000499739E+01  0.50000500000E+01  0.51100000000E-03 0.  1.
         11   -1    0    0    0    0 -0.00000000000E+00 -0.00000000000E+00 -0.50000499739E+01  0.50000500000E+01  0.51100000000E-03 0. -1.
     100001    1    1    2    0    0  0.14377725017E-01 -0.12506768307E-01  0.11698900369E-01  0.50000500000E+01  0.50000000000E+01 0.  0.
     100001    1    1    2    0    0 -0.14377725017E-01  0.12506768307E-01 -0.11698900369E-01  0.50000500000E+01  0.50000000000E+01 0.  1.
</event>
<event>
 4    1  0.5040302E-001  0.5000050E+01  0.7818608E-02  0.2136455E+00
        -11   -1    0    0    0    0  0.00000000000E+00  0.00000000000E+00  0.50000499739E+01  0.50000500000E+01  0.51100000000E-03 0.  1.
         11   -1    0    0    0    0 -0.00000000000E+00 -0.00000000000E+00 -0.50000499739E+01  0.50000500000E+01  0.51100000000E-03 0. -1.
     100001    1    1    2    0    0  0.18246527996E-02 -0.14898638739E-01  0.16574187941E-01  0.50000500000E+01  0.50000000000E+01 0.  1.
     100001    1    1    2    0    0 -0.18246527996E-02  0.14898638739E-01 -0.16574187941E-01  0.50000500000E+01  0.50000000000E+01 0. -1.
</event>
<event>
 4    1  0.5040302E-001  0.5000050E+01  0.7818608E-02  0.2136455E+00
        -11   -1    0    0    0    0  0.00000000000E+00  0.00000000000E+00  0.50000499739E+01  0.50000500000E+01  0.51100000000E-03 0.  1.
         11   -1    0    0    0    0 -0.00000000000E+00 -0.00000000000E+00 -0.50000499739E+01  0.50000500000E+01  0.51100000000E-03 0. -1.
     100001    1    1    2    0    0 -0.37210778047E-02 -0.21082555440E-01 -0.64561549007E-02  0.50000500000E+01  0.50000000000E+01 0. -1.
     100001    1    1    2    0    0  0.37210778047E-02  0.21082555440E-01  0.64561549007E-02  0.50000500000E+01  0.50000000000E+01 0.  1.
</event>
<event>
 4    1  0.5040302E-001  0.5000050E+01  0.7818608E-02  0.2136455E+00
        -11   -1    0    0    0    0  0.00000000000E+00  0.00000000000E+00  0.50000499739E+01  0.50000500000E+01  0.51100000000E-03 0. -1.
         11   -1    0    0    0    0 -0.00000000000E+00 -0.00000000000E+00 -0.50000499739E+01  0.50000500000E+01  0.51100000000E-03 0.  1.
     100001    1    1    2    0    0 -0.87314527473E-02  0.20034956335E-01 -0.47291391988E-02  0.50000500000E+01  0.50000000000E+01 0.  1.
     100001    1    1    2    0    0  0.87314527473E-02 -0.20034956335E-01  0.47291391988E-02  0.50000500000E+01  0.50000000000E+01 0.  0.
</event>
<event>
 4    1  0.5040302E-001  0.5000050E+01  0.7818608E-02  0.2136455E+00
        -11   -1    0    0    0    0  0.00000000000E+00  0.00000000000E+00  0.50000499739E+01  0.50000500000E+01  0.51100000000E-03 0.  1.
         11   -1    0    0    0    0 -0.00000000000E+00 -0.00000000000E+00 -0.50000499739E+01  0.50000500000E+01  0.51100000000E-03 0. -1.
     100001    1    1    2    0    0 -0.60091534421E-02 -0.17281538720E-01 -0.12854609850E-01  0.50000500000E+01  0.50000000000E+01 0. -1.
     100001    1    1    2    0    0  0.60091534421E-02  0.17281538720E-01  0.12854609850E-01  0.50000500000E+01  0.50000000000E+01 0.  1.
</event>
<event>
 4    1  0.5040302E-001  0.5000050E+01  0.7818608E-02  0.2136455E+00
        -11   -1    0    0    0    0  0.00000000000E+00  0.00000000000E+00  0.50000499739E+01  0.50000500000E+01  0.51100000000E-03 0. -1.
         11   -1    0    0    0    0 -0.00000000000E+00 -0.00000000000E+00 -0.50000499739E+01  0.50000500000E+01  0.51100000000E-03 0.  1.
     100001    1    1    2    0    0 -0.11585876595E-01  0.18529804157E-01 -0.47345877805E-02  0.50000500000E+01  0.50000000000E+01 0.  0.
     100001    1    1    2    0    0  0.11585876595E-01 -0.18529804157E-01  0.47345877805E-02  0.50000500000E+01  0.50000000000E+01 0.  1.
</event>
<event>
 4    1  0.5040302E-001  0.5000050E+01  0.7818608E-02  0.2136455E+00
        -11   -1    0    0    0    0  0.00000000000E+00  0.00000000000E+00  0.50000499739E+01  0.50000500000E+01  0.51100000000E-03 0.  1.
         11   -1    0    0    0    0 -0.00000000000E+00 -0.00000000000E+00 -0.50000499739E+01  0.50000500000E+01  0.51100000000E-03 0. -1.
     100001    1    1    2    0    0 -0.50258857955E-02  0.12527297169E-01 -0.17827220692E-01  0.50000500000E+01  0.50000000000E+01 0. -1.
     100001    1    1    2    0    0  0.50258857955E-02 -0.12527297169E-01  0.17827220692E-01  0.50000500000E+01  0.50000000000E+01 0.  0.
</event>
<event>
 4    1  0.5040302E-001  0.5000050E+01  0.7818608E-02  0.2136455E+00
        -11   -1    0    0    0    0  0.00000000000E+00  0.00000000000E+00  0.50000499739E+01  0.50000500000E+01  0.51100000000E-03 0. -1.
         11   -1    0    0    0    0 -0.00000000000E+00 -0.00000000000E+00 -0.50000499739E+01  0.50000500000E+01  0.51100000000E-03 0.  1.
     100001    1    1    2    0    0 -0.80612779786E-02  0.17949574334E-01  0.10622197446E-01  0.50000500000E+01  0.50000000000E+01 0. -1.
     100001    1    1    2    0    0  0.80612779786E-02 -0.17949574334E-01 -0.10622197446E-01  0.50000500000E+01  0.50000000000E+01 0.  1.
</event>
<event>
 4    1  0.5040302E-001  0.5000050E+01  0.7818608E-02  0.2136455E+00
        -11   -1    0    0    0    0  0.00000000000E+00  0.00000000000E+00  0.50000499739E+01  0.50000500000E+01  0.51100000000E-03 0.  1.
         11   -1    0    0    0    0 -0.00000000000E+00 -0.00000000000E+00 -0.50000499739E+01  0.50000500000E+01  0.51100000000E-03 0. -1.
     100001    1    1    2    0    0  0.21387214565E-01  0.64366713396E-02  0.10764827912E-02  0.50000500000E+01  0.50000000000E+01 0.  1.
     100001    1    1    2    0    0 -0.21387214565E-01 -0.64366713396E-02 -0.10764827912E-02  0.50000500000E+01  0.50000000000E+01 0.  0.
</event>
<event>
 4    1  0.5040302E-001  0.5000050E+01  0.7818608E-02  0.2136455E+00
        -11   -1    0    0    0    0  0.00000000000E+00  0.00000000000E+00  0.50000499739E+01  0.50000500000E+01  0.51100000000E-03 0.  1.
         11   -1    0    0    0    0 -0.00000000000E+00 -0.00000000000E+00 -0.50000499739E+01  0.50000500000E+01  0.51100000000E-03 0. -1.
     100001    1    1    2    0    0 -0.36261563595E-03  0.20363159526E-01  0.92310749115E-02  0.50000500000E+01  0.50000000000E+01 0. -1.
     100001    1    1    2    0    0  0.36261563595E-03 -0.20363159526E-01 -0.92310749115E-02  0.50000500000E+01  0.50000000000E+01 0.  1.
</event>
<event>
 4    1  0.5040302E-001  0.5000050E+01  0.7818608E-02  0.2136455E+00
        -11   -1    0    0    0    0  0.00000000000E+00  0.00000000000E+00  0.50000499739E+01  0.50000500000E+01  0.51100000000E-03 0. -1.
         11   -1    0    0    0    0 -0.00000000000E+00 -0.00000000000E+00 -0.50000499739E+01  0.50000500000E+01  0.51100000000E-03 0.  1.
     100001    1    1    2    0    0 -0.76630296721E-02 -0.15301193619E-01 -0.14392843711E-01  0.50000500000E+01  0.50000000000E+01 0.  0.
     100001    1    1    2    0    0  0.76630296721E-02  0.15301193619E-01  0.14392843711E-01  0.50000500000E+01  0.50000000000E+01 0.  0.
</event>
<event>
 4    1  0.5040302E-001  0.5000050E+01  0.7818608E-02  0.2136455E+00
        -11   -1    0    0    0    0  0.00000000000E+00  0.00000000000E+00  0.50000499739E+01  0.50000500000E+01  0.51100000000E-03 0.  1.
         11   -1    0    0    0    0 -0.00000000000E+00 -0.00000000000E+00 -0.50000499739E+01  0.50000500000E+01  0.51100000000E-03 0. -1.
     100001    1    1    2    0    0  0.16473247954E-01 -0.17483359342E-03 -0.15119657240E-01  0.50000500000E+01  0.50000000000E+01 0. -1.
     100001    1    1    2    0    0 -0.16473247954E-01  0.17483359342E-03  0.15119657240E-01  0.50000500000E+01  0.50000000000E+01 0.  1.
</event>
<event>
 4    1  0.5040302E-001  0.5000050E+01  0.7818608E-02  0.2136455E+00
        -11   -1    0    0    0    0  0.00000000000E+00  0.00000000000E+00  0.50000499739E+01  0.50000500000E+01  0.51100000000E-03 0.  1.
         11   -1    0    0    0    0 -0.00000000000E+00 -0.00000000000E+00 -0.50000499739E+01  0.50000500000E+01  0.51100000000E-03 0. -1.
     100001    1    1    2    0    0 -0.18110972023E-01 -0.45713123400E-03 -0.13106724359E-01  0.50000500000E+01  0.50000000000E+01 0.  1.
     100001    1    1    2    0    0  0.18110972023E-01  0.45713123400E-03  0.13106724359E-01  0.50000500000E+01  0.50000000000E+01 0.  1.
</event>
<event>
 4    1  0.5040302E-001  0.5000050E+01  0.7818608E-02  0.2136455E+00
        -11   -1    0    0    0    0  0.00000000000E+00  0.00000000000E+00  0.50000499739E+01  0.50000500000E+01  0.51100000000E-03 0.  1.
         11   -1    0    0    0    0 -0.00000000000E+00 -0.00000000000E+00 -0.50000499739E+01  0.50000500000E+01  0.51100000000E-03 0. -1.
     100001    1    1    2    0    0  0.18454977433E-01  0.15326205521E-02 -0.12532652640E-01  0.50000500000E+01  0.50000000000E+01 0.  0.
     100001    1    1    2    0    0 -0.18454977433E-01 -0.15326205521E-02  0.12532652640E-01  0.50000500000E+01  0.50000000000E+01 0. -1.
</event>
<event>
 4    1  0.5040302E-001  0.5000050E+01  0.7818608E-02  0.2136455E+00
        -11   -1    0    0    0    0  0.00000000000E+00  0.00000000000E+00  0.50000499739E+01  0.50000500000E+01  0.51100000000E-03 0.  1.
         11   -1    0    0    0    0 -0.00000000000E+00 -0.00000000000E+00 -0.50000499739E+01  0.50000500000E+01  0.51100000000E-03 0. -1.
     100001    1    1    2    0    0  0.14089879852E-01  0.39337076149E-02 -0.16911644809E-01  0.50000500000E+01  0.50000000000E+01 0. -1.
     100001    1    1    2    0    0 -0.14089879852E-01 -0.39337076149E-02  0.16911644809E-01  0.50000500000E+01  0.50000000000E+01 0.  0.
</event>
<event>
 4    1  0.5040302E-001  0.5000050E+01  0.7818608E-02  0.2136455E+00
        -11   -1    0    0    0    0  0.00000000000E+00  0.00000000000E+00  0.50000499739E+01  0.50000500000E+01  0.51100000000E-03 0.  1.
         11   -1    0    0    0    0 -0.00000000000E+00 -0.00000000000E+00 -0.50000499739E+01  0.50000500000E+01  0.51100000000E-03 0. -1.
     100001    1    1    2    0    0 -0.81648078572E-02 -0.11962771278E-01  0.17036153204E-01  0.50000500000E+01  0.50000000000E+01 0. -1.
     100001    1    1    2    0    0  0.81648078572E-02  0.11962771278E-01 -0.17036153204E-01  0.50000500000E+01  0.50000000000E+01 0.  0.
</event>
<event>
 4    1  0.5040302E-001  0.5000050E+01  0.7818608E-02  0.2136455E+00
        -11   -1    0    0    0    0  0.00000000000E+00  0.00000000000E+00  0.50000499739E+01  0.50000500000E+01  0.51100000000E-03 0. -1.
         11   -1    0    0    0    0 -0.00000000000E+00 -0.00000000000E+00 -0.50000499739E+01  0.50000500000E+01  0.51100000000E-03 0.  1.
     100001    1    1    2    0    0 -0.80730327802E-02  0.15539834743E-01  0.13904753787E-01  0.50000500000E+01  0.50000000000E+01 0. -1.
     100001    1    1    2    0    0  0.80730327802E-02 -0.15539834743E-01 -0.13904753787E-01  0.50000500000E+01  0.50000000000E+01 0.  1.
</event>
<event>
 4    1  0.5040302E-001  0.5000050E+01  0.7818608E-02  0.2136455E+00
        -11   -1    0    0    0    0  0.00000000000E+00  0.00000000000E+00  0.50000499739E+01  0.50000500000E+01  0.51100000000E-03 0. -1.
         11   -1    0    0    0    0 -0.00000000000E+00 -0.00000000000E+00 -0.50000499739E+01  0.50000500000E+01  0.51100000000E-03 0.  1.
     100001    1    1    2    0    0 -0.21053952597E-01 -0.71551063632E-02 -0.23533025702E-02  0.50000500000E+01  0.50000000000E+01 0.  1.
     100001    1    1    2    0    0  0.21053952597E-01  0.71551063632E-02  0.23533025702E-02  0.50000500000E+01  0.50000000000E+01 0.  0.
</event>
<event>
 4    1  0.5040302E-001  0.5000050E+01  0.7818608E-02  0.2136455E+00
        -11   -1    0    0    0    0  0.00000000000E+00  0.00000000000E+00  0.50000499739E+01  0.50000500000E+01  0.51100000000E-03 0. -1.
         11   -1    0    0    0    0 -0.00000000000E+00 -0.00000000000E+00 -0.50000499739E+01  0.50000500000E+01  0.51100000000E-03 0.  1.
     100001    1    1    2    0    0 -0.57126131735E-02  0.21553491954E-01 -0.16779556968E-02  0.50000500000E+01  0.50000000000E+01 0.  0.
     100001    1    1    2    0    0  0.57126131735E-02 -0.21553491954E-01  0.16779556968E-02  0.50000500000E+01  0.50000000000E+01 0. -1.
</event>
<event>
 4    1  0.5040302E-001  0.5000050E+01  0.7818608E-02  0.2136455E+00
        -11   -1    0    0    0    0  0.00000000000E+00  0.00000000000E+00  0.50000499739E+01  0.50000500000E+01  0.51100000000E-03 0. -1.
         11   -1    0    0    0    0 -0.00000000000E+00 -0.00000000000E+00 -0.50000499739E+01  0.50000500000E+01  0.51100000000E-03 0.  1.
     100001    1    1    2    0    0 -0.42820398970E-02 -0.96172545108E-02  0.19727520118E-01  0.50000500000E+01  0.50000000000E+01 0. -1.
     100001    1    1    2    0    0  0.42820398970E-02  0.96172545108E-02 -0.19727520118E-01  0.50000500000E+01  0.50000000000E+01 0.  1.
</event>
<event>
 4    1  0.5040302E-001  0.5000050E+01  0.7818608E-02  0.2136455E+00
        -11   -1    0    0    0    0  0.00000000000E+00  0.00000000000E+00  0.50000499739E+01  0.50000500000E+01  0.51100000000E-03 0. -1.
         11   -1    0    0    0    0 -0.00000000000E+00 -0.00000000000E+00 -0.50000499739E+01  0.50000500000E+01  0.51100000000E-03 0.  1.
     100001    1    1    2    0    0 -0.93545997612E-02 -0.46116771440E-02  0.19779443805E-01  0.50000500000E+01  0.50000000000E+01 0.  0.
     100001    1    1    2    0    0  0.93545997612E-02  0.46116771440E-02 -0.19779443805E-01  0.50000500000E+01  0.50000000000E+01 0.  1.
</event>
<event>
 4    1  0.5040302E-001  0.5000050E+01  0.7818608E-02  0.2136455E+00
        -11   -1    0    0    0    0  0.00000000000E+00  0.00000000000E+00  0.50000499739E+01  0.50000500000E+01  0.51100000000E-03 0. -1.
         11   -1    0    0    0    0 -0.00000000000E+00 -0.00000000000E+00 -0.50000499739E+01  0.50000500000E+01  0.51100000000E-03 0.  1.
     100001    1    1    2    0    0  0.31282855257E-02  0.11120397668E-01  0.19145576131E-01  0.50000500000E+01  0.50000000000E+01 0. -1.
     100001    1    1    2    0    0 -0.31282855257E-02 -0.11120397668E-01 -0.19145576131E-01  0.50000500000E+01  0.50000000000E+01 0.  1.
</event>
<event>
 4    1  0.5040302E-001  0.5000050E+01  0.7818608E-02  0.2136455E+00
        -11   -1    0    0    0    0  0.00000000000E+00  0.00000000000E+00  0.50000499739E+01  0.50000500000E+01  0.51100000000E-03 0.  1.
         11   -1    0    0    0    0 -0.00000000000E+00 -0.00000000000E+00 -0.50000499739E+01  0.50000500000E+01  0.51100000000E-03 0. -1.
     100001    1    1    2    0    0  0.54898631631E-02  0.21292836412E-01  0.40594359211E-02  0.50000500000E+01  0.50000000000E+01 0.  1.
     100001    1    1    2    0    0 -0.54898631631E-02 -0.21292836412E-01 -0.40594359211E-02  0.50000500000E+01  0.50000000000E+01 0. -1.
</event>
<event>
 4    1  0.5040302E-001  0.5000050E+01  0.7818608E-02  0.2136455E+00
        -11   -1    0    0    0    0  0.00000000000E+00  0.00000000000E+00  0.50000499739E+01  0.50000500000E+01  0.51100000000E-03 0.  1.
         11   -1    0    0    0    0 -0.00000000000E+00 -0.00000000000E+00 -0.50000499739E+01  0.50000500000E+01  0.51100000000E-03 0. -1.
     100001    1    1    2    0    0  0.14205515794E-01  0.70981658094E-02  0.15742358882E-01  0.50000500000E+01  0.50000000000E+01 0.  0.
     100001    1    1    2    0    0 -0.14205515794E-01 -0.70981658094E-02 -0.15742358882E-01  0.50000500000E+01  0.50000000000E+01 0.  0.
</event>
<event>
 4    1  0.5040302E-001  0.5000050E+01  0.7818608E-02  0.2136455E+00
        -11   -1    0    0    0    0  0.00000000000E+00  0.00000000000E+00  0.50000499739E+01  0.50000500000E+01  0.51100000000E-03 0.  1.
         11   -1    0    0    0    0 -0.00000000000E+00 -0.00000000000E+00 -0.50000499739E+01  0.50000500000E+01  0.51100000000E-03 0. -1.
     100001    1    1    2    0    0  0.18539140181E-01 -0.12478229676E-01 -0.77237652940E-03  0.50000500000E+01  0.50000000000E+01 0.  1.
     100001    1    1    2    0    0 -0.18539140181E-01  0.12478229676E-01  0.77237652940E-03  0.50000500000E+01  0.50000000000E+01 0. -1.
</event>
<event>
 4    1  0.5040302E-001  0.5000050E+01  0.7818608E-02  0.2136455E+00
        -11   -1    0    0    0    0  0.00000000000E+00  0.00000000000E+00  0.50000499739E+01  0.50000500000E+01  0.51100000000E-03 0.  1.
         11   -1    0    0    0    0 -0.00000000000E+00 -0.00000000000E+00 -0.50000499739E+01  0.50000500000E+01  0.51100000000E-03 0. -1.
     100001    1    1    2    0    0 -0.15599044455E-01  0.11874538017E-01 -0.10754890003E-01  0.50000500000E+01  0.50000000000E+01 0. -1.
     100001    1    1    2    0    0  0.15599044455E-01 -0.11874538017E-01  0.10754890003E-01  0.50000500000E+01  0.50000000000E+01 0.  1.
</event>
<event>
 4    1  0.5040302E-001  0.5000050E+01  0.7818608E-02  0.2136455E+00
        -11   -1    0    0    0    0  0.00000000000E+00  0.00000000000E+00  0.50000499739E+01  0.50000500000E+01  0.51100000000E-03 0. -1.
         11   -1    0    0    0    0 -0.00000000000E+00 -0.00000000000E+00 -0.50000499739E+01  0.50000500000E+01  0.51100000000E-03 0.  1.
     100001    1    1    2    0    0  0.13375950190E-01  0.16543407043E-01 -0.68849211989E-02  0.50000500000E+01  0.50000000000E+01 0.  1.
     100001    1    1    2    0    0 -0.13375950190E-01 -0.16543407043E-01  0.68849211989E-02  0.50000500000E+01  0.50000000000E+01 0. -1.
</event>
<event>
 4    1  0.5040302E-001  0.5000050E+01  0.7818608E-02  0.2136455E+00
        -11   -1    0    0    0    0  0.00000000000E+00  0.00000000000E+00  0.50000499739E+01  0.50000500000E+01  0.51100000000E-03 0.  1.
         11   -1    0    0    0    0 -0.00000000000E+00 -0.00000000000E+00 -0.50000499739E+01  0.50000500000E+01  0.51100000000E-03 0. -1.
     100001    1    1    2    0    0 -0.94473603758E-02 -0.47660607676E-02 -0.19698592505E-01  0.50000500000E+01  0.50000000000E+01 0. -1.
     100001    1    1    2    0    0  0.94473603758E-02  0.47660607676E-02  0.19698592505E-01  0.50000500000E+01  0.50000000000E+01 0.  0.
</event>
<event>
 4    1  0.5040302E-001  0.5000050E+01  0.7818608E-02  0.2136455E+00
        -11   -1    0    0    0    0  0.00000000000E+00  0.00000000000E+00  0.50000499739E+01  0.50000500000E+01  0.51100000000E-03 0. -1.
         11   -1    0    0    0    0 -0.00000000000E+00 -0.00000000000E+00 -0.50000499739E+01  0.50000500000E+01  0.51100000000E-03 0.  1.
     100001    1    1    2    0    0  0.18944045965E-01 -0.34109372702E-02  0.11379416919E-01  0.50000500000E+01  0.50000000000E+01 0. -1.
     100001    1    1    2    0    0 -0.18944045965E-01  0.34109372702E-02 -0.11379416919E-01  0.50000500000E+01  0.50000000000E+01 0.  1.
</event>
<event>
 4    1  0.5040302E-001  0.5000050E+01  0.7818608E-02  0.2136455E+00
        -11   -1    0    0    0    0  0.00000000000E+00  0.00000000000E+00  0.50000499739E+01  0.50000500000E+01  0.51100000000E-03 0.  1.
         11   -1    0    0    0    0 -0.00000000000E+00 -0.00000000000E+00 -0.50000499739E+01  0.50000500000E+01  0.51100000000E-03 0. -1.
     100001    1    1    2    0    0 -0.10480746150E-01 -0.85568035551E-02 -0.17802740605E-01  0.50000500000E+01  0.50000000000E+01 0.  0.
     100001    1    1    2    0    0  0.10480746150E-01  0.85568035551E-02  0.17802740605E-01  0.50000500000E+01  0.50000000000E+01 0.  1.
</event>
<event>
 4    1  0.5040302E-001  0.5000050E+01  0.7818608E-02  0.2136455E+00
        -11   -1    0    0    0    0  0.00000000000E+00  0.00000000000E+00  0.50000499739E+01  0.50000500000E+01  0.51100000000E-03 0.  1.
         11   -1    0    0    0    0 -0.00000000000E+00 -0.00000000000E+00 -0.50000499739E+01  0.50000500000E+01  0.51100000000E-03 0. -1.
     100001    1    1    2    0    0  0.19468928299E-01  0.46187086421E-02  0.99815260033E-02  0.50000500000E+01  0.50000000000E+01 0. -1.
     100001    1    1    2    0    0 -0.19468928299E-01 -0.46187086421E-02 -0.99815260033E-02  0.50000500000E+01  0.50000000000E+01 0.  0.
</event>
<event>
 4    1  0.5040302E-001  0.5000050E+01  0.7818608E-02  0.2136455E+00
        -11   -1    0    0    0    0  0.00000000000E+00  0.00000000000E+00  0.50000499739E+01  0.50000500000E+01  0.51100000000E-03 0.  1.
         11   -1    0    0    0    0 -0.00000000000E+00 -0.00000000000E+00 -0.50000499739E+01  0.50000500000E+01  0.51100000000E-03 0. -1.
     100001    1    1    2    0    0 -0.20261728021E-01  0.66050708209E-02 -0.67703705255E-02  0.50000500000E+01  0.50000000000E+01 0. -1.
     100001    1    1    2    0    0  0.20261728021E-01 -0.66050708209E-02  0.67703705255E-02  0.50000500000E+01  0.50000000000E+01 0.  1.
</event>
<event>
 4    1  0.5040302E-001  0.5000050E+01  0.7818608E-02  0.2136455E+00
        -11   -1    0    0    0    0  0.00000000000E+00  0.00000000000E+00  0.50000499739E+01  0.50000500000E+01  0.51100000000E-03 0. -1.
         11   -1    0    0    0    0 -0.00000000000E+00 -0.00000000000E+00 -0.50000499739E+01  0.50000500000E+01  0.51100000000E-03 0.  1.
     100001    1    1    2    0    0  0.49869748220E-02  0.27056326226E-02 -0.21628965168E-01  0.50000500000E+01  0.50000000000E+01 0.  1.
     100001    1    1    2    0    0 -0.49869748220E-02 -0.27056326226E-02  0.21628965168E-01  0.50000500000E+01  0.50000000000E+01 0. -1.
</event>
<event>
 4    1  0.5040302E-001  0.5000050E+01  0.7818608E-02  0.2136455E+00
        -11   -1    0    0    0    0  0.00000000000E+00  0.00000000000E+00  0.50000499739E+01  0.50000500000E+01  0.51100000000E-03 0.  1.
         11   -1    0    0    0    0 -0.00000000000E+00 -0.00000000000E+00 -0.50000499739E+01  0.50000500000E+01  0.51100000000E-03 0. -1.
     100001    1    1    2    0    0  0.19971224979E-01 -0.45259293678E-02 -0.89815720328E-02  0.50000500000E+01  0.50000000000E+01 0. -1.
     100001    1    1    2    0    0 -0.19971224979E-01  0.45259293678E-02  0.89815720328E-02  0.50000500000E+01  0.50000000000E+01 0.  1.
</event>
<event>
 4    1  0.5040302E-001  0.5000050E+01  0.7818608E-02  0.2136455E+00
        -11   -1    0    0    0    0  0.00000000000E+00  0.00000000000E+00  0.50000499739E+01  0.50000500000E+01  0.51100000000E-03 0.  1.
         11   -1    0    0    0    0 -0.00000000000E+00 -0.00000000000E+00 -0.50000499739E+01  0.50000500000E+01  0.51100000000E-03 0. -1.
     100001    1    1    2    0    0  0.25667716237E-02 -0.22164511614E-01  0.14658132063E-02  0.50000500000E+01  0.50000000000E+01 0.  1.
     100001    1    1    2    0    0 -0.25667716237E-02  0.22164511614E-01 -0.14658132063E-02  0.50000500000E+01  0.50000000000E+01 0.  0.
</event>
<event>
 4    1  0.5040302E-001  0.5000050E+01  0.7818608E-02  0.2136455E+00
        -11   -1    0    0    0    0  0.00000000000E+00  0.00000000000E+00  0.50000499739E+01  0.50000500000E+01  0.51100000000E-03 0.  1.
         11   -1    0    0    0    0 -0.00000000000E+00 -0.00000000000E+00 -0.50000499739E+01  0.50000500000E+01  0.51100000000E-03 0. -1.
     100001    1    1    2    0    0 -0.15291922483E-01  0.16164495023E-01  0.22065147726E-02  0.50000500000E+01  0.50000000000E+01 0.  1.
     100001    1    1    2    0    0  0.15291922483E-01 -0.16164495023E-01 -0.22065147726E-02  0.50000500000E+01  0.50000000000E+01 0.  0.
</event>
<event>
 4    1  0.5040302E-001  0.5000050E+01  0.7818608E-02  0.2136455E+00
        -11   -1    0    0    0    0  0.00000000000E+00  0.00000000000E+00  0.50000499739E+01  0.50000500000E+01  0.51100000000E-03 0.  1.
         11   -1    0    0    0    0 -0.00000000000E+00 -0.00000000000E+00 -0.50000499739E+01  0.50000500000E+01  0.51100000000E-03 0. -1.
     100001    1    1    2    0    0  0.18821755804E-01  0.10638898130E-01  0.57059490915E-02  0.50000500000E+01  0.50000000000E+01 0.  0.
     100001    1    1    2    0    0 -0.18821755804E-01 -0.10638898130E-01 -0.57059490915E-02  0.50000500000E+01  0.50000000000E+01 0.  1.
</event>
<event>
 4    1  0.5040302E-001  0.5000050E+01  0.7818608E-02  0.2136455E+00
        -11   -1    0    0    0    0  0.00000000000E+00  0.00000000000E+00  0.50000499739E+01  0.50000500000E+01  0.51100000000E-03 0. -1.
         11   -1    0    0    0    0 -0.00000000000E+00 -0.00000000000E+00 -0.50000499739E+01  0.50000500000E+01  0.51100000000E-03 0.  1.
     100001    1    1    2    0    0 -0.12665271407E-01 -0.99165660588E-02  0.15532389313E-01  0.50000500000E+01  0.50000000000E+01 0.  0.
     100001    1    1    2    0    0  0.12665271407E-01  0.99165660588E-02 -0.15532389313E-01  0.50000500000E+01  0.50000000000E+01 0.  1.
</event>
<event>
 4    1  0.5040302E-001  0.5000050E+01  0.7818608E-02  0.2136455E+00
        -11   -1    0    0    0    0  0.00000000000E+00  0.00000000000E+00  0.50000499739E+01  0.50000500000E+01  0.51100000000E-03 0. -1.
         11   -1    0    0    0    0 -0.00000000000E+00 -0.00000000000E+00 -0.50000499739E+01  0.50000500000E+01  0.51100000000E-03 0.  1.
     100001    1    1    2    0    0 -0.34444406058E-02 -0.17397426989E-01 -0.13618658637E-01  0.50000500000E+01  0.50000000000E+01 0.  0.
     100001    1    1    2    0    0  0.34444406058E-02  0.17397426989E-01  0.13618658637E-01  0.50000500000E+01  0.50000000000E+01 0.  0.
</event>
<event>
 4    1  0.5040302E-001  0.5000050E+01  0.7818608E-02  0.2136455E+00
        -11   -1    0    0    0    0  0.00000000000E+00  0.00000000000E+00  0.50000499739E+01  0.50000500000E+01  0.51100000000E-03 0.  1.
         11   -1    0    0    0    0 -0.00000000000E+00 -0.00000000000E+00 -0.50000499739E+01  0.50000500000E+01  0.51100000000E-03 0. -1.
     100001    1    1    2    0    0  0.62109445497E-02 -0.10488287281E-01  0.18746266234E-01  0.50000500000E+01  0.50000000000E+01 0.  1.
     100001    1    1    2    0    0 -0.62109445497E-02  0.10488287281E-01 -0.18746266234E-01  0.50000500000E+01  0.50000000000E+01 0.  1.
</event>
<event>
 4    1  0.5040302E-001  0.5000050E+01  0.7818608E-02  0.2136455E+00
        -11   -1    0    0    0    0  0.00000000000E+00  0.00000000000E+00  0.50000499739E+01  0.50000500000E+01  0.51100000000E-03 0.  1.
         11   -1    0    0    0    0 -0.00000000000E+00 -0.00000000000E+00 -0.50000499739E+01  0.50000500000E+01  0.51100000000E-03 0. -1.
     100001    1    1    2    0    0 -0.21234482177E-01  0.69257491433E-02 -0.10645494275E-02  0.50000500000E+01  0.50000000000E+01 0.  1.
     100001    1    1    2    0    0  0.21234482177E-01 -0.69257491433E-02  0.10645494275E-02  0.50000500000E+01  0.50000000000E+01 0. -1.
</event>
<event>
 4    1  0.5040302E-001  0.5000050E+01  0.7818608E-02  0.2136455E+00
        -11   -1    0    0    0    0  0.00000000000E+00  0.00000000000E+00  0.50000499739E+01  0.50000500000E+01  0.51100000000E-03 0. -1.
         11   -1    0    0    0    0 -0.00000000000E+00 -0.00000000000E+00 -0.50000499739E+01  0.50000500000E+01  0.51100000000E-03 0.  1.
     100001    1    1    2    0    0  0.75941499473E-02  0.21030976991E-01 -0.17144502365E-03  0.50000500000E+01  0.50000000000E+01 0. -1.
     100001    1    1    2    0    0 -0.75941499473E-02 -0.21030976991E-01  0.17144502365E-03  0.50000500000E+01  0.50000000000E+01 0.  1.
</event>
<event>
 4    1  0.5040302E-001  0.5000050E+01  0.7818608E-02  0.2136455E+00
        -11   -1    0    0    0    0  0.00000000000E+00  0.00000000000E+00  0.50000499739E+01  0.50000500000E+01  0.51100000000E-03 0.  1.
         11   -1    0    0    0    0 -0.00000000000E+00 -0.00000000000E+00 -0.50000499739E+01  0.50000500000E+01  0.51100000000E-03 0. -1.
     100001    1    1    2    0    0  0.95280537722E-02  0.66123047140E-02 -0.19117952759E-01  0.50000500000E+01  0.50000000000E+01 0. -1.
     100001    1    1    2    0    0 -0.95280537722E-02 -0.66123047140E-02  0.19117952759E-01  0.50000500000E+01  0.50000000000E+01 0.  1.
</event>
<event>
 4    1  0.5040302E-001  0.5000050E+01  0.7818608E-02  0.2136455E+00
        -11   -1    0    0    0    0  0.00000000000E+00  0.00000000000E+00  0.50000499739E+01  0.50000500000E+01  0.51100000000E-03 0. -1.
         11   -1    0    0    0    0 -0.00000000000E+00 -0.00000000000E+00 -0.50000499739E+01  0.50000500000E+01  0.51100000000E-03 0.  1.
     100001    1    1    2    0    0 -0.80447197898E-02  0.23245385973E-02  0.20733583960E-01  0.50000500000E+01  0.50000000000E+01 0.  0.
     100001    1    1    2    0    0  0.80447197898E-02 -0.23245385973E-02 -0.20733583960E-01  0.50000500000E+01  0.50000000000E+01 0.  1.
</event>
<event>
 4    1  0.5040302E-001  0.5000050E+01  0.7818608E-02  0.2136455E+00
        -11   -1    0    0    0    0  0.00000000000E+00  0.00000000000E+00  0.50000499739E+01  0.50000500000E+01  0.51100000000E-03 0.  1.
         11   -1    0    0    0    0 -0.00000000000E+00 -0.00000000000E+00 -0.50000499739E+01  0.50000500000E+01  0.51100000000E-03 0. -1.
     100001    1    1    2    0    0  0.75603921041E-02  0.36886791341E-02 -0.20718026389E-01  0.50000500000E+01  0.50000000000E+01 0.  0.
     100001    1    1    2    0    0 -0.75603921041E-02 -0.36886791341E-02  0.20718026389E-01  0.50000500000E+01  0.50000000000E+01 0.  1.
</event>
<event>
 4    1  0.5040302E-001  0.5000050E+01  0.7818608E-02  0.2136455E+00
        -11   -1    0    0    0    0  0.00000000000E+00  0.00000000000E+00  0.50000499739E+01  0.50000500000E+01  0.51100000000E-03 0.  1.
         11   -1    0    0    0    0 -0.00000000000E+00 -0.00000000000E+00 -0.50000499739E+01  0.50000500000E+01  0.51100000000E-03 0. -1.
     100001    1    1    2    0    0 -0.49490598655E-02 -0.20766743506E-01  0.66521929179E-02  0.50000500000E+01  0.50000000000E+01 0.  1.
     100001    1    1    2    0    0  0.49490598655E-02  0.20766743506E-01 -0.66521929179E-02  0.50000500000E+01  0.50000000000E+01 0. -1.
</event>
<event>
 4    1  0.5040302E-001  0.5000050E+01  0.7818608E-02  0.2136455E+00
        -11   -1    0    0    0    0  0.00000000000E+00  0.00000000000E+00  0.50000499739E+01  0.50000500000E+01  0.51100000000E-03 0. -1.
         11   -1    0    0    0    0 -0.00000000000E+00 -0.00000000000E+00 -0.50000499739E+01  0.50000500000E+01  0.51100000000E-03 0.  1.
     100001    1    1    2    0    0  0.52093029485E-02 -0.20537109213E-01 -0.71479233322E-02  0.50000500000E+01  0.50000000000E+01 0. -1.
     100001    1    1    2    0    0 -0.52093029485E-02  0.20537109213E-01  0.71479233322E-02  0.50000500000E+01  0.50000000000E+01 0.  1.
</event>
<event>
 4    1  0.5040302E-001  0.5000050E+01  0.7818608E-02  0.2136455E+00
        -11   -1    0    0    0    0  0.00000000000E+00  0.00000000000E+00  0.50000499739E+01  0.50000500000E+01  0.51100000000E-03 0. -1.
         11   -1    0    0    0    0 -0.00000000000E+00 -0.00000000000E+00 -0.50000499739E+01  0.50000500000E+01  0.51100000000E-03 0.  1.
     100001    1    1    2    0    0  0.15135595777E-01 -0.12630339752E-01 -0.10554182026E-01  0.50000500000E+01  0.50000000000E+01 0. -1.
     100001    1    1    2    0    0 -0.15135595777E-01  0.12630339752E-01  0.10554182026E-01  0.50000500000E+01  0.50000000000E+01 0.  0.
</event>
<event>
 4    1  0.5040302E-001  0.5000050E+01  0.7818608E-02  0.2136455E+00
        -11   -1    0    0    0    0  0.00000000000E+00  0.00000000000E+00  0.50000499739E+01  0.50000500000E+01  0.51100000000E-03 0. -1.
         11   -1    0    0    0    0 -0.00000000000E+00 -0.00000000000E+00 -0.50000499739E+01  0.50000500000E+01  0.51100000000E-03 0.  1.
     100001    1    1    2    0    0  0.18067570834E-01 -0.14060710026E-02 -0.13099173580E-01  0.50000500000E+01  0.50000000000E+01 0.  1.
     100001    1    1    2    0    0 -0.18067570834E-01  0.14060710026E-02  0.13099173580E-01  0.50000500000E+01  0.50000000000E+01 0. -1.
</event>
<event>
 4    1  0.5040302E-001  0.5000050E+01  0.7818608E-02  0.2136455E+00
        -11   -1    0    0    0    0  0.00000000000E+00  0.00000000000E+00  0.50000499739E+01  0.50000500000E+01  0.51100000000E-03 0.  1.
         11   -1    0    0    0    0 -0.00000000000E+00 -0.00000000000E+00 -0.50000499739E+01  0.50000500000E+01  0.51100000000E-03 0. -1.
     100001    1    1    2    0    0  0.18228141960E-01  0.11500694614E-01  0.59557840868E-02  0.50000500000E+01  0.50000000000E+01 0.  1.
     100001    1    1    2    0    0 -0.18228141960E-01 -0.11500694614E-01 -0.59557840868E-02  0.50000500000E+01  0.50000000000E+01 0. -1.
</event>
<event>
 4    1  0.5040302E-001  0.5000050E+01  0.7818608E-02  0.2136455E+00
        -11   -1    0    0    0    0  0.00000000000E+00  0.00000000000E+00  0.50000499739E+01  0.50000500000E+01  0.51100000000E-03 0.  1.
         11   -1    0    0    0    0 -0.00000000000E+00 -0.00000000000E+00 -0.50000499739E+01  0.50000500000E+01  0.51100000000E-03 0. -1.
     100001    1    1    2    0    0 -0.12701320226E-01  0.17260076835E-01 -0.63850381507E-02  0.50000500000E+01  0.50000000000E+01 0.  1.
     100001    1    1    2    0    0  0.12701320226E-01 -0.17260076835E-01  0.63850381507E-02  0.50000500000E+01  0.50000000000E+01 0.  1.
</event>
<event>
 4    1  0.5040302E-001  0.5000050E+01  0.7818608E-02  0.2136455E+00
        -11   -1    0    0    0    0  0.00000000000E+00  0.00000000000E+00  0.50000499739E+01  0.50000500000E+01  0.51100000000E-03 0. -1.
         11   -1    0    0    0    0 -0.00000000000E+00 -0.00000000000E+00 -0.50000499739E+01  0.50000500000E+01  0.51100000000E-03 0.  1.
     100001    1    1    2    0    0  0.35609630310E-02  0.18329616679E-01  0.12302324768E-01  0.50000500000E+01  0.50000000000E+01 0.  0.
     100001    1    1    2    0    0 -0.35609630310E-02 -0.18329616679E-01 -0.12302324768E-01  0.50000500000E+01  0.50000000000E+01 0. -1.
</event>
<event>
 4    1  0.5040302E-001  0.5000050E+01  0.7818608E-02  0.2136455E+00
        -11   -1    0    0    0    0  0.00000000000E+00  0.00000000000E+00  0.50000499739E+01  0.50000500000E+01  0.51100000000E-03 0.  1.
         11   -1    0    0    0    0 -0.00000000000E+00 -0.00000000000E+00 -0.50000499739E+01  0.50000500000E+01  0.51100000000E-03 0. -1.
     100001    1    1    2    0    0 -0.13794260061E-01  0.48062492549E-02 -0.16929880610E-01  0.50000500000E+01  0.50000000000E+01 0.  0.
     100001    1    1    2    0    0  0.13794260061E-01 -0.48062492549E-02  0.16929880610E-01  0.50000500000E+01  0.50000000000E+01 0. -1.
</event>
<event>
 4    1  0.5040302E-001  0.5000050E+01  0.7818608E-02  0.2136455E+00
        -11   -1    0    0    0    0  0.00000000000E+00  0.00000000000E+00  0.50000499739E+01  0.50000500000E+01  0.51100000000E-03 0.  1.
         11   -1    0    0    0    0 -0.00000000000E+00 -0.00000000000E+00 -0.50000499739E+01  0.50000500000E+01  0.51100000000E-03 0. -1.
     100001    1    1    2    0    0  0.20486237245E-02  0.99082752792E-02 -0.19940705149E-01  0.50000500000E+01  0.50000000000E+01 0. -1.
     100001    1    1    2    0    0 -0.20486237245E-02 -0.99082752792E-02  0.19940705149E-01  0.50000500000E+01  0.50000000000E+01 0.  1.
</event>
<event>
 4    1  0.5040302E-001  0.5000050E+01  0.7818608E-02  0.2136455E+00
        -11   -1    0    0    0    0  0.00000000000E+00  0.00000000000E+00  0.50000499739E+01  0.50000500000E+01  0.51100000000E-03 0. -1.
         11   -1    0    0    0    0 -0.00000000000E+00 -0.00000000000E+00 -0.50000499739E+01  0.50000500000E+01  0.51100000000E-03 0.  1.
     100001    1    1    2    0    0  0.18092868951E-01  0.96406227827E-02 -0.89279888824E-02  0.50000500000E+01  0.50000000000E+01 0.  0.
     100001    1    1    2    0    0 -0.18092868951E-01 -0.96406227827E-02  0.89279888824E-02  0.50000500000E+01  0.50000000000E+01 0.  1.
</event>
<event>
 4    1  0.5040302E-001  0.5000050E+01  0.7818608E-02  0.2136455E+00
        -11   -1    0    0    0    0  0.00000000000E+00  0.00000000000E+00  0.50000499739E+01  0.50000500000E+01  0.51100000000E-03 0. -1.
         11   -1    0    0    0    0 -0.00000000000E+00 -0.00000000000E+00 -0.50000499739E+01  0.50000500000E+01  0.51100000000E-03 0.  1.
     100001    1    1    2    0    0 -0.33795625662E-02  0.47056386321E-02 -0.21597176249E-01  0.50000500000E+01  0.50000000000E+01 0.  1.
     100001    1    1    2    0    0  0.33795625662E-02 -0.47056386321E-02  0.21597176249E-01  0.50000500000E+01  0.50000000000E+01 0.  0.
</event>
<event>
 4    1  0.5040302E-001  0.5000050E+01  0.7818608E-02  0.2136455E+00
        -11   -1    0    0    0    0  0.00000000000E+00  0.00000000000E+00  0.50000499739E+01  0.50000500000E+01  0.51100000000E-03 0.  1.
         11   -1    0    0    0    0 -0.00000000000E+00 -0.00000000000E+00 -0.50000499739E+01  0.50000500000E+01  0.51100000000E-03 0. -1.
     100001    1    1    2    0    0 -0.13469541433E-01  0.16870420374E-02 -0.17768732165E-01  0.50000500000E+01  0.50000000000E+01 0.  0.
     100001    1    1    2    0    0  0.13469541433E-01 -0.16870420374E-02  0.17768732165E-01  0.50000500000E+01  0.50000000000E+01 0.  1.
</event>
<event>
 4    1  0.5040302E-001  0.5000050E+01  0.7818608E-02  0.2136455E+00
        -11   -1    0    0    0    0  0.00000000000E+00  0.00000000000E+00  0.50000499739E+01  0.50000500000E+01  0.51100000000E-03 0.  1.
         11   -1    0    0    0    0 -0.00000000000E+00 -0.00000000000E+00 -0.50000499739E+01  0.50000500000E+01  0.51100000000E-03 0. -1.
     100001    1    1    2    0    0 -0.10095306354E-02 -0.19386401742E-01  0.11097331903E-01  0.50000500000E+01  0.50000000000E+01 0. -1.
     100001    1    1    2    0    0  0.10095306354E-02  0.19386401742E-01 -0.11097331903E-01  0.50000500000E+01  0.50000000000E+01 0.  1.
</event>
<event>
 4    1  0.5040302E-001  0.5000050E+01  0.7818608E-02  0.2136455E+00
        -11   -1    0    0    0    0  0.00000000000E+00  0.00000000000E+00  0.50000499739E+01  0.50000500000E+01  0.51100000000E-03 0. -1.
         11   -1    0    0    0    0 -0.00000000000E+00 -0.00000000000E+00 -0.50000499739E+01  0.50000500000E+01  0.51100000000E-03 0.  1.
     100001    1    1    2    0    0 -0.17398576261E-01  0.75581529870E-03  0.14025718781E-01  0.50000500000E+01  0.50000000000E+01 0. -1.
     100001    1    1    2    0    0  0.17398576261E-01 -0.75581529870E-03 -0.14025718781E-01  0.50000500000E+01  0.50000000000E+01 0.  1.
</event>
<event>
 4    1  0.5040302E-001  0.5000050E+01  0.7818608E-02  0.2136455E+00
        -11   -1    0    0    0    0  0.00000000000E+00  0.00000000000E+00  0.50000499739E+01  0.50000500000E+01  0.51100000000E-03 0.  1.
         11   -1    0    0    0    0 -0.00000000000E+00 -0.00000000000E+00 -0.50000499739E+01  0.50000500000E+01  0.51100000000E-03 0. -1.
     100001    1    1    2    0    0  0.11107043735E-01 -0.17410133290E-01  0.85745751097E-02  0.50000500000E+01  0.50000000000E+01 0. -1.
     100001    1    1    2    0    0 -0.11107043735E-01  0.17410133290E-01 -0.85745751097E-02  0.50000500000E+01  0.50000000000E+01 0.  1.
</event>
<event>
 4    1  0.5040302E-001  0.5000050E+01  0.7818608E-02  0.2136455E+00
        -11   -1    0    0    0    0  0.00000000000E+00  0.00000000000E+00  0.50000499739E+01  0.50000500000E+01  0.51100000000E-03 0. -1.
         11   -1    0    0    0    0 -0.00000000000E+00 -0.00000000000E+00 -0.50000499739E+01  0.50000500000E+01  0.51100000000E-03 0.  1.
     100001    1    1    2    0    0 -0.84336512523E-02  0.91688197919E-02 -0.18569027174E-01  0.50000500000E+01  0.50000000000E+01 0.  0.
     100001    1    1    2    0    0  0.84336512523E-02 -0.91688197919E-02  0.18569027174E-01  0.50000500000E+01  0.50000000000E+01 0.  1.
</event>
<event>
 4    1  0.5040302E-001  0.5000050E+01  0.7818608E-02  0.2136455E+00
        -11   -1    0    0    0    0  0.00000000000E+00  0.00000000000E+00  0.50000499739E+01  0.50000500000E+01  0.51100000000E-03 0. -1.
         11   -1    0    0    0    0 -0.00000000000E+00 -0.00000000000E+00 -0.50000499739E+01  0.50000500000E+01  0.51100000000E-03 0.  1.
     100001    1    1    2    0    0 -0.20119010923E-01  0.50226143092E-02 -0.83666746665E-02  0.50000500000E+01  0.50000000000E+01 0. -1.
     100001    1    1    2    0    0  0.20119010923E-01 -0.50226143092E-02  0.83666746665E-02  0.50000500000E+01  0.50000000000E+01 0.  0.
</event>
<event>
 4    1  0.5040302E-001  0.5000050E+01  0.7818608E-02  0.2136455E+00
        -11   -1    0    0    0    0  0.00000000000E+00  0.00000000000E+00  0.50000499739E+01  0.50000500000E+01  0.51100000000E-03 0. -1.
         11   -1    0    0    0    0 -0.00000000000E+00 -0.00000000000E+00 -0.50000499739E+01  0.50000500000E+01  0.51100000000E-03 0.  1.
     100001    1    1    2    0    0  0.15943586251E-01  0.93817988030E-02 -0.12561306010E-01  0.50000500000E+01  0.50000000000E+01 0.  1.
     100001    1    1    2    0    0 -0.15943586251E-01 -0.93817988030E-02  0.12561306010E-01  0.50000500000E+01  0.50000000000E+01 0. -1.
</event>
<event>
 4    1  0.5040302E-001  0.5000050E+01  0.7818608E-02  0.2136455E+00
        -11   -1    0    0    0    0  0.00000000000E+00  0.00000000000E+00  0.50000499739E+01  0.50000500000E+01  0.51100000000E-03 0. -1.
         11   -1    0    0    0    0 -0.00000000000E+00 -0.00000000000E+00 -0.50000499739E+01  0.50000500000E+01  0.51100000000E-03 0.  1.
     100001    1    1    2    0    0 -0.32918847798E-02 -0.12508348059E-01 -0.18240263798E-01  0.50000500000E+01  0.50000000000E+01 0.  0.
     100001    1    1    2    0    0  0.32918847798E-02  0.12508348059E-01  0.18240263798E-01  0.50000500000E+01  0.50000000000E+01 0. -1.
</event>
<event>
 4    1  0.5040302E-001  0.5000050E+01  0.7818608E-02  0.2136455E+00
        -11   -1    0    0    0    0  0.00000000000E+00  0.00000000000E+00  0.50000499739E+01  0.50000500000E+01  0.51100000000E-03 0. -1.
         11   -1    0    0    0    0 -0.00000000000E+00 -0.00000000000E+00 -0.50000499739E+01  0.50000500000E+01  0.51100000000E-03 0.  1.
     100001    1    1    2    0    0  0.52830690784E-02 -0.15592841159E-01  0.15131258563E-01  0.50000500000E+01  0.50000000000E+01 0.  0.
     100001    1    1    2    0    0 -0.52830690784E-02  0.15592841159E-01 -0.15131258563E-01  0.50000500000E+01  0.50000000000E+01 0.  0.
</event>
<event>
 4    1  0.5040302E-001  0.5000050E+01  0.7818608E-02  0.2136455E+00
        -11   -1    0    0    0    0  0.00000000000E+00  0.00000000000E+00  0.50000499739E+01  0.50000500000E+01  0.51100000000E-03 0.  1.
         11   -1    0    0    0    0 -0.00000000000E+00 -0.00000000000E+00 -0.50000499739E+01  0.50000500000E+01  0.51100000000E-03 0. -1.
     100001    1    1    2    0    0 -0.20174033762E-01 -0.83496619136E-02 -0.48263866093E-02  0.50000500000E+01  0.50000000000E+01 0.  1.
     100001    1    1    2    0    0  0.20174033762E-01  0.83496619136E-02  0.48263866093E-02  0.50000500000E+01  0.50000000000E+01 0.  0.
</event>
<event>
 4    1  0.5040302E-001  0.5000050E+01  0.7818608E-02  0.2136455E+00
        -11   -1    0    0    0    0  0.00000000000E+00  0.00000000000E+00  0.50000499739E+01  0.50000500000E+01  0.51100000000E-03 0.  1.
         11   -1    0    0    0    0 -0.00000000000E+00 -0.00000000000E+00 -0.50000499739E+01  0.50000500000E+01  0.51100000000E-03 0. -1.
     100001    1    1    2    0    0 -0.15621105462E-01 -0.78488538317E-02  0.13941989014E-01  0.50000500000E+01  0.50000000000E+01 0.  1.
     100001    1    1    2    0    0  0.15621105462E-01  0.78488538317E-02 -0.13941989014E-01  0.50000500000E+01  0.50000000000E+01 0. -1.
</event>
<event>
 4    1  0.5040302E-001  0.5000050E+01  0.7818608E-02  0.2136455E+00
        -11   -1    0    0    0    0  0.00000000000E+00  0.00000000000E+00  0.50000499739E+01  0.50000500000E+01  0.51100000000E-03 0. -1.
         11   -1    0    0    0    0 -0.00000000000E+00 -0.00000000000E+00 -0.50000499739E+01  0.50000500000E+01  0.51100000000E-03 0.  1.
     100001    1    1    2    0    0 -0.20561846639E-01 -0.52829061823E-03  0.87711955758E-02  0.50000500000E+01  0.50000000000E+01 0.  1.
     100001    1    1    2    0    0  0.20561846639E-01  0.52829061823E-03 -0.87711955758E-02  0.50000500000E+01  0.50000000000E+01 0. -1.
</event>
<event>
 4    1  0.5040302E-001  0.5000050E+01  0.7818608E-02  0.2136455E+00
        -11   -1    0    0    0    0  0.00000000000E+00  0.00000000000E+00  0.50000499739E+01  0.50000500000E+01  0.51100000000E-03 0. -1.
         11   -1    0    0    0    0 -0.00000000000E+00 -0.00000000000E+00 -0.50000499739E+01  0.50000500000E+01  0.51100000000E-03 0.  1.
     100001    1    1    2    0    0  0.69302241460E-02 -0.17185017457E-01  0.12515976521E-01  0.50000500000E+01  0.50000000000E+01 0. -1.
     100001    1    1    2    0    0 -0.69302241460E-02  0.17185017457E-01 -0.12515976521E-01  0.50000500000E+01  0.50000000000E+01 0.  1.
</event>
<event>
 4    1  0.5040302E-001  0.5000050E+01  0.7818608E-02  0.2136455E+00
        -11   -1    0    0    0    0  0.00000000000E+00  0.00000000000E+00  0.50000499739E+01  0.50000500000E+01  0.51100000000E-03 0.  1.
         11   -1    0    0    0    0 -0.00000000000E+00 -0.00000000000E+00 -0.50000499739E+01  0.50000500000E+01  0.51100000000E-03 0. -1.
     100001    1    1    2    0    0 -0.12973813200E-01 -0.14457269782E-01 -0.11075649936E-01  0.50000500000E+01  0.50000000000E+01 0. -1.
     100001    1    1    2    0    0  0.12973813200E-01  0.14457269782E-01  0.11075649936E-01  0.50000500000E+01  0.50000000000E+01 0.  1.
</event>
<event>
 4    1  0.5040302E-001  0.5000050E+01  0.7818608E-02  0.2136455E+00
        -11   -1    0    0    0    0  0.00000000000E+00  0.00000000000E+00  0.50000499739E+01  0.50000500000E+01  0.51100000000E-03 0. -1.
         11   -1    0    0    0    0 -0.00000000000E+00 -0.00000000000E+00 -0.50000499739E+01  0.50000500000E+01  0.51100000000E-03 0.  1.
     100001    1    1    2    0    0  0.10151670694E-01 -0.50457909732E-02 -0.19273974047E-01  0.50000500000E+01  0.50000000000E+01 0.  1.
     100001    1    1    2    0    0 -0.10151670694E-01  0.50457909732E-02  0.19273974047E-01  0.50000500000E+01  0.50000000000E+01 0.  0.
</event>
<event>
 4    1  0.5040302E-001  0.5000050E+01  0.7818608E-02  0.2136455E+00
        -11   -1    0    0    0    0  0.00000000000E+00  0.00000000000E+00  0.50000499739E+01  0.50000500000E+01  0.51100000000E-03 0.  1.
         11   -1    0    0    0    0 -0.00000000000E+00 -0.00000000000E+00 -0.50000499739E+01  0.50000500000E+01  0.51100000000E-03 0. -1.
     100001    1    1    2    0    0 -0.52266186873E-02 -0.16720496420E-01 -0.13896400849E-01  0.50000500000E+01  0.50000000000E+01 0. -1.
     100001    1    1    2    0    0  0.52266186873E-02  0.16720496420E-01  0.13896400849E-01  0.50000500000E+01  0.50000000000E+01 0.  1.
</event>
<event>
 4    1  0.5040302E-001  0.5000050E+01  0.7818608E-02  0.2136455E+00
        -11   -1    0    0    0    0  0.00000000000E+00  0.00000000000E+00  0.50000499739E+01  0.50000500000E+01  0.51100000000E-03 0.  1.
         11   -1    0    0    0    0 -0.00000000000E+00 -0.00000000000E+00 -0.50000499739E+01  0.50000500000E+01  0.51100000000E-03 0. -1.
     100001    1    1    2    0    0 -0.16302202620E-01 -0.16955895888E-02 -0.15210708915E-01  0.50000500000E+01  0.50000000000E+01 0. -1.
     100001    1    1    2    0    0  0.16302202620E-01  0.16955895888E-02  0.15210708915E-01  0.50000500000E+01  0.50000000000E+01 0.  1.
</event>
<event>
 4    1  0.5040302E-001  0.5000050E+01  0.7818608E-02  0.2136455E+00
        -11   -1    0    0    0    0  0.00000000000E+00  0.00000000000E+00  0.50000499739E+01  0.50000500000E+01  0.51100000000E-03 0. -1.
         11   -1    0    0    0    0 -0.00000000000E+00 -0.00000000000E+00 -0.50000499739E+01  0.50000500000E+01  0.51100000000E-03 0.  1.
     100001    1    1    2    0    0 -0.21922089791E-01  0.85242946407E-03  0.43241002787E-02  0.50000500000E+01  0.50000000000E+01 0. -1.
     100001    1    1    2    0    0  0.21922089791E-01 -0.85242946407E-03 -0.43241002787E-02  0.50000500000E+01  0.50000000000E+01 0.  0.
</event>
<event>
 4    1  0.5040302E-001  0.5000050E+01  0.7818608E-02  0.2136455E+00
        -11   -1    0    0    0    0  0.00000000000E+00  0.00000000000E+00  0.50000499739E+01  0.50000500000E+01  0.51100000000E-03 0.  1.
         11   -1    0    0    0    0 -0.00000000000E+00 -0.00000000000E+00 -0.50000499739E+01  0.50000500000E+01  0.51100000000E-03 0. -1.
     100001    1    1    2    0    0  0.21326132300E-01 -0.10860775932E-02 -0.66346828561E-02  0.50000500000E+01  0.50000000000E+01 0. -1.
     100001    1    1    2    0    0 -0.21326132300E-01  0.10860775932E-02  0.66346828561E-02  0.50000500000E+01  0.50000000000E+01 0.  1.
</event>
<event>
 4    1  0.5040302E-001  0.5000050E+01  0.7818608E-02  0.2136455E+00
        -11   -1    0    0    0    0  0.00000000000E+00  0.00000000000E+00  0.50000499739E+01  0.50000500000E+01  0.51100000000E-03 0. -1.
         11   -1    0    0    0    0 -0.00000000000E+00 -0.00000000000E+00 -0.50000499739E+01  0.50000500000E+01  0.51100000000E-03 0.  1.
     100001    1    1    2    0    0 -0.73891748860E-02 -0.14463001192E-01 -0.15369586560E-01  0.50000500000E+01  0.50000000000E+01 0.  0.
     100001    1    1    2    0    0  0.73891748860E-02  0.14463001192E-01  0.15369586560E-01  0.50000500000E+01  0.50000000000E+01 0.  1.
</event>
<event>
 4    1  0.5040302E-001  0.5000050E+01  0.7818608E-02  0.2136455E+00
        -11   -1    0    0    0    0  0.00000000000E+00  0.00000000000E+00  0.50000499739E+01  0.50000500000E+01  0.51100000000E-03 0. -1.
         11   -1    0    0    0    0 -0.00000000000E+00 -0.00000000000E+00 -0.50000499739E+01  0.50000500000E+01  0.51100000000E-03 0.  1.
     100001    1    1    2    0    0  0.19166916255E-01  0.33135102459E-02 -0.11029617905E-01  0.50000500000E+01  0.50000000000E+01 0.  1.
     100001    1    1    2    0    0 -0.19166916255E-01 -0.33135102459E-02  0.11029617905E-01  0.50000500000E+01  0.50000000000E+01 0. -1.
</event>
<event>
 4    1  0.5040302E-001  0.5000050E+01  0.7818608E-02  0.2136455E+00
        -11   -1    0    0    0    0  0.00000000000E+00  0.00000000000E+00  0.50000499739E+01  0.50000500000E+01  0.51100000000E-03 0. -1.
         11   -1    0    0    0    0 -0.00000000000E+00 -0.00000000000E+00 -0.50000499739E+01  0.50000500000E+01  0.51100000000E-03 0.  1.
     100001    1    1    2    0    0 -0.21196272816E-01 -0.55070691748E-02 -0.45158285862E-02  0.50000500000E+01  0.50000000000E+01 0.  0.
     100001    1    1    2    0    0  0.21196272816E-01  0.55070691748E-02  0.45158285862E-02  0.50000500000E+01  0.50000000000E+01 0.  1.
</event>
<event>
 4    1  0.5040302E-001  0.5000050E+01  0.7818608E-02  0.2136455E+00
        -11   -1    0    0    0    0  0.00000000000E+00  0.00000000000E+00  0.50000499739E+01  0.50000500000E+01  0.51100000000E-03 0. -1.
         11   -1    0    0    0    0 -0.00000000000E+00 -0.00000000000E+00 -0.50000499739E+01  0.50000500000E+01  0.51100000000E-03 0.  1.
     100001    1    1    2    0    0  0.10939136203E-01 -0.18235135053E-01 -0.69150306376E-02  0.50000500000E+01  0.50000000000E+01 0.  0.
     100001    1    1    2    0    0 -0.10939136203E-01  0.18235135053E-01  0.69150306376E-02  0.50000500000E+01  0.50000000000E+01 0.  1.
</event>
<event>
 4    1  0.5040302E-001  0.5000050E+01  0.7818608E-02  0.2136455E+00
        -11   -1    0    0    0    0  0.00000000000E+00  0.00000000000E+00  0.50000499739E+01  0.50000500000E+01  0.51100000000E-03 0.  1.
         11   -1    0    0    0    0 -0.00000000000E+00 -0.00000000000E+00 -0.50000499739E+01  0.50000500000E+01  0.51100000000E-03 0. -1.
     100001    1    1    2    0    0 -0.21475988769E-01 -0.62188458939E-02  0.33220799409E-03  0.50000500000E+01  0.50000000000E+01 0.  1.
     100001    1    1    2    0    0  0.21475988769E-01  0.62188458939E-02 -0.33220799409E-03  0.50000500000E+01  0.50000000000E+01 0. -1.
</event>
<event>
 4    1  0.5040302E-001  0.5000050E+01  0.7818608E-02  0.2136455E+00
        -11   -1    0    0    0    0  0.00000000000E+00  0.00000000000E+00  0.50000499739E+01  0.50000500000E+01  0.51100000000E-03 0.  1.
         11   -1    0    0    0    0 -0.00000000000E+00 -0.00000000000E+00 -0.50000499739E+01  0.50000500000E+01  0.51100000000E-03 0. -1.
     100001    1    1    2    0    0  0.10156584115E-01  0.66382670848E-02 -0.18782430865E-01  0.50000500000E+01  0.50000000000E+01 0.  0.
     100001    1    1    2    0    0 -0.10156584115E-01 -0.66382670848E-02  0.18782430865E-01  0.50000500000E+01  0.50000000000E+01 0.  1.
</event>
<event>
 4    1  0.5040302E-001  0.5000050E+01  0.7818608E-02  0.2136455E+00
        -11   -1    0    0    0    0  0.00000000000E+00  0.00000000000E+00  0.50000499739E+01  0.50000500000E+01  0.51100000000E-03 0. -1.
         11   -1    0    0    0    0 -0.00000000000E+00 -0.00000000000E+00 -0.50000499739E+01  0.50000500000E+01  0.51100000000E-03 0.  1.
     100001    1    1    2    0    0  0.14059855843E-02 -0.20277895975E-01 -0.93184032620E-02  0.50000500000E+01  0.50000000000E+01 0. -1.
     100001    1    1    2    0    0 -0.14059855843E-02  0.20277895975E-01  0.93184032620E-02  0.50000500000E+01  0.50000000000E+01 0.  0.
</event>
<event>
 4    1  0.5040302E-001  0.5000050E+01  0.7818608E-02  0.2136455E+00
        -11   -1    0    0    0    0  0.00000000000E+00  0.00000000000E+00  0.50000499739E+01  0.50000500000E+01  0.51100000000E-03 0. -1.
         11   -1    0    0    0    0 -0.00000000000E+00 -0.00000000000E+00 -0.50000499739E+01  0.50000500000E+01  0.51100000000E-03 0.  1.
     100001    1    1    2    0    0 -0.95108339547E-02  0.17156238510E-01  0.10733592953E-01  0.50000500000E+01  0.50000000000E+01 0. -1.
     100001    1    1    2    0    0  0.95108339547E-02 -0.17156238510E-01 -0.10733592953E-01  0.50000500000E+01  0.50000000000E+01 0.  1.
</event>
<event>
 4    1  0.5040302E-001  0.5000050E+01  0.7818608E-02  0.2136455E+00
        -11   -1    0    0    0    0  0.00000000000E+00  0.00000000000E+00  0.50000499739E+01  0.50000500000E+01  0.51100000000E-03 0. -1.
         11   -1    0    0    0    0 -0.00000000000E+00 -0.00000000000E+00 -0.50000499739E+01  0.50000500000E+01  0.51100000000E-03 0.  1.
     100001    1    1    2    0    0  0.20960549187E-03  0.21474560231E-01 -0.62291113658E-02  0.50000500000E+01  0.50000000000E+01 0. -1.
     100001    1    1    2    0    0 -0.20960549187E-03 -0.21474560231E-01  0.62291113658E-02  0.50000500000E+01  0.50000000000E+01 0.  0.
</event>
<event>
 4    1  0.5040302E-001  0.5000050E+01  0.7818608E-02  0.2136455E+00
        -11   -1    0    0    0    0  0.00000000000E+00  0.00000000000E+00  0.50000499739E+01  0.50000500000E+01  0.51100000000E-03 0.  1.
         11   -1    0    0    0    0 -0.00000000000E+00 -0.00000000000E+00 -0.50000499739E+01  0.50000500000E+01  0.51100000000E-03 0. -1.
     100001    1    1    2    0    0  0.21673670005E-01 -0.54369309014E-02  0.83325319252E-03  0.50000500000E+01  0.50000000000E+01 0.  0.
     100001    1    1    2    0    0 -0.21673670005E-01  0.54369309014E-02 -0.83325319252E-03  0.50000500000E+01  0.50000000000E+01 0.  1.
</event>
<event>
 4    1  0.5040302E-001  0.5000050E+01  0.7818608E-02  0.2136455E+00
        -11   -1    0    0    0    0  0.00000000000E+00  0.00000000000E+00  0.50000499739E+01  0.50000500000E+01  0.51100000000E-03 0. -1.
         11   -1    0    0    0    0 -0.00000000000E+00 -0.00000000000E+00 -0.50000499739E+01  0.50000500000E+01  0.51100000000E-03 0.  1.
     100001    1    1    2    0    0  0.19927834700E-02  0.13791947532E-01 -0.17487524048E-01  0.50000500000E+01  0.50000000000E+01 0.  0.
     100001    1    1    2    0    0 -0.19927834700E-02 -0.13791947532E-01  0.17487524048E-01  0.50000500000E+01  0.50000000000E+01 0. -1.
</event>
<event>
 4    1  0.5040302E-001  0.5000050E+01  0.7818608E-02  0.2136455E+00
        -11   -1    0    0    0    0  0.00000000000E+00  0.00000000000E+00  0.50000499739E+01  0.50000500000E+01  0.51100000000E-03 0.  1.
         11   -1    0    0    0    0 -0.00000000000E+00 -0.00000000000E+00 -0.50000499739E+01  0.50000500000E+01  0.51100000000E-03 0. -1.
     100001    1    1    2    0    0 -0.90692293457E-02 -0.87139192232E-02 -0.18488352843E-01  0.50000500000E+01  0.50000000000E+01 0. -1.
     100001    1    1    2    0    0  0.90692293457E-02  0.87139192232E-02  0.18488352843E-01  0.50000500000E+01  0.50000000000E+01 0.  0.
</event>
<event>
 4    1  0.5040302E-001  0.5000050E+01  0.7818608E-02  0.2136455E+00
        -11   -1    0    0    0    0  0.00000000000E+00  0.00000000000E+00  0.50000499739E+01  0.50000500000E+01  0.51100000000E-03 0. -1.
         11   -1    0    0    0    0 -0.00000000000E+00 -0.00000000000E+00 -0.50000499739E+01  0.50000500000E+01  0.51100000000E-03 0.  1.
     100001    1    1    2    0    0  0.68402822706E-02  0.20450768017E-01  0.59143153419E-02  0.50000500000E+01  0.50000000000E+01 0.  1.
     100001    1    1    2    0    0 -0.68402822706E-02 -0.20450768017E-01 -0.59143153419E-02  0.50000500000E+01  0.50000000000E+01 0.  0.
</event>
<event>
 4    1  0.5040302E-001  0.5000050E+01  0.7818608E-02  0.2136455E+00
        -11   -1    0    0    0    0  0.00000000000E+00  0.00000000000E+00  0.50000499739E+01  0.50000500000E+01  0.51100000000E-03 0.  1.
         11   -1    0    0    0    0 -0.00000000000E+00 -0.00000000000E+00 -0.50000499739E+01  0.50000500000E+01  0.51100000000E-03 0. -1.
     100001    1    1    2    0    0 -0.39789367140E-02 -0.18344416737E-01 -0.12151252495E-01  0.50000500000E+01  0.50000000000E+01 0.  0.
     100001    1    1    2    0    0  0.39789367140E-02  0.18344416737E-01  0.12151252495E-01  0.50000500000E+01  0.50000000000E+01 0. -1.
</event>
<event>
 4    1  0.5040302E-001  0.5000050E+01  0.7818608E-02  0.2136455E+00
        -11   -1    0    0    0    0  0.00000000000E+00  0.00000000000E+00  0.50000499739E+01  0.50000500000E+01  0.51100000000E-03 0. -1.
         11   -1    0    0    0    0 -0.00000000000E+00 -0.00000000000E+00 -0.50000499739E+01  0.50000500000E+01  0.51100000000E-03 0.  1.
     100001    1    1    2    0    0 -0.13286202911E-01  0.17980448455E-01 -0.42753429078E-03  0.50000500000E+01  0.50000000000E+01 0.  1.
     100001    1    1    2    0    0  0.13286202911E-01 -0.17980448455E-01  0.42753429078E-03  0.50000500000E+01  0.50000000000E+01 0. -1.
</event>
<event>
 4    1  0.5040302E-001  0.5000050E+01  0.7818608E-02  0.2136455E+00
        -11   -1    0    0    0    0  0.00000000000E+00  0.00000000000E+00  0.50000499739E+01  0.50000500000E+01  0.51100000000E-03 0. -1.
         11   -1    0    0    0    0 -0.00000000000E+00 -0.00000000000E+00 -0.50000499739E+01  0.50000500000E+01  0.51100000000E-03 0.  1.
     100001    1    1    2    0    0 -0.20760690345E-02  0.13853610015E-01  0.17428996727E-01  0.50000500000E+01  0.50000000000E+01 0.  0.
     100001    1    1    2    0    0  0.20760690345E-02 -0.13853610015E-01 -0.17428996727E-01  0.50000500000E+01  0.50000000000E+01 0.  0.
</event>
<event>
 4    1  0.5040302E-001  0.5000050E+01  0.7818608E-02  0.2136455E+00
        -11   -1    0    0    0    0  0.00000000000E+00  0.00000000000E+00  0.50000499739E+01  0.50000500000E+01  0.51100000000E-03 0.  1.
         11   -1    0    0    0    0 -0.00000000000E+00 -0.00000000000E+00 -0.50000499739E+01  0.50000500000E+01  0.51100000000E-03 0. -1.
     100001    1    1    2    0    0  0.60217371792E-02 -0.15824616056E-02  0.21476428861E-01  0.50000500000E+01  0.50000000000E+01 0.  1.
     100001    1    1    2    0    0 -0.60217371792E-02  0.15824616056E-02 -0.21476428861E-01  0.50000500000E+01  0.50000000000E+01 0.  0.
</event>
<event>
 4    1  0.5040302E-001  0.5000050E+01  0.7818608E-02  0.2136455E+00
        -11   -1    0    0    0    0  0.00000000000E+00  0.00000000000E+00  0.50000499739E+01  0.50000500000E+01  0.51100000000E-03 0.  1.
         11   -1    0    0    0    0 -0.00000000000E+00 -0.00000000000E+00 -0.50000499739E+01  0.50000500000E+01  0.51100000000E-03 0. -1.
     100001    1    1    2    0    0  0.96867067436E-02  0.18869086070E-01  0.70800991043E-02  0.50000500000E+01  0.50000000000E+01 0. -1.
     100001    1    1    2    0    0 -0.96867067436E-02 -0.18869086070E-01 -0.70800991043E-02  0.50000500000E+01  0.50000000000E+01 0.  0.
</event>
<event>
 4    1  0.5040302E-001  0.5000050E+01  0.7818608E-02  0.2136455E+00
        -11   -1    0    0    0    0  0.00000000000E+00  0.00000000000E+00  0.50000499739E+01  0.50000500000E+01  0.51100000000E-03 0.  1.
         11   -1    0    0    0    0 -0.00000000000E+00 -0.00000000000E+00 -0.50000499739E+01  0.50000500000E+01  0.51100000000E-03 0. -1.
     100001    1    1    2    0    0 -0.20161554882E-01  0.70560829559E-02  0.66125560899E-02  0.50000500000E+01  0.50000000000E+01 0.  1.
     100001    1    1    2    0    0  0.20161554882E-01 -0.70560829559E-02 -0.66125560899E-02  0.50000500000E+01  0.50000000000E+01 0. -1.
</event>
<event>
 4    1  0.5040302E-001  0.5000050E+01  0.7818608E-02  0.2136455E+00
        -11   -1    0    0    0    0  0.00000000000E+00  0.00000000000E+00  0.50000499739E+01  0.50000500000E+01  0.51100000000E-03 0. -1.
         11   -1    0    0    0    0 -0.00000000000E+00 -0.00000000000E+00 -0.50000499739E+01  0.50000500000E+01  0.51100000000E-03 0.  1.
     100001    1    1    2    0    0  0.17198462850E-01 -0.91054137649E-02 -0.11013937341E-01  0.50000500000E+01  0.50000000000E+01 0. -1.
     100001    1    1    2    0    0 -0.17198462850E-01  0.91054137649E-02  0.11013937341E-01  0.50000500000E+01  0.50000000000E+01 0.  0.
</event>
<event>
 4    1  0.5040302E-001  0.5000050E+01  0.7818608E-02  0.2136455E+00
        -11   -1    0    0    0    0  0.00000000000E+00  0.00000000000E+00  0.50000499739E+01  0.50000500000E+01  0.51100000000E-03 0.  1.
         11   -1    0    0    0    0 -0.00000000000E+00 -0.00000000000E+00 -0.50000499739E+01  0.50000500000E+01  0.51100000000E-03 0. -1.
     100001    1    1    2    0    0 -0.56240890367E-02  0.13646625380E-01  0.16797075288E-01  0.50000500000E+01  0.50000000000E+01 0.  1.
     100001    1    1    2    0    0  0.56240890367E-02 -0.13646625380E-01 -0.16797075288E-01  0.50000500000E+01  0.50000000000E+01 0.  0.
</event>
<event>
 4    1  0.5040302E-001  0.5000050E+01  0.7818608E-02  0.2136455E+00
        -11   -1    0    0    0    0  0.00000000000E+00  0.00000000000E+00  0.50000499739E+01  0.50000500000E+01  0.51100000000E-03 0. -1.
         11   -1    0    0    0    0 -0.00000000000E+00 -0.00000000000E+00 -0.50000499739E+01  0.50000500000E+01  0.51100000000E-03 0.  1.
     100001    1    1    2    0    0  0.64012626328E-02  0.20511507363E-01  0.61890550498E-02  0.50000500000E+01  0.50000000000E+01 0.  1.
     100001    1    1    2    0    0 -0.64012626328E-02 -0.20511507363E-01 -0.61890550498E-02  0.50000500000E+01  0.50000000000E+01 0.  0.
</event>
<event>
 4    1  0.5040302E-001  0.5000050E+01  0.7818608E-02  0.2136455E+00
        -11   -1    0    0    0    0  0.00000000000E+00  0.00000000000E+00  0.50000499739E+01  0.50000500000E+01  0.51100000000E-03 0. -1.
         11   -1    0    0    0    0 -0.00000000000E+00 -0.00000000000E+00 -0.50000499739E+01  0.50000500000E+01  0.51100000000E-03 0.  1.
     100001    1    1    2    0    0 -0.15948697584E-02  0.14021854707E-01 -0.17344926666E-01  0.50000500000E+01  0.50000000000E+01 0.  1.
     100001    1    1    2    0    0  0.15948697584E-02 -0.14021854707E-01  0.17344926666E-01  0.50000500000E+01  0.50000000000E+01 0. -1.
</event>
<event>
 4    1  0.5040302E-001  0.5000050E+01  0.7818608E-02  0.2136455E+00
        -11   -1    0    0    0    0  0.00000000000E+00  0.00000000000E+00  0.50000499739E+01  0.50000500000E+01  0.51100000000E-03 0. -1.
         11   -1    0    0    0    0 -0.00000000000E+00 -0.00000000000E+00 -0.50000499739E+01  0.50000500000E+01  0.51100000000E-03 0.  1.
     100001    1    1    2    0    0 -0.21284166998E-02  0.21946284026E-01 -0.37192687181E-02  0.50000500000E+01  0.50000000000E+01 0.  0.
     100001    1    1    2    0    0  0.21284166998E-02 -0.21946284026E-01  0.37192687181E-02  0.50000500000E+01  0.50000000000E+01 0.  1.
</event>
<event>
 4    1  0.5040302E-001  0.5000050E+01  0.7818608E-02  0.2136455E+00
        -11   -1    0    0    0    0  0.00000000000E+00  0.00000000000E+00  0.50000499739E+01  0.50000500000E+01  0.51100000000E-03 0.  1.
         11   -1    0    0    0    0 -0.00000000000E+00 -0.00000000000E+00 -0.50000499739E+01  0.50000500000E+01  0.51100000000E-03 0. -1.
     100001    1    1    2    0    0  0.78700057762E-02 -0.17074380315E-01  0.12105000865E-01  0.50000500000E+01  0.50000000000E+01 0.  1.
     100001    1    1    2    0    0 -0.78700057762E-02  0.17074380315E-01 -0.12105000865E-01  0.50000500000E+01  0.50000000000E+01 0.  1.
</event>
<event>
 4    1  0.5040302E-001  0.5000050E+01  0.7818608E-02  0.2136455E+00
        -11   -1    0    0    0    0  0.00000000000E+00  0.00000000000E+00  0.50000499739E+01  0.50000500000E+01  0.51100000000E-03 0.  1.
         11   -1    0    0    0    0 -0.00000000000E+00 -0.00000000000E+00 -0.50000499739E+01  0.50000500000E+01  0.51100000000E-03 0. -1.
     100001    1    1    2    0    0  0.11779715787E-01  0.10724165223E-01 -0.15691815582E-01  0.50000500000E+01  0.50000000000E+01 0.  0.
     100001    1    1    2    0    0 -0.11779715787E-01 -0.10724165223E-01  0.15691815582E-01  0.50000500000E+01  0.50000000000E+01 0.  1.
</event>
<event>
 4    1  0.5040302E-001  0.5000050E+01  0.7818608E-02  0.2136455E+00
        -11   -1    0    0    0    0  0.00000000000E+00  0.00000000000E+00  0.50000499739E+01  0.50000500000E+01  0.51100000000E-03 0.  1.
         11   -1    0    0    0    0 -0.00000000000E+00 -0.00000000000E+00 -0.50000499739E+01  0.50000500000E+01  0.51100000000E-03 0. -1.
     100001    1    1    2    0    0  0.11349827985E-01 -0.14466046204E-01  0.12724677282E-01  0.50000500000E+01  0.50000000000E+01 0.  0.
     100001    1    1    2    0    0 -0.11349827985E-01  0.14466046204E-01 -0.12724677282E-01  0.50000500000E+01  0.50000000000E+01 0.  0.
</event>
<event>
 4    1  0.5040302E-001  0.5000050E+01  0.7818608E-02  0.2136455E+00
        -11   -1    0    0    0    0  0.00000000000E+00  0.00000000000E+00  0.50000499739E+01  0.50000500000E+01  0.51100000000E-03 0.  1.
         11   -1    0    0    0    0 -0.00000000000E+00 -0.00000000000E+00 -0.50000499739E+01  0.50000500000E+01  0.51100000000E-03 0. -1.
     100001    1    1    2    0    0 -0.16133175529E-01  0.98324317947E-02 -0.11960202019E-01  0.50000500000E+01  0.50000000000E+01 0.  0.
     100001    1    1    2    0    0  0.16133175529E-01 -0.98324317947E-02  0.11960202019E-01  0.50000500000E+01  0.50000000000E+01 0.  0.
</event>
<event>
 4    1  0.5040302E-001  0.5000050E+01  0.7818608E-02  0.2136455E+00
        -11   -1    0    0    0    0  0.00000000000E+00  0.00000000000E+00  0.50000499739E+01  0.50000500000E+01  0.51100000000E-03 0.  1.
         11   -1    0    0    0    0 -0.00000000000E+00 -0.00000000000E+00 -0.50000499739E+01  0.50000500000E+01  0.51100000000E-03 0. -1.
     100001    1    1    2    0    0  0.13345734556E-01  0.12782442714E-01 -0.12589798546E-01  0.50000500000E+01  0.50000000000E+01 0. -1.
     100001    1    1    2    0    0 -0.13345734556E-01 -0.12782442714E-01  0.12589798546E-01  0.50000500000E+01  0.50000000000E+01 0.  1.
</event>
<event>
 4    1  0.5040302E-001  0.5000050E+01  0.7818608E-02  0.2136455E+00
        -11   -1    0    0    0    0  0.00000000000E+00  0.00000000000E+00  0.50000499739E+01  0.50000500000E+01  0.51100000000E-03 0.  1.
         11   -1    0    0    0    0 -0.00000000000E+00 -0.00000000000E+00 -0.50000499739E+01  0.50000500000E+01  0.51100000000E-03 0. -1.
     100001    1    1    2    0    0  0.22744160584E-02  0.20386118670E-01  0.89014435435E-02  0.50000500000E+01  0.50000000000E+01 0.  0.
     100001    1    1    2    0    0 -0.22744160584E-02 -0.20386118670E-01 -0.89014435435E-02  0.50000500000E+01  0.50000000000E+01 0.  0.
</event>
<event>
 4    1  0.5040302E-001  0.5000050E+01  0.7818608E-02  0.2136455E+00
        -11   -1    0    0    0    0  0.00000000000E+00  0.00000000000E+00  0.50000499739E+01  0.50000500000E+01  0.51100000000E-03 0.  1.
         11   -1    0    0    0    0 -0.00000000000E+00 -0.00000000000E+00 -0.50000499739E+01  0.50000500000E+01  0.51100000000E-03 0. -1.
     100001    1    1    2    0    0 -0.51417695244E-02  0.13039515841E-01  0.17422276911E-01  0.50000500000E+01  0.50000000000E+01 0.  1.
     100001    1    1    2    0    0  0.51417695244E-02 -0.13039515841E-01 -0.17422276911E-01  0.50000500000E+01  0.50000000000E+01 0. -1.
</event>
<event>
 4    1  0.5040302E-001  0.5000050E+01  0.7818608E-02  0.2136455E+00
        -11   -1    0    0    0    0  0.00000000000E+00  0.00000000000E+00  0.50000499739E+01  0.50000500000E+01  0.51100000000E-03 0.  1.
         11   -1    0    0    0    0 -0.00000000000E+00 -0.00000000000E+00 -0.50000499739E+01  0.50000500000E+01  0.51100000000E-03 0. -1.
     100001    1    1    2    0    0 -0.68654596742E-02 -0.92374497121E-02 -0.19171267206E-01  0.50000500000E+01  0.50000000000E+01 0.  1.
     100001    1    1    2    0    0  0.68654596742E-02  0.92374497121E-02  0.19171267206E-01  0.50000500000E+01  0.50000000000E+01 0.  1.
</event>
<event>
 4    1  0.5040302E-001  0.5000050E+01  0.7818608E-02  0.2136455E+00
        -11   -1    0    0    0    0  0.00000000000E+00  0.00000000000E+00  0.50000499739E+01  0.50000500000E+01  0.51100000000E-03 0. -1.
         11   -1    0    0    0    0 -0.00000000000E+00 -0.00000000000E+00 -0.50000499739E+01  0.50000500000E+01  0.51100000000E-03 0.  1.
     100001    1    1    2    0    0 -0.14330629705E-01 -0.15332156527E-01 -0.77175467926E-02  0.50000500000E+01  0.50000000000E+01 0.  1.
     100001    1    1    2    0    0  0.14330629705E-01  0.15332156527E-01  0.77175467926E-02  0.50000500000E+01  0.50000000000E+01 0. -1.
</event>
<event>
 4    1  0.5040302E-001  0.5000050E+01  0.7818608E-02  0.2136455E+00
        -11   -1    0    0    0    0  0.00000000000E+00  0.00000000000E+00  0.50000499739E+01  0.50000500000E+01  0.51100000000E-03 0. -1.
         11   -1    0    0    0    0 -0.00000000000E+00 -0.00000000000E+00 -0.50000499739E+01  0.50000500000E+01  0.51100000000E-03 0.  1.
     100001    1    1    2    0    0 -0.21499627698E-01  0.48440323254E-02 -0.37820443757E-02  0.50000500000E+01  0.50000000000E+01 0.  1.
     100001    1    1    2    0    0  0.21499627698E-01 -0.48440323254E-02  0.37820443757E-02  0.50000500000E+01  0.50000000000E+01 0.  0.
</event>
<event>
 4    1  0.5040302E-001  0.5000050E+01  0.7818608E-02  0.2136455E+00
        -11   -1    0    0    0    0  0.00000000000E+00  0.00000000000E+00  0.50000499739E+01  0.50000500000E+01  0.51100000000E-03 0. -1.
         11   -1    0    0    0    0 -0.00000000000E+00 -0.00000000000E+00 -0.50000499739E+01  0.50000500000E+01  0.51100000000E-03 0.  1.
     100001    1    1    2    0    0 -0.60562502133E-02  0.37136156914E-02 -0.21202202524E-01  0.50000500000E+01  0.50000000000E+01 0.  0.
     100001    1    1    2    0    0  0.60562502133E-02 -0.37136156914E-02  0.21202202524E-01  0.50000500000E+01  0.50000000000E+01 0.  0.
</event>
<event>
 4    1  0.5040302E-001  0.5000050E+01  0.7818608E-02  0.2136455E+00
        -11   -1    0    0    0    0  0.00000000000E+00  0.00000000000E+00  0.50000499739E+01  0.50000500000E+01  0.51100000000E-03 0. -1.
         11   -1    0    0    0    0 -0.00000000000E+00 -0.00000000000E+00 -0.50000499739E+01  0.50000500000E+01  0.51100000000E-03 0.  1.
     100001    1    1    2    0    0  0.13128450728E-01 -0.75697706797E-02 -0.16442166930E-01  0.50000500000E+01  0.50000000000E+01 0.  1.
     100001    1    1    2    0    0 -0.13128450728E-01  0.75697706797E-02  0.16442166930E-01  0.50000500000E+01  0.50000000000E+01 0. -1.
</event>
<event>
 4    1  0.5040302E-001  0.5000050E+01  0.7818608E-02  0.2136455E+00
        -11   -1    0    0    0    0  0.00000000000E+00  0.00000000000E+00  0.50000499739E+01  0.50000500000E+01  0.51100000000E-03 0. -1.
         11   -1    0    0    0    0 -0.00000000000E+00 -0.00000000000E+00 -0.50000499739E+01  0.50000500000E+01  0.51100000000E-03 0.  1.
     100001    1    1    2    0    0  0.10454151687E-01  0.74020943286E-02  0.18328180817E-01  0.50000500000E+01  0.50000000000E+01 0. -1.
     100001    1    1    2    0    0 -0.10454151687E-01 -0.74020943286E-02 -0.18328180817E-01  0.50000500000E+01  0.50000000000E+01 0.  1.
</event>
<event>
 4    1  0.5040302E-001  0.5000050E+01  0.7818608E-02  0.2136455E+00
        -11   -1    0    0    0    0  0.00000000000E+00  0.00000000000E+00  0.50000499739E+01  0.50000500000E+01  0.51100000000E-03 0. -1.
         11   -1    0    0    0    0 -0.00000000000E+00 -0.00000000000E+00 -0.50000499739E+01  0.50000500000E+01  0.51100000000E-03 0.  1.
     100001    1    1    2    0    0 -0.46410882421E-02  0.11108939026E-01 -0.18842883899E-01  0.50000500000E+01  0.50000000000E+01 0.  0.
     100001    1    1    2    0    0  0.46410882421E-02 -0.11108939026E-01  0.18842883899E-01  0.50000500000E+01  0.50000000000E+01 0. -1.
</event>
<event>
 4    1  0.5040302E-001  0.5000050E+01  0.7818608E-02  0.2136455E+00
        -11   -1    0    0    0    0  0.00000000000E+00  0.00000000000E+00  0.50000499739E+01  0.50000500000E+01  0.51100000000E-03 0.  1.
         11   -1    0    0    0    0 -0.00000000000E+00 -0.00000000000E+00 -0.50000499739E+01  0.50000500000E+01  0.51100000000E-03 0. -1.
     100001    1    1    2    0    0 -0.10597041707E-01 -0.43233293311E-02  0.19209737909E-01  0.50000500000E+01  0.50000000000E+01 0.  1.
     100001    1    1    2    0    0  0.10597041707E-01  0.43233293311E-02 -0.19209737909E-01  0.50000500000E+01  0.50000000000E+01 0. -1.
</event>
<event>
 4    1  0.5040302E-001  0.5000050E+01  0.7818608E-02  0.2136455E+00
        -11   -1    0    0    0    0  0.00000000000E+00  0.00000000000E+00  0.50000499739E+01  0.50000500000E+01  0.51100000000E-03 0.  1.
         11   -1    0    0    0    0 -0.00000000000E+00 -0.00000000000E+00 -0.50000499739E+01  0.50000500000E+01  0.51100000000E-03 0. -1.
     100001    1    1    2    0    0  0.16121351876E-01  0.20634025637E-02  0.15357307171E-01  0.50000500000E+01  0.50000000000E+01 0.  0.
     100001    1    1    2    0    0 -0.16121351876E-01 -0.20634025637E-02 -0.15357307171E-01  0.50000500000E+01  0.50000000000E+01 0.  0.
</event>
<event>
 4    1  0.5040302E-001  0.5000050E+01  0.7818608E-02  0.2136455E+00
        -11   -1    0    0    0    0  0.00000000000E+00  0.00000000000E+00  0.50000499739E+01  0.50000500000E+01  0.51100000000E-03 0. -1.
         11   -1    0    0    0    0 -0.00000000000E+00 -0.00000000000E+00 -0.50000499739E+01  0.50000500000E+01  0.51100000000E-03 0.  1.
     100001    1    1    2    0    0  0.15645112069E-01 -0.15975435088E-01  0.13580170656E-03  0.50000500000E+01  0.50000000000E+01 0. -1.
     100001    1    1    2    0    0 -0.15645112069E-01  0.15975435088E-01 -0.13580170656E-03  0.50000500000E+01  0.50000000000E+01 0.  1.
</event>
<event>
 4    1  0.5040302E-001  0.5000050E+01  0.7818608E-02  0.2136455E+00
        -11   -1    0    0    0    0  0.00000000000E+00  0.00000000000E+00  0.50000499739E+01  0.50000500000E+01  0.51100000000E-03 0.  1.
         11   -1    0    0    0    0 -0.00000000000E+00 -0.00000000000E+00 -0.50000499739E+01  0.50000500000E+01  0.51100000000E-03 0. -1.
     100001    1    1    2    0    0  0.14761894467E-01 -0.60322990336E-04  0.16795396181E-01  0.50000500000E+01  0.50000000000E+01 0.  0.
     100001    1    1    2    0    0 -0.14761894467E-01  0.60322990336E-04 -0.16795396181E-01  0.50000500000E+01  0.50000000000E+01 0.  0.
</event>
<event>
 4    1  0.5040302E-001  0.5000050E+01  0.7818608E-02  0.2136455E+00
        -11   -1    0    0    0    0  0.00000000000E+00  0.00000000000E+00  0.50000499739E+01  0.50000500000E+01  0.51100000000E-03 0. -1.
         11   -1    0    0    0    0 -0.00000000000E+00 -0.00000000000E+00 -0.50000499739E+01  0.50000500000E+01  0.51100000000E-03 0.  1.
     100001    1    1    2    0    0  0.78966370489E-02 -0.97805322680E-02 -0.18492885439E-01  0.50000500000E+01  0.50000000000E+01 0.  0.
     100001    1    1    2    0    0 -0.78966370489E-02  0.97805322680E-02  0.18492885439E-01  0.50000500000E+01  0.50000000000E+01 0.  0.
</event>
<event>
 4    1  0.5040302E-001  0.5000050E+01  0.7818608E-02  0.2136455E+00
        -11   -1    0    0    0    0  0.00000000000E+00  0.00000000000E+00  0.50000499739E+01  0.50000500000E+01  0.51100000000E-03 0.  1.
         11   -1    0    0    0    0 -0.00000000000E+00 -0.00000000000E+00 -0.50000499739E+01  0.50000500000E+01  0.51100000000E-03 0. -1.
     100001    1    1    2    0    0 -0.94057941153E-02 -0.15535988670E-01 -0.13044791800E-01  0.50000500000E+01  0.50000000000E+01 0.  1.
     100001    1    1    2    0    0  0.94057941153E-02  0.15535988670E-01  0.13044791800E-01  0.50000500000E+01  0.50000000000E+01 0.  0.
</event>
<event>
 4    1  0.5040302E-001  0.5000050E+01  0.7818608E-02  0.2136455E+00
        -11   -1    0    0    0    0  0.00000000000E+00  0.00000000000E+00  0.50000499739E+01  0.50000500000E+01  0.51100000000E-03 0. -1.
         11   -1    0    0    0    0 -0.00000000000E+00 -0.00000000000E+00 -0.50000499739E+01  0.50000500000E+01  0.51100000000E-03 0.  1.
     100001    1    1    2    0    0 -0.85001641814E-02 -0.83478495338E-02  0.18922555775E-01  0.50000500000E+01  0.50000000000E+01 0.  0.
     100001    1    1    2    0    0  0.85001641814E-02  0.83478495338E-02 -0.18922555775E-01  0.50000500000E+01  0.50000000000E+01 0.  0.
</event>
<event>
 4    1  0.5040302E-001  0.5000050E+01  0.7818608E-02  0.2136455E+00
        -11   -1    0    0    0    0  0.00000000000E+00  0.00000000000E+00  0.50000499739E+01  0.50000500000E+01  0.51100000000E-03 0.  1.
         11   -1    0    0    0    0 -0.00000000000E+00 -0.00000000000E+00 -0.50000499739E+01  0.50000500000E+01  0.51100000000E-03 0. -1.
     100001    1    1    2    0    0 -0.10488996195E-01  0.19315884864E-01  0.41085338946E-02  0.50000500000E+01  0.50000000000E+01 0.  1.
     100001    1    1    2    0    0  0.10488996195E-01 -0.19315884864E-01 -0.41085338946E-02  0.50000500000E+01  0.50000000000E+01 0. -1.
</event>
<event>
 4    1  0.5040302E-001  0.5000050E+01  0.7818608E-02  0.2136455E+00
        -11   -1    0    0    0    0  0.00000000000E+00  0.00000000000E+00  0.50000499739E+01  0.50000500000E+01  0.51100000000E-03 0. -1.
         11   -1    0    0    0    0 -0.00000000000E+00 -0.00000000000E+00 -0.50000499739E+01  0.50000500000E+01  0.51100000000E-03 0.  1.
     100001    1    1    2    0    0  0.20933123585E-01  0.53993815492E-02 -0.57143254942E-02  0.50000500000E+01  0.50000000000E+01 0.  0.
     100001    1    1    2    0    0 -0.20933123585E-01 -0.53993815492E-02  0.57143254942E-02  0.50000500000E+01  0.50000000000E+01 0.  0.
</event>
<event>
 4    1  0.5040302E-001  0.5000050E+01  0.7818608E-02  0.2136455E+00
        -11   -1    0    0    0    0  0.00000000000E+00  0.00000000000E+00  0.50000499739E+01  0.50000500000E+01  0.51100000000E-03 0.  1.
         11   -1    0    0    0    0 -0.00000000000E+00 -0.00000000000E+00 -0.50000499739E+01  0.50000500000E+01  0.51100000000E-03 0. -1.
     100001    1    1    2    0    0 -0.16085045578E-02 -0.21018565403E-01 -0.74588954615E-02  0.50000500000E+01  0.50000000000E+01 0.  0.
     100001    1    1    2    0    0  0.16085045578E-02  0.21018565403E-01  0.74588954615E-02  0.50000500000E+01  0.50000000000E+01 0.  0.
</event>
<event>
 4    1  0.5040302E-001  0.5000050E+01  0.7818608E-02  0.2136455E+00
        -11   -1    0    0    0    0  0.00000000000E+00  0.00000000000E+00  0.50000499739E+01  0.50000500000E+01  0.51100000000E-03 0.  1.
         11   -1    0    0    0    0 -0.00000000000E+00 -0.00000000000E+00 -0.50000499739E+01  0.50000500000E+01  0.51100000000E-03 0. -1.
     100001    1    1    2    0    0  0.15034347860E-02  0.33934613107E-02 -0.22050546573E-01  0.50000500000E+01  0.50000000000E+01 0.  0.
     100001    1    1    2    0    0 -0.15034347860E-02 -0.33934613107E-02  0.22050546573E-01  0.50000500000E+01  0.50000000000E+01 0.  1.
</event>
<event>
 4    1  0.5040302E-001  0.5000050E+01  0.7818608E-02  0.2136455E+00
        -11   -1    0    0    0    0  0.00000000000E+00  0.00000000000E+00  0.50000499739E+01  0.50000500000E+01  0.51100000000E-03 0. -1.
         11   -1    0    0    0    0 -0.00000000000E+00 -0.00000000000E+00 -0.50000499739E+01  0.50000500000E+01  0.51100000000E-03 0.  1.
     100001    1    1    2    0    0  0.36081642276E-02 -0.98251937976E-02  0.19759787897E-01  0.50000500000E+01  0.50000000000E+01 0. -1.
     100001    1    1    2    0    0 -0.36081642276E-02  0.98251937976E-02 -0.19759787897E-01  0.50000500000E+01  0.50000000000E+01 0.  1.
</event>
<event>
 4    1  0.5040302E-001  0.5000050E+01  0.7818608E-02  0.2136455E+00
        -11   -1    0    0    0    0  0.00000000000E+00  0.00000000000E+00  0.50000499739E+01  0.50000500000E+01  0.51100000000E-03 0. -1.
         11   -1    0    0    0    0 -0.00000000000E+00 -0.00000000000E+00 -0.50000499739E+01  0.50000500000E+01  0.51100000000E-03 0.  1.
     100001    1    1    2    0    0 -0.76509613009E-02 -0.20937405150E-01  0.17579410537E-02  0.50000500000E+01  0.50000000000E+01 0.  1.
     100001    1    1    2    0    0  0.76509613009E-02  0.20937405150E-01 -0.17579410537E-02  0.50000500000E+01  0.50000000000E+01 0. -1.
</event>
<event>
 4    1  0.5040302E-001  0.5000050E+01  0.7818608E-02  0.2136455E+00
        -11   -1    0    0    0    0  0.00000000000E+00  0.00000000000E+00  0.50000499739E+01  0.50000500000E+01  0.51100000000E-03 0.  1.
         11   -1    0    0    0    0 -0.00000000000E+00 -0.00000000000E+00 -0.50000499739E+01  0.50000500000E+01  0.51100000000E-03 0. -1.
     100001    1    1    2    0    0 -0.16257094398E-01 -0.15047623583E-02 -0.15278909385E-01  0.50000500000E+01  0.50000000000E+01 0.  1.
     100001    1    1    2    0    0  0.16257094398E-01  0.15047623583E-02  0.15278909385E-01  0.50000500000E+01  0.50000000000E+01 0.  1.
</event>
<event>
 4    1  0.5040302E-001  0.5000050E+01  0.7818608E-02  0.2136455E+00
        -11   -1    0    0    0    0  0.00000000000E+00  0.00000000000E+00  0.50000499739E+01  0.50000500000E+01  0.51100000000E-03 0.  1.
         11   -1    0    0    0    0 -0.00000000000E+00 -0.00000000000E+00 -0.50000499739E+01  0.50000500000E+01  0.51100000000E-03 0. -1.
     100001    1    1    2    0    0  0.20257854313E-01 -0.85827872365E-02 -0.39946967175E-02  0.50000500000E+01  0.50000000000E+01 0. -1.
     100001    1    1    2    0    0 -0.20257854313E-01  0.85827872365E-02  0.39946967175E-02  0.50000500000E+01  0.50000000000E+01 0.  1.
</event>
<event>
 4    1  0.5040302E-001  0.5000050E+01  0.7818608E-02  0.2136455E+00
        -11   -1    0    0    0    0  0.00000000000E+00  0.00000000000E+00  0.50000499739E+01  0.50000500000E+01  0.51100000000E-03 0. -1.
         11   -1    0    0    0    0 -0.00000000000E+00 -0.00000000000E+00 -0.50000499739E+01  0.50000500000E+01  0.51100000000E-03 0.  1.
     100001    1    1    2    0    0  0.44504958914E-02 -0.13432646550E-01 -0.17313566732E-01  0.50000500000E+01  0.50000000000E+01 0.  1.
     100001    1    1    2    0    0 -0.44504958914E-02  0.13432646550E-01  0.17313566732E-01  0.50000500000E+01  0.50000000000E+01 0. -1.
</event>
<event>
 4    1  0.5040302E-001  0.5000050E+01  0.7818608E-02  0.2136455E+00
        -11   -1    0    0    0    0  0.00000000000E+00  0.00000000000E+00  0.50000499739E+01  0.50000500000E+01  0.51100000000E-03 0.  1.
         11   -1    0    0    0    0 -0.00000000000E+00 -0.00000000000E+00 -0.50000499739E+01  0.50000500000E+01  0.51100000000E-03 0. -1.
     100001    1    1    2    0    0 -0.15203677306E-01 -0.10366938702E-01  0.12703435690E-01  0.50000500000E+01  0.50000000000E+01 0.  0.
     100001    1    1    2    0    0  0.15203677306E-01  0.10366938702E-01 -0.12703435690E-01  0.50000500000E+01  0.50000000000E+01 0.  0.
</event>
<event>
 4    1  0.5040302E-001  0.5000050E+01  0.7818608E-02  0.2136455E+00
        -11   -1    0    0    0    0  0.00000000000E+00  0.00000000000E+00  0.50000499739E+01  0.50000500000E+01  0.51100000000E-03 0.  1.
         11   -1    0    0    0    0 -0.00000000000E+00 -0.00000000000E+00 -0.50000499739E+01  0.50000500000E+01  0.51100000000E-03 0. -1.
     100001    1    1    2    0    0 -0.22007711210E-01  0.38714852035E-02  0.82143144255E-03  0.50000500000E+01  0.50000000000E+01 0. -1.
     100001    1    1    2    0    0  0.22007711210E-01 -0.38714852035E-02 -0.82143144255E-03  0.50000500000E+01  0.50000000000E+01 0.  1.
</event>
<event>
 4    1  0.5040302E-001  0.5000050E+01  0.7818608E-02  0.2136455E+00
        -11   -1    0    0    0    0  0.00000000000E+00  0.00000000000E+00  0.50000499739E+01  0.50000500000E+01  0.51100000000E-03 0.  1.
         11   -1    0    0    0    0 -0.00000000000E+00 -0.00000000000E+00 -0.50000499739E+01  0.50000500000E+01  0.51100000000E-03 0. -1.
     100001    1    1    2    0    0  0.14229330713E-03 -0.18095352925E-01 -0.13135465547E-01  0.50000500000E+01  0.50000000000E+01 0.  0.
     100001    1    1    2    0    0 -0.14229330713E-03  0.18095352925E-01  0.13135465547E-01  0.50000500000E+01  0.50000000000E+01 0. -1.
</event>
<event>
 4    1  0.5040302E-001  0.5000050E+01  0.7818608E-02  0.2136455E+00
        -11   -1    0    0    0    0  0.00000000000E+00  0.00000000000E+00  0.50000499739E+01  0.50000500000E+01  0.51100000000E-03 0.  1.
         11   -1    0    0    0    0 -0.00000000000E+00 -0.00000000000E+00 -0.50000499739E+01  0.50000500000E+01  0.51100000000E-03 0. -1.
     100001    1    1    2    0    0 -0.21728996361E-01  0.52051362860E-02  0.87164980848E-03  0.50000500000E+01  0.50000000000E+01 0.  0.
     100001    1    1    2    0    0  0.21728996361E-01 -0.52051362860E-02 -0.87164980848E-03  0.50000500000E+01  0.50000000000E+01 0.  1.
</event>
<event>
 4    1  0.5040302E-001  0.5000050E+01  0.7818608E-02  0.2136455E+00
        -11   -1    0    0    0    0  0.00000000000E+00  0.00000000000E+00  0.50000499739E+01  0.50000500000E+01  0.51100000000E-03 0. -1.
         11   -1    0    0    0    0 -0.00000000000E+00 -0.00000000000E+00 -0.50000499739E+01  0.50000500000E+01  0.51100000000E-03 0.  1.
     100001    1    1    2    0    0 -0.11332453979E-01  0.13670969492E-01 -0.13589796907E-01  0.50000500000E+01  0.50000000000E+01 0.  1.
     100001    1    1    2    0    0  0.11332453979E-01 -0.13670969492E-01  0.13589796907E-01  0.50000500000E+01  0.50000000000E+01 0. -1.
</event>
<event>
 4    1  0.5040302E-001  0.5000050E+01  0.7818608E-02  0.2136455E+00
        -11   -1    0    0    0    0  0.00000000000E+00  0.00000000000E+00  0.50000499739E+01  0.50000500000E+01  0.51100000000E-03 0.  1.
         11   -1    0    0    0    0 -0.00000000000E+00 -0.00000000000E+00 -0.50000499739E+01  0.50000500000E+01  0.51100000000E-03 0. -1.
     100001    1    1    2    0    0 -0.37356924825E-02  0.11329649572E-01 -0.18912592161E-01  0.50000500000E+01  0.50000000000E+01 0.  0.
     100001    1    1    2    0    0  0.37356924825E-02 -0.11329649572E-01  0.18912592161E-01  0.50000500000E+01  0.50000000000E+01 0.  1.
</event>
<event>
 4    1  0.5040302E-001  0.5000050E+01  0.7818608E-02  0.2136455E+00
        -11   -1    0    0    0    0  0.00000000000E+00  0.00000000000E+00  0.50000499739E+01  0.50000500000E+01  0.51100000000E-03 0. -1.
         11   -1    0    0    0    0 -0.00000000000E+00 -0.00000000000E+00 -0.50000499739E+01  0.50000500000E+01  0.51100000000E-03 0.  1.
     100001    1    1    2    0    0 -0.15173276236E-01 -0.14749442932E-01 -0.72269026187E-02  0.50000500000E+01  0.50000000000E+01 0.  1.
     100001    1    1    2    0    0  0.15173276236E-01  0.14749442932E-01  0.72269026187E-02  0.50000500000E+01  0.50000000000E+01 0.  1.
</event>
<event>
 4    1  0.5040302E-001  0.5000050E+01  0.7818608E-02  0.2136455E+00
        -11   -1    0    0    0    0  0.00000000000E+00  0.00000000000E+00  0.50000499739E+01  0.50000500000E+01  0.51100000000E-03 0.  1.
         11   -1    0    0    0    0 -0.00000000000E+00 -0.00000000000E+00 -0.50000499739E+01  0.50000500000E+01  0.51100000000E-03 0. -1.
     100001    1    1    2    0    0 -0.62599274158E-02  0.21065438400E-01 -0.41307522052E-02  0.50000500000E+01  0.50000000000E+01 0. -1.
     100001    1    1    2    0    0  0.62599274158E-02 -0.21065438400E-01  0.41307522052E-02  0.50000500000E+01  0.50000000000E+01 0.  0.
</event>
<event>
 4    1  0.5040302E-001  0.5000050E+01  0.7818608E-02  0.2136455E+00
        -11   -1    0    0    0    0  0.00000000000E+00  0.00000000000E+00  0.50000499739E+01  0.50000500000E+01  0.51100000000E-03 0. -1.
         11   -1    0    0    0    0 -0.00000000000E+00 -0.00000000000E+00 -0.50000499739E+01  0.50000500000E+01  0.51100000000E-03 0.  1.
     100001    1    1    2    0    0 -0.12689002019E-01  0.18157529067E-01  0.30489122521E-02  0.50000500000E+01  0.50000000000E+01 0. -1.
     100001    1    1    2    0    0  0.12689002019E-01 -0.18157529067E-01 -0.30489122521E-02  0.50000500000E+01  0.50000000000E+01 0.  1.
</event>
<event>
 4    1  0.5040302E-001  0.5000050E+01  0.7818608E-02  0.2136455E+00
        -11   -1    0    0    0    0  0.00000000000E+00  0.00000000000E+00  0.50000499739E+01  0.50000500000E+01  0.51100000000E-03 0.  1.
         11   -1    0    0    0    0 -0.00000000000E+00 -0.00000000000E+00 -0.50000499739E+01  0.50000500000E+01  0.51100000000E-03 0. -1.
     100001    1    1    2    0    0  0.73633013568E-02 -0.16372300477E-01  0.13331619189E-01  0.50000500000E+01  0.50000000000E+01 0.  1.
     100001    1    1    2    0    0 -0.73633013568E-02  0.16372300477E-01 -0.13331619189E-01  0.50000500000E+01  0.50000000000E+01 0. -1.
</event>
<event>
 4    1  0.5040302E-001  0.5000050E+01  0.7818608E-02  0.2136455E+00
        -11   -1    0    0    0    0  0.00000000000E+00  0.00000000000E+00  0.50000499739E+01  0.50000500000E+01  0.51100000000E-03 0.  1.
         11   -1    0    0    0    0 -0.00000000000E+00 -0.00000000000E+00 -0.50000499739E+01  0.50000500000E+01  0.51100000000E-03 0. -1.
     100001    1    1    2    0    0 -0.10592625151E-01  0.18193039518E-01  0.75373805460E-02  0.50000500000E+01  0.50000000000E+01 0.  1.
     100001    1    1    2    0    0  0.10592625151E-01 -0.18193039518E-01 -0.75373805460E-02  0.50000500000E+01  0.50000000000E+01 0. -1.
</event>
<event>
 4    1  0.5040302E-001  0.5000050E+01  0.7818608E-02  0.2136455E+00
        -11   -1    0    0    0    0  0.00000000000E+00  0.00000000000E+00  0.50000499739E+01  0.50000500000E+01  0.51100000000E-03 0. -1.
         11   -1    0    0    0    0 -0.00000000000E+00 -0.00000000000E+00 -0.50000499739E+01  0.50000500000E+01  0.51100000000E-03 0.  1.
     100001    1    1    2    0    0 -0.97980332928E-02  0.19104730016E-01  0.62458253734E-02  0.50000500000E+01  0.50000000000E+01 0.  1.
     100001    1    1    2    0    0  0.97980332928E-02 -0.19104730016E-01 -0.62458253734E-02  0.50000500000E+01  0.50000000000E+01 0.  0.
</event>
<event>
 4    1  0.5040302E-001  0.5000050E+01  0.7818608E-02  0.2136455E+00
        -11   -1    0    0    0    0  0.00000000000E+00  0.00000000000E+00  0.50000499739E+01  0.50000500000E+01  0.51100000000E-03 0.  1.
         11   -1    0    0    0    0 -0.00000000000E+00 -0.00000000000E+00 -0.50000499739E+01  0.50000500000E+01  0.51100000000E-03 0. -1.
     100001    1    1    2    0    0 -0.16792064742E-01 -0.88771184598E-02  0.11799399541E-01  0.50000500000E+01  0.50000000000E+01 0.  0.
     100001    1    1    2    0    0  0.16792064742E-01  0.88771184598E-02 -0.11799399541E-01  0.50000500000E+01  0.50000000000E+01 0.  0.
</event>
<event>
 4    1  0.5040302E-001  0.5000050E+01  0.7818608E-02  0.2136455E+00
        -11   -1    0    0    0    0  0.00000000000E+00  0.00000000000E+00  0.50000499739E+01  0.50000500000E+01  0.51100000000E-03 0. -1.
         11   -1    0    0    0    0 -0.00000000000E+00 -0.00000000000E+00 -0.50000499739E+01  0.50000500000E+01  0.51100000000E-03 0.  1.
     100001    1    1    2    0    0  0.18230551217E-01 -0.12929459835E-01  0.69178803431E-03  0.50000500000E+01  0.50000000000E+01 0. -1.
     100001    1    1    2    0    0 -0.18230551217E-01  0.12929459835E-01 -0.69178803431E-03  0.50000500000E+01  0.50000000000E+01 0.  1.
</event>
<event>
 4    1  0.5040302E-001  0.5000050E+01  0.7818608E-02  0.2136455E+00
        -11   -1    0    0    0    0  0.00000000000E+00  0.00000000000E+00  0.50000499739E+01  0.50000500000E+01  0.51100000000E-03 0. -1.
         11   -1    0    0    0    0 -0.00000000000E+00 -0.00000000000E+00 -0.50000499739E+01  0.50000500000E+01  0.51100000000E-03 0.  1.
     100001    1    1    2    0    0  0.15800823719E-01 -0.73404620744E-02  0.14016207987E-01  0.50000500000E+01  0.50000000000E+01 0. -1.
     100001    1    1    2    0    0 -0.15800823719E-01  0.73404620744E-02 -0.14016207987E-01  0.50000500000E+01  0.50000000000E+01 0.  1.
</event>
<event>
 4    1  0.5040302E-001  0.5000050E+01  0.7818608E-02  0.2136455E+00
        -11   -1    0    0    0    0  0.00000000000E+00  0.00000000000E+00  0.50000499739E+01  0.50000500000E+01  0.51100000000E-03 0. -1.
         11   -1    0    0    0    0 -0.00000000000E+00 -0.00000000000E+00 -0.50000499739E+01  0.50000500000E+01  0.51100000000E-03 0.  1.
     100001    1    1    2    0    0  0.18458635844E-01 -0.80032173157E-02 -0.97585744547E-02  0.50000500000E+01  0.50000000000E+01 0.  1.
     100001    1    1    2    0    0 -0.18458635844E-01  0.80032173157E-02  0.97585744547E-02  0.50000500000E+01  0.50000000000E+01 0. -1.
</event>
<event>
 4    1  0.5040302E-001  0.5000050E+01  0.7818608E-02  0.2136455E+00
        -11   -1    0    0    0    0  0.00000000000E+00  0.00000000000E+00  0.50000499739E+01  0.50000500000E+01  0.51100000000E-03 0. -1.
         11   -1    0    0    0    0 -0.00000000000E+00 -0.00000000000E+00 -0.50000499739E+01  0.50000500000E+01  0.51100000000E-03 0.  1.
     100001    1    1    2    0    0  0.14836037429E-01 -0.34720867710E-02 -0.16365790750E-01  0.50000500000E+01  0.50000000000E+01 0.  0.
     100001    1    1    2    0    0 -0.14836037429E-01  0.34720867710E-02  0.16365790750E-01  0.50000500000E+01  0.50000000000E+01 0.  0.
</event>
<event>
 4    1  0.5040302E-001  0.5000050E+01  0.7818608E-02  0.2136455E+00
        -11   -1    0    0    0    0  0.00000000000E+00  0.00000000000E+00  0.50000499739E+01  0.50000500000E+01  0.51100000000E-03 0.  1.
         11   -1    0    0    0    0 -0.00000000000E+00 -0.00000000000E+00 -0.50000499739E+01  0.50000500000E+01  0.51100000000E-03 0. -1.
     100001    1    1    2    0    0 -0.20686559678E-01 -0.80053170553E-02 -0.28255349071E-02  0.50000500000E+01  0.50000000000E+01 0.  1.
     100001    1    1    2    0    0  0.20686559678E-01  0.80053170553E-02  0.28255349071E-02  0.50000500000E+01  0.50000000000E+01 0.  0.
</event>
<event>
 4    1  0.5040302E-001  0.5000050E+01  0.7818608E-02  0.2136455E+00
        -11   -1    0    0    0    0  0.00000000000E+00  0.00000000000E+00  0.50000499739E+01  0.50000500000E+01  0.51100000000E-03 0.  1.
         11   -1    0    0    0    0 -0.00000000000E+00 -0.00000000000E+00 -0.50000499739E+01  0.50000500000E+01  0.51100000000E-03 0. -1.
     100001    1    1    2    0    0 -0.66870124161E-02  0.18107357952E-01 -0.11287601736E-01  0.50000500000E+01  0.50000000000E+01 0.  0.
     100001    1    1    2    0    0  0.66870124161E-02 -0.18107357952E-01  0.11287601736E-01  0.50000500000E+01  0.50000000000E+01 0. -1.
</event>
<event>
 4    1  0.5040302E-001  0.5000050E+01  0.7818608E-02  0.2136455E+00
        -11   -1    0    0    0    0  0.00000000000E+00  0.00000000000E+00  0.50000499739E+01  0.50000500000E+01  0.51100000000E-03 0. -1.
         11   -1    0    0    0    0 -0.00000000000E+00 -0.00000000000E+00 -0.50000499739E+01  0.50000500000E+01  0.51100000000E-03 0.  1.
     100001    1    1    2    0    0  0.14202496056E-01  0.34695055757E-02  0.16919046570E-01  0.50000500000E+01  0.50000000000E+01 0. -1.
     100001    1    1    2    0    0 -0.14202496056E-01 -0.34695055757E-02 -0.16919046570E-01  0.50000500000E+01  0.50000000000E+01 0.  1.
</event>
<event>
 4    1  0.5040302E-001  0.5000050E+01  0.7818608E-02  0.2136455E+00
        -11   -1    0    0    0    0  0.00000000000E+00  0.00000000000E+00  0.50000499739E+01  0.50000500000E+01  0.51100000000E-03 0. -1.
         11   -1    0    0    0    0 -0.00000000000E+00 -0.00000000000E+00 -0.50000499739E+01  0.50000500000E+01  0.51100000000E-03 0.  1.
     100001    1    1    2    0    0 -0.17019571892E-01 -0.13138619572E-01 -0.61411194707E-02  0.50000500000E+01  0.50000000000E+01 0.  0.
     100001    1    1    2    0    0  0.17019571892E-01  0.13138619572E-01  0.61411194707E-02  0.50000500000E+01  0.50000000000E+01 0.  1.
</event>
<event>
 4    1  0.5040302E-001  0.5000050E+01  0.7818608E-02  0.2136455E+00
        -11   -1    0    0    0    0  0.00000000000E+00  0.00000000000E+00  0.50000499739E+01  0.50000500000E+01  0.51100000000E-03 0. -1.
         11   -1    0    0    0    0 -0.00000000000E+00 -0.00000000000E+00 -0.50000499739E+01  0.50000500000E+01  0.51100000000E-03 0.  1.
     100001    1    1    2    0    0  0.80169346840E-02 -0.16238990737E-02 -0.20810915647E-01  0.50000500000E+01  0.50000000000E+01 0.  0.
     100001    1    1    2    0    0 -0.80169346840E-02  0.16238990737E-02  0.20810915647E-01  0.50000500000E+01  0.50000000000E+01 0. -1.
</event>
<event>
 4    1  0.5040302E-001  0.5000050E+01  0.7818608E-02  0.2136455E+00
        -11   -1    0    0    0    0  0.00000000000E+00  0.00000000000E+00  0.50000499739E+01  0.50000500000E+01  0.51100000000E-03 0. -1.
         11   -1    0    0    0    0 -0.00000000000E+00 -0.00000000000E+00 -0.50000499739E+01  0.50000500000E+01  0.51100000000E-03 0.  1.
     100001    1    1    2    0    0 -0.51988260514E-02  0.72722554970E-02  0.20496072982E-01  0.50000500000E+01  0.50000000000E+01 0. -1.
     100001    1    1    2    0    0  0.51988260514E-02 -0.72722554970E-02 -0.20496072982E-01  0.50000500000E+01  0.50000000000E+01 0. -1.
</event>
<event>
 4    1  0.5040302E-001  0.5000050E+01  0.7818608E-02  0.2136455E+00
        -11   -1    0    0    0    0  0.00000000000E+00  0.00000000000E+00  0.50000499739E+01  0.50000500000E+01  0.51100000000E-03 0.  1.
         11   -1    0    0    0    0 -0.00000000000E+00 -0.00000000000E+00 -0.50000499739E+01  0.50000500000E+01  0.51100000000E-03 0. -1.
     100001    1    1    2    0    0 -0.19870734229E-01 -0.83662478501E-02  0.59297822987E-02  0.50000500000E+01  0.50000000000E+01 0.  1.
     100001    1    1    2    0    0  0.19870734229E-01  0.83662478501E-02 -0.59297822987E-02  0.50000500000E+01  0.50000000000E+01 0. -1.
</event>
<event>
 4    1  0.5040302E-001  0.5000050E+01  0.7818608E-02  0.2136455E+00
        -11   -1    0    0    0    0  0.00000000000E+00  0.00000000000E+00  0.50000499739E+01  0.50000500000E+01  0.51100000000E-03 0. -1.
         11   -1    0    0    0    0 -0.00000000000E+00 -0.00000000000E+00 -0.50000499739E+01  0.50000500000E+01  0.51100000000E-03 0.  1.
     100001    1    1    2    0    0 -0.15003086939E-02 -0.11579653985E-03  0.22310046279E-01  0.50000500000E+01  0.50000000000E+01 0.  0.
     100001    1    1    2    0    0  0.15003086939E-02  0.11579653985E-03 -0.22310046279E-01  0.50000500000E+01  0.50000000000E+01 0.  1.
</event>
<event>
 4    1  0.5040302E-001  0.5000050E+01  0.7818608E-02  0.2136455E+00
        -11   -1    0    0    0    0  0.00000000000E+00  0.00000000000E+00  0.50000499739E+01  0.50000500000E+01  0.51100000000E-03 0. -1.
         11   -1    0    0    0    0 -0.00000000000E+00 -0.00000000000E+00 -0.50000499739E+01  0.50000500000E+01  0.51100000000E-03 0.  1.
     100001    1    1    2    0    0  0.74207405193E-02 -0.13109755837E-01 -0.16524812012E-01  0.50000500000E+01  0.50000000000E+01 0.  0.
     100001    1    1    2    0    0 -0.74207405193E-02  0.13109755837E-01  0.16524812012E-01  0.50000500000E+01  0.50000000000E+01 0. -1.
</event>
<event>
 4    1  0.5040302E-001  0.5000050E+01  0.7818608E-02  0.2136455E+00
        -11   -1    0    0    0    0  0.00000000000E+00  0.00000000000E+00  0.50000499739E+01  0.50000500000E+01  0.51100000000E-03 0. -1.
         11   -1    0    0    0    0 -0.00000000000E+00 -0.00000000000E+00 -0.50000499739E+01  0.50000500000E+01  0.51100000000E-03 0.  1.
     100001    1    1    2    0    0 -0.97005630347E-02 -0.10270690622E-01  0.17332469269E-01  0.50000500000E+01  0.50000000000E+01 0. -1.
     100001    1    1    2    0    0  0.97005630347E-02  0.10270690622E-01 -0.17332469269E-01  0.50000500000E+01  0.50000000000E+01 0.  0.
</event>
<event>
 4    1  0.5040302E-001  0.5000050E+01  0.7818608E-02  0.2136455E+00
        -11   -1    0    0    0    0  0.00000000000E+00  0.00000000000E+00  0.50000499739E+01  0.50000500000E+01  0.51100000000E-03 0. -1.
         11   -1    0    0    0    0 -0.00000000000E+00 -0.00000000000E+00 -0.50000499739E+01  0.50000500000E+01  0.51100000000E-03 0.  1.
     100001    1    1    2    0    0  0.21932934073E-01  0.58969683511E-03 -0.43129062800E-02  0.50000500000E+01  0.50000000000E+01 0.  0.
     100001    1    1    2    0    0 -0.21932934073E-01 -0.58969683511E-03  0.43129062800E-02  0.50000500000E+01  0.50000000000E+01 0.  1.
</event>
<event>
 4    1  0.5040302E-001  0.5000050E+01  0.7818608E-02  0.2136455E+00
        -11   -1    0    0    0    0  0.00000000000E+00  0.00000000000E+00  0.50000499739E+01  0.50000500000E+01  0.51100000000E-03 0. -1.
         11   -1    0    0    0    0 -0.00000000000E+00 -0.00000000000E+00 -0.50000499739E+01  0.50000500000E+01  0.51100000000E-03 0.  1.
     100001    1    1    2    0    0  0.37878146659E-02 -0.21622088728E-01 -0.42591359580E-02  0.50000500000E+01  0.50000000000E+01 0. -1.
     100001    1    1    2    0    0 -0.37878146659E-02  0.21622088728E-01  0.42591359580E-02  0.50000500000E+01  0.50000000000E+01 0.  0.
</event>
<event>
 4    1  0.5040302E-001  0.5000050E+01  0.7818608E-02  0.2136455E+00
        -11   -1    0    0    0    0  0.00000000000E+00  0.00000000000E+00  0.50000499739E+01  0.50000500000E+01  0.51100000000E-03 0.  1.
         11   -1    0    0    0    0 -0.00000000000E+00 -0.00000000000E+00 -0.50000499739E+01  0.50000500000E+01  0.51100000000E-03 0. -1.
     100001    1    1    2    0    0 -0.13591902808E-01 -0.21923163563E-02  0.17619773751E-01  0.50000500000E+01  0.50000000000E+01 0. -1.
     100001    1    1    2    0    0  0.13591902808E-01  0.21923163563E-02 -0.17619773751E-01  0.50000500000E+01  0.50000000000E+01 0.  0.
</event>
<event>
 4    1  0.5040302E-001  0.5000050E+01  0.7818608E-02  0.2136455E+00
        -11   -1    0    0    0    0  0.00000000000E+00  0.00000000000E+00  0.50000499739E+01  0.50000500000E+01  0.51100000000E-03 0. -1.
         11   -1    0    0    0    0 -0.00000000000E+00 -0.00000000000E+00 -0.50000499739E+01  0.50000500000E+01  0.51100000000E-03 0.  1.
     100001    1    1    2    0    0  0.67232400874E-02  0.14763590329E-01  0.15389507572E-01  0.50000500000E+01  0.50000000000E+01 0. -1.
     100001    1    1    2    0    0 -0.67232400874E-02 -0.14763590329E-01 -0.15389507572E-01  0.50000500000E+01  0.50000000000E+01 0.  1.
</event>
<event>
 4    1  0.5040302E-001  0.5000050E+01  0.7818608E-02  0.2136455E+00
        -11   -1    0    0    0    0  0.00000000000E+00  0.00000000000E+00  0.50000499739E+01  0.50000500000E+01  0.51100000000E-03 0.  1.
         11   -1    0    0    0    0 -0.00000000000E+00 -0.00000000000E+00 -0.50000499739E+01  0.50000500000E+01  0.51100000000E-03 0. -1.
     100001    1    1    2    0    0  0.70730402887E-02  0.21212524892E-01 -0.58213321818E-04  0.50000500000E+01  0.50000000000E+01 0. -1.
     100001    1    1    2    0    0 -0.70730402887E-02 -0.21212524892E-01  0.58213321818E-04  0.50000500000E+01  0.50000000000E+01 0.  0.
</event>
<event>
 4    1  0.5040302E-001  0.5000050E+01  0.7818608E-02  0.2136455E+00
        -11   -1    0    0    0    0  0.00000000000E+00  0.00000000000E+00  0.50000499739E+01  0.50000500000E+01  0.51100000000E-03 0. -1.
         11   -1    0    0    0    0 -0.00000000000E+00 -0.00000000000E+00 -0.50000499739E+01  0.50000500000E+01  0.51100000000E-03 0.  1.
     100001    1    1    2    0    0  0.56720480335E-02  0.17098923104E-01 -0.13246025811E-01  0.50000500000E+01  0.50000000000E+01 0.  1.
     100001    1    1    2    0    0 -0.56720480335E-02 -0.17098923104E-01  0.13246025811E-01  0.50000500000E+01  0.50000000000E+01 0. -1.
</event>
<event>
 4    1  0.5040302E-001  0.5000050E+01  0.7818608E-02  0.2136455E+00
        -11   -1    0    0    0    0  0.00000000000E+00  0.00000000000E+00  0.50000499739E+01  0.50000500000E+01  0.51100000000E-03 0. -1.
         11   -1    0    0    0    0 -0.00000000000E+00 -0.00000000000E+00 -0.50000499739E+01  0.50000500000E+01  0.51100000000E-03 0.  1.
     100001    1    1    2    0    0 -0.16862201338E-01  0.14010604250E-01 -0.44013219135E-02  0.50000500000E+01  0.50000000000E+01 0. -1.
     100001    1    1    2    0    0  0.16862201338E-01 -0.14010604250E-01  0.44013219135E-02  0.50000500000E+01  0.50000000000E+01 0.  1.
</event>
<event>
 4    1  0.5040302E-001  0.5000050E+01  0.7818608E-02  0.2136455E+00
        -11   -1    0    0    0    0  0.00000000000E+00  0.00000000000E+00  0.50000499739E+01  0.50000500000E+01  0.51100000000E-03 0.  1.
         11   -1    0    0    0    0 -0.00000000000E+00 -0.00000000000E+00 -0.50000499739E+01  0.50000500000E+01  0.51100000000E-03 0. -1.
     100001    1    1    2    0    0 -0.88918822791E-02  0.20496138732E-01  0.91936207040E-03  0.50000500000E+01  0.50000000000E+01 0. -1.
     100001    1    1    2    0    0  0.88918822791E-02 -0.20496138732E-01 -0.91936207040E-03  0.50000500000E+01  0.50000000000E+01 0.  1.
</event>
<event>
 4    1  0.5040302E-001  0.5000050E+01  0.7818608E-02  0.2136455E+00
        -11   -1    0    0    0    0  0.00000000000E+00  0.00000000000E+00  0.50000499739E+01  0.50000500000E+01  0.51100000000E-03 0.  1.
         11   -1    0    0    0    0 -0.00000000000E+00 -0.00000000000E+00 -0.50000499739E+01  0.50000500000E+01  0.51100000000E-03 0. -1.
     100001    1    1    2    0    0 -0.58022700296E-02 -0.20740961079E-01  0.60123785654E-02  0.50000500000E+01  0.50000000000E+01 0. -1.
     100001    1    1    2    0    0  0.58022700296E-02  0.20740961079E-01 -0.60123785654E-02  0.50000500000E+01  0.50000000000E+01 0.  1.
</event>
<event>
 4    1  0.5040302E-001  0.5000050E+01  0.7818608E-02  0.2136455E+00
        -11   -1    0    0    0    0  0.00000000000E+00  0.00000000000E+00  0.50000499739E+01  0.50000500000E+01  0.51100000000E-03 0. -1.
         11   -1    0    0    0    0 -0.00000000000E+00 -0.00000000000E+00 -0.50000499739E+01  0.50000500000E+01  0.51100000000E-03 0.  1.
     100001    1    1    2    0    0  0.11256061207E-02  0.26081153133E-02  0.22179568196E-01  0.50000500000E+01  0.50000000000E+01 0. -1.
     100001    1    1    2    0    0 -0.11256061207E-02 -0.26081153133E-02 -0.22179568196E-01  0.50000500000E+01  0.50000000000E+01 0.  0.
</event>
<event>
 4    1  0.5040302E-001  0.5000050E+01  0.7818608E-02  0.2136455E+00
        -11   -1    0    0    0    0  0.00000000000E+00  0.00000000000E+00  0.50000499739E+01  0.50000500000E+01  0.51100000000E-03 0. -1.
         11   -1    0    0    0    0 -0.00000000000E+00 -0.00000000000E+00 -0.50000499739E+01  0.50000500000E+01  0.51100000000E-03 0.  1.
     100001    1    1    2    0    0 -0.15366159645E-01  0.91795645499E-02  0.13402209984E-01  0.50000500000E+01  0.50000000000E+01 0.  0.
     100001    1    1    2    0    0  0.15366159645E-01 -0.91795645499E-02 -0.13402209984E-01  0.50000500000E+01  0.50000000000E+01 0.  0.
</event>
<event>
 4    1  0.5040302E-001  0.5000050E+01  0.7818608E-02  0.2136455E+00
        -11   -1    0    0    0    0  0.00000000000E+00  0.00000000000E+00  0.50000499739E+01  0.50000500000E+01  0.51100000000E-03 0.  1.
         11   -1    0    0    0    0 -0.00000000000E+00 -0.00000000000E+00 -0.50000499739E+01  0.50000500000E+01  0.51100000000E-03 0. -1.
     100001    1    1    2    0    0 -0.11014602645E-01  0.10367716662E-01  0.16467892391E-01  0.50000500000E+01  0.50000000000E+01 0.  1.
     100001    1    1    2    0    0  0.11014602645E-01 -0.10367716662E-01 -0.16467892391E-01  0.50000500000E+01  0.50000000000E+01 0. -1.
</event>
<event>
 4    1  0.5040302E-001  0.5000050E+01  0.7818608E-02  0.2136455E+00
        -11   -1    0    0    0    0  0.00000000000E+00  0.00000000000E+00  0.50000499739E+01  0.50000500000E+01  0.51100000000E-03 0. -1.
         11   -1    0    0    0    0 -0.00000000000E+00 -0.00000000000E+00 -0.50000499739E+01  0.50000500000E+01  0.51100000000E-03 0.  1.
     100001    1    1    2    0    0 -0.20264859422E-01  0.49937638351E-02  0.80249794625E-02  0.50000500000E+01  0.50000000000E+01 0. -1.
     100001    1    1    2    0    0  0.20264859422E-01 -0.49937638351E-02 -0.80249794625E-02  0.50000500000E+01  0.50000000000E+01 0.  1.
</event>
<event>
 4    1  0.5040302E-001  0.5000050E+01  0.7818608E-02  0.2136455E+00
        -11   -1    0    0    0    0  0.00000000000E+00  0.00000000000E+00  0.50000499739E+01  0.50000500000E+01  0.51100000000E-03 0. -1.
         11   -1    0    0    0    0 -0.00000000000E+00 -0.00000000000E+00 -0.50000499739E+01  0.50000500000E+01  0.51100000000E-03 0.  1.
     100001    1    1    2    0    0 -0.29773847345E-02 -0.12751353744E-01  0.18125690548E-01  0.50000500000E+01  0.50000000000E+01 0. -1.
     100001    1    1    2    0    0  0.29773847345E-02  0.12751353744E-01 -0.18125690548E-01  0.50000500000E+01  0.50000000000E+01 0.  1.
</event>
<event>
 4    1  0.5040302E-001  0.5000050E+01  0.7818608E-02  0.2136455E+00
        -11   -1    0    0    0    0  0.00000000000E+00  0.00000000000E+00  0.50000499739E+01  0.50000500000E+01  0.51100000000E-03 0.  1.
         11   -1    0    0    0    0 -0.00000000000E+00 -0.00000000000E+00 -0.50000499739E+01  0.50000500000E+01  0.51100000000E-03 0. -1.
     100001    1    1    2    0    0  0.11998521685E-01 -0.11170204236E-01  0.15207383559E-01  0.50000500000E+01  0.50000000000E+01 0.  0.
     100001    1    1    2    0    0 -0.11998521685E-01  0.11170204236E-01 -0.15207383559E-01  0.50000500000E+01  0.50000000000E+01 0.  0.
</event>
<event>
 4    1  0.5040302E-001  0.5000050E+01  0.7818608E-02  0.2136455E+00
        -11   -1    0    0    0    0  0.00000000000E+00  0.00000000000E+00  0.50000499739E+01  0.50000500000E+01  0.51100000000E-03 0.  1.
         11   -1    0    0    0    0 -0.00000000000E+00 -0.00000000000E+00 -0.50000499739E+01  0.50000500000E+01  0.51100000000E-03 0. -1.
     100001    1    1    2    0    0 -0.17496782542E-01 -0.13815559614E-01 -0.17307262179E-02  0.50000500000E+01  0.50000000000E+01 0. -1.
     100001    1    1    2    0    0  0.17496782542E-01  0.13815559614E-01  0.17307262179E-02  0.50000500000E+01  0.50000000000E+01 0.  1.
</event>
<event>
 4    1  0.5040302E-001  0.5000050E+01  0.7818608E-02  0.2136455E+00
        -11   -1    0    0    0    0  0.00000000000E+00  0.00000000000E+00  0.50000499739E+01  0.50000500000E+01  0.51100000000E-03 0. -1.
         11   -1    0    0    0    0 -0.00000000000E+00 -0.00000000000E+00 -0.50000499739E+01  0.50000500000E+01  0.51100000000E-03 0.  1.
     100001    1    1    2    0    0  0.85985293324E-02  0.18475267172E-01  0.92050147340E-02  0.50000500000E+01  0.50000000000E+01 0.  0.
     100001    1    1    2    0    0 -0.85985293324E-02 -0.18475267172E-01 -0.92050147340E-02  0.50000500000E+01  0.50000000000E+01 0. -1.
</event>
<event>
 4    1  0.5040302E-001  0.5000050E+01  0.7818608E-02  0.2136455E+00
        -11   -1    0    0    0    0  0.00000000000E+00  0.00000000000E+00  0.50000499739E+01  0.50000500000E+01  0.51100000000E-03 0. -1.
         11   -1    0    0    0    0 -0.00000000000E+00 -0.00000000000E+00 -0.50000499739E+01  0.50000500000E+01  0.51100000000E-03 0.  1.
     100001    1    1    2    0    0 -0.20007089937E-02  0.43048451582E-02 -0.21851040517E-01  0.50000500000E+01  0.50000000000E+01 0.  0.
     100001    1    1    2    0    0  0.20007089937E-02 -0.43048451582E-02  0.21851040517E-01  0.50000500000E+01  0.50000000000E+01 0. -1.
</event>
<event>
 4    1  0.5040302E-001  0.5000050E+01  0.7818608E-02  0.2136455E+00
        -11   -1    0    0    0    0  0.00000000000E+00  0.00000000000E+00  0.50000499739E+01  0.50000500000E+01  0.51100000000E-03 0.  1.
         11   -1    0    0    0    0 -0.00000000000E+00 -0.00000000000E+00 -0.50000499739E+01  0.50000500000E+01  0.51100000000E-03 0. -1.
     100001    1    1    2    0    0 -0.18461544659E-01 -0.34746595005E-02 -0.12128504037E-01  0.50000500000E+01  0.50000000000E+01 0. -1.
     100001    1    1    2    0    0  0.18461544659E-01  0.34746595005E-02  0.12128504037E-01  0.50000500000E+01  0.50000000000E+01 0.  1.
</event>
<event>
 4    1  0.5040302E-001  0.5000050E+01  0.7818608E-02  0.2136455E+00
        -11   -1    0    0    0    0  0.00000000000E+00  0.00000000000E+00  0.50000499739E+01  0.50000500000E+01  0.51100000000E-03 0. -1.
         11   -1    0    0    0    0 -0.00000000000E+00 -0.00000000000E+00 -0.50000499739E+01  0.50000500000E+01  0.51100000000E-03 0.  1.
     100001    1    1    2    0    0  0.11980843840E-01 -0.18181829778E-01  0.50875285574E-02  0.50000500000E+01  0.50000000000E+01 0. -1.
     100001    1    1    2    0    0 -0.11980843840E-01  0.18181829778E-01 -0.50875285574E-02  0.50000500000E+01  0.50000000000E+01 0.  1.
</event>
<event>
 4    1  0.5040302E-001  0.5000050E+01  0.7818608E-02  0.2136455E+00
        -11   -1    0    0    0    0  0.00000000000E+00  0.00000000000E+00  0.50000499739E+01  0.50000500000E+01  0.51100000000E-03 0. -1.
         11   -1    0    0    0    0 -0.00000000000E+00 -0.00000000000E+00 -0.50000499739E+01  0.50000500000E+01  0.51100000000E-03 0.  1.
     100001    1    1    2    0    0 -0.11131269840E-01  0.97519803249E-03  0.19368694343E-01  0.50000500000E+01  0.50000000000E+01 0.  0.
     100001    1    1    2    0    0  0.11131269840E-01 -0.97519803249E-03 -0.19368694343E-01  0.50000500000E+01  0.50000000000E+01 0.  1.
</event>
<event>
 4    1  0.5040302E-001  0.5000050E+01  0.7818608E-02  0.2136455E+00
        -11   -1    0    0    0    0  0.00000000000E+00  0.00000000000E+00  0.50000499739E+01  0.50000500000E+01  0.51100000000E-03 0.  1.
         11   -1    0    0    0    0 -0.00000000000E+00 -0.00000000000E+00 -0.50000499739E+01  0.50000500000E+01  0.51100000000E-03 0. -1.
     100001    1    1    2    0    0 -0.13195848413E-01  0.12803619980E-01 -0.12725541249E-01  0.50000500000E+01  0.50000000000E+01 0. -1.
     100001    1    1    2    0    0  0.13195848413E-01 -0.12803619980E-01  0.12725541249E-01  0.50000500000E+01  0.50000000000E+01 0.  1.
</event>
<event>
 4    1  0.5040302E-001  0.5000050E+01  0.7818608E-02  0.2136455E+00
        -11   -1    0    0    0    0  0.00000000000E+00  0.00000000000E+00  0.50000499739E+01  0.50000500000E+01  0.51100000000E-03 0. -1.
         11   -1    0    0    0    0 -0.00000000000E+00 -0.00000000000E+00 -0.50000499739E+01  0.50000500000E+01  0.51100000000E-03 0.  1.
     100001    1    1    2    0    0  0.65660466099E-02  0.21374530090E-01 -0.13782358674E-03  0.50000500000E+01  0.50000000000E+01 0.  1.
     100001    1    1    2    0    0 -0.65660466099E-02 -0.21374530090E-01  0.13782358674E-03  0.50000500000E+01  0.50000000000E+01 0.  0.
</event>
<event>
 4    1  0.5040302E-001  0.5000050E+01  0.7818608E-02  0.2136455E+00
        -11   -1    0    0    0    0  0.00000000000E+00  0.00000000000E+00  0.50000499739E+01  0.50000500000E+01  0.51100000000E-03 0. -1.
         11   -1    0    0    0    0 -0.00000000000E+00 -0.00000000000E+00 -0.50000499739E+01  0.50000500000E+01  0.51100000000E-03 0.  1.
     100001    1    1    2    0    0  0.52903811431E-02  0.16330302088E-01  0.14329535969E-01  0.50000500000E+01  0.50000000000E+01 0. -1.
     100001    1    1    2    0    0 -0.52903811431E-02 -0.16330302088E-01 -0.14329535969E-01  0.50000500000E+01  0.50000000000E+01 0.  1.
</event>
<event>
 4    1  0.5040302E-001  0.5000050E+01  0.7818608E-02  0.2136455E+00
        -11   -1    0    0    0    0  0.00000000000E+00  0.00000000000E+00  0.50000499739E+01  0.50000500000E+01  0.51100000000E-03 0. -1.
         11   -1    0    0    0    0 -0.00000000000E+00 -0.00000000000E+00 -0.50000499739E+01  0.50000500000E+01  0.51100000000E-03 0.  1.
     100001    1    1    2    0    0 -0.21625915003E-01 -0.27503397281E-02 -0.49757342851E-02  0.50000500000E+01  0.50000000000E+01 0.  0.
     100001    1    1    2    0    0  0.21625915003E-01  0.27503397281E-02  0.49757342851E-02  0.50000500000E+01  0.50000000000E+01 0.  1.
</event>
<event>
 4    1  0.5040302E-001  0.5000050E+01  0.7818608E-02  0.2136455E+00
        -11   -1    0    0    0    0  0.00000000000E+00  0.00000000000E+00  0.50000499739E+01  0.50000500000E+01  0.51100000000E-03 0. -1.
         11   -1    0    0    0    0 -0.00000000000E+00 -0.00000000000E+00 -0.50000499739E+01  0.50000500000E+01  0.51100000000E-03 0.  1.
     100001    1    1    2    0    0 -0.19585602357E-01  0.10293159436E-01 -0.32338134049E-02  0.50000500000E+01  0.50000000000E+01 0. -1.
     100001    1    1    2    0    0  0.19585602357E-01 -0.10293159436E-01  0.32338134049E-02  0.50000500000E+01  0.50000000000E+01 0.  1.
</event>
<event>
 4    1  0.5040302E-001  0.5000050E+01  0.7818608E-02  0.2136455E+00
        -11   -1    0    0    0    0  0.00000000000E+00  0.00000000000E+00  0.50000499739E+01  0.50000500000E+01  0.51100000000E-03 0. -1.
         11   -1    0    0    0    0 -0.00000000000E+00 -0.00000000000E+00 -0.50000499739E+01  0.50000500000E+01  0.51100000000E-03 0.  1.
     100001    1    1    2    0    0 -0.16687512739E-01 -0.14600238468E-01  0.28917910149E-02  0.50000500000E+01  0.50000000000E+01 0.  0.
     100001    1    1    2    0    0  0.16687512739E-01  0.14600238468E-01 -0.28917910149E-02  0.50000500000E+01  0.50000000000E+01 0.  1.
</event>
<event>
 4    1  0.5040302E-001  0.5000050E+01  0.7818608E-02  0.2136455E+00
        -11   -1    0    0    0    0  0.00000000000E+00  0.00000000000E+00  0.50000499739E+01  0.50000500000E+01  0.51100000000E-03 0.  1.
         11   -1    0    0    0    0 -0.00000000000E+00 -0.00000000000E+00 -0.50000499739E+01  0.50000500000E+01  0.51100000000E-03 0. -1.
     100001    1    1    2    0    0 -0.15054268013E-01  0.14742791258E-01  0.74847592155E-02  0.50000500000E+01  0.50000000000E+01 0.  1.
     100001    1    1    2    0    0  0.15054268013E-01 -0.14742791258E-01 -0.74847592155E-02  0.50000500000E+01  0.50000000000E+01 0. -1.
</event>
<event>
 4    1  0.5040302E-001  0.5000050E+01  0.7818608E-02  0.2136455E+00
        -11   -1    0    0    0    0  0.00000000000E+00  0.00000000000E+00  0.50000499739E+01  0.50000500000E+01  0.51100000000E-03 0.  1.
         11   -1    0    0    0    0 -0.00000000000E+00 -0.00000000000E+00 -0.50000499739E+01  0.50000500000E+01  0.51100000000E-03 0. -1.
     100001    1    1    2    0    0 -0.39790746248E-02  0.11567425841E-01 -0.18718016042E-01  0.50000500000E+01  0.50000000000E+01 0.  0.
     100001    1    1    2    0    0  0.39790746248E-02 -0.11567425841E-01  0.18718016042E-01  0.50000500000E+01  0.50000000000E+01 0.  1.
</event>
<event>
 4    1  0.5040302E-001  0.5000050E+01  0.7818608E-02  0.2136455E+00
        -11   -1    0    0    0    0  0.00000000000E+00  0.00000000000E+00  0.50000499739E+01  0.50000500000E+01  0.51100000000E-03 0. -1.
         11   -1    0    0    0    0 -0.00000000000E+00 -0.00000000000E+00 -0.50000499739E+01  0.50000500000E+01  0.51100000000E-03 0.  1.
     100001    1    1    2    0    0 -0.15578685982E-01  0.14801791582E-01 -0.61817480579E-02  0.50000500000E+01  0.50000000000E+01 0.  1.
     100001    1    1    2    0    0  0.15578685982E-01 -0.14801791582E-01  0.61817480579E-02  0.50000500000E+01  0.50000000000E+01 0. -1.
</event>
<event>
 4    1  0.5040302E-001  0.5000050E+01  0.7818608E-02  0.2136455E+00
        -11   -1    0    0    0    0  0.00000000000E+00  0.00000000000E+00  0.50000499739E+01  0.50000500000E+01  0.51100000000E-03 0. -1.
         11   -1    0    0    0    0 -0.00000000000E+00 -0.00000000000E+00 -0.50000499739E+01  0.50000500000E+01  0.51100000000E-03 0.  1.
     100001    1    1    2    0    0  0.19188360798E-01  0.28877354838E-02  0.11111718753E-01  0.50000500000E+01  0.50000000000E+01 0. -1.
     100001    1    1    2    0    0 -0.19188360798E-01 -0.28877354838E-02 -0.11111718753E-01  0.50000500000E+01  0.50000000000E+01 0.  1.
</event>
<event>
 4    1  0.5040302E-001  0.5000050E+01  0.7818608E-02  0.2136455E+00
        -11   -1    0    0    0    0  0.00000000000E+00  0.00000000000E+00  0.50000499739E+01  0.50000500000E+01  0.51100000000E-03 0.  1.
         11   -1    0    0    0    0 -0.00000000000E+00 -0.00000000000E+00 -0.50000499739E+01  0.50000500000E+01  0.51100000000E-03 0. -1.
     100001    1    1    2    0    0 -0.47823616261E-03 -0.88185871261E-02 -0.20542792197E-01  0.50000500000E+01  0.50000000000E+01 0.  0.
     100001    1    1    2    0    0  0.47823616261E-03  0.88185871261E-02  0.20542792197E-01  0.50000500000E+01  0.50000000000E+01 0.  1.
</event>
<event>
 4    1  0.5040302E-001  0.5000050E+01  0.7818608E-02  0.2136455E+00
        -11   -1    0    0    0    0  0.00000000000E+00  0.00000000000E+00  0.50000499739E+01  0.50000500000E+01  0.51100000000E-03 0.  1.
         11   -1    0    0    0    0 -0.00000000000E+00 -0.00000000000E+00 -0.50000499739E+01  0.50000500000E+01  0.51100000000E-03 0. -1.
     100001    1    1    2    0    0 -0.18248553357E-01  0.12749299493E-01  0.21090668085E-02  0.50000500000E+01  0.50000000000E+01 0.  1.
     100001    1    1    2    0    0  0.18248553357E-01 -0.12749299493E-01 -0.21090668085E-02  0.50000500000E+01  0.50000000000E+01 0. -1.
</event>
<event>
 4    1  0.5040302E-001  0.5000050E+01  0.7818608E-02  0.2136455E+00
        -11   -1    0    0    0    0  0.00000000000E+00  0.00000000000E+00  0.50000499739E+01  0.50000500000E+01  0.51100000000E-03 0.  1.
         11   -1    0    0    0    0 -0.00000000000E+00 -0.00000000000E+00 -0.50000499739E+01  0.50000500000E+01  0.51100000000E-03 0. -1.
     100001    1    1    2    0    0  0.10677055803E-01 -0.19479491107E-01  0.25597667069E-02  0.50000500000E+01  0.50000000000E+01 0. -1.
     100001    1    1    2    0    0 -0.10677055803E-01  0.19479491107E-01 -0.25597667069E-02  0.50000500000E+01  0.50000000000E+01 0.  1.
</event>
<event>
 4    1  0.5040302E-001  0.5000050E+01  0.7818608E-02  0.2136455E+00
        -11   -1    0    0    0    0  0.00000000000E+00  0.00000000000E+00  0.50000499739E+01  0.50000500000E+01  0.51100000000E-03 0.  1.
         11   -1    0    0    0    0 -0.00000000000E+00 -0.00000000000E+00 -0.50000499739E+01  0.50000500000E+01  0.51100000000E-03 0. -1.
     100001    1    1    2    0    0  0.43230867713E-02  0.79787572777E-02 -0.20436556781E-01  0.50000500000E+01  0.50000000000E+01 0.  0.
     100001    1    1    2    0    0 -0.43230867713E-02 -0.79787572777E-02  0.20436556781E-01  0.50000500000E+01  0.50000000000E+01 0.  0.
</event>
<event>
 4    1  0.5040302E-001  0.5000050E+01  0.7818608E-02  0.2136455E+00
        -11   -1    0    0    0    0  0.00000000000E+00  0.00000000000E+00  0.50000499739E+01  0.50000500000E+01  0.51100000000E-03 0. -1.
         11   -1    0    0    0    0 -0.00000000000E+00 -0.00000000000E+00 -0.50000499739E+01  0.50000500000E+01  0.51100000000E-03 0.  1.
     100001    1    1    2    0    0  0.22196732136E-01 -0.47341100038E-03  0.26614778803E-02  0.50000500000E+01  0.50000000000E+01 0. -1.
     100001    1    1    2    0    0 -0.22196732136E-01  0.47341100038E-03 -0.26614778803E-02  0.50000500000E+01  0.50000000000E+01 0.  0.
</event>
<event>
 4    1  0.5040302E-001  0.5000050E+01  0.7818608E-02  0.2136455E+00
        -11   -1    0    0    0    0  0.00000000000E+00  0.00000000000E+00  0.50000499739E+01  0.50000500000E+01  0.51100000000E-03 0.  1.
         11   -1    0    0    0    0 -0.00000000000E+00 -0.00000000000E+00 -0.50000499739E+01  0.50000500000E+01  0.51100000000E-03 0. -1.
     100001    1    1    2    0    0  0.76515276510E-02 -0.15363960171E-01 -0.14331969595E-01  0.50000500000E+01  0.50000000000E+01 0. -1.
     100001    1    1    2    0    0 -0.76515276510E-02  0.15363960171E-01  0.14331969595E-01  0.50000500000E+01  0.50000000000E+01 0.  1.
</event>
<event>
 4    1  0.5040302E-001  0.5000050E+01  0.7818608E-02  0.2136455E+00
        -11   -1    0    0    0    0  0.00000000000E+00  0.00000000000E+00  0.50000499739E+01  0.50000500000E+01  0.51100000000E-03 0. -1.
         11   -1    0    0    0    0 -0.00000000000E+00 -0.00000000000E+00 -0.50000499739E+01  0.50000500000E+01  0.51100000000E-03 0.  1.
     100001    1    1    2    0    0  0.17766456109E-01 -0.93322113397E-02 -0.98623206626E-02  0.50000500000E+01  0.50000000000E+01 0. -1.
     100001    1    1    2    0    0 -0.17766456109E-01  0.93322113397E-02  0.98623206626E-02  0.50000500000E+01  0.50000000000E+01 0.  0.
</event>
<event>
 4    1  0.5040302E-001  0.5000050E+01  0.7818608E-02  0.2136455E+00
        -11   -1    0    0    0    0  0.00000000000E+00  0.00000000000E+00  0.50000499739E+01  0.50000500000E+01  0.51100000000E-03 0.  1.
         11   -1    0    0    0    0 -0.00000000000E+00 -0.00000000000E+00 -0.50000499739E+01  0.50000500000E+01  0.51100000000E-03 0. -1.
     100001    1    1    2    0    0  0.13926668248E-01  0.17486179579E-01  0.53285574095E-03  0.50000500000E+01  0.50000000000E+01 0. -1.
     100001    1    1    2    0    0 -0.13926668248E-01 -0.17486179579E-01 -0.53285574095E-03  0.50000500000E+01  0.50000000000E+01 0.  1.
</event>
<event>
 4    1  0.5040302E-001  0.5000050E+01  0.7818608E-02  0.2136455E+00
        -11   -1    0    0    0    0  0.00000000000E+00  0.00000000000E+00  0.50000499739E+01  0.50000500000E+01  0.51100000000E-03 0. -1.
         11   -1    0    0    0    0 -0.00000000000E+00 -0.00000000000E+00 -0.50000499739E+01  0.50000500000E+01  0.51100000000E-03 0.  1.
     100001    1    1    2    0    0 -0.20638565732E-01  0.45238144095E-02  0.73203283869E-02  0.50000500000E+01  0.50000000000E+01 0.  1.
     100001    1    1    2    0    0  0.20638565732E-01 -0.45238144095E-02 -0.73203283869E-02  0.50000500000E+01  0.50000000000E+01 0.  0.
</event>
<event>
 4    1  0.5040302E-001  0.5000050E+01  0.7818608E-02  0.2136455E+00
        -11   -1    0    0    0    0  0.00000000000E+00  0.00000000000E+00  0.50000499739E+01  0.50000500000E+01  0.51100000000E-03 0.  1.
         11   -1    0    0    0    0 -0.00000000000E+00 -0.00000000000E+00 -0.50000499739E+01  0.50000500000E+01  0.51100000000E-03 0. -1.
     100001    1    1    2    0    0 -0.95911532986E-02  0.14983991393E-01 -0.13545932243E-01  0.50000500000E+01  0.50000000000E+01 0.  0.
     100001    1    1    2    0    0  0.95911532986E-02 -0.14983991393E-01  0.13545932243E-01  0.50000500000E+01  0.50000000000E+01 0.  0.
</event>
<event>
 4    1  0.5040302E-001  0.5000050E+01  0.7818608E-02  0.2136455E+00
        -11   -1    0    0    0    0  0.00000000000E+00  0.00000000000E+00  0.50000499739E+01  0.50000500000E+01  0.51100000000E-03 0.  1.
         11   -1    0    0    0    0 -0.00000000000E+00 -0.00000000000E+00 -0.50000499739E+01  0.50000500000E+01  0.51100000000E-03 0. -1.
     100001    1    1    2    0    0 -0.20417415263E-01  0.83185228910E-02 -0.37328046936E-02  0.50000500000E+01  0.50000000000E+01 0. -1.
     100001    1    1    2    0    0  0.20417415263E-01 -0.83185228910E-02  0.37328046936E-02  0.50000500000E+01  0.50000000000E+01 0.  1.
</event>
<event>
 4    1  0.5040302E-001  0.5000050E+01  0.7818608E-02  0.2136455E+00
        -11   -1    0    0    0    0  0.00000000000E+00  0.00000000000E+00  0.50000499739E+01  0.50000500000E+01  0.51100000000E-03 0.  1.
         11   -1    0    0    0    0 -0.00000000000E+00 -0.00000000000E+00 -0.50000499739E+01  0.50000500000E+01  0.51100000000E-03 0. -1.
     100001    1    1    2    0    0 -0.83258167215E-02  0.20684819677E-01  0.16797353462E-02  0.50000500000E+01  0.50000000000E+01 0.  0.
     100001    1    1    2    0    0  0.83258167215E-02 -0.20684819677E-01 -0.16797353462E-02  0.50000500000E+01  0.50000000000E+01 0. -1.
</event>
<event>
 4    1  0.5040302E-001  0.5000050E+01  0.7818608E-02  0.2136455E+00
        -11   -1    0    0    0    0  0.00000000000E+00  0.00000000000E+00  0.50000499739E+01  0.50000500000E+01  0.51100000000E-03 0. -1.
         11   -1    0    0    0    0 -0.00000000000E+00 -0.00000000000E+00 -0.50000499739E+01  0.50000500000E+01  0.51100000000E-03 0.  1.
     100001    1    1    2    0    0  0.18352418447E-01 -0.72481092097E-02  0.10519322698E-01  0.50000500000E+01  0.50000000000E+01 0. -1.
     100001    1    1    2    0    0 -0.18352418447E-01  0.72481092097E-02 -0.10519322698E-01  0.50000500000E+01  0.50000000000E+01 0.  1.
</event>
<event>
 4    1  0.5040302E-001  0.5000050E+01  0.7818608E-02  0.2136455E+00
        -11   -1    0    0    0    0  0.00000000000E+00  0.00000000000E+00  0.50000499739E+01  0.50000500000E+01  0.51100000000E-03 0.  1.
         11   -1    0    0    0    0 -0.00000000000E+00 -0.00000000000E+00 -0.50000499739E+01  0.50000500000E+01  0.51100000000E-03 0. -1.
     100001    1    1    2    0    0  0.13047348608E-01  0.35014634918E-02  0.17818780758E-01  0.50000500000E+01  0.50000000000E+01 0.  0.
     100001    1    1    2    0    0 -0.13047348608E-01 -0.35014634918E-02 -0.17818780758E-01  0.50000500000E+01  0.50000000000E+01 0.  0.
</event>
<event>
 4    1  0.5040302E-001  0.5000050E+01  0.7818608E-02  0.2136455E+00
        -11   -1    0    0    0    0  0.00000000000E+00  0.00000000000E+00  0.50000499739E+01  0.50000500000E+01  0.51100000000E-03 0.  1.
         11   -1    0    0    0    0 -0.00000000000E+00 -0.00000000000E+00 -0.50000499739E+01  0.50000500000E+01  0.51100000000E-03 0. -1.
     100001    1    1    2    0    0 -0.94866490772E-02  0.10505571866E-01 -0.17310082295E-01  0.50000500000E+01  0.50000000000E+01 0. -1.
     100001    1    1    2    0    0  0.94866490772E-02 -0.10505571866E-01  0.17310082295E-01  0.50000500000E+01  0.50000000000E+01 0.  1.
</event>
<event>
 4    1  0.5040302E-001  0.5000050E+01  0.7818608E-02  0.2136455E+00
        -11   -1    0    0    0    0  0.00000000000E+00  0.00000000000E+00  0.50000499739E+01  0.50000500000E+01  0.51100000000E-03 0.  1.
         11   -1    0    0    0    0 -0.00000000000E+00 -0.00000000000E+00 -0.50000499739E+01  0.50000500000E+01  0.51100000000E-03 0. -1.
     100001    1    1    2    0    0  0.69888689786E-02  0.44860838577E-02  0.20761340564E-01  0.50000500000E+01  0.50000000000E+01 0.  0.
     100001    1    1    2    0    0 -0.69888689786E-02 -0.44860838577E-02 -0.20761340564E-01  0.50000500000E+01  0.50000000000E+01 0. -1.
</event>
<event>
 4    1  0.5040302E-001  0.5000050E+01  0.7818608E-02  0.2136455E+00
        -11   -1    0    0    0    0  0.00000000000E+00  0.00000000000E+00  0.50000499739E+01  0.50000500000E+01  0.51100000000E-03 0. -1.
         11   -1    0    0    0    0 -0.00000000000E+00 -0.00000000000E+00 -0.50000499739E+01  0.50000500000E+01  0.51100000000E-03 0.  1.
     100001    1    1    2    0    0  0.17683557936E-01 -0.83545109970E-02  0.10839576778E-01  0.50000500000E+01  0.50000000000E+01 0.  0.
     100001    1    1    2    0    0 -0.17683557936E-01  0.83545109970E-02 -0.10839576778E-01  0.50000500000E+01  0.50000000000E+01 0.  0.
</event>
<event>
 4    1  0.5040302E-001  0.5000050E+01  0.7818608E-02  0.2136455E+00
        -11   -1    0    0    0    0  0.00000000000E+00  0.00000000000E+00  0.50000499739E+01  0.50000500000E+01  0.51100000000E-03 0. -1.
         11   -1    0    0    0    0 -0.00000000000E+00 -0.00000000000E+00 -0.50000499739E+01  0.50000500000E+01  0.51100000000E-03 0.  1.
     100001    1    1    2    0    0 -0.35561463000E-02  0.21202042729E-01 -0.61505859582E-02  0.50000500000E+01  0.50000000000E+01 0.  1.
     100001    1    1    2    0    0  0.35561463000E-02 -0.21202042729E-01  0.61505859582E-02  0.50000500000E+01  0.50000000000E+01 0. -1.
</event>
<event>
 4    1  0.5040302E-001  0.5000050E+01  0.7818608E-02  0.2136455E+00
        -11   -1    0    0    0    0  0.00000000000E+00  0.00000000000E+00  0.50000499739E+01  0.50000500000E+01  0.51100000000E-03 0.  1.
         11   -1    0    0    0    0 -0.00000000000E+00 -0.00000000000E+00 -0.50000499739E+01  0.50000500000E+01  0.51100000000E-03 0. -1.
     100001    1    1    2    0    0 -0.15912273434E-01  0.13669759786E-01 -0.77420747573E-02  0.50000500000E+01  0.50000000000E+01 0.  1.
     100001    1    1    2    0    0  0.15912273434E-01 -0.13669759786E-01  0.77420747573E-02  0.50000500000E+01  0.50000000000E+01 0.  0.
</event>
<event>
 4    1  0.5040302E-001  0.5000050E+01  0.7818608E-02  0.2136455E+00
        -11   -1    0    0    0    0  0.00000000000E+00  0.00000000000E+00  0.50000499739E+01  0.50000500000E+01  0.51100000000E-03 0.  1.
         11   -1    0    0    0    0 -0.00000000000E+00 -0.00000000000E+00 -0.50000499739E+01  0.50000500000E+01  0.51100000000E-03 0. -1.
     100001    1    1    2    0    0 -0.16392842681E-01 -0.68847695740E-02 -0.13560131147E-01  0.50000500000E+01  0.50000000000E+01 0. -1.
     100001    1    1    2    0    0  0.16392842681E-01  0.68847695740E-02  0.13560131147E-01  0.50000500000E+01  0.50000000000E+01 0.  1.
</event>
<event>
 4    1  0.5040302E-001  0.5000050E+01  0.7818608E-02  0.2136455E+00
        -11   -1    0    0    0    0  0.00000000000E+00  0.00000000000E+00  0.50000499739E+01  0.50000500000E+01  0.51100000000E-03 0.  1.
         11   -1    0    0    0    0 -0.00000000000E+00 -0.00000000000E+00 -0.50000499739E+01  0.50000500000E+01  0.51100000000E-03 0. -1.
     100001    1    1    2    0    0  0.84149354260E-02  0.15755065059E-01  0.13452482550E-01  0.50000500000E+01  0.50000000000E+01 0.  1.
     100001    1    1    2    0    0 -0.84149354260E-02 -0.15755065059E-01 -0.13452482550E-01  0.50000500000E+01  0.50000000000E+01 0. -1.
</event>
<event>
 4    1  0.5040302E-001  0.5000050E+01  0.7818608E-02  0.2136455E+00
        -11   -1    0    0    0    0  0.00000000000E+00  0.00000000000E+00  0.50000499739E+01  0.50000500000E+01  0.51100000000E-03 0. -1.
         11   -1    0    0    0    0 -0.00000000000E+00 -0.00000000000E+00 -0.50000499739E+01  0.50000500000E+01  0.51100000000E-03 0.  1.
     100001    1    1    2    0    0 -0.18049562457E-02 -0.20184628814E-01  0.94512111708E-02  0.50000500000E+01  0.50000000000E+01 0.  1.
     100001    1    1    2    0    0  0.18049562457E-02  0.20184628814E-01 -0.94512111708E-02  0.50000500000E+01  0.50000000000E+01 0.  0.
</event>
<event>
 4    1  0.5040302E-001  0.5000050E+01  0.7818608E-02  0.2136455E+00
        -11   -1    0    0    0    0  0.00000000000E+00  0.00000000000E+00  0.50000499739E+01  0.50000500000E+01  0.51100000000E-03 0.  1.
         11   -1    0    0    0    0 -0.00000000000E+00 -0.00000000000E+00 -0.50000499739E+01  0.50000500000E+01  0.51100000000E-03 0. -1.
     100001    1    1    2    0    0 -0.63762918675E-02  0.14138174583E-01 -0.16107682064E-01  0.50000500000E+01  0.50000000000E+01 0.  0.
     100001    1    1    2    0    0  0.63762918675E-02 -0.14138174583E-01  0.16107682064E-01  0.50000500000E+01  0.50000000000E+01 0.  0.
</event>
<event>
 4    1  0.5040302E-001  0.5000050E+01  0.7818608E-02  0.2136455E+00
        -11   -1    0    0    0    0  0.00000000000E+00  0.00000000000E+00  0.50000499739E+01  0.50000500000E+01  0.51100000000E-03 0.  1.
         11   -1    0    0    0    0 -0.00000000000E+00 -0.00000000000E+00 -0.50000499739E+01  0.50000500000E+01  0.51100000000E-03 0. -1.
     100001    1    1    2    0    0 -0.90928470530E-02  0.20427291095E-01 -0.22002495719E-03  0.50000500000E+01  0.50000000000E+01 0. -1.
     100001    1    1    2    0    0  0.90928470530E-02 -0.20427291095E-01  0.22002495719E-03  0.50000500000E+01  0.50000000000E+01 0.  1.
</event>
<event>
 4    1  0.5040302E-001  0.5000050E+01  0.7818608E-02  0.2136455E+00
        -11   -1    0    0    0    0  0.00000000000E+00  0.00000000000E+00  0.50000499739E+01  0.50000500000E+01  0.51100000000E-03 0.  1.
         11   -1    0    0    0    0 -0.00000000000E+00 -0.00000000000E+00 -0.50000499739E+01  0.50000500000E+01  0.51100000000E-03 0. -1.
     100001    1    1    2    0    0  0.18082727525E-01 -0.56654623545E-02 -0.11870973067E-01  0.50000500000E+01  0.50000000000E+01 0. -1.
     100001    1    1    2    0    0 -0.18082727525E-01  0.56654623545E-02  0.11870973067E-01  0.50000500000E+01  0.50000000000E+01 0. -1.
</event>
<event>
 4    1  0.5040302E-001  0.5000050E+01  0.7818608E-02  0.2136455E+00
        -11   -1    0    0    0    0  0.00000000000E+00  0.00000000000E+00  0.50000499739E+01  0.50000500000E+01  0.51100000000E-03 0.  1.
         11   -1    0    0    0    0 -0.00000000000E+00 -0.00000000000E+00 -0.50000499739E+01  0.50000500000E+01  0.51100000000E-03 0. -1.
     100001    1    1    2    0    0 -0.15919261062E-01 -0.13605201363E-01  0.78407986275E-02  0.50000500000E+01  0.50000000000E+01 0.  0.
     100001    1    1    2    0    0  0.15919261062E-01  0.13605201363E-01 -0.78407986275E-02  0.50000500000E+01  0.50000000000E+01 0.  0.
</event>
<event>
 4    1  0.5040302E-001  0.5000050E+01  0.7818608E-02  0.2136455E+00
        -11   -1    0    0    0    0  0.00000000000E+00  0.00000000000E+00  0.50000499739E+01  0.50000500000E+01  0.51100000000E-03 0. -1.
         11   -1    0    0    0    0 -0.00000000000E+00 -0.00000000000E+00 -0.50000499739E+01  0.50000500000E+01  0.51100000000E-03 0.  1.
     100001    1    1    2    0    0 -0.33348813996E-02 -0.19408251274E-01 -0.10592490194E-01  0.50000500000E+01  0.50000000000E+01 0.  1.
     100001    1    1    2    0    0  0.33348813996E-02  0.19408251274E-01  0.10592490194E-01  0.50000500000E+01  0.50000000000E+01 0. -1.
</event>
<event>
 4    1  0.5040302E-001  0.5000050E+01  0.7818608E-02  0.2136455E+00
        -11   -1    0    0    0    0  0.00000000000E+00  0.00000000000E+00  0.50000499739E+01  0.50000500000E+01  0.51100000000E-03 0.  1.
         11   -1    0    0    0    0 -0.00000000000E+00 -0.00000000000E+00 -0.50000499739E+01  0.50000500000E+01  0.51100000000E-03 0. -1.
     100001    1    1    2    0    0  0.91115410371E-02 -0.15939593513E-01 -0.12763685931E-01  0.50000500000E+01  0.50000000000E+01 0. -1.
     100001    1    1    2    0    0 -0.91115410371E-02  0.15939593513E-01  0.12763685931E-01  0.50000500000E+01  0.50000000000E+01 0.  1.
</event>
<event>
 4    1  0.5040302E-001  0.5000050E+01  0.7818608E-02  0.2136455E+00
        -11   -1    0    0    0    0  0.00000000000E+00  0.00000000000E+00  0.50000499739E+01  0.50000500000E+01  0.51100000000E-03 0. -1.
         11   -1    0    0    0    0 -0.00000000000E+00 -0.00000000000E+00 -0.50000499739E+01  0.50000500000E+01  0.51100000000E-03 0.  1.
     100001    1    1    2    0    0  0.17000235294E-01 -0.13133880516E-01 -0.62044889015E-02  0.50000500000E+01  0.50000000000E+01 0.  0.
     100001    1    1    2    0    0 -0.17000235294E-01  0.13133880516E-01  0.62044889015E-02  0.50000500000E+01  0.50000000000E+01 0. -1.
</event>
<event>
 4    1  0.5040302E-001  0.5000050E+01  0.7818608E-02  0.2136455E+00
        -11   -1    0    0    0    0  0.00000000000E+00  0.00000000000E+00  0.50000499739E+01  0.50000500000E+01  0.51100000000E-03 0.  1.
         11   -1    0    0    0    0 -0.00000000000E+00 -0.00000000000E+00 -0.50000499739E+01  0.50000500000E+01  0.51100000000E-03 0. -1.
     100001    1    1    2    0    0  0.22850681702E-02  0.19921097398E-01  0.98960013087E-02  0.50000500000E+01  0.50000000000E+01 0.  1.
     100001    1    1    2    0    0 -0.22850681702E-02 -0.19921097398E-01 -0.98960013087E-02  0.50000500000E+01  0.50000000000E+01 0. -1.
</event>
<event>
 4    1  0.5040302E-001  0.5000050E+01  0.7818608E-02  0.2136455E+00
        -11   -1    0    0    0    0  0.00000000000E+00  0.00000000000E+00  0.50000499739E+01  0.50000500000E+01  0.51100000000E-03 0.  1.
         11   -1    0    0    0    0 -0.00000000000E+00 -0.00000000000E+00 -0.50000499739E+01  0.50000500000E+01  0.51100000000E-03 0. -1.
     100001    1    1    2    0    0  0.18285857801E-01  0.71334520185E-02 -0.10711851697E-01  0.50000500000E+01  0.50000000000E+01 0.  0.
     100001    1    1    2    0    0 -0.18285857801E-01 -0.71334520185E-02  0.10711851697E-01  0.50000500000E+01  0.50000000000E+01 0.  0.
</event>
<event>
 4    1  0.5040302E-001  0.5000050E+01  0.7818608E-02  0.2136455E+00
        -11   -1    0    0    0    0  0.00000000000E+00  0.00000000000E+00  0.50000499739E+01  0.50000500000E+01  0.51100000000E-03 0. -1.
         11   -1    0    0    0    0 -0.00000000000E+00 -0.00000000000E+00 -0.50000499739E+01  0.50000500000E+01  0.51100000000E-03 0.  1.
     100001    1    1    2    0    0 -0.14541921951E-01  0.16967275749E-01  0.80408930980E-03  0.50000500000E+01  0.50000000000E+01 0. -1.
     100001    1    1    2    0    0  0.14541921951E-01 -0.16967275749E-01 -0.80408930980E-03  0.50000500000E+01  0.50000000000E+01 0.  1.
</event>
<event>
 4    1  0.5040302E-001  0.5000050E+01  0.7818608E-02  0.2136455E+00
        -11   -1    0    0    0    0  0.00000000000E+00  0.00000000000E+00  0.50000499739E+01  0.50000500000E+01  0.51100000000E-03 0.  1.
         11   -1    0    0    0    0 -0.00000000000E+00 -0.00000000000E+00 -0.50000499739E+01  0.50000500000E+01  0.51100000000E-03 0. -1.
     100001    1    1    2    0    0 -0.13224576651E-01  0.40571556035E-02  0.17568510489E-01  0.50000500000E+01  0.50000000000E+01 0.  1.
     100001    1    1    2    0    0  0.13224576651E-01 -0.40571556035E-02 -0.17568510489E-01  0.50000500000E+01  0.50000000000E+01 0. -1.
</event>
<event>
 4    1  0.5040302E-001  0.5000050E+01  0.7818608E-02  0.2136455E+00
        -11   -1    0    0    0    0  0.00000000000E+00  0.00000000000E+00  0.50000499739E+01  0.50000500000E+01  0.51100000000E-03 0. -1.
         11   -1    0    0    0    0 -0.00000000000E+00 -0.00000000000E+00 -0.50000499739E+01  0.50000500000E+01  0.51100000000E-03 0.  1.
     100001    1    1    2    0    0 -0.15296801011E-01  0.32161773833E-02 -0.15989577288E-01  0.50000500000E+01  0.50000000000E+01 0.  1.
     100001    1    1    2    0    0  0.15296801011E-01 -0.32161773833E-02  0.15989577288E-01  0.50000500000E+01  0.50000000000E+01 0. -1.
</event>
<event>
 4    1  0.5040302E-001  0.5000050E+01  0.7818608E-02  0.2136455E+00
        -11   -1    0    0    0    0  0.00000000000E+00  0.00000000000E+00  0.50000499739E+01  0.50000500000E+01  0.51100000000E-03 0. -1.
         11   -1    0    0    0    0 -0.00000000000E+00 -0.00000000000E+00 -0.50000499739E+01  0.50000500000E+01  0.51100000000E-03 0.  1.
     100001    1    1    2    0    0 -0.63230229332E-02  0.20513858588E-01  0.62612687851E-02  0.50000500000E+01  0.50000000000E+01 0.  1.
     100001    1    1    2    0    0  0.63230229332E-02 -0.20513858588E-01 -0.62612687851E-02  0.50000500000E+01  0.50000000000E+01 0. -1.
</event>
<event>
 4    1  0.5040302E-001  0.5000050E+01  0.7818608E-02  0.2136455E+00
        -11   -1    0    0    0    0  0.00000000000E+00  0.00000000000E+00  0.50000499739E+01  0.50000500000E+01  0.51100000000E-03 0.  1.
         11   -1    0    0    0    0 -0.00000000000E+00 -0.00000000000E+00 -0.50000499739E+01  0.50000500000E+01  0.51100000000E-03 0. -1.
     100001    1    1    2    0    0 -0.19981582662E-01 -0.21268305618E-02  0.98089472470E-02  0.50000500000E+01  0.50000000000E+01 0.  0.
     100001    1    1    2    0    0  0.19981582662E-01  0.21268305618E-02 -0.98089472470E-02  0.50000500000E+01  0.50000000000E+01 0.  1.
</event>
<event>
 4    1  0.5040302E-001  0.5000050E+01  0.7818608E-02  0.2136455E+00
        -11   -1    0    0    0    0  0.00000000000E+00  0.00000000000E+00  0.50000499739E+01  0.50000500000E+01  0.51100000000E-03 0.  1.
         11   -1    0    0    0    0 -0.00000000000E+00 -0.00000000000E+00 -0.50000499739E+01  0.50000500000E+01  0.51100000000E-03 0. -1.
     100001    1    1    2    0    0  0.58390839392E-02 -0.14002475103E-01 -0.16426755302E-01  0.50000500000E+01  0.50000000000E+01 0.  0.
     100001    1    1    2    0    0 -0.58390839392E-02  0.14002475103E-01  0.16426755302E-01  0.50000500000E+01  0.50000000000E+01 0. -1.
</event>
<event>
 4    1  0.5040302E-001  0.5000050E+01  0.7818608E-02  0.2136455E+00
        -11   -1    0    0    0    0  0.00000000000E+00  0.00000000000E+00  0.50000499739E+01  0.50000500000E+01  0.51100000000E-03 0.  1.
         11   -1    0    0    0    0 -0.00000000000E+00 -0.00000000000E+00 -0.50000499739E+01  0.50000500000E+01  0.51100000000E-03 0. -1.
     100001    1    1    2    0    0 -0.10412911765E-01  0.10185521533E-01  0.16965521498E-01  0.50000500000E+01  0.50000000000E+01 0.  1.
     100001    1    1    2    0    0  0.10412911765E-01 -0.10185521533E-01 -0.16965521498E-01  0.50000500000E+01  0.50000000000E+01 0. -1.
</event>
<event>
 4    1  0.5040302E-001  0.5000050E+01  0.7818608E-02  0.2136455E+00
        -11   -1    0    0    0    0  0.00000000000E+00  0.00000000000E+00  0.50000499739E+01  0.50000500000E+01  0.51100000000E-03 0. -1.
         11   -1    0    0    0    0 -0.00000000000E+00 -0.00000000000E+00 -0.50000499739E+01  0.50000500000E+01  0.51100000000E-03 0.  1.
     100001    1    1    2    0    0  0.21506762642E-01 -0.40639630217E-02 -0.45766652931E-02  0.50000500000E+01  0.50000000000E+01 0.  1.
     100001    1    1    2    0    0 -0.21506762642E-01  0.40639630217E-02  0.45766652931E-02  0.50000500000E+01  0.50000000000E+01 0. -1.
</event>
<event>
 4    1  0.5040302E-001  0.5000050E+01  0.7818608E-02  0.2136455E+00
        -11   -1    0    0    0    0  0.00000000000E+00  0.00000000000E+00  0.50000499739E+01  0.50000500000E+01  0.51100000000E-03 0.  1.
         11   -1    0    0    0    0 -0.00000000000E+00 -0.00000000000E+00 -0.50000499739E+01  0.50000500000E+01  0.51100000000E-03 0. -1.
     100001    1    1    2    0    0  0.20744000049E-01 -0.82613799379E-02 -0.11994013009E-02  0.50000500000E+01  0.50000000000E+01 0.  1.
     100001    1    1    2    0    0 -0.20744000049E-01  0.82613799379E-02  0.11994013009E-02  0.50000500000E+01  0.50000000000E+01 0.  0.
</event>
<event>
 4    1  0.5040302E-001  0.5000050E+01  0.7818608E-02  0.2136455E+00
        -11   -1    0    0    0    0  0.00000000000E+00  0.00000000000E+00  0.50000499739E+01  0.50000500000E+01  0.51100000000E-03 0. -1.
         11   -1    0    0    0    0 -0.00000000000E+00 -0.00000000000E+00 -0.50000499739E+01  0.50000500000E+01  0.51100000000E-03 0.  1.
     100001    1    1    2    0    0  0.18668655700E-01 -0.28225417144E-02  0.11979860292E-01  0.50000500000E+01  0.50000000000E+01 0. -1.
     100001    1    1    2    0    0 -0.18668655700E-01  0.28225417144E-02 -0.11979860292E-01  0.50000500000E+01  0.50000000000E+01 0.  1.
</event>
<event>
 4    1  0.5040302E-001  0.5000050E+01  0.7818608E-02  0.2136455E+00
        -11   -1    0    0    0    0  0.00000000000E+00  0.00000000000E+00  0.50000499739E+01  0.50000500000E+01  0.51100000000E-03 0. -1.
         11   -1    0    0    0    0 -0.00000000000E+00 -0.00000000000E+00 -0.50000499739E+01  0.50000500000E+01  0.51100000000E-03 0.  1.
     100001    1    1    2    0    0 -0.12746817849E-01 -0.12749657706E-01  0.13227522938E-01  0.50000500000E+01  0.50000000000E+01 0.  1.
     100001    1    1    2    0    0  0.12746817849E-01  0.12749657706E-01 -0.13227522938E-01  0.50000500000E+01  0.50000000000E+01 0.  1.
</event>
<event>
 4    1  0.5040302E-001  0.5000050E+01  0.7818608E-02  0.2136455E+00
        -11   -1    0    0    0    0  0.00000000000E+00  0.00000000000E+00  0.50000499739E+01  0.50000500000E+01  0.51100000000E-03 0. -1.
         11   -1    0    0    0    0 -0.00000000000E+00 -0.00000000000E+00 -0.50000499739E+01  0.50000500000E+01  0.51100000000E-03 0.  1.
     100001    1    1    2    0    0 -0.17628604296E-01 -0.11783025075E-01  0.70989527855E-02  0.50000500000E+01  0.50000000000E+01 0. -1.
     100001    1    1    2    0    0  0.17628604296E-01  0.11783025075E-01 -0.70989527855E-02  0.50000500000E+01  0.50000000000E+01 0.  0.
</event>
<event>
 4    1  0.5040302E-001  0.5000050E+01  0.7818608E-02  0.2136455E+00
        -11   -1    0    0    0    0  0.00000000000E+00  0.00000000000E+00  0.50000499739E+01  0.50000500000E+01  0.51100000000E-03 0.  1.
         11   -1    0    0    0    0 -0.00000000000E+00 -0.00000000000E+00 -0.50000499739E+01  0.50000500000E+01  0.51100000000E-03 0. -1.
     100001    1    1    2    0    0  0.61490631292E-02 -0.56743436643E-02  0.20736280925E-01  0.50000500000E+01  0.50000000000E+01 0.  1.
     100001    1    1    2    0    0 -0.61490631292E-02  0.56743436643E-02 -0.20736280925E-01  0.50000500000E+01  0.50000000000E+01 0. -1.
</event>
<event>
 4    1  0.5040302E-001  0.5000050E+01  0.7818608E-02  0.2136455E+00
        -11   -1    0    0    0    0  0.00000000000E+00  0.00000000000E+00  0.50000499739E+01  0.50000500000E+01  0.51100000000E-03 0.  1.
         11   -1    0    0    0    0 -0.00000000000E+00 -0.00000000000E+00 -0.50000499739E+01  0.50000500000E+01  0.51100000000E-03 0. -1.
     100001    1    1    2    0    0 -0.90974292617E-03 -0.50468887642E-02 -0.21764737113E-01  0.50000500000E+01  0.50000000000E+01 0. -1.
     100001    1    1    2    0    0  0.90974292617E-03  0.50468887642E-02  0.21764737113E-01  0.50000500000E+01  0.50000000000E+01 0.  0.
</event>
<event>
 4    1  0.5040302E-001  0.5000050E+01  0.7818608E-02  0.2136455E+00
        -11   -1    0    0    0    0  0.00000000000E+00  0.00000000000E+00  0.50000499739E+01  0.50000500000E+01  0.51100000000E-03 0. -1.
         11   -1    0    0    0    0 -0.00000000000E+00 -0.00000000000E+00 -0.50000499739E+01  0.50000500000E+01  0.51100000000E-03 0.  1.
     100001    1    1    2    0    0 -0.19339434081E-01 -0.10411862192E-01  0.41930794298E-02  0.50000500000E+01  0.50000000000E+01 0.  0.
     100001    1    1    2    0    0  0.19339434081E-01  0.10411862192E-01 -0.41930794298E-02  0.50000500000E+01  0.50000000000E+01 0.  1.
</event>
<event>
 4    1  0.5040302E-001  0.5000050E+01  0.7818608E-02  0.2136455E+00
        -11   -1    0    0    0    0  0.00000000000E+00  0.00000000000E+00  0.50000499739E+01  0.50000500000E+01  0.51100000000E-03 0. -1.
         11   -1    0    0    0    0 -0.00000000000E+00 -0.00000000000E+00 -0.50000499739E+01  0.50000500000E+01  0.51100000000E-03 0.  1.
     100001    1    1    2    0    0  0.99270585768E-02 -0.18332293179E-01 -0.80859776646E-02  0.50000500000E+01  0.50000000000E+01 0.  0.
     100001    1    1    2    0    0 -0.99270585768E-02  0.18332293179E-01  0.80859776646E-02  0.50000500000E+01  0.50000000000E+01 0. -1.
</event>
<event>
 4    1  0.5040302E-001  0.5000050E+01  0.7818608E-02  0.2136455E+00
        -11   -1    0    0    0    0  0.00000000000E+00  0.00000000000E+00  0.50000499739E+01  0.50000500000E+01  0.51100000000E-03 0. -1.
         11   -1    0    0    0    0 -0.00000000000E+00 -0.00000000000E+00 -0.50000499739E+01  0.50000500000E+01  0.51100000000E-03 0.  1.
     100001    1    1    2    0    0 -0.93563410513E-02 -0.20016389104E-01  0.34359204514E-02  0.50000500000E+01  0.50000000000E+01 0.  1.
     100001    1    1    2    0    0  0.93563410513E-02  0.20016389104E-01 -0.34359204514E-02  0.50000500000E+01  0.50000000000E+01 0. -1.
</event>
<event>
 4    1  0.5040302E-001  0.5000050E+01  0.7818608E-02  0.2136455E+00
        -11   -1    0    0    0    0  0.00000000000E+00  0.00000000000E+00  0.50000499739E+01  0.50000500000E+01  0.51100000000E-03 0. -1.
         11   -1    0    0    0    0 -0.00000000000E+00 -0.00000000000E+00 -0.50000499739E+01  0.50000500000E+01  0.51100000000E-03 0.  1.
     100001    1    1    2    0    0 -0.16114911362E-01 -0.15289042633E-01 -0.25607239496E-02  0.50000500000E+01  0.50000000000E+01 0.  0.
     100001    1    1    2    0    0  0.16114911362E-01  0.15289042633E-01  0.25607239496E-02  0.50000500000E+01  0.50000000000E+01 0. -1.
</event>
<event>
 4    1  0.5040302E-001  0.5000050E+01  0.7818608E-02  0.2136455E+00
        -11   -1    0    0    0    0  0.00000000000E+00  0.00000000000E+00  0.50000499739E+01  0.50000500000E+01  0.51100000000E-03 0. -1.
         11   -1    0    0    0    0 -0.00000000000E+00 -0.00000000000E+00 -0.50000499739E+01  0.50000500000E+01  0.51100000000E-03 0.  1.
     100001    1    1    2    0    0  0.11740073083E-01  0.18425787589E-01 -0.47606234625E-02  0.50000500000E+01  0.50000000000E+01 0.  1.
     100001    1    1    2    0    0 -0.11740073083E-01 -0.18425787589E-01  0.47606234625E-02  0.50000500000E+01  0.50000000000E+01 0. -1.
</event>
<event>
 4    1  0.5040302E-001  0.5000050E+01  0.7818608E-02  0.2136455E+00
        -11   -1    0    0    0    0  0.00000000000E+00  0.00000000000E+00  0.50000499739E+01  0.50000500000E+01  0.51100000000E-03 0.  1.
         11   -1    0    0    0    0 -0.00000000000E+00 -0.00000000000E+00 -0.50000499739E+01  0.50000500000E+01  0.51100000000E-03 0. -1.
     100001    1    1    2    0    0 -0.17655529734E-01  0.64911709348E-02 -0.12089229492E-01  0.50000500000E+01  0.50000000000E+01 0.  1.
     100001    1    1    2    0    0  0.17655529734E-01 -0.64911709348E-02  0.12089229492E-01  0.50000500000E+01  0.50000000000E+01 0.  0.
</event>
<event>
 4    1  0.5040302E-001  0.5000050E+01  0.7818608E-02  0.2136455E+00
        -11   -1    0    0    0    0  0.00000000000E+00  0.00000000000E+00  0.50000499739E+01  0.50000500000E+01  0.51100000000E-03 0.  1.
         11   -1    0    0    0    0 -0.00000000000E+00 -0.00000000000E+00 -0.50000499739E+01  0.50000500000E+01  0.51100000000E-03 0. -1.
     100001    1    1    2    0    0  0.18069337168E-01 -0.11895078606E-01 -0.56576195751E-02  0.50000500000E+01  0.50000000000E+01 0. -1.
     100001    1    1    2    0    0 -0.18069337168E-01  0.11895078606E-01  0.56576195751E-02  0.50000500000E+01  0.50000000000E+01 0.  1.
</event>
<event>
 4    1  0.5040302E-001  0.5000050E+01  0.7818608E-02  0.2136455E+00
        -11   -1    0    0    0    0  0.00000000000E+00  0.00000000000E+00  0.50000499739E+01  0.50000500000E+01  0.51100000000E-03 0. -1.
         11   -1    0    0    0    0 -0.00000000000E+00 -0.00000000000E+00 -0.50000499739E+01  0.50000500000E+01  0.51100000000E-03 0.  1.
     100001    1    1    2    0    0  0.77407493114E-02 -0.18180428788E-01 -0.10466867210E-01  0.50000500000E+01  0.50000000000E+01 0. -1.
     100001    1    1    2    0    0 -0.77407493114E-02  0.18180428788E-01  0.10466867210E-01  0.50000500000E+01  0.50000000000E+01 0.  1.
</event>
<event>
 4    1  0.5040302E-001  0.5000050E+01  0.7818608E-02  0.2136455E+00
        -11   -1    0    0    0    0  0.00000000000E+00  0.00000000000E+00  0.50000499739E+01  0.50000500000E+01  0.51100000000E-03 0. -1.
         11   -1    0    0    0    0 -0.00000000000E+00 -0.00000000000E+00 -0.50000499739E+01  0.50000500000E+01  0.51100000000E-03 0.  1.
     100001    1    1    2    0    0 -0.19749805994E-01 -0.48472023258E-02 -0.92979725110E-02  0.50000500000E+01  0.50000000000E+01 0.  1.
     100001    1    1    2    0    0  0.19749805994E-01  0.48472023258E-02  0.92979725110E-02  0.50000500000E+01  0.50000000000E+01 0. -1.
</event>
<event>
 4    1  0.5040302E-001  0.5000050E+01  0.7818608E-02  0.2136455E+00
        -11   -1    0    0    0    0  0.00000000000E+00  0.00000000000E+00  0.50000499739E+01  0.50000500000E+01  0.51100000000E-03 0.  1.
         11   -1    0    0    0    0 -0.00000000000E+00 -0.00000000000E+00 -0.50000499739E+01  0.50000500000E+01  0.51100000000E-03 0. -1.
     100001    1    1    2    0    0 -0.16195153467E-01 -0.15225600494E-01 -0.24291137866E-02  0.50000500000E+01  0.50000000000E+01 0.  0.
     100001    1    1    2    0    0  0.16195153467E-01  0.15225600494E-01  0.24291137866E-02  0.50000500000E+01  0.50000000000E+01 0.  1.
</event>
<event>
 4    1  0.5040302E-001  0.5000050E+01  0.7818608E-02  0.2136455E+00
        -11   -1    0    0    0    0  0.00000000000E+00  0.00000000000E+00  0.50000499739E+01  0.50000500000E+01  0.51100000000E-03 0. -1.
         11   -1    0    0    0    0 -0.00000000000E+00 -0.00000000000E+00 -0.50000499739E+01  0.50000500000E+01  0.51100000000E-03 0.  1.
     100001    1    1    2    0    0  0.17811728508E-01  0.76167610080E-02 -0.11168248712E-01  0.50000500000E+01  0.50000000000E+01 0.  1.
     100001    1    1    2    0    0 -0.17811728508E-01 -0.76167610080E-02  0.11168248712E-01  0.50000500000E+01  0.50000000000E+01 0. -1.
</event>
<event>
 4    1  0.5040302E-001  0.5000050E+01  0.7818608E-02  0.2136455E+00
        -11   -1    0    0    0    0  0.00000000000E+00  0.00000000000E+00  0.50000499739E+01  0.50000500000E+01  0.51100000000E-03 0.  1.
         11   -1    0    0    0    0 -0.00000000000E+00 -0.00000000000E+00 -0.50000499739E+01  0.50000500000E+01  0.51100000000E-03 0. -1.
     100001    1    1    2    0    0  0.13994742762E-02 -0.22316808725E-01 -0.63403973089E-04  0.50000500000E+01  0.50000000000E+01 0.  0.
     100001    1    1    2    0    0 -0.13994742762E-02  0.22316808725E-01  0.63403973090E-04  0.50000500000E+01  0.50000000000E+01 0.  1.
</event>
<event>
 4    1  0.5040302E-001  0.5000050E+01  0.7818608E-02  0.2136455E+00
        -11   -1    0    0    0    0  0.00000000000E+00  0.00000000000E+00  0.50000499739E+01  0.50000500000E+01  0.51100000000E-03 0. -1.
         11   -1    0    0    0    0 -0.00000000000E+00 -0.00000000000E+00 -0.50000499739E+01  0.50000500000E+01  0.51100000000E-03 0.  1.
     100001    1    1    2    0    0  0.13649342289E-01 -0.37598224850E-02  0.17307850530E-01  0.50000500000E+01  0.50000000000E+01 0. -1.
     100001    1    1    2    0    0 -0.13649342289E-01  0.37598224850E-02 -0.17307850530E-01  0.50000500000E+01  0.50000000000E+01 0.  0.
</event>
<event>
 4    1  0.5040302E-001  0.5000050E+01  0.7818608E-02  0.2136455E+00
        -11   -1    0    0    0    0  0.00000000000E+00  0.00000000000E+00  0.50000499739E+01  0.50000500000E+01  0.51100000000E-03 0.  1.
         11   -1    0    0    0    0 -0.00000000000E+00 -0.00000000000E+00 -0.50000499739E+01  0.50000500000E+01  0.51100000000E-03 0. -1.
     100001    1    1    2    0    0 -0.39446664099E-02  0.43850816320E-02 -0.21568800755E-01  0.50000500000E+01  0.50000000000E+01 0.  0.
     100001    1    1    2    0    0  0.39446664099E-02 -0.43850816320E-02  0.21568800755E-01  0.50000500000E+01  0.50000000000E+01 0.  1.
</event>
<event>
 4    1  0.5040302E-001  0.5000050E+01  0.7818608E-02  0.2136455E+00
        -11   -1    0    0    0    0  0.00000000000E+00  0.00000000000E+00  0.50000499739E+01  0.50000500000E+01  0.51100000000E-03 0. -1.
         11   -1    0    0    0    0 -0.00000000000E+00 -0.00000000000E+00 -0.50000499739E+01  0.50000500000E+01  0.51100000000E-03 0.  1.
     100001    1    1    2    0    0 -0.63816224841E-02  0.18978565682E-01  0.99544682995E-02  0.50000500000E+01  0.50000000000E+01 0. -1.
     100001    1    1    2    0    0  0.63816224841E-02 -0.18978565682E-01 -0.99544682995E-02  0.50000500000E+01  0.50000000000E+01 0.  1.
</event>
<event>
 4    1  0.5040302E-001  0.5000050E+01  0.7818608E-02  0.2136455E+00
        -11   -1    0    0    0    0  0.00000000000E+00  0.00000000000E+00  0.50000499739E+01  0.50000500000E+01  0.51100000000E-03 0.  1.
         11   -1    0    0    0    0 -0.00000000000E+00 -0.00000000000E+00 -0.50000499739E+01  0.50000500000E+01  0.51100000000E-03 0. -1.
     100001    1    1    2    0    0  0.21234421922E-01  0.60332595409E-02 -0.35639311107E-02  0.50000500000E+01  0.50000000000E+01 0. -1.
     100001    1    1    2    0    0 -0.21234421922E-01 -0.60332595409E-02  0.35639311107E-02  0.50000500000E+01  0.50000000000E+01 0.  1.
</event>
<event>
 4    1  0.5040302E-001  0.5000050E+01  0.7818608E-02  0.2136455E+00
        -11   -1    0    0    0    0  0.00000000000E+00  0.00000000000E+00  0.50000499739E+01  0.50000500000E+01  0.51100000000E-03 0.  1.
         11   -1    0    0    0    0 -0.00000000000E+00 -0.00000000000E+00 -0.50000499739E+01  0.50000500000E+01  0.51100000000E-03 0. -1.
     100001    1    1    2    0    0  0.86122238693E-03 -0.47141129492E-02  0.21841198115E-01  0.50000500000E+01  0.50000000000E+01 0.  0.
     100001    1    1    2    0    0 -0.86122238693E-03  0.47141129492E-02 -0.21841198115E-01  0.50000500000E+01  0.50000000000E+01 0. -1.
</event>
<event>
 4    1  0.5040302E-001  0.5000050E+01  0.7818608E-02  0.2136455E+00
        -11   -1    0    0    0    0  0.00000000000E+00  0.00000000000E+00  0.50000499739E+01  0.50000500000E+01  0.51100000000E-03 0. -1.
         11   -1    0    0    0    0 -0.00000000000E+00 -0.00000000000E+00 -0.50000499739E+01  0.50000500000E+01  0.51100000000E-03 0.  1.
     100001    1    1    2    0    0 -0.31520712244E-02 -0.16840270660E-01 -0.14369141627E-01  0.50000500000E+01  0.50000000000E+01 0. -1.
     100001    1    1    2    0    0  0.31520712244E-02  0.16840270660E-01  0.14369141627E-01  0.50000500000E+01  0.50000000000E+01 0.  1.
</event>
<event>
 4    1  0.5040302E-001  0.5000050E+01  0.7818608E-02  0.2136455E+00
        -11   -1    0    0    0    0  0.00000000000E+00  0.00000000000E+00  0.50000499739E+01  0.50000500000E+01  0.51100000000E-03 0. -1.
         11   -1    0    0    0    0 -0.00000000000E+00 -0.00000000000E+00 -0.50000499739E+01  0.50000500000E+01  0.51100000000E-03 0.  1.
     100001    1    1    2    0    0 -0.17520235012E-01  0.10869306403E-01  0.86545966648E-02  0.50000500000E+01  0.50000000000E+01 0. -1.
     100001    1    1    2    0    0  0.17520235012E-01 -0.10869306403E-01 -0.86545966648E-02  0.50000500000E+01  0.50000000000E+01 0.  1.
</event>
<event>
 4    1  0.5040302E-001  0.5000050E+01  0.7818608E-02  0.2136455E+00
        -11   -1    0    0    0    0  0.00000000000E+00  0.00000000000E+00  0.50000499739E+01  0.50000500000E+01  0.51100000000E-03 0. -1.
         11   -1    0    0    0    0 -0.00000000000E+00 -0.00000000000E+00 -0.50000499739E+01  0.50000500000E+01  0.51100000000E-03 0.  1.
     100001    1    1    2    0    0 -0.21318974933E-01 -0.36018174085E-02  0.57035707389E-02  0.50000500000E+01  0.50000000000E+01 0.  1.
     100001    1    1    2    0    0  0.21318974933E-01  0.36018174085E-02 -0.57035707389E-02  0.50000500000E+01  0.50000000000E+01 0.  0.
</event>
<event>
 4    1  0.5040302E-001  0.5000050E+01  0.7818608E-02  0.2136455E+00
        -11   -1    0    0    0    0  0.00000000000E+00  0.00000000000E+00  0.50000499739E+01  0.50000500000E+01  0.51100000000E-03 0. -1.
         11   -1    0    0    0    0 -0.00000000000E+00 -0.00000000000E+00 -0.50000499739E+01  0.50000500000E+01  0.51100000000E-03 0.  1.
     100001    1    1    2    0    0 -0.50229446694E-02  0.21593155009E-01 -0.29168790884E-02  0.50000500000E+01  0.50000000000E+01 0. -1.
     100001    1    1    2    0    0  0.50229446694E-02 -0.21593155009E-01  0.29168790884E-02  0.50000500000E+01  0.50000000000E+01 0.  0.
</event>
<event>
 4    1  0.5040302E-001  0.5000050E+01  0.7818608E-02  0.2136455E+00
        -11   -1    0    0    0    0  0.00000000000E+00  0.00000000000E+00  0.50000499739E+01  0.50000500000E+01  0.51100000000E-03 0. -1.
         11   -1    0    0    0    0 -0.00000000000E+00 -0.00000000000E+00 -0.50000499739E+01  0.50000500000E+01  0.51100000000E-03 0.  1.
     100001    1    1    2    0    0 -0.22071165397E-01  0.32270832783E-02 -0.15659155597E-02  0.50000500000E+01  0.50000000000E+01 0. -1.
     100001    1    1    2    0    0  0.22071165397E-01 -0.32270832783E-02  0.15659155597E-02  0.50000500000E+01  0.50000000000E+01 0.  0.
</event>
<event>
 4    1  0.5040302E-001  0.5000050E+01  0.7818608E-02  0.2136455E+00
        -11   -1    0    0    0    0  0.00000000000E+00  0.00000000000E+00  0.50000499739E+01  0.50000500000E+01  0.51100000000E-03 0. -1.
         11   -1    0    0    0    0 -0.00000000000E+00 -0.00000000000E+00 -0.50000499739E+01  0.50000500000E+01  0.51100000000E-03 0.  1.
     100001    1    1    2    0    0  0.31195969056E-02 -0.17130526247E-02 -0.22075689476E-01  0.50000500000E+01  0.50000000000E+01 0.  1.
     100001    1    1    2    0    0 -0.31195969056E-02  0.17130526247E-02  0.22075689476E-01  0.50000500000E+01  0.50000000000E+01 0.  0.
</event>
<event>
 4    1  0.5040302E-001  0.5000050E+01  0.7818608E-02  0.2136455E+00
        -11   -1    0    0    0    0  0.00000000000E+00  0.00000000000E+00  0.50000499739E+01  0.50000500000E+01  0.51100000000E-03 0.  1.
         11   -1    0    0    0    0 -0.00000000000E+00 -0.00000000000E+00 -0.50000499739E+01  0.50000500000E+01  0.51100000000E-03 0. -1.
     100001    1    1    2    0    0  0.15390250875E-01  0.53548800527E-02 -0.15312345922E-01  0.50000500000E+01  0.50000000000E+01 0. -1.
     100001    1    1    2    0    0 -0.15390250875E-01 -0.53548800527E-02  0.15312345922E-01  0.50000500000E+01  0.50000000000E+01 0.  1.
</event>
<event>
 4    1  0.5040302E-001  0.5000050E+01  0.7818608E-02  0.2136455E+00
        -11   -1    0    0    0    0  0.00000000000E+00  0.00000000000E+00  0.50000499739E+01  0.50000500000E+01  0.51100000000E-03 0.  1.
         11   -1    0    0    0    0 -0.00000000000E+00 -0.00000000000E+00 -0.50000499739E+01  0.50000500000E+01  0.51100000000E-03 0. -1.
     100001    1    1    2    0    0  0.15316249005E-01 -0.13158804898E-02  0.16238333502E-01  0.50000500000E+01  0.50000000000E+01 0.  1.
     100001    1    1    2    0    0 -0.15316249005E-01  0.13158804898E-02 -0.16238333502E-01  0.50000500000E+01  0.50000000000E+01 0.  0.
</event>
<event>
 4    1  0.5040302E-001  0.5000050E+01  0.7818608E-02  0.2136455E+00
        -11   -1    0    0    0    0  0.00000000000E+00  0.00000000000E+00  0.50000499739E+01  0.50000500000E+01  0.51100000000E-03 0. -1.
         11   -1    0    0    0    0 -0.00000000000E+00 -0.00000000000E+00 -0.50000499739E+01  0.50000500000E+01  0.51100000000E-03 0.  1.
     100001    1    1    2    0    0  0.21878965024E-01 -0.38046946980E-02  0.26148972724E-02  0.50000500000E+01  0.50000000000E+01 0. -1.
     100001    1    1    2    0    0 -0.21878965024E-01  0.38046946980E-02 -0.26148972724E-02  0.50000500000E+01  0.50000000000E+01 0.  1.
</event>
<event>
 4    1  0.5040302E-001  0.5000050E+01  0.7818608E-02  0.2136455E+00
        -11   -1    0    0    0    0  0.00000000000E+00  0.00000000000E+00  0.50000499739E+01  0.50000500000E+01  0.51100000000E-03 0. -1.
         11   -1    0    0    0    0 -0.00000000000E+00 -0.00000000000E+00 -0.50000499739E+01  0.50000500000E+01  0.51100000000E-03 0.  1.
     100001    1    1    2    0    0 -0.20631761505E-02  0.14063550397E-01  0.17261586091E-01  0.50000500000E+01  0.50000000000E+01 0.  1.
     100001    1    1    2    0    0  0.20631761505E-02 -0.14063550397E-01 -0.17261586091E-01  0.50000500000E+01  0.50000000000E+01 0.  0.
</event>
<event>
 4    1  0.5040302E-001  0.5000050E+01  0.7818608E-02  0.2136455E+00
        -11   -1    0    0    0    0  0.00000000000E+00  0.00000000000E+00  0.50000499739E+01  0.50000500000E+01  0.51100000000E-03 0. -1.
         11   -1    0    0    0    0 -0.00000000000E+00 -0.00000000000E+00 -0.50000499739E+01  0.50000500000E+01  0.51100000000E-03 0.  1.
     100001    1    1    2    0    0 -0.14526624598E-01 -0.47613682599E-02 -0.16318978218E-01  0.50000500000E+01  0.50000000000E+01 0.  1.
     100001    1    1    2    0    0  0.14526624598E-01  0.47613682599E-02  0.16318978218E-01  0.50000500000E+01  0.50000000000E+01 0.  1.
</event>
<event>
 4    1  0.5040302E-001  0.5000050E+01  0.7818608E-02  0.2136455E+00
        -11   -1    0    0    0    0  0.00000000000E+00  0.00000000000E+00  0.50000499739E+01  0.50000500000E+01  0.51100000000E-03 0.  1.
         11   -1    0    0    0    0 -0.00000000000E+00 -0.00000000000E+00 -0.50000499739E+01  0.50000500000E+01  0.51100000000E-03 0. -1.
     100001    1    1    2    0    0 -0.17460153139E-01 -0.69339366124E-02  0.12127080251E-01  0.50000500000E+01  0.50000000000E+01 0.  0.
     100001    1    1    2    0    0  0.17460153139E-01  0.69339366124E-02 -0.12127080251E-01  0.50000500000E+01  0.50000000000E+01 0.  0.
</event>
<event>
 4    1  0.5040302E-001  0.5000050E+01  0.7818608E-02  0.2136455E+00
        -11   -1    0    0    0    0  0.00000000000E+00  0.00000000000E+00  0.50000499739E+01  0.50000500000E+01  0.51100000000E-03 0. -1.
         11   -1    0    0    0    0 -0.00000000000E+00 -0.00000000000E+00 -0.50000499739E+01  0.50000500000E+01  0.51100000000E-03 0.  1.
     100001    1    1    2    0    0 -0.10795536523E-01  0.13178396796E-01 -0.14484086062E-01  0.50000500000E+01  0.50000000000E+01 0.  0.
     100001    1    1    2    0    0  0.10795536523E-01 -0.13178396796E-01  0.14484086062E-01  0.50000500000E+01  0.50000000000E+01 0.  0.
</event>
<event>
 4    1  0.5040302E-001  0.5000050E+01  0.7818608E-02  0.2136455E+00
        -11   -1    0    0    0    0  0.00000000000E+00  0.00000000000E+00  0.50000499739E+01  0.50000500000E+01  0.51100000000E-03 0. -1.
         11   -1    0    0    0    0 -0.00000000000E+00 -0.00000000000E+00 -0.50000499739E+01  0.50000500000E+01  0.51100000000E-03 0.  1.
     100001    1    1    2    0    0 -0.16627971703E-01 -0.14760544135E-01  0.23747408022E-02  0.50000500000E+01  0.50000000000E+01 0. -1.
     100001    1    1    2    0    0  0.16627971703E-01  0.14760544135E-01 -0.23747408022E-02  0.50000500000E+01  0.50000000000E+01 0.  1.
</event>
<event>
 4    1  0.5040302E-001  0.5000050E+01  0.7818608E-02  0.2136455E+00
        -11   -1    0    0    0    0  0.00000000000E+00  0.00000000000E+00  0.50000499739E+01  0.50000500000E+01  0.51100000000E-03 0. -1.
         11   -1    0    0    0    0 -0.00000000000E+00 -0.00000000000E+00 -0.50000499739E+01  0.50000500000E+01  0.51100000000E-03 0.  1.
     100001    1    1    2    0    0  0.17289214518E-02  0.15507817530E-01 -0.16016270667E-01  0.50000500000E+01  0.50000000000E+01 0.  0.
     100001    1    1    2    0    0 -0.17289214518E-02 -0.15507817530E-01  0.16016270667E-01  0.50000500000E+01  0.50000000000E+01 0.  0.
</event>
<event>
 4    1  0.5040302E-001  0.5000050E+01  0.7818608E-02  0.2136455E+00
        -11   -1    0    0    0    0  0.00000000000E+00  0.00000000000E+00  0.50000499739E+01  0.50000500000E+01  0.51100000000E-03 0. -1.
         11   -1    0    0    0    0 -0.00000000000E+00 -0.00000000000E+00 -0.50000499739E+01  0.50000500000E+01  0.51100000000E-03 0.  1.
     100001    1    1    2    0    0  0.29351247557E-02 -0.12168745251E-01 -0.18528604418E-01  0.50000500000E+01  0.50000000000E+01 0.  1.
     100001    1    1    2    0    0 -0.29351247557E-02  0.12168745251E-01  0.18528604418E-01  0.50000500000E+01  0.50000000000E+01 0.  0.
</event>
<event>
 4    1  0.5040302E-001  0.5000050E+01  0.7818608E-02  0.2136455E+00
        -11   -1    0    0    0    0  0.00000000000E+00  0.00000000000E+00  0.50000499739E+01  0.50000500000E+01  0.51100000000E-03 0. -1.
         11   -1    0    0    0    0 -0.00000000000E+00 -0.00000000000E+00 -0.50000499739E+01  0.50000500000E+01  0.51100000000E-03 0.  1.
     100001    1    1    2    0    0 -0.46832688654E-02  0.18013478578E-01 -0.12392904512E-01  0.50000500000E+01  0.50000000000E+01 0.  1.
     100001    1    1    2    0    0  0.46832688654E-02 -0.18013478578E-01  0.12392904512E-01  0.50000500000E+01  0.50000000000E+01 0. -1.
</event>
<event>
 4    1  0.5040302E-001  0.5000050E+01  0.7818608E-02  0.2136455E+00
        -11   -1    0    0    0    0  0.00000000000E+00  0.00000000000E+00  0.50000499739E+01  0.50000500000E+01  0.51100000000E-03 0. -1.
         11   -1    0    0    0    0 -0.00000000000E+00 -0.00000000000E+00 -0.50000499739E+01  0.50000500000E+01  0.51100000000E-03 0.  1.
     100001    1    1    2    0    0 -0.19675640868E-01  0.60971902016E-02  0.87003406883E-02  0.50000500000E+01  0.50000000000E+01 0. -1.
     100001    1    1    2    0    0  0.19675640868E-01 -0.60971902016E-02 -0.87003406883E-02  0.50000500000E+01  0.50000000000E+01 0.  1.
</event>
<event>
 4    1  0.5040302E-001  0.5000050E+01  0.7818608E-02  0.2136455E+00
        -11   -1    0    0    0    0  0.00000000000E+00  0.00000000000E+00  0.50000499739E+01  0.50000500000E+01  0.51100000000E-03 0. -1.
         11   -1    0    0    0    0 -0.00000000000E+00 -0.00000000000E+00 -0.50000499739E+01  0.50000500000E+01  0.51100000000E-03 0.  1.
     100001    1    1    2    0    0 -0.13715369852E-01 -0.14101899171E-01 -0.10631442497E-01  0.50000500000E+01  0.50000000000E+01 0.  0.
     100001    1    1    2    0    0  0.13715369852E-01  0.14101899171E-01  0.10631442497E-01  0.50000500000E+01  0.50000000000E+01 0.  1.
</event>
<event>
 4    1  0.5040302E-001  0.5000050E+01  0.7818608E-02  0.2136455E+00
        -11   -1    0    0    0    0  0.00000000000E+00  0.00000000000E+00  0.50000499739E+01  0.50000500000E+01  0.51100000000E-03 0. -1.
         11   -1    0    0    0    0 -0.00000000000E+00 -0.00000000000E+00 -0.50000499739E+01  0.50000500000E+01  0.51100000000E-03 0.  1.
     100001    1    1    2    0    0  0.46984187469E-02  0.18059056693E-01 -0.12320626308E-01  0.50000500000E+01  0.50000000000E+01 0.  1.
     100001    1    1    2    0    0 -0.46984187469E-02 -0.18059056693E-01  0.12320626308E-01  0.50000500000E+01  0.50000000000E+01 0. -1.
</event>
<event>
 4    1  0.5040302E-001  0.5000050E+01  0.7818608E-02  0.2136455E+00
        -11   -1    0    0    0    0  0.00000000000E+00  0.00000000000E+00  0.50000499739E+01  0.50000500000E+01  0.51100000000E-03 0.  1.
         11   -1    0    0    0    0 -0.00000000000E+00 -0.00000000000E+00 -0.50000499739E+01  0.50000500000E+01  0.51100000000E-03 0. -1.
     100001    1    1    2    0    0 -0.40112000742E-02 -0.19691584878E-01 -0.98058278054E-02  0.50000500000E+01  0.50000000000E+01 0. -1.
     100001    1    1    2    0    0  0.40112000742E-02  0.19691584878E-01  0.98058278054E-02  0.50000500000E+01  0.50000000000E+01 0.  1.
</event>
<event>
 4    1  0.5040302E-001  0.5000050E+01  0.7818608E-02  0.2136455E+00
        -11   -1    0    0    0    0  0.00000000000E+00  0.00000000000E+00  0.50000499739E+01  0.50000500000E+01  0.51100000000E-03 0. -1.
         11   -1    0    0    0    0 -0.00000000000E+00 -0.00000000000E+00 -0.50000499739E+01  0.50000500000E+01  0.51100000000E-03 0.  1.
     100001    1    1    2    0    0  0.52554284273E-02 -0.86122930400E-02  0.19955234417E-01  0.50000500000E+01  0.50000000000E+01 0. -1.
     100001    1    1    2    0    0 -0.52554284273E-02  0.86122930400E-02 -0.19955234417E-01  0.50000500000E+01  0.50000000000E+01 0. -1.
</event>
<event>
 4    1  0.5040302E-001  0.5000050E+01  0.7818608E-02  0.2136455E+00
        -11   -1    0    0    0    0  0.00000000000E+00  0.00000000000E+00  0.50000499739E+01  0.50000500000E+01  0.51100000000E-03 0.  1.
         11   -1    0    0    0    0 -0.00000000000E+00 -0.00000000000E+00 -0.50000499739E+01  0.50000500000E+01  0.51100000000E-03 0. -1.
     100001    1    1    2    0    0 -0.13967980039E-01  0.66930866232E-02  0.16127635446E-01  0.50000500000E+01  0.50000000000E+01 0.  1.
     100001    1    1    2    0    0  0.13967980039E-01 -0.66930866232E-02 -0.16127635446E-01  0.50000500000E+01  0.50000000000E+01 0. -1.
</event>
<event>
 4    1  0.5040302E-001  0.5000050E+01  0.7818608E-02  0.2136455E+00
        -11   -1    0    0    0    0  0.00000000000E+00  0.00000000000E+00  0.50000499739E+01  0.50000500000E+01  0.51100000000E-03 0.  1.
         11   -1    0    0    0    0 -0.00000000000E+00 -0.00000000000E+00 -0.50000499739E+01  0.50000500000E+01  0.51100000000E-03 0. -1.
     100001    1    1    2    0    0 -0.62983439424E-02 -0.21442315514E-01  0.74864476753E-03  0.50000500000E+01  0.50000000000E+01 0.  1.
     100001    1    1    2    0    0  0.62983439424E-02  0.21442315514E-01 -0.74864476753E-03  0.50000500000E+01  0.50000000000E+01 0.  0.
</event>
<event>
 4    1  0.5040302E-001  0.5000050E+01  0.7818608E-02  0.2136455E+00
        -11   -1    0    0    0    0  0.00000000000E+00  0.00000000000E+00  0.50000499739E+01  0.50000500000E+01  0.51100000000E-03 0. -1.
         11   -1    0    0    0    0 -0.00000000000E+00 -0.00000000000E+00 -0.50000499739E+01  0.50000500000E+01  0.51100000000E-03 0.  1.
     100001    1    1    2    0    0 -0.19441352723E-01 -0.31437798715E-02  0.10590229101E-01  0.50000500000E+01  0.50000000000E+01 0.  0.
     100001    1    1    2    0    0  0.19441352723E-01  0.31437798715E-02 -0.10590229101E-01  0.50000500000E+01  0.50000000000E+01 0.  0.
</event>
<event>
 4    1  0.5040302E-001  0.5000050E+01  0.7818608E-02  0.2136455E+00
        -11   -1    0    0    0    0  0.00000000000E+00  0.00000000000E+00  0.50000499739E+01  0.50000500000E+01  0.51100000000E-03 0.  1.
         11   -1    0    0    0    0 -0.00000000000E+00 -0.00000000000E+00 -0.50000499739E+01  0.50000500000E+01  0.51100000000E-03 0. -1.
     100001    1    1    2    0    0  0.16202410352E-01  0.37381011931E-02 -0.14950284220E-01  0.50000500000E+01  0.50000000000E+01 0.  0.
     100001    1    1    2    0    0 -0.16202410352E-01 -0.37381011931E-02  0.14950284220E-01  0.50000500000E+01  0.50000000000E+01 0. -1.
</event>
<event>
 4    1  0.5040302E-001  0.5000050E+01  0.7818608E-02  0.2136455E+00
        -11   -1    0    0    0    0  0.00000000000E+00  0.00000000000E+00  0.50000499739E+01  0.50000500000E+01  0.51100000000E-03 0. -1.
         11   -1    0    0    0    0 -0.00000000000E+00 -0.00000000000E+00 -0.50000499739E+01  0.50000500000E+01  0.51100000000E-03 0.  1.
     100001    1    1    2    0    0  0.14457000754E-01  0.14890860029E-01  0.83222543094E-02  0.50000500000E+01  0.50000000000E+01 0.  0.
     100001    1    1    2    0    0 -0.14457000754E-01 -0.14890860029E-01 -0.83222543094E-02  0.50000500000E+01  0.50000000000E+01 0. -1.
</event>
<event>
 4    1  0.5040302E-001  0.5000050E+01  0.7818608E-02  0.2136455E+00
        -11   -1    0    0    0    0  0.00000000000E+00  0.00000000000E+00  0.50000499739E+01  0.50000500000E+01  0.51100000000E-03 0. -1.
         11   -1    0    0    0    0 -0.00000000000E+00 -0.00000000000E+00 -0.50000499739E+01  0.50000500000E+01  0.51100000000E-03 0.  1.
     100001    1    1    2    0    0  0.12103586377E-01  0.18727206462E-01 -0.16725534195E-02  0.50000500000E+01  0.50000000000E+01 0.  1.
     100001    1    1    2    0    0 -0.12103586377E-01 -0.18727206462E-01  0.16725534195E-02  0.50000500000E+01  0.50000000000E+01 0. -1.
</event>
<event>
 4    1  0.5040302E-001  0.5000050E+01  0.7818608E-02  0.2136455E+00
        -11   -1    0    0    0    0  0.00000000000E+00  0.00000000000E+00  0.50000499739E+01  0.50000500000E+01  0.51100000000E-03 0. -1.
         11   -1    0    0    0    0 -0.00000000000E+00 -0.00000000000E+00 -0.50000499739E+01  0.50000500000E+01  0.51100000000E-03 0.  1.
     100001    1    1    2    0    0 -0.15155739483E-01  0.27622815189E-02  0.16207278042E-01  0.50000500000E+01  0.50000000000E+01 0.  0.
     100001    1    1    2    0    0  0.15155739483E-01 -0.27622815189E-02 -0.16207278042E-01  0.50000500000E+01  0.50000000000E+01 0.  0.
</event>
<event>
 4    1  0.5040302E-001  0.5000050E+01  0.7818608E-02  0.2136455E+00
        -11   -1    0    0    0    0  0.00000000000E+00  0.00000000000E+00  0.50000499739E+01  0.50000500000E+01  0.51100000000E-03 0.  1.
         11   -1    0    0    0    0 -0.00000000000E+00 -0.00000000000E+00 -0.50000499739E+01  0.50000500000E+01  0.51100000000E-03 0. -1.
     100001    1    1    2    0    0 -0.71016107017E-02  0.96712667644E-02 -0.18868922190E-01  0.50000500000E+01  0.50000000000E+01 0. -1.
     100001    1    1    2    0    0  0.71016107017E-02 -0.96712667644E-02  0.18868922190E-01  0.50000500000E+01  0.50000000000E+01 0.  0.
</event>
<event>
 4    1  0.5040302E-001  0.5000050E+01  0.7818608E-02  0.2136455E+00
        -11   -1    0    0    0    0  0.00000000000E+00  0.00000000000E+00  0.50000499739E+01  0.50000500000E+01  0.51100000000E-03 0.  1.
         11   -1    0    0    0    0 -0.00000000000E+00 -0.00000000000E+00 -0.50000499739E+01  0.50000500000E+01  0.51100000000E-03 0. -1.
     100001    1    1    2    0    0  0.20800747515E-01  0.74862313264E-02  0.33597237005E-02  0.50000500000E+01  0.50000000000E+01 0.  1.
     100001    1    1    2    0    0 -0.20800747515E-01 -0.74862313264E-02 -0.33597237005E-02  0.50000500000E+01  0.50000000000E+01 0.  0.
</event>
<event>
 4    1  0.5040302E-001  0.5000050E+01  0.7818608E-02  0.2136455E+00
        -11   -1    0    0    0    0  0.00000000000E+00  0.00000000000E+00  0.50000499739E+01  0.50000500000E+01  0.51100000000E-03 0. -1.
         11   -1    0    0    0    0 -0.00000000000E+00 -0.00000000000E+00 -0.50000499739E+01  0.50000500000E+01  0.51100000000E-03 0.  1.
     100001    1    1    2    0    0  0.50967918775E-02 -0.20214653841E-01 -0.80865927699E-02  0.50000500000E+01  0.50000000000E+01 0.  1.
     100001    1    1    2    0    0 -0.50967918775E-02  0.20214653841E-01  0.80865927699E-02  0.50000500000E+01  0.50000000000E+01 0. -1.
</event>
<event>
 4    1  0.5040302E-001  0.5000050E+01  0.7818608E-02  0.2136455E+00
        -11   -1    0    0    0    0  0.00000000000E+00  0.00000000000E+00  0.50000499739E+01  0.50000500000E+01  0.51100000000E-03 0.  1.
         11   -1    0    0    0    0 -0.00000000000E+00 -0.00000000000E+00 -0.50000499739E+01  0.50000500000E+01  0.51100000000E-03 0. -1.
     100001    1    1    2    0    0 -0.73667042164E-02  0.68547107371E-02  0.19968653177E-01  0.50000500000E+01  0.50000000000E+01 0.  0.
     100001    1    1    2    0    0  0.73667042164E-02 -0.68547107371E-02 -0.19968653177E-01  0.50000500000E+01  0.50000000000E+01 0. -1.
</event>
<event>
 4    1  0.5040302E-001  0.5000050E+01  0.7818608E-02  0.2136455E+00
        -11   -1    0    0    0    0  0.00000000000E+00  0.00000000000E+00  0.50000499739E+01  0.50000500000E+01  0.51100000000E-03 0.  1.
         11   -1    0    0    0    0 -0.00000000000E+00 -0.00000000000E+00 -0.50000499739E+01  0.50000500000E+01  0.51100000000E-03 0. -1.
     100001    1    1    2    0    0 -0.97079484830E-02 -0.17136408569E-01  0.10587810804E-01  0.50000500000E+01  0.50000000000E+01 0.  0.
     100001    1    1    2    0    0  0.97079484830E-02  0.17136408569E-01 -0.10587810804E-01  0.50000500000E+01  0.50000000000E+01 0.  1.
</event>
<event>
 4    1  0.5040302E-001  0.5000050E+01  0.7818608E-02  0.2136455E+00
        -11   -1    0    0    0    0  0.00000000000E+00  0.00000000000E+00  0.50000499739E+01  0.50000500000E+01  0.51100000000E-03 0. -1.
         11   -1    0    0    0    0 -0.00000000000E+00 -0.00000000000E+00 -0.50000499739E+01  0.50000500000E+01  0.51100000000E-03 0.  1.
     100001    1    1    2    0    0 -0.17285795855E-01  0.11049354622E-01 -0.88946907819E-02  0.50000500000E+01  0.50000000000E+01 0.  1.
     100001    1    1    2    0    0  0.17285795855E-01 -0.11049354622E-01  0.88946907819E-02  0.50000500000E+01  0.50000000000E+01 0. -1.
</event>
<event>
 4    1  0.5040302E-001  0.5000050E+01  0.7818608E-02  0.2136455E+00
        -11   -1    0    0    0    0  0.00000000000E+00  0.00000000000E+00  0.50000499739E+01  0.50000500000E+01  0.51100000000E-03 0.  1.
         11   -1    0    0    0    0 -0.00000000000E+00 -0.00000000000E+00 -0.50000499739E+01  0.50000500000E+01  0.51100000000E-03 0. -1.
     100001    1    1    2    0    0  0.42552941718E-02  0.49111260804E-03 -0.21946612037E-01  0.50000500000E+01  0.50000000000E+01 0. -1.
     100001    1    1    2    0    0 -0.42552941718E-02 -0.49111260804E-03  0.21946612037E-01  0.50000500000E+01  0.50000000000E+01 0.  0.
</event>
<event>
 4    1  0.5040302E-001  0.5000050E+01  0.7818608E-02  0.2136455E+00
        -11   -1    0    0    0    0  0.00000000000E+00  0.00000000000E+00  0.50000499739E+01  0.50000500000E+01  0.51100000000E-03 0. -1.
         11   -1    0    0    0    0 -0.00000000000E+00 -0.00000000000E+00 -0.50000499739E+01  0.50000500000E+01  0.51100000000E-03 0.  1.
     100001    1    1    2    0    0  0.43841527986E-02 -0.19855090414E-01 -0.93036062309E-02  0.50000500000E+01  0.50000000000E+01 0.  0.
     100001    1    1    2    0    0 -0.43841527986E-02  0.19855090414E-01  0.93036062309E-02  0.50000500000E+01  0.50000000000E+01 0.  1.
</event>
<event>
 4    1  0.5040302E-001  0.5000050E+01  0.7818608E-02  0.2136455E+00
        -11   -1    0    0    0    0  0.00000000000E+00  0.00000000000E+00  0.50000499739E+01  0.50000500000E+01  0.51100000000E-03 0. -1.
         11   -1    0    0    0    0 -0.00000000000E+00 -0.00000000000E+00 -0.50000499739E+01  0.50000500000E+01  0.51100000000E-03 0.  1.
     100001    1    1    2    0    0 -0.57585271086E-03  0.71581968907E-02 -0.21176192078E-01  0.50000500000E+01  0.50000000000E+01 0.  1.
     100001    1    1    2    0    0  0.57585271086E-03 -0.71581968907E-02  0.21176192078E-01  0.50000500000E+01  0.50000000000E+01 0. -1.
</event>
<event>
 4    1  0.5040302E-001  0.5000050E+01  0.7818608E-02  0.2136455E+00
        -11   -1    0    0    0    0  0.00000000000E+00  0.00000000000E+00  0.50000499739E+01  0.50000500000E+01  0.51100000000E-03 0. -1.
         11   -1    0    0    0    0 -0.00000000000E+00 -0.00000000000E+00 -0.50000499739E+01  0.50000500000E+01  0.51100000000E-03 0.  1.
     100001    1    1    2    0    0  0.35559718336E-02  0.14414919780E-01 -0.16720276674E-01  0.50000500000E+01  0.50000000000E+01 0.  1.
     100001    1    1    2    0    0 -0.35559718336E-02 -0.14414919780E-01  0.16720276674E-01  0.50000500000E+01  0.50000000000E+01 0. -1.
</event>
<event>
 4    1  0.5040302E-001  0.5000050E+01  0.7818608E-02  0.2136455E+00
        -11   -1    0    0    0    0  0.00000000000E+00  0.00000000000E+00  0.50000499739E+01  0.50000500000E+01  0.51100000000E-03 0.  1.
         11   -1    0    0    0    0 -0.00000000000E+00 -0.00000000000E+00 -0.50000499739E+01  0.50000500000E+01  0.51100000000E-03 0. -1.
     100001    1    1    2    0    0 -0.19034880414E-01  0.10753979431E-01  0.46933734176E-02  0.50000500000E+01  0.50000000000E+01 0.  0.
     100001    1    1    2    0    0  0.19034880414E-01 -0.10753979431E-01 -0.46933734176E-02  0.50000500000E+01  0.50000000000E+01 0.  1.
</event>
<event>
 4    1  0.5040302E-001  0.5000050E+01  0.7818608E-02  0.2136455E+00
        -11   -1    0    0    0    0  0.00000000000E+00  0.00000000000E+00  0.50000499739E+01  0.50000500000E+01  0.51100000000E-03 0. -1.
         11   -1    0    0    0    0 -0.00000000000E+00 -0.00000000000E+00 -0.50000499739E+01  0.50000500000E+01  0.51100000000E-03 0.  1.
     100001    1    1    2    0    0  0.20686002456E-01  0.65434329983E-02 -0.54106641906E-02  0.50000500000E+01  0.50000000000E+01 0. -1.
     100001    1    1    2    0    0 -0.20686002456E-01 -0.65434329983E-02  0.54106641906E-02  0.50000500000E+01  0.50000000000E+01 0.  0.
</event>
<event>
 4    1  0.5040302E-001  0.5000050E+01  0.7818608E-02  0.2136455E+00
        -11   -1    0    0    0    0  0.00000000000E+00  0.00000000000E+00  0.50000499739E+01  0.50000500000E+01  0.51100000000E-03 0. -1.
         11   -1    0    0    0    0 -0.00000000000E+00 -0.00000000000E+00 -0.50000499739E+01  0.50000500000E+01  0.51100000000E-03 0.  1.
     100001    1    1    2    0    0  0.93540061297E-02  0.19138522872E-01 -0.67986771960E-02  0.50000500000E+01  0.50000000000E+01 0.  1.
     100001    1    1    2    0    0 -0.93540061297E-02 -0.19138522872E-01  0.67986771960E-02  0.50000500000E+01  0.50000000000E+01 0. -1.
</event>
<event>
 4    1  0.5040302E-001  0.5000050E+01  0.7818608E-02  0.2136455E+00
        -11   -1    0    0    0    0  0.00000000000E+00  0.00000000000E+00  0.50000499739E+01  0.50000500000E+01  0.51100000000E-03 0.  1.
         11   -1    0    0    0    0 -0.00000000000E+00 -0.00000000000E+00 -0.50000499739E+01  0.50000500000E+01  0.51100000000E-03 0. -1.
     100001    1    1    2    0    0  0.19026976738E-01  0.38805753375E-02  0.11086829631E-01  0.50000500000E+01  0.50000000000E+01 0. -1.
     100001    1    1    2    0    0 -0.19026976738E-01 -0.38805753375E-02 -0.11086829631E-01  0.50000500000E+01  0.50000000000E+01 0.  1.
</event>
<event>
 4    1  0.5040302E-001  0.5000050E+01  0.7818608E-02  0.2136455E+00
        -11   -1    0    0    0    0  0.00000000000E+00  0.00000000000E+00  0.50000499739E+01  0.50000500000E+01  0.51100000000E-03 0.  1.
         11   -1    0    0    0    0 -0.00000000000E+00 -0.00000000000E+00 -0.50000499739E+01  0.50000500000E+01  0.51100000000E-03 0. -1.
     100001    1    1    2    0    0  0.19742697331E-01  0.10138199282E-01  0.27286108956E-02  0.50000500000E+01  0.50000000000E+01 0. -1.
     100001    1    1    2    0    0 -0.19742697331E-01 -0.10138199282E-01 -0.27286108956E-02  0.50000500000E+01  0.50000000000E+01 0.  1.
</event>
<event>
 4    1  0.5040302E-001  0.5000050E+01  0.7818608E-02  0.2136455E+00
        -11   -1    0    0    0    0  0.00000000000E+00  0.00000000000E+00  0.50000499739E+01  0.50000500000E+01  0.51100000000E-03 0. -1.
         11   -1    0    0    0    0 -0.00000000000E+00 -0.00000000000E+00 -0.50000499739E+01  0.50000500000E+01  0.51100000000E-03 0.  1.
     100001    1    1    2    0    0  0.47269835926E-02  0.67845560314E-02  0.20775657043E-01  0.50000500000E+01  0.50000000000E+01 0. -1.
     100001    1    1    2    0    0 -0.47269835926E-02 -0.67845560314E-02 -0.20775657043E-01  0.50000500000E+01  0.50000000000E+01 0.  0.
</event>
<event>
 4    1  0.5040302E-001  0.5000050E+01  0.7818608E-02  0.2136455E+00
        -11   -1    0    0    0    0  0.00000000000E+00  0.00000000000E+00  0.50000499739E+01  0.50000500000E+01  0.51100000000E-03 0.  1.
         11   -1    0    0    0    0 -0.00000000000E+00 -0.00000000000E+00 -0.50000499739E+01  0.50000500000E+01  0.51100000000E-03 0. -1.
     100001    1    1    2    0    0 -0.18085305624E-01  0.12547046672E-01  0.39364756166E-02  0.50000500000E+01  0.50000000000E+01 0. -1.
     100001    1    1    2    0    0  0.18085305624E-01 -0.12547046672E-01 -0.39364756166E-02  0.50000500000E+01  0.50000000000E+01 0.  1.
</event>
<event>
 4    1  0.5040302E-001  0.5000050E+01  0.7818608E-02  0.2136455E+00
        -11   -1    0    0    0    0  0.00000000000E+00  0.00000000000E+00  0.50000499739E+01  0.50000500000E+01  0.51100000000E-03 0. -1.
         11   -1    0    0    0    0 -0.00000000000E+00 -0.00000000000E+00 -0.50000499739E+01  0.50000500000E+01  0.51100000000E-03 0.  1.
     100001    1    1    2    0    0  0.50071870071E-02 -0.18278707512E-01  0.11866736281E-01  0.50000500000E+01  0.50000000000E+01 0. -1.
     100001    1    1    2    0    0 -0.50071870071E-02  0.18278707512E-01 -0.11866736281E-01  0.50000500000E+01  0.50000000000E+01 0.  1.
</event>
<event>
 4    1  0.5040302E-001  0.5000050E+01  0.7818608E-02  0.2136455E+00
        -11   -1    0    0    0    0  0.00000000000E+00  0.00000000000E+00  0.50000499739E+01  0.50000500000E+01  0.51100000000E-03 0.  1.
         11   -1    0    0    0    0 -0.00000000000E+00 -0.00000000000E+00 -0.50000499739E+01  0.50000500000E+01  0.51100000000E-03 0. -1.
     100001    1    1    2    0    0 -0.22028160673E-03  0.14523880938E-01  0.17000319365E-01  0.50000500000E+01  0.50000000000E+01 0.  0.
     100001    1    1    2    0    0  0.22028160673E-03 -0.14523880938E-01 -0.17000319365E-01  0.50000500000E+01  0.50000000000E+01 0.  0.
</event>
<event>
 4    1  0.5040302E-001  0.5000050E+01  0.7818608E-02  0.2136455E+00
        -11   -1    0    0    0    0  0.00000000000E+00  0.00000000000E+00  0.50000499739E+01  0.50000500000E+01  0.51100000000E-03 0.  1.
         11   -1    0    0    0    0 -0.00000000000E+00 -0.00000000000E+00 -0.50000499739E+01  0.50000500000E+01  0.51100000000E-03 0. -1.
     100001    1    1    2    0    0  0.16953063693E-01 -0.10853952756E-01  0.97359047343E-02  0.50000500000E+01  0.50000000000E+01 0.  0.
     100001    1    1    2    0    0 -0.16953063693E-01  0.10853952756E-01 -0.97359047343E-02  0.50000500000E+01  0.50000000000E+01 0.  0.
</event>
<event>
 4    1  0.5040302E-001  0.5000050E+01  0.7818608E-02  0.2136455E+00
        -11   -1    0    0    0    0  0.00000000000E+00  0.00000000000E+00  0.50000499739E+01  0.50000500000E+01  0.51100000000E-03 0. -1.
         11   -1    0    0    0    0 -0.00000000000E+00 -0.00000000000E+00 -0.50000499739E+01  0.50000500000E+01  0.51100000000E-03 0.  1.
     100001    1    1    2    0    0 -0.17937764225E-01 -0.11576800292E-01 -0.66495721369E-02  0.50000500000E+01  0.50000000000E+01 0.  1.
     100001    1    1    2    0    0  0.17937764225E-01  0.11576800292E-01  0.66495721369E-02  0.50000500000E+01  0.50000000000E+01 0. -1.
</event>
<event>
 4    1  0.5040302E-001  0.5000050E+01  0.7818608E-02  0.2136455E+00
        -11   -1    0    0    0    0  0.00000000000E+00  0.00000000000E+00  0.50000499739E+01  0.50000500000E+01  0.51100000000E-03 0.  1.
         11   -1    0    0    0    0 -0.00000000000E+00 -0.00000000000E+00 -0.50000499739E+01  0.50000500000E+01  0.51100000000E-03 0. -1.
     100001    1    1    2    0    0  0.24793789587E-02 -0.19669131700E-01 -0.10343134831E-01  0.50000500000E+01  0.50000000000E+01 0.  1.
     100001    1    1    2    0    0 -0.24793789587E-02  0.19669131700E-01  0.10343134831E-01  0.50000500000E+01  0.50000000000E+01 0.  0.
</event>
<event>
 4    1  0.5040302E-001  0.5000050E+01  0.7818608E-02  0.2136455E+00
        -11   -1    0    0    0    0  0.00000000000E+00  0.00000000000E+00  0.50000499739E+01  0.50000500000E+01  0.51100000000E-03 0.  1.
         11   -1    0    0    0    0 -0.00000000000E+00 -0.00000000000E+00 -0.50000499739E+01  0.50000500000E+01  0.51100000000E-03 0. -1.
     100001    1    1    2    0    0  0.19447216270E-01 -0.85041753096E-02  0.70347197276E-02  0.50000500000E+01  0.50000000000E+01 0.  0.
     100001    1    1    2    0    0 -0.19447216270E-01  0.85041753096E-02 -0.70347197276E-02  0.50000500000E+01  0.50000000000E+01 0.  0.
</event>
<event>
 4    1  0.5040302E-001  0.5000050E+01  0.7818608E-02  0.2136455E+00
        -11   -1    0    0    0    0  0.00000000000E+00  0.00000000000E+00  0.50000499739E+01  0.50000500000E+01  0.51100000000E-03 0.  1.
         11   -1    0    0    0    0 -0.00000000000E+00 -0.00000000000E+00 -0.50000499739E+01  0.50000500000E+01  0.51100000000E-03 0. -1.
     100001    1    1    2    0    0 -0.86889490801E-02 -0.20329430513E-01 -0.33494654617E-02  0.50000500000E+01  0.50000000000E+01 0.  1.
     100001    1    1    2    0    0  0.86889490801E-02  0.20329430513E-01  0.33494654617E-02  0.50000500000E+01  0.50000000000E+01 0.  0.
</event>
<event>
 4    1  0.5040302E-001  0.5000050E+01  0.7818608E-02  0.2136455E+00
        -11   -1    0    0    0    0  0.00000000000E+00  0.00000000000E+00  0.50000499739E+01  0.50000500000E+01  0.51100000000E-03 0.  1.
         11   -1    0    0    0    0 -0.00000000000E+00 -0.00000000000E+00 -0.50000499739E+01  0.50000500000E+01  0.51100000000E-03 0. -1.
     100001    1    1    2    0    0 -0.31854914672E-02  0.20969933610E-02  0.22033106067E-01  0.50000500000E+01  0.50000000000E+01 0.  1.
     100001    1    1    2    0    0  0.31854914672E-02 -0.20969933610E-02 -0.22033106067E-01  0.50000500000E+01  0.50000000000E+01 0.  0.
</event>
<event>
 4    1  0.5040302E-001  0.5000050E+01  0.7818608E-02  0.2136455E+00
        -11   -1    0    0    0    0  0.00000000000E+00  0.00000000000E+00  0.50000499739E+01  0.50000500000E+01  0.51100000000E-03 0. -1.
         11   -1    0    0    0    0 -0.00000000000E+00 -0.00000000000E+00 -0.50000499739E+01  0.50000500000E+01  0.51100000000E-03 0.  1.
     100001    1    1    2    0    0  0.48631564095E-02  0.13396698143E-01  0.17230226017E-01  0.50000500000E+01  0.50000000000E+01 0. -1.
     100001    1    1    2    0    0 -0.48631564095E-02 -0.13396698143E-01 -0.17230226017E-01  0.50000500000E+01  0.50000000000E+01 0.  1.
</event>
<event>
 4    1  0.5040302E-001  0.5000050E+01  0.7818608E-02  0.2136455E+00
        -11   -1    0    0    0    0  0.00000000000E+00  0.00000000000E+00  0.50000499739E+01  0.50000500000E+01  0.51100000000E-03 0.  1.
         11   -1    0    0    0    0 -0.00000000000E+00 -0.00000000000E+00 -0.50000499739E+01  0.50000500000E+01  0.51100000000E-03 0. -1.
     100001    1    1    2    0    0 -0.15735105775E-02  0.11266012300E-01  0.19251065719E-01  0.50000500000E+01  0.50000000000E+01 0.  0.
     100001    1    1    2    0    0  0.15735105775E-02 -0.11266012300E-01 -0.19251065719E-01  0.50000500000E+01  0.50000000000E+01 0. -1.
</event>
<event>
 4    1  0.5040302E-001  0.5000050E+01  0.7818608E-02  0.2136455E+00
        -11   -1    0    0    0    0  0.00000000000E+00  0.00000000000E+00  0.50000499739E+01  0.50000500000E+01  0.51100000000E-03 0. -1.
         11   -1    0    0    0    0 -0.00000000000E+00 -0.00000000000E+00 -0.50000499739E+01  0.50000500000E+01  0.51100000000E-03 0.  1.
     100001    1    1    2    0    0  0.65038575996E-03 -0.31970699004E-02 -0.22121443045E-01  0.50000500000E+01  0.50000000000E+01 0.  0.
     100001    1    1    2    0    0 -0.65038575996E-03  0.31970699004E-02  0.22121443045E-01  0.50000500000E+01  0.50000000000E+01 0. -1.
</event>
<event>
 4    1  0.5040302E-001  0.5000050E+01  0.7818608E-02  0.2136455E+00
        -11   -1    0    0    0    0  0.00000000000E+00  0.00000000000E+00  0.50000499739E+01  0.50000500000E+01  0.51100000000E-03 0. -1.
         11   -1    0    0    0    0 -0.00000000000E+00 -0.00000000000E+00 -0.50000499739E+01  0.50000500000E+01  0.51100000000E-03 0.  1.
     100001    1    1    2    0    0 -0.10203729114E-01 -0.74706072728E-02 -0.18441161546E-01  0.50000500000E+01  0.50000000000E+01 0. -1.
     100001    1    1    2    0    0  0.10203729114E-01  0.74706072728E-02  0.18441161546E-01  0.50000500000E+01  0.50000000000E+01 0.  0.
</event>
<event>
 4    1  0.5040302E-001  0.5000050E+01  0.7818608E-02  0.2136455E+00
        -11   -1    0    0    0    0  0.00000000000E+00  0.00000000000E+00  0.50000499739E+01  0.50000500000E+01  0.51100000000E-03 0. -1.
         11   -1    0    0    0    0 -0.00000000000E+00 -0.00000000000E+00 -0.50000499739E+01  0.50000500000E+01  0.51100000000E-03 0.  1.
     100001    1    1    2    0    0 -0.12282082255E-01 -0.21633189865E-02 -0.18559984010E-01  0.50000500000E+01  0.50000000000E+01 0.  0.
     100001    1    1    2    0    0  0.12282082255E-01  0.21633189865E-02  0.18559984010E-01  0.50000500000E+01  0.50000000000E+01 0.  0.
</event>
<event>
 4    1  0.5040302E-001  0.5000050E+01  0.7818608E-02  0.2136455E+00
        -11   -1    0    0    0    0  0.00000000000E+00  0.00000000000E+00  0.50000499739E+01  0.50000500000E+01  0.51100000000E-03 0. -1.
         11   -1    0    0    0    0 -0.00000000000E+00 -0.00000000000E+00 -0.50000499739E+01  0.50000500000E+01  0.51100000000E-03 0.  1.
     100001    1    1    2    0    0 -0.11123012992E-01 -0.15735416838E-01 -0.11343621067E-01  0.50000500000E+01  0.50000000000E+01 0.  0.
     100001    1    1    2    0    0  0.11123012992E-01  0.15735416838E-01  0.11343621067E-01  0.50000500000E+01  0.50000000000E+01 0.  0.
</event>
<event>
 4    1  0.5040302E-001  0.5000050E+01  0.7818608E-02  0.2136455E+00
        -11   -1    0    0    0    0  0.00000000000E+00  0.00000000000E+00  0.50000499739E+01  0.50000500000E+01  0.51100000000E-03 0. -1.
         11   -1    0    0    0    0 -0.00000000000E+00 -0.00000000000E+00 -0.50000499739E+01  0.50000500000E+01  0.51100000000E-03 0.  1.
     100001    1    1    2    0    0 -0.18412717962E-01  0.30078873409E-02  0.12325864310E-01  0.50000500000E+01  0.50000000000E+01 0.  0.
     100001    1    1    2    0    0  0.18412717962E-01 -0.30078873409E-02 -0.12325864310E-01  0.50000500000E+01  0.50000000000E+01 0.  0.
</event>
<event>
 4    1  0.5040302E-001  0.5000050E+01  0.7818608E-02  0.2136455E+00
        -11   -1    0    0    0    0  0.00000000000E+00  0.00000000000E+00  0.50000499739E+01  0.50000500000E+01  0.51100000000E-03 0. -1.
         11   -1    0    0    0    0 -0.00000000000E+00 -0.00000000000E+00 -0.50000499739E+01  0.50000500000E+01  0.51100000000E-03 0.  1.
     100001    1    1    2    0    0 -0.14772063970E-01  0.13701463418E-01 -0.96983775070E-02  0.50000500000E+01  0.50000000000E+01 0.  0.
     100001    1    1    2    0    0  0.14772063970E-01 -0.13701463418E-01  0.96983775070E-02  0.50000500000E+01  0.50000000000E+01 0.  0.
</event>
<event>
 4    1  0.5040302E-001  0.5000050E+01  0.7818608E-02  0.2136455E+00
        -11   -1    0    0    0    0  0.00000000000E+00  0.00000000000E+00  0.50000499739E+01  0.50000500000E+01  0.51100000000E-03 0. -1.
         11   -1    0    0    0    0 -0.00000000000E+00 -0.00000000000E+00 -0.50000499739E+01  0.50000500000E+01  0.51100000000E-03 0.  1.
     100001    1    1    2    0    0 -0.51660164291E-02  0.77729601604E-02  0.20319839187E-01  0.50000500000E+01  0.50000000000E+01 0. -1.
     100001    1    1    2    0    0  0.51660164291E-02 -0.77729601604E-02 -0.20319839187E-01  0.50000500000E+01  0.50000000000E+01 0.  0.
</event>
<event>
 4    1  0.5040302E-001  0.5000050E+01  0.7818608E-02  0.2136455E+00
        -11   -1    0    0    0    0  0.00000000000E+00  0.00000000000E+00  0.50000499739E+01  0.50000500000E+01  0.51100000000E-03 0.  1.
         11   -1    0    0    0    0 -0.00000000000E+00 -0.00000000000E+00 -0.50000499739E+01  0.50000500000E+01  0.51100000000E-03 0. -1.
     100001    1    1    2    0    0  0.82586800806E-02  0.81937014647E-02  0.19096071838E-01  0.50000500000E+01  0.50000000000E+01 0.  0.
     100001    1    1    2    0    0 -0.82586800806E-02 -0.81937014647E-02 -0.19096071838E-01  0.50000500000E+01  0.50000000000E+01 0.  0.
</event>
<event>
 4    1  0.5040302E-001  0.5000050E+01  0.7818608E-02  0.2136455E+00
        -11   -1    0    0    0    0  0.00000000000E+00  0.00000000000E+00  0.50000499739E+01  0.50000500000E+01  0.51100000000E-03 0.  1.
         11   -1    0    0    0    0 -0.00000000000E+00 -0.00000000000E+00 -0.50000499739E+01  0.50000500000E+01  0.51100000000E-03 0. -1.
     100001    1    1    2    0    0 -0.20538253391E-01  0.82829800106E-02 -0.30943318805E-02  0.50000500000E+01  0.50000000000E+01 0.  1.
     100001    1    1    2    0    0  0.20538253391E-01 -0.82829800106E-02  0.30943318805E-02  0.50000500000E+01  0.50000000000E+01 0. -1.
</event>
<event>
 4    1  0.5040302E-001  0.5000050E+01  0.7818608E-02  0.2136455E+00
        -11   -1    0    0    0    0  0.00000000000E+00  0.00000000000E+00  0.50000499739E+01  0.50000500000E+01  0.51100000000E-03 0. -1.
         11   -1    0    0    0    0 -0.00000000000E+00 -0.00000000000E+00 -0.50000499739E+01  0.50000500000E+01  0.51100000000E-03 0.  1.
     100001    1    1    2    0    0 -0.38412751997E-02 -0.18631819180E-01 -0.11751698552E-01  0.50000500000E+01  0.50000000000E+01 0.  1.
     100001    1    1    2    0    0  0.38412751997E-02  0.18631819180E-01  0.11751698552E-01  0.50000500000E+01  0.50000000000E+01 0. -1.
</event>
<event>
 4    1  0.5040302E-001  0.5000050E+01  0.7818608E-02  0.2136455E+00
        -11   -1    0    0    0    0  0.00000000000E+00  0.00000000000E+00  0.50000499739E+01  0.50000500000E+01  0.51100000000E-03 0. -1.
         11   -1    0    0    0    0 -0.00000000000E+00 -0.00000000000E+00 -0.50000499739E+01  0.50000500000E+01  0.51100000000E-03 0.  1.
     100001    1    1    2    0    0 -0.12167778890E-01 -0.57811727550E-02  0.17847288266E-01  0.50000500000E+01  0.50000000000E+01 0. -1.
     100001    1    1    2    0    0  0.12167778890E-01  0.57811727550E-02 -0.17847288266E-01  0.50000500000E+01  0.50000000000E+01 0.  0.
</event>
<event>
 4    1  0.5040302E-001  0.5000050E+01  0.7818608E-02  0.2136455E+00
        -11   -1    0    0    0    0  0.00000000000E+00  0.00000000000E+00  0.50000499739E+01  0.50000500000E+01  0.51100000000E-03 0.  1.
         11   -1    0    0    0    0 -0.00000000000E+00 -0.00000000000E+00 -0.50000499739E+01  0.50000500000E+01  0.51100000000E-03 0. -1.
     100001    1    1    2    0    0 -0.68627446088E-02  0.12605628655E-03 -0.21281197012E-01  0.50000500000E+01  0.50000000000E+01 0. -1.
     100001    1    1    2    0    0  0.68627446088E-02 -0.12605628655E-03  0.21281197012E-01  0.50000500000E+01  0.50000000000E+01 0.  0.
</event>
<event>
 4    1  0.5040302E-001  0.5000050E+01  0.7818608E-02  0.2136455E+00
        -11   -1    0    0    0    0  0.00000000000E+00  0.00000000000E+00  0.50000499739E+01  0.50000500000E+01  0.51100000000E-03 0.  1.
         11   -1    0    0    0    0 -0.00000000000E+00 -0.00000000000E+00 -0.50000499739E+01  0.50000500000E+01  0.51100000000E-03 0. -1.
     100001    1    1    2    0    0  0.13313873517E-01 -0.15762435518E-01  0.86191007950E-02  0.50000500000E+01  0.50000000000E+01 0.  1.
     100001    1    1    2    0    0 -0.13313873517E-01  0.15762435518E-01 -0.86191007950E-02  0.50000500000E+01  0.50000000000E+01 0. -1.
</event>
<event>
 4    1  0.5040302E-001  0.5000050E+01  0.7818608E-02  0.2136455E+00
        -11   -1    0    0    0    0  0.00000000000E+00  0.00000000000E+00  0.50000499739E+01  0.50000500000E+01  0.51100000000E-03 0.  1.
         11   -1    0    0    0    0 -0.00000000000E+00 -0.00000000000E+00 -0.50000499739E+01  0.50000500000E+01  0.51100000000E-03 0. -1.
     100001    1    1    2    0    0  0.79652564222E-03 -0.64457388793E-02 -0.21396740341E-01  0.50000500000E+01  0.50000000000E+01 0. -1.
     100001    1    1    2    0    0 -0.79652564222E-03  0.64457388793E-02  0.21396740341E-01  0.50000500000E+01  0.50000000000E+01 0.  0.
</event>
<event>
 4    1  0.5040302E-001  0.5000050E+01  0.7818608E-02  0.2136455E+00
        -11   -1    0    0    0    0  0.00000000000E+00  0.00000000000E+00  0.50000499739E+01  0.50000500000E+01  0.51100000000E-03 0. -1.
         11   -1    0    0    0    0 -0.00000000000E+00 -0.00000000000E+00 -0.50000499739E+01  0.50000500000E+01  0.51100000000E-03 0.  1.
     100001    1    1    2    0    0  0.48558618468E-02  0.50560088505E-02 -0.21233461334E-01  0.50000500000E+01  0.50000000000E+01 0.  0.
     100001    1    1    2    0    0 -0.48558618468E-02 -0.50560088505E-02  0.21233461334E-01  0.50000500000E+01  0.50000000000E+01 0. -1.
</event>
<event>
 4    1  0.5040302E-001  0.5000050E+01  0.7818608E-02  0.2136455E+00
        -11   -1    0    0    0    0  0.00000000000E+00  0.00000000000E+00  0.50000499739E+01  0.50000500000E+01  0.51100000000E-03 0.  1.
         11   -1    0    0    0    0 -0.00000000000E+00 -0.00000000000E+00 -0.50000499739E+01  0.50000500000E+01  0.51100000000E-03 0. -1.
     100001    1    1    2    0    0  0.10154218305E-01 -0.10682750630E-03  0.19921921054E-01  0.50000500000E+01  0.50000000000E+01 0.  0.
     100001    1    1    2    0    0 -0.10154218305E-01  0.10682750630E-03 -0.19921921054E-01  0.50000500000E+01  0.50000000000E+01 0.  0.
</event>
<event>
 4    1  0.5040302E-001  0.5000050E+01  0.7818608E-02  0.2136455E+00
        -11   -1    0    0    0    0  0.00000000000E+00  0.00000000000E+00  0.50000499739E+01  0.50000500000E+01  0.51100000000E-03 0. -1.
         11   -1    0    0    0    0 -0.00000000000E+00 -0.00000000000E+00 -0.50000499739E+01  0.50000500000E+01  0.51100000000E-03 0.  1.
     100001    1    1    2    0    0  0.26822184163E-02 -0.11025568939E-01 -0.19267719999E-01  0.50000500000E+01  0.50000000000E+01 0.  1.
     100001    1    1    2    0    0 -0.26822184163E-02  0.11025568939E-01  0.19267719999E-01  0.50000500000E+01  0.50000000000E+01 0.  0.
</event>
<event>
 4    1  0.5040302E-001  0.5000050E+01  0.7818608E-02  0.2136455E+00
        -11   -1    0    0    0    0  0.00000000000E+00  0.00000000000E+00  0.50000499739E+01  0.50000500000E+01  0.51100000000E-03 0. -1.
         11   -1    0    0    0    0 -0.00000000000E+00 -0.00000000000E+00 -0.50000499739E+01  0.50000500000E+01  0.51100000000E-03 0.  1.
     100001    1    1    2    0    0  0.38810540960E-02 -0.17995053916E-01  0.12693224714E-01  0.50000500000E+01  0.50000000000E+01 0.  1.
     100001    1    1    2    0    0 -0.38810540960E-02  0.17995053916E-01 -0.12693224714E-01  0.50000500000E+01  0.50000000000E+01 0.  0.
</event>
<event>
 4    1  0.5040302E-001  0.5000050E+01  0.7818608E-02  0.2136455E+00
        -11   -1    0    0    0    0  0.00000000000E+00  0.00000000000E+00  0.50000499739E+01  0.50000500000E+01  0.51100000000E-03 0.  1.
         11   -1    0    0    0    0 -0.00000000000E+00 -0.00000000000E+00 -0.50000499739E+01  0.50000500000E+01  0.51100000000E-03 0. -1.
     100001    1    1    2    0    0 -0.27239154111E-02  0.20883124079E-01  0.75151788747E-02  0.50000500000E+01  0.50000000000E+01 0.  0.
     100001    1    1    2    0    0  0.27239154111E-02 -0.20883124079E-01 -0.75151788747E-02  0.50000500000E+01  0.50000000000E+01 0.  0.
</event>
<event>
 4    1  0.5040302E-001  0.5000050E+01  0.7818608E-02  0.2136455E+00
        -11   -1    0    0    0    0  0.00000000000E+00  0.00000000000E+00  0.50000499739E+01  0.50000500000E+01  0.51100000000E-03 0.  1.
         11   -1    0    0    0    0 -0.00000000000E+00 -0.00000000000E+00 -0.50000499739E+01  0.50000500000E+01  0.51100000000E-03 0. -1.
     100001    1    1    2    0    0  0.41422145154E-02 -0.12325990035E-01  0.18191056279E-01  0.50000500000E+01  0.50000000000E+01 0.  0.
     100001    1    1    2    0    0 -0.41422145154E-02  0.12325990035E-01 -0.18191056279E-01  0.50000500000E+01  0.50000000000E+01 0.  1.
</event>
<event>
 4    1  0.5040302E-001  0.5000050E+01  0.7818608E-02  0.2136455E+00
        -11   -1    0    0    0    0  0.00000000000E+00  0.00000000000E+00  0.50000499739E+01  0.50000500000E+01  0.51100000000E-03 0.  1.
         11   -1    0    0    0    0 -0.00000000000E+00 -0.00000000000E+00 -0.50000499739E+01  0.50000500000E+01  0.51100000000E-03 0. -1.
     100001    1    1    2    0    0 -0.37031038178E-02  0.16527921631E-01 -0.14598538580E-01  0.50000500000E+01  0.50000000000E+01 0. -1.
     100001    1    1    2    0    0  0.37031038178E-02 -0.16527921631E-01  0.14598538580E-01  0.50000500000E+01  0.50000000000E+01 0. -1.
</event>
<event>
 4    1  0.5040302E-001  0.5000050E+01  0.7818608E-02  0.2136455E+00
        -11   -1    0    0    0    0  0.00000000000E+00  0.00000000000E+00  0.50000499739E+01  0.50000500000E+01  0.51100000000E-03 0.  1.
         11   -1    0    0    0    0 -0.00000000000E+00 -0.00000000000E+00 -0.50000499739E+01  0.50000500000E+01  0.51100000000E-03 0. -1.
     100001    1    1    2    0    0 -0.22216581413E-01 -0.25306016663E-02 -0.14854462644E-03  0.50000500000E+01  0.50000000000E+01 0.  0.
     100001    1    1    2    0    0  0.22216581413E-01  0.25306016663E-02  0.14854462644E-03  0.50000500000E+01  0.50000000000E+01 0.  1.
</event>
<event>
 4    1  0.5040302E-001  0.5000050E+01  0.7818608E-02  0.2136455E+00
        -11   -1    0    0    0    0  0.00000000000E+00  0.00000000000E+00  0.50000499739E+01  0.50000500000E+01  0.51100000000E-03 0.  1.
         11   -1    0    0    0    0 -0.00000000000E+00 -0.00000000000E+00 -0.50000499739E+01  0.50000500000E+01  0.51100000000E-03 0. -1.
     100001    1    1    2    0    0 -0.55985836565E-02  0.22936872222E-02 -0.21526666253E-01  0.50000500000E+01  0.50000000000E+01 0.  0.
     100001    1    1    2    0    0  0.55985836565E-02 -0.22936872222E-02  0.21526666253E-01  0.50000500000E+01  0.50000000000E+01 0.  1.
</event>
<event>
 4    1  0.5040302E-001  0.5000050E+01  0.7818608E-02  0.2136455E+00
        -11   -1    0    0    0    0  0.00000000000E+00  0.00000000000E+00  0.50000499739E+01  0.50000500000E+01  0.51100000000E-03 0. -1.
         11   -1    0    0    0    0 -0.00000000000E+00 -0.00000000000E+00 -0.50000499739E+01  0.50000500000E+01  0.51100000000E-03 0.  1.
     100001    1    1    2    0    0  0.14778789097E-01 -0.99341428948E-02  0.13524152386E-01  0.50000500000E+01  0.50000000000E+01 0.  0.
     100001    1    1    2    0    0 -0.14778789097E-01  0.99341428948E-02 -0.13524152386E-01  0.50000500000E+01  0.50000000000E+01 0. -1.
</event>
<event>
 4    1  0.5040302E-001  0.5000050E+01  0.7818608E-02  0.2136455E+00
        -11   -1    0    0    0    0  0.00000000000E+00  0.00000000000E+00  0.50000499739E+01  0.50000500000E+01  0.51100000000E-03 0. -1.
         11   -1    0    0    0    0 -0.00000000000E+00 -0.00000000000E+00 -0.50000499739E+01  0.50000500000E+01  0.51100000000E-03 0.  1.
     100001    1    1    2    0    0 -0.10886325984E-01  0.67753166704E-02  0.18318992619E-01  0.50000500000E+01  0.50000000000E+01 0. -1.
     100001    1    1    2    0    0  0.10886325984E-01 -0.67753166704E-02 -0.18318992619E-01  0.50000500000E+01  0.50000000000E+01 0.  0.
</event>
<event>
 4    1  0.5040302E-001  0.5000050E+01  0.7818608E-02  0.2136455E+00
        -11   -1    0    0    0    0  0.00000000000E+00  0.00000000000E+00  0.50000499739E+01  0.50000500000E+01  0.51100000000E-03 0. -1.
         11   -1    0    0    0    0 -0.00000000000E+00 -0.00000000000E+00 -0.50000499739E+01  0.50000500000E+01  0.51100000000E-03 0.  1.
     100001    1    1    2    0    0  0.54519998642E-02  0.20688457391E-01  0.65012251357E-02  0.50000500000E+01  0.50000000000E+01 0. -1.
     100001    1    1    2    0    0 -0.54519998642E-02 -0.20688457391E-01 -0.65012251357E-02  0.50000500000E+01  0.50000000000E+01 0.  1.
</event>
<event>
 4    1  0.5040302E-001  0.5000050E+01  0.7818608E-02  0.2136455E+00
        -11   -1    0    0    0    0  0.00000000000E+00  0.00000000000E+00  0.50000499739E+01  0.50000500000E+01  0.51100000000E-03 0. -1.
         11   -1    0    0    0    0 -0.00000000000E+00 -0.00000000000E+00 -0.50000499739E+01  0.50000500000E+01  0.51100000000E-03 0.  1.
     100001    1    1    2    0    0  0.63399709692E-02 -0.20759448487E-01 -0.53714585205E-02  0.50000500000E+01  0.50000000000E+01 0.  1.
     100001    1    1    2    0    0 -0.63399709692E-02  0.20759448487E-01  0.53714585205E-02  0.50000500000E+01  0.50000000000E+01 0.  0.
</event>
<event>
 4    1  0.5040302E-001  0.5000050E+01  0.7818608E-02  0.2136455E+00
        -11   -1    0    0    0    0  0.00000000000E+00  0.00000000000E+00  0.50000499739E+01  0.50000500000E+01  0.51100000000E-03 0.  1.
         11   -1    0    0    0    0 -0.00000000000E+00 -0.00000000000E+00 -0.50000499739E+01  0.50000500000E+01  0.51100000000E-03 0. -1.
     100001    1    1    2    0    0  0.95742750668E-02 -0.36872620409E-02  0.19868061193E-01  0.50000500000E+01  0.50000000000E+01 0.  1.
     100001    1    1    2    0    0 -0.95742750668E-02  0.36872620409E-02 -0.19868061193E-01  0.50000500000E+01  0.50000000000E+01 0. -1.
</event>
<event>
 4    1  0.5040302E-001  0.5000050E+01  0.7818608E-02  0.2136455E+00
        -11   -1    0    0    0    0  0.00000000000E+00  0.00000000000E+00  0.50000499739E+01  0.50000500000E+01  0.51100000000E-03 0.  1.
         11   -1    0    0    0    0 -0.00000000000E+00 -0.00000000000E+00 -0.50000499739E+01  0.50000500000E+01  0.51100000000E-03 0. -1.
     100001    1    1    2    0    0 -0.61845822386E-02  0.55412198179E-03 -0.21481303298E-01  0.50000500000E+01  0.50000000000E+01 0. -1.
     100001    1    1    2    0    0  0.61845822386E-02 -0.55412198179E-03  0.21481303298E-01  0.50000500000E+01  0.50000000000E+01 0.  0.
</event>
<event>
 4    1  0.5040302E-001  0.5000050E+01  0.7818608E-02  0.2136455E+00
        -11   -1    0    0    0    0  0.00000000000E+00  0.00000000000E+00  0.50000499739E+01  0.50000500000E+01  0.51100000000E-03 0.  1.
         11   -1    0    0    0    0 -0.00000000000E+00 -0.00000000000E+00 -0.50000499739E+01  0.50000500000E+01  0.51100000000E-03 0. -1.
     100001    1    1    2    0    0 -0.14089503961E-01 -0.29644543997E-02 -0.17108488777E-01  0.50000500000E+01  0.50000000000E+01 0. -1.
     100001    1    1    2    0    0  0.14089503961E-01  0.29644543997E-02  0.17108488777E-01  0.50000500000E+01  0.50000000000E+01 0.  0.
</event>
<event>
 4    1  0.5040302E-001  0.5000050E+01  0.7818608E-02  0.2136455E+00
        -11   -1    0    0    0    0  0.00000000000E+00  0.00000000000E+00  0.50000499739E+01  0.50000500000E+01  0.51100000000E-03 0.  1.
         11   -1    0    0    0    0 -0.00000000000E+00 -0.00000000000E+00 -0.50000499739E+01  0.50000500000E+01  0.51100000000E-03 0. -1.
     100001    1    1    2    0    0 -0.54449623414E-02  0.20776343681E-01  0.62208060834E-02  0.50000500000E+01  0.50000000000E+01 0. -1.
     100001    1    1    2    0    0  0.54449623414E-02 -0.20776343681E-01 -0.62208060834E-02  0.50000500000E+01  0.50000000000E+01 0.  0.
</event>
<event>
 4    1  0.5040302E-001  0.5000050E+01  0.7818608E-02  0.2136455E+00
        -11   -1    0    0    0    0  0.00000000000E+00  0.00000000000E+00  0.50000499739E+01  0.50000500000E+01  0.51100000000E-03 0. -1.
         11   -1    0    0    0    0 -0.00000000000E+00 -0.00000000000E+00 -0.50000499739E+01  0.50000500000E+01  0.51100000000E-03 0.  1.
     100001    1    1    2    0    0 -0.18817587490E-01 -0.11347769990E-01  0.41387217003E-02  0.50000500000E+01  0.50000000000E+01 0.  0.
     100001    1    1    2    0    0  0.18817587490E-01  0.11347769990E-01 -0.41387217003E-02  0.50000500000E+01  0.50000000000E+01 0.  1.
</event>
<event>
 4    1  0.5040302E-001  0.5000050E+01  0.7818608E-02  0.2136455E+00
        -11   -1    0    0    0    0  0.00000000000E+00  0.00000000000E+00  0.50000499739E+01  0.50000500000E+01  0.51100000000E-03 0. -1.
         11   -1    0    0    0    0 -0.00000000000E+00 -0.00000000000E+00 -0.50000499739E+01  0.50000500000E+01  0.51100000000E-03 0.  1.
     100001    1    1    2    0    0  0.43151397023E-02 -0.14784663422E-01 -0.16210977665E-01  0.50000500000E+01  0.50000000000E+01 0.  1.
     100001    1    1    2    0    0 -0.43151397023E-02  0.14784663422E-01  0.16210977665E-01  0.50000500000E+01  0.50000000000E+01 0. -1.
</event>
<event>
 4    1  0.5040302E-001  0.5000050E+01  0.7818608E-02  0.2136455E+00
        -11   -1    0    0    0    0  0.00000000000E+00  0.00000000000E+00  0.50000499739E+01  0.50000500000E+01  0.51100000000E-03 0. -1.
         11   -1    0    0    0    0 -0.00000000000E+00 -0.00000000000E+00 -0.50000499739E+01  0.50000500000E+01  0.51100000000E-03 0.  1.
     100001    1    1    2    0    0  0.53737372122E-02 -0.62477196048E-02 -0.20786809474E-01  0.50000500000E+01  0.50000000000E+01 0.  1.
     100001    1    1    2    0    0 -0.53737372122E-02  0.62477196048E-02  0.20786809474E-01  0.50000500000E+01  0.50000000000E+01 0.  0.
</event>
<event>
 4    1  0.5040302E-001  0.5000050E+01  0.7818608E-02  0.2136455E+00
        -11   -1    0    0    0    0  0.00000000000E+00  0.00000000000E+00  0.50000499739E+01  0.50000500000E+01  0.51100000000E-03 0.  1.
         11   -1    0    0    0    0 -0.00000000000E+00 -0.00000000000E+00 -0.50000499739E+01  0.50000500000E+01  0.51100000000E-03 0. -1.
     100001    1    1    2    0    0  0.14616916874E-01 -0.11786995264E-01 -0.12141457233E-01  0.50000500000E+01  0.50000000000E+01 0. -1.
     100001    1    1    2    0    0 -0.14616916874E-01  0.11786995264E-01  0.12141457233E-01  0.50000500000E+01  0.50000000000E+01 0.  1.
</event>
<event>
 4    1  0.5040302E-001  0.5000050E+01  0.7818608E-02  0.2136455E+00
        -11   -1    0    0    0    0  0.00000000000E+00  0.00000000000E+00  0.50000499739E+01  0.50000500000E+01  0.51100000000E-03 0.  1.
         11   -1    0    0    0    0 -0.00000000000E+00 -0.00000000000E+00 -0.50000499739E+01  0.50000500000E+01  0.51100000000E-03 0. -1.
     100001    1    1    2    0    0  0.18673822530E-01 -0.11723684738E-01 -0.37210305407E-02  0.50000500000E+01  0.50000000000E+01 0. -1.
     100001    1    1    2    0    0 -0.18673822530E-01  0.11723684738E-01  0.37210305407E-02  0.50000500000E+01  0.50000000000E+01 0.  1.
</event>
<event>
 4    1  0.5040302E-001  0.5000050E+01  0.7818608E-02  0.2136455E+00
        -11   -1    0    0    0    0  0.00000000000E+00  0.00000000000E+00  0.50000499739E+01  0.50000500000E+01  0.51100000000E-03 0.  1.
         11   -1    0    0    0    0 -0.00000000000E+00 -0.00000000000E+00 -0.50000499739E+01  0.50000500000E+01  0.51100000000E-03 0. -1.
     100001    1    1    2    0    0  0.54863332265E-02 -0.20503407825E-01 -0.70365414297E-02  0.50000500000E+01  0.50000000000E+01 0. -1.
     100001    1    1    2    0    0 -0.54863332265E-02  0.20503407825E-01  0.70365414297E-02  0.50000500000E+01  0.50000000000E+01 0.  0.
</event>
<event>
 4    1  0.5040302E-001  0.5000050E+01  0.7818608E-02  0.2136455E+00
        -11   -1    0    0    0    0  0.00000000000E+00  0.00000000000E+00  0.50000499739E+01  0.50000500000E+01  0.51100000000E-03 0.  1.
         11   -1    0    0    0    0 -0.00000000000E+00 -0.00000000000E+00 -0.50000499739E+01  0.50000500000E+01  0.51100000000E-03 0. -1.
     100001    1    1    2    0    0  0.38599694142E-02 -0.19031029662E-02 -0.21942682954E-01  0.50000500000E+01  0.50000000000E+01 0.  0.
     100001    1    1    2    0    0 -0.38599694142E-02  0.19031029662E-02  0.21942682954E-01  0.50000500000E+01  0.50000000000E+01 0.  1.
</event>
<event>
 4    1  0.5040302E-001  0.5000050E+01  0.7818608E-02  0.2136455E+00
        -11   -1    0    0    0    0  0.00000000000E+00  0.00000000000E+00  0.50000499739E+01  0.50000500000E+01  0.51100000000E-03 0.  1.
         11   -1    0    0    0    0 -0.00000000000E+00 -0.00000000000E+00 -0.50000499739E+01  0.50000500000E+01  0.51100000000E-03 0. -1.
     100001    1    1    2    0    0 -0.29365121692E-02 -0.21685114553E-01 -0.45973038932E-02  0.50000500000E+01  0.50000000000E+01 0.  1.
     100001    1    1    2    0    0  0.29365121692E-02  0.21685114553E-01  0.45973038932E-02  0.50000500000E+01  0.50000000000E+01 0.  0.
</event>
<event>
 4    1  0.5040302E-001  0.5000050E+01  0.7818608E-02  0.2136455E+00
        -11   -1    0    0    0    0  0.00000000000E+00  0.00000000000E+00  0.50000499739E+01  0.50000500000E+01  0.51100000000E-03 0. -1.
         11   -1    0    0    0    0 -0.00000000000E+00 -0.00000000000E+00 -0.50000499739E+01  0.50000500000E+01  0.51100000000E-03 0.  1.
     100001    1    1    2    0    0  0.77752768985E-02  0.15744442270E-01  0.13844136186E-01  0.50000500000E+01  0.50000000000E+01 0. -1.
     100001    1    1    2    0    0 -0.77752768985E-02 -0.15744442270E-01 -0.13844136186E-01  0.50000500000E+01  0.50000000000E+01 0.  1.
</event>
<event>
 4    1  0.5040302E-001  0.5000050E+01  0.7818608E-02  0.2136455E+00
        -11   -1    0    0    0    0  0.00000000000E+00  0.00000000000E+00  0.50000499739E+01  0.50000500000E+01  0.51100000000E-03 0.  1.
         11   -1    0    0    0    0 -0.00000000000E+00 -0.00000000000E+00 -0.50000499739E+01  0.50000500000E+01  0.51100000000E-03 0. -1.
     100001    1    1    2    0    0  0.21107281391E-01 -0.57152455230E-02  0.46713104056E-02  0.50000500000E+01  0.50000000000E+01 0. -1.
     100001    1    1    2    0    0 -0.21107281391E-01  0.57152455230E-02 -0.46713104056E-02  0.50000500000E+01  0.50000000000E+01 0.  0.
</event>
<event>
 4    1  0.5040302E-001  0.5000050E+01  0.7818608E-02  0.2136455E+00
        -11   -1    0    0    0    0  0.00000000000E+00  0.00000000000E+00  0.50000499739E+01  0.50000500000E+01  0.51100000000E-03 0. -1.
         11   -1    0    0    0    0 -0.00000000000E+00 -0.00000000000E+00 -0.50000499739E+01  0.50000500000E+01  0.51100000000E-03 0.  1.
     100001    1    1    2    0    0  0.18801501233E-01 -0.89000366082E-02 -0.82033773381E-02  0.50000500000E+01  0.50000000000E+01 0.  0.
     100001    1    1    2    0    0 -0.18801501233E-01  0.89000366082E-02  0.82033773381E-02  0.50000500000E+01  0.50000000000E+01 0.  1.
</event>
<event>
 4    1  0.5040302E-001  0.5000050E+01  0.7818608E-02  0.2136455E+00
        -11   -1    0    0    0    0  0.00000000000E+00  0.00000000000E+00  0.50000499739E+01  0.50000500000E+01  0.51100000000E-03 0.  1.
         11   -1    0    0    0    0 -0.00000000000E+00 -0.00000000000E+00 -0.50000499739E+01  0.50000500000E+01  0.51100000000E-03 0. -1.
     100001    1    1    2    0    0 -0.16960124970E-01 -0.10146473182E-01  0.10459720023E-01  0.50000500000E+01  0.50000000000E+01 0.  1.
     100001    1    1    2    0    0  0.16960124970E-01  0.10146473182E-01 -0.10459720023E-01  0.50000500000E+01  0.50000000000E+01 0. -1.
</event>
<event>
 4    1  0.5040302E-001  0.5000050E+01  0.7818608E-02  0.2136455E+00
        -11   -1    0    0    0    0  0.00000000000E+00  0.00000000000E+00  0.50000499739E+01  0.50000500000E+01  0.51100000000E-03 0.  1.
         11   -1    0    0    0    0 -0.00000000000E+00 -0.00000000000E+00 -0.50000499739E+01  0.50000500000E+01  0.51100000000E-03 0. -1.
     100001    1    1    2    0    0  0.74018941561E-04 -0.13574077801E-01  0.17769114582E-01  0.50000500000E+01  0.50000000000E+01 0.  1.
     100001    1    1    2    0    0 -0.74018941561E-04  0.13574077801E-01 -0.17769114582E-01  0.50000500000E+01  0.50000000000E+01 0. -1.
</event>
<event>
 4    1  0.5040302E-001  0.5000050E+01  0.7818608E-02  0.2136455E+00
        -11   -1    0    0    0    0  0.00000000000E+00  0.00000000000E+00  0.50000499739E+01  0.50000500000E+01  0.51100000000E-03 0.  1.
         11   -1    0    0    0    0 -0.00000000000E+00 -0.00000000000E+00 -0.50000499739E+01  0.50000500000E+01  0.51100000000E-03 0. -1.
     100001    1    1    2    0    0  0.18722968418E-01  0.42504133539E-02  0.11462414228E-01  0.50000500000E+01  0.50000000000E+01 0.  0.
     100001    1    1    2    0    0 -0.18722968418E-01 -0.42504133539E-02 -0.11462414228E-01  0.50000500000E+01  0.50000000000E+01 0.  0.
</event>
<event>
 4    1  0.5040302E-001  0.5000050E+01  0.7818608E-02  0.2136455E+00
        -11   -1    0    0    0    0  0.00000000000E+00  0.00000000000E+00  0.50000499739E+01  0.50000500000E+01  0.51100000000E-03 0. -1.
         11   -1    0    0    0    0 -0.00000000000E+00 -0.00000000000E+00 -0.50000499739E+01  0.50000500000E+01  0.51100000000E-03 0.  1.
     100001    1    1    2    0    0 -0.86793698097E-02 -0.18805808598E-01 -0.84268975709E-02  0.50000500000E+01  0.50000000000E+01 0.  1.
     100001    1    1    2    0    0  0.86793698097E-02  0.18805808598E-01  0.84268975709E-02  0.50000500000E+01  0.50000000000E+01 0. -1.
</event>
<event>
 4    1  0.5040302E-001  0.5000050E+01  0.7818608E-02  0.2136455E+00
        -11   -1    0    0    0    0  0.00000000000E+00  0.00000000000E+00  0.50000499739E+01  0.50000500000E+01  0.51100000000E-03 0. -1.
         11   -1    0    0    0    0 -0.00000000000E+00 -0.00000000000E+00 -0.50000499739E+01  0.50000500000E+01  0.51100000000E-03 0.  1.
     100001    1    1    2    0    0 -0.56860638668E-02  0.19157475456E-01  0.10033060941E-01  0.50000500000E+01  0.50000000000E+01 0.  1.
     100001    1    1    2    0    0  0.56860638668E-02 -0.19157475456E-01 -0.10033060941E-01  0.50000500000E+01  0.50000000000E+01 0.  0.
</event>
<event>
 4    1  0.5040302E-001  0.5000050E+01  0.7818608E-02  0.2136455E+00
        -11   -1    0    0    0    0  0.00000000000E+00  0.00000000000E+00  0.50000499739E+01  0.50000500000E+01  0.51100000000E-03 0. -1.
         11   -1    0    0    0    0 -0.00000000000E+00 -0.00000000000E+00 -0.50000499739E+01  0.50000500000E+01  0.51100000000E-03 0.  1.
     100001    1    1    2    0    0  0.76098372977E-02  0.11673516102E-01  0.17487764240E-01  0.50000500000E+01  0.50000000000E+01 0.  0.
     100001    1    1    2    0    0 -0.76098372977E-02 -0.11673516102E-01 -0.17487764240E-01  0.50000500000E+01  0.50000000000E+01 0.  1.
</event>
<event>
 4    1  0.5040302E-001  0.5000050E+01  0.7818608E-02  0.2136455E+00
        -11   -1    0    0    0    0  0.00000000000E+00  0.00000000000E+00  0.50000499739E+01  0.50000500000E+01  0.51100000000E-03 0. -1.
         11   -1    0    0    0    0 -0.00000000000E+00 -0.00000000000E+00 -0.50000499739E+01  0.50000500000E+01  0.51100000000E-03 0.  1.
     100001    1    1    2    0    0  0.21207400231E-02 -0.20311777139E-01  0.91069572960E-02  0.50000500000E+01  0.50000000000E+01 0. -1.
     100001    1    1    2    0    0 -0.21207400231E-02  0.20311777139E-01 -0.91069572960E-02  0.50000500000E+01  0.50000000000E+01 0.  1.
</event>
<event>
 4    1  0.5040302E-001  0.5000050E+01  0.7818608E-02  0.2136455E+00
        -11   -1    0    0    0    0  0.00000000000E+00  0.00000000000E+00  0.50000499739E+01  0.50000500000E+01  0.51100000000E-03 0. -1.
         11   -1    0    0    0    0 -0.00000000000E+00 -0.00000000000E+00 -0.50000499739E+01  0.50000500000E+01  0.51100000000E-03 0.  1.
     100001    1    1    2    0    0 -0.10306830129E-01  0.83761362800E-02  0.17989221598E-01  0.50000500000E+01  0.50000000000E+01 0. -1.
     100001    1    1    2    0    0  0.10306830129E-01 -0.83761362800E-02 -0.17989221598E-01  0.50000500000E+01  0.50000000000E+01 0.  1.
</event>
<event>
 4    1  0.5040302E-001  0.5000050E+01  0.7818608E-02  0.2136455E+00
        -11   -1    0    0    0    0  0.00000000000E+00  0.00000000000E+00  0.50000499739E+01  0.50000500000E+01  0.51100000000E-03 0.  1.
         11   -1    0    0    0    0 -0.00000000000E+00 -0.00000000000E+00 -0.50000499739E+01  0.50000500000E+01  0.51100000000E-03 0. -1.
     100001    1    1    2    0    0  0.88908706720E-02 -0.13698949464E-01  0.15273955031E-01  0.50000500000E+01  0.50000000000E+01 0.  0.
     100001    1    1    2    0    0 -0.88908706720E-02  0.13698949464E-01 -0.15273955031E-01  0.50000500000E+01  0.50000000000E+01 0.  0.
</event>
<event>
 4    1  0.5040302E-001  0.5000050E+01  0.7818608E-02  0.2136455E+00
        -11   -1    0    0    0    0  0.00000000000E+00  0.00000000000E+00  0.50000499739E+01  0.50000500000E+01  0.51100000000E-03 0. -1.
         11   -1    0    0    0    0 -0.00000000000E+00 -0.00000000000E+00 -0.50000499739E+01  0.50000500000E+01  0.51100000000E-03 0.  1.
     100001    1    1    2    0    0  0.14818741303E-01 -0.10775649588E-01  0.12817674600E-01  0.50000500000E+01  0.50000000000E+01 0. -1.
     100001    1    1    2    0    0 -0.14818741303E-01  0.10775649588E-01 -0.12817674600E-01  0.50000500000E+01  0.50000000000E+01 0.  1.
</event>
<event>
 4    1  0.5040302E-001  0.5000050E+01  0.7818608E-02  0.2136455E+00
        -11   -1    0    0    0    0  0.00000000000E+00  0.00000000000E+00  0.50000499739E+01  0.50000500000E+01  0.51100000000E-03 0. -1.
         11   -1    0    0    0    0 -0.00000000000E+00 -0.00000000000E+00 -0.50000499739E+01  0.50000500000E+01  0.51100000000E-03 0.  1.
     100001    1    1    2    0    0  0.20096711573E-01  0.18584355516E-04  0.98043020442E-02  0.50000500000E+01  0.50000000000E+01 0.  1.
     100001    1    1    2    0    0 -0.20096711573E-01 -0.18584355516E-04 -0.98043020442E-02  0.50000500000E+01  0.50000000000E+01 0. -1.
</event>
<event>
 4    1  0.5040302E-001  0.5000050E+01  0.7818608E-02  0.2136455E+00
        -11   -1    0    0    0    0  0.00000000000E+00  0.00000000000E+00  0.50000499739E+01  0.50000500000E+01  0.51100000000E-03 0.  1.
         11   -1    0    0    0    0 -0.00000000000E+00 -0.00000000000E+00 -0.50000499739E+01  0.50000500000E+01  0.51100000000E-03 0. -1.
     100001    1    1    2    0    0 -0.13066733124E-01 -0.73022441637E-02 -0.16611448330E-01  0.50000500000E+01  0.50000000000E+01 0. -1.
     100001    1    1    2    0    0  0.13066733124E-01  0.73022441637E-02  0.16611448330E-01  0.50000500000E+01  0.50000000000E+01 0.  0.
</event>
<event>
 4    1  0.5040302E-001  0.5000050E+01  0.7818608E-02  0.2136455E+00
        -11   -1    0    0    0    0  0.00000000000E+00  0.00000000000E+00  0.50000499739E+01  0.50000500000E+01  0.51100000000E-03 0.  1.
         11   -1    0    0    0    0 -0.00000000000E+00 -0.00000000000E+00 -0.50000499739E+01  0.50000500000E+01  0.51100000000E-03 0. -1.
     100001    1    1    2    0    0 -0.40918626459E-02  0.86956634607E-02 -0.20190210426E-01  0.50000500000E+01  0.50000000000E+01 0.  0.
     100001    1    1    2    0    0  0.40918626459E-02 -0.86956634607E-02  0.20190210426E-01  0.50000500000E+01  0.50000000000E+01 0.  0.
</event>
<event>
 4    1  0.5040302E-001  0.5000050E+01  0.7818608E-02  0.2136455E+00
        -11   -1    0    0    0    0  0.00000000000E+00  0.00000000000E+00  0.50000499739E+01  0.50000500000E+01  0.51100000000E-03 0.  1.
         11   -1    0    0    0    0 -0.00000000000E+00 -0.00000000000E+00 -0.50000499739E+01  0.50000500000E+01  0.51100000000E-03 0. -1.
     100001    1    1    2    0    0  0.64181887084E-02 -0.32219922208E-03 -0.21417412107E-01  0.50000500000E+01  0.50000000000E+01 0.  0.
     100001    1    1    2    0    0 -0.64181887084E-02  0.32219922208E-03  0.21417412107E-01  0.50000500000E+01  0.50000000000E+01 0.  1.
</event>
<event>
 4    1  0.5040302E-001  0.5000050E+01  0.7818608E-02  0.2136455E+00
        -11   -1    0    0    0    0  0.00000000000E+00  0.00000000000E+00  0.50000499739E+01  0.50000500000E+01  0.51100000000E-03 0. -1.
         11   -1    0    0    0    0 -0.00000000000E+00 -0.00000000000E+00 -0.50000499739E+01  0.50000500000E+01  0.51100000000E-03 0.  1.
     100001    1    1    2    0    0 -0.19053589993E-02  0.11260671039E-01  0.19224187755E-01  0.50000500000E+01  0.50000000000E+01 0.  0.
     100001    1    1    2    0    0  0.19053589993E-02 -0.11260671039E-01 -0.19224187755E-01  0.50000500000E+01  0.50000000000E+01 0.  0.
</event>
<event>
 4    1  0.5040302E-001  0.5000050E+01  0.7818608E-02  0.2136455E+00
        -11   -1    0    0    0    0  0.00000000000E+00  0.00000000000E+00  0.50000499739E+01  0.50000500000E+01  0.51100000000E-03 0. -1.
         11   -1    0    0    0    0 -0.00000000000E+00 -0.00000000000E+00 -0.50000499739E+01  0.50000500000E+01  0.51100000000E-03 0.  1.
     100001    1    1    2    0    0 -0.79432328443E-02 -0.20887136162E-01 -0.79692842602E-03  0.50000500000E+01  0.50000000000E+01 0.  1.
     100001    1    1    2    0    0  0.79432328443E-02  0.20887136162E-01  0.79692842602E-03  0.50000500000E+01  0.50000000000E+01 0. -1.
</event>
<event>
 4    1  0.5040302E-001  0.5000050E+01  0.7818608E-02  0.2136455E+00
        -11   -1    0    0    0    0  0.00000000000E+00  0.00000000000E+00  0.50000499739E+01  0.50000500000E+01  0.51100000000E-03 0. -1.
         11   -1    0    0    0    0 -0.00000000000E+00 -0.00000000000E+00 -0.50000499739E+01  0.50000500000E+01  0.51100000000E-03 0.  1.
     100001    1    1    2    0    0  0.13181767149E-01 -0.14540383268E-01  0.10715445359E-01  0.50000500000E+01  0.50000000000E+01 0.  0.
     100001    1    1    2    0    0 -0.13181767149E-01  0.14540383268E-01 -0.10715445359E-01  0.50000500000E+01  0.50000000000E+01 0. -1.
</event>
<event>
 4    1  0.5040302E-001  0.5000050E+01  0.7818608E-02  0.2136455E+00
        -11   -1    0    0    0    0  0.00000000000E+00  0.00000000000E+00  0.50000499739E+01  0.50000500000E+01  0.51100000000E-03 0. -1.
         11   -1    0    0    0    0 -0.00000000000E+00 -0.00000000000E+00 -0.50000499739E+01  0.50000500000E+01  0.51100000000E-03 0.  1.
     100001    1    1    2    0    0  0.16691721556E-01  0.13729284488E-01 -0.57354754771E-02  0.50000500000E+01  0.50000000000E+01 0.  1.
     100001    1    1    2    0    0 -0.16691721556E-01 -0.13729284488E-01  0.57354754771E-02  0.50000500000E+01  0.50000000000E+01 0. -1.
</event>
<event>
 4    1  0.5040302E-001  0.5000050E+01  0.7818608E-02  0.2136455E+00
        -11   -1    0    0    0    0  0.00000000000E+00  0.00000000000E+00  0.50000499739E+01  0.50000500000E+01  0.51100000000E-03 0. -1.
         11   -1    0    0    0    0 -0.00000000000E+00 -0.00000000000E+00 -0.50000499739E+01  0.50000500000E+01  0.51100000000E-03 0.  1.
     100001    1    1    2    0    0 -0.21768395717E-01 -0.35204763478E-02 -0.37075186041E-02  0.50000500000E+01  0.50000000000E+01 0. -1.
     100001    1    1    2    0    0  0.21768395717E-01  0.35204763478E-02  0.37075186041E-02  0.50000500000E+01  0.50000000000E+01 0.  0.
</event>
<event>
 4    1  0.5040302E-001  0.5000050E+01  0.7818608E-02  0.2136455E+00
        -11   -1    0    0    0    0  0.00000000000E+00  0.00000000000E+00  0.50000499739E+01  0.50000500000E+01  0.51100000000E-03 0.  1.
         11   -1    0    0    0    0 -0.00000000000E+00 -0.00000000000E+00 -0.50000499739E+01  0.50000500000E+01  0.51100000000E-03 0. -1.
     100001    1    1    2    0    0  0.17943827022E-01  0.12260295527E-01 -0.52637178293E-02  0.50000500000E+01  0.50000000000E+01 0.  0.
     100001    1    1    2    0    0 -0.17943827022E-01 -0.12260295527E-01  0.52637178293E-02  0.50000500000E+01  0.50000000000E+01 0.  1.
</event>
<event>
 4    1  0.5040302E-001  0.5000050E+01  0.7818608E-02  0.2136455E+00
        -11   -1    0    0    0    0  0.00000000000E+00  0.00000000000E+00  0.50000499739E+01  0.50000500000E+01  0.51100000000E-03 0.  1.
         11   -1    0    0    0    0 -0.00000000000E+00 -0.00000000000E+00 -0.50000499739E+01  0.50000500000E+01  0.51100000000E-03 0. -1.
     100001    1    1    2    0    0 -0.13603999481E-01  0.13846325419E-01 -0.11100133807E-01  0.50000500000E+01  0.50000000000E+01 0.  0.
     100001    1    1    2    0    0  0.13603999481E-01 -0.13846325419E-01  0.11100133807E-01  0.50000500000E+01  0.50000000000E+01 0.  0.
</event>
<event>
 4    1  0.5040302E-001  0.5000050E+01  0.7818608E-02  0.2136455E+00
        -11   -1    0    0    0    0  0.00000000000E+00  0.00000000000E+00  0.50000499739E+01  0.50000500000E+01  0.51100000000E-03 0.  1.
         11   -1    0    0    0    0 -0.00000000000E+00 -0.00000000000E+00 -0.50000499739E+01  0.50000500000E+01  0.51100000000E-03 0. -1.
     100001    1    1    2    0    0 -0.85704412692E-02 -0.19931786286E-01 -0.54105389661E-02  0.50000500000E+01  0.50000000000E+01 0. -1.
     100001    1    1    2    0    0  0.85704412692E-02  0.19931786286E-01  0.54105389661E-02  0.50000500000E+01  0.50000000000E+01 0.  1.
</event>
<event>
 4    1  0.5040302E-001  0.5000050E+01  0.7818608E-02  0.2136455E+00
        -11   -1    0    0    0    0  0.00000000000E+00  0.00000000000E+00  0.50000499739E+01  0.50000500000E+01  0.51100000000E-03 0.  1.
         11   -1    0    0    0    0 -0.00000000000E+00 -0.00000000000E+00 -0.50000499739E+01  0.50000500000E+01  0.51100000000E-03 0. -1.
     100001    1    1    2    0    0  0.75903782231E-02 -0.73901562737E-02 -0.19691984376E-01  0.50000500000E+01  0.50000000000E+01 0. -1.
     100001    1    1    2    0    0 -0.75903782231E-02  0.73901562737E-02  0.19691984376E-01  0.50000500000E+01  0.50000000000E+01 0.  1.
</event>
<event>
 4    1  0.5040302E-001  0.5000050E+01  0.7818608E-02  0.2136455E+00
        -11   -1    0    0    0    0  0.00000000000E+00  0.00000000000E+00  0.50000499739E+01  0.50000500000E+01  0.51100000000E-03 0.  1.
         11   -1    0    0    0    0 -0.00000000000E+00 -0.00000000000E+00 -0.50000499739E+01  0.50000500000E+01  0.51100000000E-03 0. -1.
     100001    1    1    2    0    0  0.10157936706E-01  0.15514437274E-01  0.12494841253E-01  0.50000500000E+01  0.50000000000E+01 0.  1.
     100001    1    1    2    0    0 -0.10157936706E-01 -0.15514437274E-01 -0.12494841253E-01  0.50000500000E+01  0.50000000000E+01 0. -1.
</event>
<event>
 4    1  0.5040302E-001  0.5000050E+01  0.7818608E-02  0.2136455E+00
        -11   -1    0    0    0    0  0.00000000000E+00  0.00000000000E+00  0.50000499739E+01  0.50000500000E+01  0.51100000000E-03 0.  1.
         11   -1    0    0    0    0 -0.00000000000E+00 -0.00000000000E+00 -0.50000499739E+01  0.50000500000E+01  0.51100000000E-03 0. -1.
     100001    1    1    2    0    0 -0.11048092407E-01  0.18374401492E-01 -0.63500806257E-02  0.50000500000E+01  0.50000000000E+01 0.  0.
     100001    1    1    2    0    0  0.11048092407E-01 -0.18374401492E-01  0.63500806257E-02  0.50000500000E+01  0.50000000000E+01 0.  0.
</event>
<event>
 4    1  0.5040302E-001  0.5000050E+01  0.7818608E-02  0.2136455E+00
        -11   -1    0    0    0    0  0.00000000000E+00  0.00000000000E+00  0.50000499739E+01  0.50000500000E+01  0.51100000000E-03 0.  1.
         11   -1    0    0    0    0 -0.00000000000E+00 -0.00000000000E+00 -0.50000499739E+01  0.50000500000E+01  0.51100000000E-03 0. -1.
     100001    1    1    2    0    0  0.90365217830E-02  0.14529969796E-01 -0.14395268382E-01  0.50000500000E+01  0.50000000000E+01 0. -1.
     100001    1    1    2    0    0 -0.90365217830E-02 -0.14529969796E-01  0.14395268382E-01  0.50000500000E+01  0.50000000000E+01 0.  0.
</event>
<event>
 4    1  0.5040302E-001  0.5000050E+01  0.7818608E-02  0.2136455E+00
        -11   -1    0    0    0    0  0.00000000000E+00  0.00000000000E+00  0.50000499739E+01  0.50000500000E+01  0.51100000000E-03 0. -1.
         11   -1    0    0    0    0 -0.00000000000E+00 -0.00000000000E+00 -0.50000499739E+01  0.50000500000E+01  0.51100000000E-03 0.  1.
     100001    1    1    2    0    0 -0.19851475796E-01 -0.26371044710E-02 -0.99482203798E-02  0.50000500000E+01  0.50000000000E+01 0.  1.
     100001    1    1    2    0    0  0.19851475796E-01  0.26371044710E-02  0.99482203798E-02  0.50000500000E+01  0.50000000000E+01 0. -1.
</event>
<event>
 4    1  0.5040302E-001  0.5000050E+01  0.7818608E-02  0.2136455E+00
        -11   -1    0    0    0    0  0.00000000000E+00  0.00000000000E+00  0.50000499739E+01  0.50000500000E+01  0.51100000000E-03 0. -1.
         11   -1    0    0    0    0 -0.00000000000E+00 -0.00000000000E+00 -0.50000499739E+01  0.50000500000E+01  0.51100000000E-03 0.  1.
     100001    1    1    2    0    0  0.21407052596E-01 -0.61534187975E-02 -0.19687651590E-02  0.50000500000E+01  0.50000000000E+01 0. -1.
     100001    1    1    2    0    0 -0.21407052596E-01  0.61534187975E-02  0.19687651590E-02  0.50000500000E+01  0.50000000000E+01 0.  0.
</event>
<event>
 4    1  0.5040302E-001  0.5000050E+01  0.7818608E-02  0.2136455E+00
        -11   -1    0    0    0    0  0.00000000000E+00  0.00000000000E+00  0.50000499739E+01  0.50000500000E+01  0.51100000000E-03 0.  1.
         11   -1    0    0    0    0 -0.00000000000E+00 -0.00000000000E+00 -0.50000499739E+01  0.50000500000E+01  0.51100000000E-03 0. -1.
     100001    1    1    2    0    0 -0.22034893620E-01  0.29995228875E-02 -0.23385520292E-02  0.50000500000E+01  0.50000000000E+01 0. -1.
     100001    1    1    2    0    0  0.22034893620E-01 -0.29995228875E-02  0.23385520292E-02  0.50000500000E+01  0.50000000000E+01 0.  0.
</event>
<event>
 4    1  0.5040302E-001  0.5000050E+01  0.7818608E-02  0.2136455E+00
        -11   -1    0    0    0    0  0.00000000000E+00  0.00000000000E+00  0.50000499739E+01  0.50000500000E+01  0.51100000000E-03 0.  1.
         11   -1    0    0    0    0 -0.00000000000E+00 -0.00000000000E+00 -0.50000499739E+01  0.50000500000E+01  0.51100000000E-03 0. -1.
     100001    1    1    2    0    0 -0.11624948521E-01 -0.10748830061E-01  0.15790051432E-01  0.50000500000E+01  0.50000000000E+01 0.  1.
     100001    1    1    2    0    0  0.11624948521E-01  0.10748830061E-01 -0.15790051432E-01  0.50000500000E+01  0.50000000000E+01 0. -1.
</event>
<event>
 4    1  0.5040302E-001  0.5000050E+01  0.7818608E-02  0.2136455E+00
        -11   -1    0    0    0    0  0.00000000000E+00  0.00000000000E+00  0.50000499739E+01  0.50000500000E+01  0.51100000000E-03 0.  1.
         11   -1    0    0    0    0 -0.00000000000E+00 -0.00000000000E+00 -0.50000499739E+01  0.50000500000E+01  0.51100000000E-03 0. -1.
     100001    1    1    2    0    0  0.14567148853E-01 -0.38486523763E-02 -0.16522365120E-01  0.50000500000E+01  0.50000000000E+01 0. -1.
     100001    1    1    2    0    0 -0.14567148853E-01  0.38486523763E-02  0.16522365120E-01  0.50000500000E+01  0.50000000000E+01 0.  0.
</event>
<event>
 4    1  0.5040302E-001  0.5000050E+01  0.7818608E-02  0.2136455E+00
        -11   -1    0    0    0    0  0.00000000000E+00  0.00000000000E+00  0.50000499739E+01  0.50000500000E+01  0.51100000000E-03 0. -1.
         11   -1    0    0    0    0 -0.00000000000E+00 -0.00000000000E+00 -0.50000499739E+01  0.50000500000E+01  0.51100000000E-03 0.  1.
     100001    1    1    2    0    0  0.20265986807E-01 -0.57695349484E-02  0.74836318207E-02  0.50000500000E+01  0.50000000000E+01 0.  0.
     100001    1    1    2    0    0 -0.20265986807E-01  0.57695349484E-02 -0.74836318207E-02  0.50000500000E+01  0.50000000000E+01 0. -1.
</event>
<event>
 4    1  0.5040302E-001  0.5000050E+01  0.7818608E-02  0.2136455E+00
        -11   -1    0    0    0    0  0.00000000000E+00  0.00000000000E+00  0.50000499739E+01  0.50000500000E+01  0.51100000000E-03 0. -1.
         11   -1    0    0    0    0 -0.00000000000E+00 -0.00000000000E+00 -0.50000499739E+01  0.50000500000E+01  0.51100000000E-03 0.  1.
     100001    1    1    2    0    0  0.21731184873E-01 -0.50110344336E-02  0.16271563901E-02  0.50000500000E+01  0.50000000000E+01 0.  0.
     100001    1    1    2    0    0 -0.21731184873E-01  0.50110344336E-02 -0.16271563901E-02  0.50000500000E+01  0.50000000000E+01 0. -1.
</event>
<event>
 4    1  0.5040302E-001  0.5000050E+01  0.7818608E-02  0.2136455E+00
        -11   -1    0    0    0    0  0.00000000000E+00  0.00000000000E+00  0.50000499739E+01  0.50000500000E+01  0.51100000000E-03 0. -1.
         11   -1    0    0    0    0 -0.00000000000E+00 -0.00000000000E+00 -0.50000499739E+01  0.50000500000E+01  0.51100000000E-03 0.  1.
     100001    1    1    2    0    0  0.19207866261E-01  0.14067332518E-02  0.11361402874E-01  0.50000500000E+01  0.50000000000E+01 0.  0.
     100001    1    1    2    0    0 -0.19207866261E-01 -0.14067332518E-02 -0.11361402874E-01  0.50000500000E+01  0.50000000000E+01 0. -1.
</event>
<event>
 4    1  0.5040302E-001  0.5000050E+01  0.7818608E-02  0.2136455E+00
        -11   -1    0    0    0    0  0.00000000000E+00  0.00000000000E+00  0.50000499739E+01  0.50000500000E+01  0.51100000000E-03 0. -1.
         11   -1    0    0    0    0 -0.00000000000E+00 -0.00000000000E+00 -0.50000499739E+01  0.50000500000E+01  0.51100000000E-03 0.  1.
     100001    1    1    2    0    0 -0.88207476325E-02  0.15052332930E-01 -0.13986571580E-01  0.50000500000E+01  0.50000000000E+01 0.  0.
     100001    1    1    2    0    0  0.88207476325E-02 -0.15052332930E-01  0.13986571580E-01  0.50000500000E+01  0.50000000000E+01 0. -1.
</event>
<event>
 4    1  0.5040302E-001  0.5000050E+01  0.7818608E-02  0.2136455E+00
        -11   -1    0    0    0    0  0.00000000000E+00  0.00000000000E+00  0.50000499739E+01  0.50000500000E+01  0.51100000000E-03 0. -1.
         11   -1    0    0    0    0 -0.00000000000E+00 -0.00000000000E+00 -0.50000499739E+01  0.50000500000E+01  0.51100000000E-03 0.  1.
     100001    1    1    2    0    0 -0.13620111688E-01 -0.15291759600E-01 -0.89809323538E-02  0.50000500000E+01  0.50000000000E+01 0.  1.
     100001    1    1    2    0    0  0.13620111688E-01  0.15291759600E-01  0.89809323538E-02  0.50000500000E+01  0.50000000000E+01 0.  1.
</event>
<event>
 4    1  0.5040302E-001  0.5000050E+01  0.7818608E-02  0.2136455E+00
        -11   -1    0    0    0    0  0.00000000000E+00  0.00000000000E+00  0.50000499739E+01  0.50000500000E+01  0.51100000000E-03 0.  1.
         11   -1    0    0    0    0 -0.00000000000E+00 -0.00000000000E+00 -0.50000499739E+01  0.50000500000E+01  0.51100000000E-03 0. -1.
     100001    1    1    2    0    0 -0.50161269073E-02  0.21699769219E-01  0.19902227690E-02  0.50000500000E+01  0.50000000000E+01 0. -1.
     100001    1    1    2    0    0  0.50161269073E-02 -0.21699769219E-01 -0.19902227690E-02  0.50000500000E+01  0.50000000000E+01 0.  1.
</event>
<event>
 4    1  0.5040302E-001  0.5000050E+01  0.7818608E-02  0.2136455E+00
        -11   -1    0    0    0    0  0.00000000000E+00  0.00000000000E+00  0.50000499739E+01  0.50000500000E+01  0.51100000000E-03 0.  1.
         11   -1    0    0    0    0 -0.00000000000E+00 -0.00000000000E+00 -0.50000499739E+01  0.50000500000E+01  0.51100000000E-03 0. -1.
     100001    1    1    2    0    0 -0.27202777257E-02 -0.61578594549E-02  0.21323305467E-01  0.50000500000E+01  0.50000000000E+01 0.  0.
     100001    1    1    2    0    0  0.27202777257E-02  0.61578594549E-02 -0.21323305467E-01  0.50000500000E+01  0.50000000000E+01 0. -1.
</event>
<event>
 4    1  0.5040302E-001  0.5000050E+01  0.7818608E-02  0.2136455E+00
        -11   -1    0    0    0    0  0.00000000000E+00  0.00000000000E+00  0.50000499739E+01  0.50000500000E+01  0.51100000000E-03 0. -1.
         11   -1    0    0    0    0 -0.00000000000E+00 -0.00000000000E+00 -0.50000499739E+01  0.50000500000E+01  0.51100000000E-03 0.  1.
     100001    1    1    2    0    0 -0.22129205006E-01 -0.58538658072E-03  0.31556470542E-02  0.50000500000E+01  0.50000000000E+01 0. -1.
     100001    1    1    2    0    0  0.22129205006E-01  0.58538658072E-03 -0.31556470542E-02  0.50000500000E+01  0.50000000000E+01 0.  1.
</event>
<event>
 4    1  0.5040302E-001  0.5000050E+01  0.7818608E-02  0.2136455E+00
        -11   -1    0    0    0    0  0.00000000000E+00  0.00000000000E+00  0.50000499739E+01  0.50000500000E+01  0.51100000000E-03 0.  1.
         11   -1    0    0    0    0 -0.00000000000E+00 -0.00000000000E+00 -0.50000499739E+01  0.50000500000E+01  0.51100000000E-03 0. -1.
     100001    1    1    2    0    0 -0.69376919619E-02  0.96274983060E-02  0.18952102960E-01  0.50000500000E+01  0.50000000000E+01 0.  1.
     100001    1    1    2    0    0  0.69376919619E-02 -0.96274983060E-02 -0.18952102960E-01  0.50000500000E+01  0.50000000000E+01 0.  0.
</event>
<event>
 4    1  0.5040302E-001  0.5000050E+01  0.7818608E-02  0.2136455E+00
        -11   -1    0    0    0    0  0.00000000000E+00  0.00000000000E+00  0.50000499739E+01  0.50000500000E+01  0.51100000000E-03 0. -1.
         11   -1    0    0    0    0 -0.00000000000E+00 -0.00000000000E+00 -0.50000499739E+01  0.50000500000E+01  0.51100000000E-03 0.  1.
     100001    1    1    2    0    0  0.42871590107E-02 -0.33815527594E-02  0.21683815821E-01  0.50000500000E+01  0.50000000000E+01 0.  0.
     100001    1    1    2    0    0 -0.42871590107E-02  0.33815527594E-02 -0.21683815821E-01  0.50000500000E+01  0.50000000000E+01 0.  1.
</event>
<event>
 4    1  0.5040302E-001  0.5000050E+01  0.7818608E-02  0.2136455E+00
        -11   -1    0    0    0    0  0.00000000000E+00  0.00000000000E+00  0.50000499739E+01  0.50000500000E+01  0.51100000000E-03 0. -1.
         11   -1    0    0    0    0 -0.00000000000E+00 -0.00000000000E+00 -0.50000499739E+01  0.50000500000E+01  0.51100000000E-03 0.  1.
     100001    1    1    2    0    0 -0.10785628967E-01  0.18924486086E-01 -0.50533685963E-02  0.50000500000E+01  0.50000000000E+01 0. -1.
     100001    1    1    2    0    0  0.10785628967E-01 -0.18924486086E-01  0.50533685963E-02  0.50000500000E+01  0.50000000000E+01 0.  0.
</event>
<event>
 4    1  0.5040302E-001  0.5000050E+01  0.7818608E-02  0.2136455E+00
        -11   -1    0    0    0    0  0.00000000000E+00  0.00000000000E+00  0.50000499739E+01  0.50000500000E+01  0.51100000000E-03 0.  1.
         11   -1    0    0    0    0 -0.00000000000E+00 -0.00000000000E+00 -0.50000499739E+01  0.50000500000E+01  0.51100000000E-03 0. -1.
     100001    1    1    2    0    0 -0.50572668142E-03 -0.89665520362E-02 -0.20477980494E-01  0.50000500000E+01  0.50000000000E+01 0.  0.
     100001    1    1    2    0    0  0.50572668142E-03  0.89665520362E-02  0.20477980494E-01  0.50000500000E+01  0.50000000000E+01 0.  1.
</event>
<event>
 4    1  0.5040302E-001  0.5000050E+01  0.7818608E-02  0.2136455E+00
        -11   -1    0    0    0    0  0.00000000000E+00  0.00000000000E+00  0.50000499739E+01  0.50000500000E+01  0.51100000000E-03 0.  1.
         11   -1    0    0    0    0 -0.00000000000E+00 -0.00000000000E+00 -0.50000499739E+01  0.50000500000E+01  0.51100000000E-03 0. -1.
     100001    1    1    2    0    0  0.18462078128E-01  0.80310602609E-02  0.97291439653E-02  0.50000500000E+01  0.50000000000E+01 0. -1.
     100001    1    1    2    0    0 -0.18462078128E-01 -0.80310602609E-02 -0.97291439653E-02  0.50000500000E+01  0.50000000000E+01 0.  1.
</event>
<event>
 4    1  0.5040302E-001  0.5000050E+01  0.7818608E-02  0.2136455E+00
        -11   -1    0    0    0    0  0.00000000000E+00  0.00000000000E+00  0.50000499739E+01  0.50000500000E+01  0.51100000000E-03 0. -1.
         11   -1    0    0    0    0 -0.00000000000E+00 -0.00000000000E+00 -0.50000499739E+01  0.50000500000E+01  0.51100000000E-03 0.  1.
     100001    1    1    2    0    0 -0.13111494690E-01 -0.17629763941E-01  0.41572383106E-02  0.50000500000E+01  0.50000000000E+01 0.  0.
     100001    1    1    2    0    0  0.13111494690E-01  0.17629763941E-01 -0.41572383106E-02  0.50000500000E+01  0.50000000000E+01 0.  1.
</event>
<event>
 4    1  0.5040302E-001  0.5000050E+01  0.7818608E-02  0.2136455E+00
        -11   -1    0    0    0    0  0.00000000000E+00  0.00000000000E+00  0.50000499739E+01  0.50000500000E+01  0.51100000000E-03 0. -1.
         11   -1    0    0    0    0 -0.00000000000E+00 -0.00000000000E+00 -0.50000499739E+01  0.50000500000E+01  0.51100000000E-03 0.  1.
     100001    1    1    2    0    0  0.20095811467E-02 -0.22212810528E-01  0.15984780476E-02  0.50000500000E+01  0.50000000000E+01 0.  1.
     100001    1    1    2    0    0 -0.20095811467E-02  0.22212810528E-01 -0.15984780476E-02  0.50000500000E+01  0.50000000000E+01 0.  0.
</event>
<event>
 4    1  0.5040302E-001  0.5000050E+01  0.7818608E-02  0.2136455E+00
        -11   -1    0    0    0    0  0.00000000000E+00  0.00000000000E+00  0.50000499739E+01  0.50000500000E+01  0.51100000000E-03 0.  1.
         11   -1    0    0    0    0 -0.00000000000E+00 -0.00000000000E+00 -0.50000499739E+01  0.50000500000E+01  0.51100000000E-03 0. -1.
     100001    1    1    2    0    0  0.26499158625E-02 -0.17498740400E-01 -0.13666547858E-01  0.50000500000E+01  0.50000000000E+01 0. -1.
     100001    1    1    2    0    0 -0.26499158625E-02  0.17498740400E-01  0.13666547858E-01  0.50000500000E+01  0.50000000000E+01 0.  1.
</event>
<event>
 4    1  0.5040302E-001  0.5000050E+01  0.7818608E-02  0.2136455E+00
        -11   -1    0    0    0    0  0.00000000000E+00  0.00000000000E+00  0.50000499739E+01  0.50000500000E+01  0.51100000000E-03 0. -1.
         11   -1    0    0    0    0 -0.00000000000E+00 -0.00000000000E+00 -0.50000499739E+01  0.50000500000E+01  0.51100000000E-03 0.  1.
     100001    1    1    2    0    0 -0.75337175906E-02 -0.80186103319E-02  0.19466573597E-01  0.50000500000E+01  0.50000000000E+01 0.  0.
     100001    1    1    2    0    0  0.75337175906E-02  0.80186103319E-02 -0.19466573597E-01  0.50000500000E+01  0.50000000000E+01 0.  1.
</event>
<event>
 4    1  0.5040302E-001  0.5000050E+01  0.7818608E-02  0.2136455E+00
        -11   -1    0    0    0    0  0.00000000000E+00  0.00000000000E+00  0.50000499739E+01  0.50000500000E+01  0.51100000000E-03 0. -1.
         11   -1    0    0    0    0 -0.00000000000E+00 -0.00000000000E+00 -0.50000499739E+01  0.50000500000E+01  0.51100000000E-03 0.  1.
     100001    1    1    2    0    0  0.14633844074E-01  0.13398207853E-01  0.10312183761E-01  0.50000500000E+01  0.50000000000E+01 0. -1.
     100001    1    1    2    0    0 -0.14633844074E-01 -0.13398207853E-01 -0.10312183761E-01  0.50000500000E+01  0.50000000000E+01 0.  1.
</event>
<event>
 4    1  0.5040302E-001  0.5000050E+01  0.7818608E-02  0.2136455E+00
        -11   -1    0    0    0    0  0.00000000000E+00  0.00000000000E+00  0.50000499739E+01  0.50000500000E+01  0.51100000000E-03 0. -1.
         11   -1    0    0    0    0 -0.00000000000E+00 -0.00000000000E+00 -0.50000499739E+01  0.50000500000E+01  0.51100000000E-03 0.  1.
     100001    1    1    2    0    0  0.15904729847E-01  0.23331021545E-02  0.15543445655E-01  0.50000500000E+01  0.50000000000E+01 0. -1.
     100001    1    1    2    0    0 -0.15904729847E-01 -0.23331021545E-02 -0.15543445655E-01  0.50000500000E+01  0.50000000000E+01 0.  1.
</event>
<event>
 4    1  0.5040302E-001  0.5000050E+01  0.7818608E-02  0.2136455E+00
        -11   -1    0    0    0    0  0.00000000000E+00  0.00000000000E+00  0.50000499739E+01  0.50000500000E+01  0.51100000000E-03 0. -1.
         11   -1    0    0    0    0 -0.00000000000E+00 -0.00000000000E+00 -0.50000499739E+01  0.50000500000E+01  0.51100000000E-03 0.  1.
     100001    1    1    2    0    0 -0.40665479002E-02 -0.69942973571E-02  0.20845754787E-01  0.50000500000E+01  0.50000000000E+01 0.  0.
     100001    1    1    2    0    0  0.40665479002E-02  0.69942973571E-02 -0.20845754787E-01  0.50000500000E+01  0.50000000000E+01 0.  1.
</event>
<event>
 4    1  0.5040302E-001  0.5000050E+01  0.7818608E-02  0.2136455E+00
        -11   -1    0    0    0    0  0.00000000000E+00  0.00000000000E+00  0.50000499739E+01  0.50000500000E+01  0.51100000000E-03 0.  1.
         11   -1    0    0    0    0 -0.00000000000E+00 -0.00000000000E+00 -0.50000499739E+01  0.50000500000E+01  0.51100000000E-03 0. -1.
     100001    1    1    2    0    0 -0.13718914112E-01 -0.13004833357E-01 -0.11944379637E-01  0.50000500000E+01  0.50000000000E+01 0. -1.
     100001    1    1    2    0    0  0.13718914112E-01  0.13004833357E-01  0.11944379637E-01  0.50000500000E+01  0.50000000000E+01 0. -1.
</event>
<event>
 4    1  0.5040302E-001  0.5000050E+01  0.7818608E-02  0.2136455E+00
        -11   -1    0    0    0    0  0.00000000000E+00  0.00000000000E+00  0.50000499739E+01  0.50000500000E+01  0.51100000000E-03 0.  1.
         11   -1    0    0    0    0 -0.00000000000E+00 -0.00000000000E+00 -0.50000499739E+01  0.50000500000E+01  0.51100000000E-03 0. -1.
     100001    1    1    2    0    0  0.12464103698E-01  0.29601316691E-02 -0.18327199445E-01  0.50000500000E+01  0.50000000000E+01 0. -1.
     100001    1    1    2    0    0 -0.12464103698E-01 -0.29601316691E-02  0.18327199445E-01  0.50000500000E+01  0.50000000000E+01 0.  0.
</event>
<event>
 4    1  0.5040302E-001  0.5000050E+01  0.7818608E-02  0.2136455E+00
        -11   -1    0    0    0    0  0.00000000000E+00  0.00000000000E+00  0.50000499739E+01  0.50000500000E+01  0.51100000000E-03 0. -1.
         11   -1    0    0    0    0 -0.00000000000E+00 -0.00000000000E+00 -0.50000499739E+01  0.50000500000E+01  0.51100000000E-03 0.  1.
     100001    1    1    2    0    0 -0.16567047028E-01 -0.10454916441E-01  0.10781009924E-01  0.50000500000E+01  0.50000000000E+01 0.  0.
     100001    1    1    2    0    0  0.16567047028E-01  0.10454916441E-01 -0.10781009924E-01  0.50000500000E+01  0.50000000000E+01 0.  0.
</event>
<event>
 4    1  0.5040302E-001  0.5000050E+01  0.7818608E-02  0.2136455E+00
        -11   -1    0    0    0    0  0.00000000000E+00  0.00000000000E+00  0.50000499739E+01  0.50000500000E+01  0.51100000000E-03 0. -1.
         11   -1    0    0    0    0 -0.00000000000E+00 -0.00000000000E+00 -0.50000499739E+01  0.50000500000E+01  0.51100000000E-03 0.  1.
     100001    1    1    2    0    0 -0.13426148231E-01  0.98323007368E-02 -0.14935424530E-01  0.50000500000E+01  0.50000000000E+01 0.  0.
     100001    1    1    2    0    0  0.13426148231E-01 -0.98323007368E-02  0.14935424530E-01  0.50000500000E+01  0.50000000000E+01 0.  0.
</event>
<event>
 4    1  0.5040302E-001  0.5000050E+01  0.7818608E-02  0.2136455E+00
        -11   -1    0    0    0    0  0.00000000000E+00  0.00000000000E+00  0.50000499739E+01  0.50000500000E+01  0.51100000000E-03 0. -1.
         11   -1    0    0    0    0 -0.00000000000E+00 -0.00000000000E+00 -0.50000499739E+01  0.50000500000E+01  0.51100000000E-03 0.  1.
     100001    1    1    2    0    0  0.77455278516E-02 -0.11236539145E-01 -0.17712975085E-01  0.50000500000E+01  0.50000000000E+01 0.  1.
     100001    1    1    2    0    0 -0.77455278516E-02  0.11236539145E-01  0.17712975085E-01  0.50000500000E+01  0.50000000000E+01 0.  1.
</event>
<event>
 4    1  0.5040302E-001  0.5000050E+01  0.7818608E-02  0.2136455E+00
        -11   -1    0    0    0    0  0.00000000000E+00  0.00000000000E+00  0.50000499739E+01  0.50000500000E+01  0.51100000000E-03 0. -1.
         11   -1    0    0    0    0 -0.00000000000E+00 -0.00000000000E+00 -0.50000499739E+01  0.50000500000E+01  0.51100000000E-03 0.  1.
     100001    1    1    2    0    0 -0.21135914387E-01  0.44595216289E-02  0.57782601071E-02  0.50000500000E+01  0.50000000000E+01 0. -1.
     100001    1    1    2    0    0  0.21135914387E-01 -0.44595216289E-02 -0.57782601071E-02  0.50000500000E+01  0.50000000000E+01 0.  0.
</event>
<event>
 4    1  0.5040302E-001  0.5000050E+01  0.7818608E-02  0.2136455E+00
        -11   -1    0    0    0    0  0.00000000000E+00  0.00000000000E+00  0.50000499739E+01  0.50000500000E+01  0.51100000000E-03 0.  1.
         11   -1    0    0    0    0 -0.00000000000E+00 -0.00000000000E+00 -0.50000499739E+01  0.50000500000E+01  0.51100000000E-03 0. -1.
     100001    1    1    2    0    0 -0.13818105660E-01 -0.12851077403E-02  0.17533138740E-01  0.50000500000E+01  0.50000000000E+01 0. -1.
     100001    1    1    2    0    0  0.13818105660E-01  0.12851077403E-02 -0.17533138740E-01  0.50000500000E+01  0.50000000000E+01 0. -1.
</event>
<event>
 4    1  0.5040302E-001  0.5000050E+01  0.7818608E-02  0.2136455E+00
        -11   -1    0    0    0    0  0.00000000000E+00  0.00000000000E+00  0.50000499739E+01  0.50000500000E+01  0.51100000000E-03 0. -1.
         11   -1    0    0    0    0 -0.00000000000E+00 -0.00000000000E+00 -0.50000499739E+01  0.50000500000E+01  0.51100000000E-03 0.  1.
     100001    1    1    2    0    0  0.13637364483E-01  0.16736284784E-01  0.58242219720E-02  0.50000500000E+01  0.50000000000E+01 0. -1.
     100001    1    1    2    0    0 -0.13637364483E-01 -0.16736284784E-01 -0.58242219720E-02  0.50000500000E+01  0.50000000000E+01 0.  1.
</event>
<event>
 4    1  0.5040302E-001  0.5000050E+01  0.7818608E-02  0.2136455E+00
        -11   -1    0    0    0    0  0.00000000000E+00  0.00000000000E+00  0.50000499739E+01  0.50000500000E+01  0.51100000000E-03 0. -1.
         11   -1    0    0    0    0 -0.00000000000E+00 -0.00000000000E+00 -0.50000499739E+01  0.50000500000E+01  0.51100000000E-03 0.  1.
     100001    1    1    2    0    0  0.11337028267E-01 -0.68290959028E-02 -0.18023255511E-01  0.50000500000E+01  0.50000000000E+01 0.  0.
     100001    1    1    2    0    0 -0.11337028267E-01  0.68290959028E-02  0.18023255511E-01  0.50000500000E+01  0.50000000000E+01 0.  0.
</event>
<event>
 4    1  0.5040302E-001  0.5000050E+01  0.7818608E-02  0.2136455E+00
        -11   -1    0    0    0    0  0.00000000000E+00  0.00000000000E+00  0.50000499739E+01  0.50000500000E+01  0.51100000000E-03 0.  1.
         11   -1    0    0    0    0 -0.00000000000E+00 -0.00000000000E+00 -0.50000499739E+01  0.50000500000E+01  0.51100000000E-03 0. -1.
     100001    1    1    2    0    0  0.12941046932E-01 -0.11999886216E-01 -0.13730787854E-01  0.50000500000E+01  0.50000000000E+01 0. -1.
     100001    1    1    2    0    0 -0.12941046932E-01  0.11999886216E-01  0.13730787854E-01  0.50000500000E+01  0.50000000000E+01 0.  1.
</event>
<event>
 4    1  0.5040302E-001  0.5000050E+01  0.7818608E-02  0.2136455E+00
        -11   -1    0    0    0    0  0.00000000000E+00  0.00000000000E+00  0.50000499739E+01  0.50000500000E+01  0.51100000000E-03 0. -1.
         11   -1    0    0    0    0 -0.00000000000E+00 -0.00000000000E+00 -0.50000499739E+01  0.50000500000E+01  0.51100000000E-03 0.  1.
     100001    1    1    2    0    0  0.29459666785E-03  0.17907651103E-01  0.13387746068E-01  0.50000500000E+01  0.50000000000E+01 0. -1.
     100001    1    1    2    0    0 -0.29459666785E-03 -0.17907651103E-01 -0.13387746068E-01  0.50000500000E+01  0.50000000000E+01 0.  1.
</event>
<event>
 4    1  0.5040302E-001  0.5000050E+01  0.7818608E-02  0.2136455E+00
        -11   -1    0    0    0    0  0.00000000000E+00  0.00000000000E+00  0.50000499739E+01  0.50000500000E+01  0.51100000000E-03 0. -1.
         11   -1    0    0    0    0 -0.00000000000E+00 -0.00000000000E+00 -0.50000499739E+01  0.50000500000E+01  0.51100000000E-03 0.  1.
     100001    1    1    2    0    0  0.15164521430E-01 -0.14934369518E-01 -0.68559752679E-02  0.50000500000E+01  0.50000000000E+01 0.  1.
     100001    1    1    2    0    0 -0.15164521430E-01  0.14934369518E-01  0.68559752679E-02  0.50000500000E+01  0.50000000000E+01 0. -1.
</event>
<event>
 4    1  0.5040302E-001  0.5000050E+01  0.7818608E-02  0.2136455E+00
        -11   -1    0    0    0    0  0.00000000000E+00  0.00000000000E+00  0.50000499739E+01  0.50000500000E+01  0.51100000000E-03 0.  1.
         11   -1    0    0    0    0 -0.00000000000E+00 -0.00000000000E+00 -0.50000499739E+01  0.50000500000E+01  0.51100000000E-03 0. -1.
     100001    1    1    2    0    0 -0.22276737502E-01  0.48314439056E-03 -0.18751100630E-02  0.50000500000E+01  0.50000000000E+01 0.  0.
     100001    1    1    2    0    0  0.22276737502E-01 -0.48314439056E-03  0.18751100630E-02  0.50000500000E+01  0.50000000000E+01 0. -1.
</event>
<event>
 4    1  0.5040302E-001  0.5000050E+01  0.7818608E-02  0.2136455E+00
        -11   -1    0    0    0    0  0.00000000000E+00  0.00000000000E+00  0.50000499739E+01  0.50000500000E+01  0.51100000000E-03 0.  1.
         11   -1    0    0    0    0 -0.00000000000E+00 -0.00000000000E+00 -0.50000499739E+01  0.50000500000E+01  0.51100000000E-03 0. -1.
     100001    1    1    2    0    0  0.42387336207E-02  0.20255059792E-01  0.84716108327E-02  0.50000500000E+01  0.50000000000E+01 0.  1.
     100001    1    1    2    0    0 -0.42387336207E-02 -0.20255059792E-01 -0.84716108327E-02  0.50000500000E+01  0.50000000000E+01 0. -1.
</event>
<event>
 4    1  0.5040302E-001  0.5000050E+01  0.7818608E-02  0.2136455E+00
        -11   -1    0    0    0    0  0.00000000000E+00  0.00000000000E+00  0.50000499739E+01  0.50000500000E+01  0.51100000000E-03 0.  1.
         11   -1    0    0    0    0 -0.00000000000E+00 -0.00000000000E+00 -0.50000499739E+01  0.50000500000E+01  0.51100000000E-03 0. -1.
     100001    1    1    2    0    0  0.13260863212E-01 -0.13780685583E-01  0.11586402018E-01  0.50000500000E+01  0.50000000000E+01 0.  1.
     100001    1    1    2    0    0 -0.13260863212E-01  0.13780685583E-01 -0.11586402018E-01  0.50000500000E+01  0.50000000000E+01 0. -1.
</event>
<event>
 4    1  0.5040302E-001  0.5000050E+01  0.7818608E-02  0.2136455E+00
        -11   -1    0    0    0    0  0.00000000000E+00  0.00000000000E+00  0.50000499739E+01  0.50000500000E+01  0.51100000000E-03 0. -1.
         11   -1    0    0    0    0 -0.00000000000E+00 -0.00000000000E+00 -0.50000499739E+01  0.50000500000E+01  0.51100000000E-03 0.  1.
     100001    1    1    2    0    0  0.19125136931E-01 -0.83881352254E-02 -0.79919224738E-02  0.50000500000E+01  0.50000000000E+01 0.  1.
     100001    1    1    2    0    0 -0.19125136931E-01  0.83881352254E-02  0.79919224738E-02  0.50000500000E+01  0.50000000000E+01 0. -1.
</event>
<event>
 4    1  0.5040302E-001  0.5000050E+01  0.7818608E-02  0.2136455E+00
        -11   -1    0    0    0    0  0.00000000000E+00  0.00000000000E+00  0.50000499739E+01  0.50000500000E+01  0.51100000000E-03 0. -1.
         11   -1    0    0    0    0 -0.00000000000E+00 -0.00000000000E+00 -0.50000499739E+01  0.50000500000E+01  0.51100000000E-03 0.  1.
     100001    1    1    2    0    0 -0.36641428871E-02  0.63528744499E-02  0.21123861937E-01  0.50000500000E+01  0.50000000000E+01 0. -1.
     100001    1    1    2    0    0  0.36641428871E-02 -0.63528744499E-02 -0.21123861937E-01  0.50000500000E+01  0.50000000000E+01 0.  0.
</event>
<event>
 4    1  0.5040302E-001  0.5000050E+01  0.7818608E-02  0.2136455E+00
        -11   -1    0    0    0    0  0.00000000000E+00  0.00000000000E+00  0.50000499739E+01  0.50000500000E+01  0.51100000000E-03 0. -1.
         11   -1    0    0    0    0 -0.00000000000E+00 -0.00000000000E+00 -0.50000499739E+01  0.50000500000E+01  0.51100000000E-03 0.  1.
     100001    1    1    2    0    0 -0.10254587458E-01  0.14693458134E-01  0.13377153065E-01  0.50000500000E+01  0.50000000000E+01 0. -1.
     100001    1    1    2    0    0  0.10254587458E-01 -0.14693458134E-01 -0.13377153065E-01  0.50000500000E+01  0.50000000000E+01 0.  1.
</event>
<event>
 4    1  0.5040302E-001  0.5000050E+01  0.7818608E-02  0.2136455E+00
        -11   -1    0    0    0    0  0.00000000000E+00  0.00000000000E+00  0.50000499739E+01  0.50000500000E+01  0.51100000000E-03 0.  1.
         11   -1    0    0    0    0 -0.00000000000E+00 -0.00000000000E+00 -0.50000499739E+01  0.50000500000E+01  0.51100000000E-03 0. -1.
     100001    1    1    2    0    0  0.47833335550E-02 -0.21598794419E-01  0.32579594460E-02  0.50000500000E+01  0.50000000000E+01 0.  0.
     100001    1    1    2    0    0 -0.47833335550E-02  0.21598794419E-01 -0.32579594460E-02  0.50000500000E+01  0.50000000000E+01 0. -1.
</event>
<event>
 4    1  0.5040302E-001  0.5000050E+01  0.7818608E-02  0.2136455E+00
        -11   -1    0    0    0    0  0.00000000000E+00  0.00000000000E+00  0.50000499739E+01  0.50000500000E+01  0.51100000000E-03 0. -1.
         11   -1    0    0    0    0 -0.00000000000E+00 -0.00000000000E+00 -0.50000499739E+01  0.50000500000E+01  0.51100000000E-03 0.  1.
     100001    1    1    2    0    0  0.94443396661E-02 -0.11661998078E-01 -0.16577235870E-01  0.50000500000E+01  0.50000000000E+01 0.  1.
     100001    1    1    2    0    0 -0.94443396661E-02  0.11661998078E-01  0.16577235870E-01  0.50000500000E+01  0.50000000000E+01 0.  0.
</event>
<event>
 4    1  0.5040302E-001  0.5000050E+01  0.7818608E-02  0.2136455E+00
        -11   -1    0    0    0    0  0.00000000000E+00  0.00000000000E+00  0.50000499739E+01  0.50000500000E+01  0.51100000000E-03 0. -1.
         11   -1    0    0    0    0 -0.00000000000E+00 -0.00000000000E+00 -0.50000499739E+01  0.50000500000E+01  0.51100000000E-03 0.  1.
     100001    1    1    2    0    0 -0.82763660619E-02 -0.61219865688E-02  0.19850076707E-01  0.50000500000E+01  0.50000000000E+01 0. -1.
     100001    1    1    2    0    0  0.82763660619E-02  0.61219865688E-02 -0.19850076707E-01  0.50000500000E+01  0.50000000000E+01 0.  0.
</event>
<event>
 4    1  0.5040302E-001  0.5000050E+01  0.7818608E-02  0.2136455E+00
        -11   -1    0    0    0    0  0.00000000000E+00  0.00000000000E+00  0.50000499739E+01  0.50000500000E+01  0.51100000000E-03 0. -1.
         11   -1    0    0    0    0 -0.00000000000E+00 -0.00000000000E+00 -0.50000499739E+01  0.50000500000E+01  0.51100000000E-03 0.  1.
     100001    1    1    2    0    0  0.15051574019E-01  0.16519380541E-01  0.75012404014E-03  0.50000500000E+01  0.50000000000E+01 0.  0.
     100001    1    1    2    0    0 -0.15051574019E-01 -0.16519380541E-01 -0.75012404014E-03  0.50000500000E+01  0.50000000000E+01 0. -1.
</event>
<event>
 4    1  0.5040302E-001  0.5000050E+01  0.7818608E-02  0.2136455E+00
        -11   -1    0    0    0    0  0.00000000000E+00  0.00000000000E+00  0.50000499739E+01  0.50000500000E+01  0.51100000000E-03 0.  1.
         11   -1    0    0    0    0 -0.00000000000E+00 -0.00000000000E+00 -0.50000499739E+01  0.50000500000E+01  0.51100000000E-03 0. -1.
     100001    1    1    2    0    0  0.79969760807E-02  0.18087543208E-01  0.10435116399E-01  0.50000500000E+01  0.50000000000E+01 0.  1.
     100001    1    1    2    0    0 -0.79969760807E-02 -0.18087543208E-01 -0.10435116399E-01  0.50000500000E+01  0.50000000000E+01 0. -1.
</event>
<event>
 4    1  0.5040302E-001  0.5000050E+01  0.7818608E-02  0.2136455E+00
        -11   -1    0    0    0    0  0.00000000000E+00  0.00000000000E+00  0.50000499739E+01  0.50000500000E+01  0.51100000000E-03 0.  1.
         11   -1    0    0    0    0 -0.00000000000E+00 -0.00000000000E+00 -0.50000499739E+01  0.50000500000E+01  0.51100000000E-03 0. -1.
     100001    1    1    2    0    0  0.12366427335E-01  0.18322834207E-01 -0.33686379424E-02  0.50000500000E+01  0.50000000000E+01 0.  1.
     100001    1    1    2    0    0 -0.12366427335E-01 -0.18322834207E-01  0.33686379424E-02  0.50000500000E+01  0.50000000000E+01 0. -1.
</event>
<event>
 4    1  0.5040302E-001  0.5000050E+01  0.7818608E-02  0.2136455E+00
        -11   -1    0    0    0    0  0.00000000000E+00  0.00000000000E+00  0.50000499739E+01  0.50000500000E+01  0.51100000000E-03 0. -1.
         11   -1    0    0    0    0 -0.00000000000E+00 -0.00000000000E+00 -0.50000499739E+01  0.50000500000E+01  0.51100000000E-03 0.  1.
     100001    1    1    2    0    0  0.85315968916E-02  0.20370943123E-01  0.34984326122E-02  0.50000500000E+01  0.50000000000E+01 0. -1.
     100001    1    1    2    0    0 -0.85315968916E-02 -0.20370943123E-01 -0.34984326122E-02  0.50000500000E+01  0.50000000000E+01 0.  1.
</event>
<event>
 4    1  0.5040302E-001  0.5000050E+01  0.7818608E-02  0.2136455E+00
        -11   -1    0    0    0    0  0.00000000000E+00  0.00000000000E+00  0.50000499739E+01  0.50000500000E+01  0.51100000000E-03 0. -1.
         11   -1    0    0    0    0 -0.00000000000E+00 -0.00000000000E+00 -0.50000499739E+01  0.50000500000E+01  0.51100000000E-03 0.  1.
     100001    1    1    2    0    0  0.20045099349E-01  0.28842241933E-02 -0.94803872761E-02  0.50000500000E+01  0.50000000000E+01 0.  1.
     100001    1    1    2    0    0 -0.20045099349E-01 -0.28842241933E-02  0.94803872762E-02  0.50000500000E+01  0.50000000000E+01 0. -1.
</event>
<event>
 4    1  0.5040302E-001  0.5000050E+01  0.7818608E-02  0.2136455E+00
        -11   -1    0    0    0    0  0.00000000000E+00  0.00000000000E+00  0.50000499739E+01  0.50000500000E+01  0.51100000000E-03 0. -1.
         11   -1    0    0    0    0 -0.00000000000E+00 -0.00000000000E+00 -0.50000499739E+01  0.50000500000E+01  0.51100000000E-03 0.  1.
     100001    1    1    2    0    0  0.19287413661E-01 -0.10926347903E-01 -0.29348076211E-02  0.50000500000E+01  0.50000000000E+01 0.  0.
     100001    1    1    2    0    0 -0.19287413661E-01  0.10926347903E-01  0.29348076211E-02  0.50000500000E+01  0.50000000000E+01 0. -1.
</event>
<event>
 4    1  0.5040302E-001  0.5000050E+01  0.7818608E-02  0.2136455E+00
        -11   -1    0    0    0    0  0.00000000000E+00  0.00000000000E+00  0.50000499739E+01  0.50000500000E+01  0.51100000000E-03 0.  1.
         11   -1    0    0    0    0 -0.00000000000E+00 -0.00000000000E+00 -0.50000499739E+01  0.50000500000E+01  0.51100000000E-03 0. -1.
     100001    1    1    2    0    0  0.19776683575E-01  0.22998000344E-02  0.10178222172E-01  0.50000500000E+01  0.50000000000E+01 0. -1.
     100001    1    1    2    0    0 -0.19776683575E-01 -0.22998000344E-02 -0.10178222172E-01  0.50000500000E+01  0.50000000000E+01 0.  0.
</event>
<event>
 4    1  0.5040302E-001  0.5000050E+01  0.7818608E-02  0.2136455E+00
        -11   -1    0    0    0    0  0.00000000000E+00  0.00000000000E+00  0.50000499739E+01  0.50000500000E+01  0.51100000000E-03 0. -1.
         11   -1    0    0    0    0 -0.00000000000E+00 -0.00000000000E+00 -0.50000499739E+01  0.50000500000E+01  0.51100000000E-03 0.  1.
     100001    1    1    2    0    0 -0.39195480184E-02  0.16611402668E-01  0.14446485549E-01  0.50000500000E+01  0.50000000000E+01 0. -1.
     100001    1    1    2    0    0  0.39195480184E-02 -0.16611402668E-01 -0.14446485549E-01  0.50000500000E+01  0.50000000000E+01 0.  1.
</event>
<event>
 4    1  0.5040302E-001  0.5000050E+01  0.7818608E-02  0.2136455E+00
        -11   -1    0    0    0    0  0.00000000000E+00  0.00000000000E+00  0.50000499739E+01  0.50000500000E+01  0.51100000000E-03 0.  1.
         11   -1    0    0    0    0 -0.00000000000E+00 -0.00000000000E+00 -0.50000499739E+01  0.50000500000E+01  0.51100000000E-03 0. -1.
     100001    1    1    2    0    0  0.10736605463E-01  0.54223245755E-02 -0.18850098125E-01  0.50000500000E+01  0.50000000000E+01 0. -1.
     100001    1    1    2    0    0 -0.10736605463E-01 -0.54223245755E-02  0.18850098125E-01  0.50000500000E+01  0.50000000000E+01 0.  1.
</event>
<event>
 4    1  0.5040302E-001  0.5000050E+01  0.7818608E-02  0.2136455E+00
        -11   -1    0    0    0    0  0.00000000000E+00  0.00000000000E+00  0.50000499739E+01  0.50000500000E+01  0.51100000000E-03 0.  1.
         11   -1    0    0    0    0 -0.00000000000E+00 -0.00000000000E+00 -0.50000499739E+01  0.50000500000E+01  0.51100000000E-03 0. -1.
     100001    1    1    2    0    0  0.86210287239E-02 -0.20571906659E-01 -0.15738551822E-02  0.50000500000E+01  0.50000000000E+01 0.  1.
     100001    1    1    2    0    0 -0.86210287239E-02  0.20571906659E-01  0.15738551822E-02  0.50000500000E+01  0.50000000000E+01 0.  0.
</event>
<event>
 4    1  0.5040302E-001  0.5000050E+01  0.7818608E-02  0.2136455E+00
        -11   -1    0    0    0    0  0.00000000000E+00  0.00000000000E+00  0.50000499739E+01  0.50000500000E+01  0.51100000000E-03 0.  1.
         11   -1    0    0    0    0 -0.00000000000E+00 -0.00000000000E+00 -0.50000499739E+01  0.50000500000E+01  0.51100000000E-03 0. -1.
     100001    1    1    2    0    0  0.15719729052E-01 -0.54701511154E-03 -0.15893187000E-01  0.50000500000E+01  0.50000000000E+01 0. -1.
     100001    1    1    2    0    0 -0.15719729052E-01  0.54701511154E-03  0.15893187000E-01  0.50000500000E+01  0.50000000000E+01 0.  1.
</event>
<event>
 4    1  0.5040302E-001  0.5000050E+01  0.7818608E-02  0.2136455E+00
        -11   -1    0    0    0    0  0.00000000000E+00  0.00000000000E+00  0.50000499739E+01  0.50000500000E+01  0.51100000000E-03 0. -1.
         11   -1    0    0    0    0 -0.00000000000E+00 -0.00000000000E+00 -0.50000499739E+01  0.50000500000E+01  0.51100000000E-03 0.  1.
     100001    1    1    2    0    0  0.68373509710E-02 -0.65638484228E-02  0.20252630090E-01  0.50000500000E+01  0.50000000000E+01 0. -1.
     100001    1    1    2    0    0 -0.68373509710E-02  0.65638484228E-02 -0.20252630090E-01  0.50000500000E+01  0.50000000000E+01 0. -1.
</event>
<event>
 4    1  0.5040302E-001  0.5000050E+01  0.7818608E-02  0.2136455E+00
        -11   -1    0    0    0    0  0.00000000000E+00  0.00000000000E+00  0.50000499739E+01  0.50000500000E+01  0.51100000000E-03 0.  1.
         11   -1    0    0    0    0 -0.00000000000E+00 -0.00000000000E+00 -0.50000499739E+01  0.50000500000E+01  0.51100000000E-03 0. -1.
     100001    1    1    2    0    0  0.20649530079E-01 -0.80008775125E-02  0.30960243108E-02  0.50000500000E+01  0.50000000000E+01 0. -1.
     100001    1    1    2    0    0 -0.20649530079E-01  0.80008775125E-02 -0.30960243108E-02  0.50000500000E+01  0.50000000000E+01 0.  1.
</event>
<event>
 4    1  0.5040302E-001  0.5000050E+01  0.7818608E-02  0.2136455E+00
        -11   -1    0    0    0    0  0.00000000000E+00  0.00000000000E+00  0.50000499739E+01  0.50000500000E+01  0.51100000000E-03 0.  1.
         11   -1    0    0    0    0 -0.00000000000E+00 -0.00000000000E+00 -0.50000499739E+01  0.50000500000E+01  0.51100000000E-03 0. -1.
     100001    1    1    2    0    0  0.15077846833E-01  0.17234983890E-02  0.16422258925E-01  0.50000500000E+01  0.50000000000E+01 0.  1.
     100001    1    1    2    0    0 -0.15077846833E-01 -0.17234983890E-02 -0.16422258925E-01  0.50000500000E+01  0.50000000000E+01 0. -1.
</event>
<event>
 4    1  0.5040302E-001  0.5000050E+01  0.7818608E-02  0.2136455E+00
        -11   -1    0    0    0    0  0.00000000000E+00  0.00000000000E+00  0.50000499739E+01  0.50000500000E+01  0.51100000000E-03 0. -1.
         11   -1    0    0    0    0 -0.00000000000E+00 -0.00000000000E+00 -0.50000499739E+01  0.50000500000E+01  0.51100000000E-03 0.  1.
     100001    1    1    2    0    0 -0.21421027267E-01  0.58557704304E-02  0.26176408237E-02  0.50000500000E+01  0.50000000000E+01 0.  0.
     100001    1    1    2    0    0  0.21421027267E-01 -0.58557704304E-02 -0.26176408237E-02  0.50000500000E+01  0.50000000000E+01 0. -1.
</event>
<event>
 4    1  0.5040302E-001  0.5000050E+01  0.7818608E-02  0.2136455E+00
        -11   -1    0    0    0    0  0.00000000000E+00  0.00000000000E+00  0.50000499739E+01  0.50000500000E+01  0.51100000000E-03 0. -1.
         11   -1    0    0    0    0 -0.00000000000E+00 -0.00000000000E+00 -0.50000499739E+01  0.50000500000E+01  0.51100000000E-03 0.  1.
     100001    1    1    2    0    0  0.21389313692E-01 -0.94142913828E-03  0.64508504046E-02  0.50000500000E+01  0.50000000000E+01 0.  0.
     100001    1    1    2    0    0 -0.21389313692E-01  0.94142913828E-03 -0.64508504046E-02  0.50000500000E+01  0.50000000000E+01 0. -1.
</event>
<event>
 4    1  0.5040302E-001  0.5000050E+01  0.7818608E-02  0.2136455E+00
        -11   -1    0    0    0    0  0.00000000000E+00  0.00000000000E+00  0.50000499739E+01  0.50000500000E+01  0.51100000000E-03 0.  1.
         11   -1    0    0    0    0 -0.00000000000E+00 -0.00000000000E+00 -0.50000499739E+01  0.50000500000E+01  0.51100000000E-03 0. -1.
     100001    1    1    2    0    0 -0.19758749827E-01 -0.90918502670E-02  0.51896593314E-02  0.50000500000E+01  0.50000000000E+01 0. -1.
     100001    1    1    2    0    0  0.19758749827E-01  0.90918502670E-02 -0.51896593314E-02  0.50000500000E+01  0.50000000000E+01 0.  1.
</event>
<event>
 4    1  0.5040302E-001  0.5000050E+01  0.7818608E-02  0.2136455E+00
        -11   -1    0    0    0    0  0.00000000000E+00  0.00000000000E+00  0.50000499739E+01  0.50000500000E+01  0.51100000000E-03 0. -1.
         11   -1    0    0    0    0 -0.00000000000E+00 -0.00000000000E+00 -0.50000499739E+01  0.50000500000E+01  0.51100000000E-03 0.  1.
     100001    1    1    2    0    0  0.21162872737E-01  0.65689885919E-02 -0.29972831657E-02  0.50000500000E+01  0.50000000000E+01 0.  0.
     100001    1    1    2    0    0 -0.21162872737E-01 -0.65689885919E-02  0.29972831657E-02  0.50000500000E+01  0.50000000000E+01 0.  1.
</event>
<event>
 4    1  0.5040302E-001  0.5000050E+01  0.7818608E-02  0.2136455E+00
        -11   -1    0    0    0    0  0.00000000000E+00  0.00000000000E+00  0.50000499739E+01  0.50000500000E+01  0.51100000000E-03 0.  1.
         11   -1    0    0    0    0 -0.00000000000E+00 -0.00000000000E+00 -0.50000499739E+01  0.50000500000E+01  0.51100000000E-03 0. -1.
     100001    1    1    2    0    0 -0.99941729429E-02 -0.18926257579E-01 -0.64742398192E-02  0.50000500000E+01  0.50000000000E+01 0.  0.
     100001    1    1    2    0    0  0.99941729429E-02  0.18926257579E-01  0.64742398192E-02  0.50000500000E+01  0.50000000000E+01 0.  0.
</event>
<event>
 4    1  0.5040302E-001  0.5000050E+01  0.7818608E-02  0.2136455E+00
        -11   -1    0    0    0    0  0.00000000000E+00  0.00000000000E+00  0.50000499739E+01  0.50000500000E+01  0.51100000000E-03 0. -1.
         11   -1    0    0    0    0 -0.00000000000E+00 -0.00000000000E+00 -0.50000499739E+01  0.50000500000E+01  0.51100000000E-03 0.  1.
     100001    1    1    2    0    0  0.33536014167E-02 -0.20198516480E-01  0.89875352325E-02  0.50000500000E+01  0.50000000000E+01 0.  0.
     100001    1    1    2    0    0 -0.33536014167E-02  0.20198516480E-01 -0.89875352325E-02  0.50000500000E+01  0.50000000000E+01 0. -1.
</event>
<event>
 4    1  0.5040302E-001  0.5000050E+01  0.7818608E-02  0.2136455E+00
        -11   -1    0    0    0    0  0.00000000000E+00  0.00000000000E+00  0.50000499739E+01  0.50000500000E+01  0.51100000000E-03 0.  1.
         11   -1    0    0    0    0 -0.00000000000E+00 -0.00000000000E+00 -0.50000499739E+01  0.50000500000E+01  0.51100000000E-03 0. -1.
     100001    1    1    2    0    0 -0.19876617569E-01  0.28829119339E-02 -0.98291094606E-02  0.50000500000E+01  0.50000000000E+01 0. -1.
     100001    1    1    2    0    0  0.19876617569E-01 -0.28829119339E-02  0.98291094606E-02  0.50000500000E+01  0.50000000000E+01 0.  1.
</event>
<event>
 4    1  0.5040302E-001  0.5000050E+01  0.7818608E-02  0.2136455E+00
        -11   -1    0    0    0    0  0.00000000000E+00  0.00000000000E+00  0.50000499739E+01  0.50000500000E+01  0.51100000000E-03 0.  1.
         11   -1    0    0    0    0 -0.00000000000E+00 -0.00000000000E+00 -0.50000499739E+01  0.50000500000E+01  0.51100000000E-03 0. -1.
     100001    1    1    2    0    0 -0.14072489430E-01 -0.17274978729E-01  0.18821931817E-02  0.50000500000E+01  0.50000000000E+01 0.  0.
     100001    1    1    2    0    0  0.14072489430E-01  0.17274978729E-01 -0.18821931817E-02  0.50000500000E+01  0.50000000000E+01 0.  1.
</event>
<event>
 4    1  0.5040302E-001  0.5000050E+01  0.7818608E-02  0.2136455E+00
        -11   -1    0    0    0    0  0.00000000000E+00  0.00000000000E+00  0.50000499739E+01  0.50000500000E+01  0.51100000000E-03 0. -1.
         11   -1    0    0    0    0 -0.00000000000E+00 -0.00000000000E+00 -0.50000499739E+01  0.50000500000E+01  0.51100000000E-03 0.  1.
     100001    1    1    2    0    0 -0.16875216553E-01 -0.14531168595E-01 -0.20185899910E-02  0.50000500000E+01  0.50000000000E+01 0.  1.
     100001    1    1    2    0    0  0.16875216553E-01  0.14531168595E-01  0.20185899910E-02  0.50000500000E+01  0.50000000000E+01 0. -1.
</event>
<event>
 4    1  0.5040302E-001  0.5000050E+01  0.7818608E-02  0.2136455E+00
        -11   -1    0    0    0    0  0.00000000000E+00  0.00000000000E+00  0.50000499739E+01  0.50000500000E+01  0.51100000000E-03 0.  1.
         11   -1    0    0    0    0 -0.00000000000E+00 -0.00000000000E+00 -0.50000499739E+01  0.50000500000E+01  0.51100000000E-03 0. -1.
     100001    1    1    2    0    0 -0.14896223118E-01 -0.16132145237E-01  0.42259823536E-02  0.50000500000E+01  0.50000000000E+01 0.  1.
     100001    1    1    2    0    0  0.14896223118E-01  0.16132145237E-01 -0.42259823536E-02  0.50000500000E+01  0.50000000000E+01 0.  0.
</event>
<event>
 4    1  0.5040302E-001  0.5000050E+01  0.7818608E-02  0.2136455E+00
        -11   -1    0    0    0    0  0.00000000000E+00  0.00000000000E+00  0.50000499739E+01  0.50000500000E+01  0.51100000000E-03 0.  1.
         11   -1    0    0    0    0 -0.00000000000E+00 -0.00000000000E+00 -0.50000499739E+01  0.50000500000E+01  0.51100000000E-03 0. -1.
     100001    1    1    2    0    0  0.66065990275E-02  0.13293314874E-01 -0.16722533569E-01  0.50000500000E+01  0.50000000000E+01 0. -1.
     100001    1    1    2    0    0 -0.66065990275E-02 -0.13293314874E-01  0.16722533569E-01  0.50000500000E+01  0.50000000000E+01 0.  1.
</event>
<event>
 4    1  0.5040302E-001  0.5000050E+01  0.7818608E-02  0.2136455E+00
        -11   -1    0    0    0    0  0.00000000000E+00  0.00000000000E+00  0.50000499739E+01  0.50000500000E+01  0.51100000000E-03 0. -1.
         11   -1    0    0    0    0 -0.00000000000E+00 -0.00000000000E+00 -0.50000499739E+01  0.50000500000E+01  0.51100000000E-03 0.  1.
     100001    1    1    2    0    0  0.36415040634E-02 -0.11888432760E-01 -0.18585131548E-01  0.50000500000E+01  0.50000000000E+01 0.  0.
     100001    1    1    2    0    0 -0.36415040634E-02  0.11888432760E-01  0.18585131548E-01  0.50000500000E+01  0.50000000000E+01 0. -1.
</event>
<event>
 4    1  0.5040302E-001  0.5000050E+01  0.7818608E-02  0.2136455E+00
        -11   -1    0    0    0    0  0.00000000000E+00  0.00000000000E+00  0.50000499739E+01  0.50000500000E+01  0.51100000000E-03 0.  1.
         11   -1    0    0    0    0 -0.00000000000E+00 -0.00000000000E+00 -0.50000499739E+01  0.50000500000E+01  0.51100000000E-03 0. -1.
     100001    1    1    2    0    0  0.16556235409E-01  0.65136801792E-02 -0.13544945168E-01  0.50000500000E+01  0.50000000000E+01 0. -1.
     100001    1    1    2    0    0 -0.16556235409E-01 -0.65136801792E-02  0.13544945168E-01  0.50000500000E+01  0.50000000000E+01 0.  1.
</event>
<event>
 4    1  0.5040302E-001  0.5000050E+01  0.7818608E-02  0.2136455E+00
        -11   -1    0    0    0    0  0.00000000000E+00  0.00000000000E+00  0.50000499739E+01  0.50000500000E+01  0.51100000000E-03 0.  1.
         11   -1    0    0    0    0 -0.00000000000E+00 -0.00000000000E+00 -0.50000499739E+01  0.50000500000E+01  0.51100000000E-03 0. -1.
     100001    1    1    2    0    0  0.25296948838E-03  0.20365042352E-01 -0.92305772531E-02  0.50000500000E+01  0.50000000000E+01 0. -1.
     100001    1    1    2    0    0 -0.25296948838E-03 -0.20365042352E-01  0.92305772531E-02  0.50000500000E+01  0.50000000000E+01 0.  1.
</event>
<event>
 4    1  0.5040302E-001  0.5000050E+01  0.7818608E-02  0.2136455E+00
        -11   -1    0    0    0    0  0.00000000000E+00  0.00000000000E+00  0.50000499739E+01  0.50000500000E+01  0.51100000000E-03 0.  1.
         11   -1    0    0    0    0 -0.00000000000E+00 -0.00000000000E+00 -0.50000499739E+01  0.50000500000E+01  0.51100000000E-03 0. -1.
     100001    1    1    2    0    0 -0.64797300268E-02 -0.17651711633E-01 -0.12100936956E-01  0.50000500000E+01  0.50000000000E+01 0.  0.
     100001    1    1    2    0    0  0.64797300268E-02  0.17651711633E-01  0.12100936956E-01  0.50000500000E+01  0.50000000000E+01 0. -1.
</event>
<event>
 4    1  0.5040302E-001  0.5000050E+01  0.7818608E-02  0.2136455E+00
        -11   -1    0    0    0    0  0.00000000000E+00  0.00000000000E+00  0.50000499739E+01  0.50000500000E+01  0.51100000000E-03 0.  1.
         11   -1    0    0    0    0 -0.00000000000E+00 -0.00000000000E+00 -0.50000499739E+01  0.50000500000E+01  0.51100000000E-03 0. -1.
     100001    1    1    2    0    0 -0.16024066260E-01 -0.10280430672E-01  0.11727938681E-01  0.50000500000E+01  0.50000000000E+01 0. -1.
     100001    1    1    2    0    0  0.16024066260E-01  0.10280430672E-01 -0.11727938681E-01  0.50000500000E+01  0.50000000000E+01 0. -1.
</event>
<event>
 4    1  0.5040302E-001  0.5000050E+01  0.7818608E-02  0.2136455E+00
        -11   -1    0    0    0    0  0.00000000000E+00  0.00000000000E+00  0.50000499739E+01  0.50000500000E+01  0.51100000000E-03 0. -1.
         11   -1    0    0    0    0 -0.00000000000E+00 -0.00000000000E+00 -0.50000499739E+01  0.50000500000E+01  0.51100000000E-03 0.  1.
     100001    1    1    2    0    0 -0.16752487700E-01  0.54464067033E-02  0.13772919439E-01  0.50000500000E+01  0.50000000000E+01 0. -1.
     100001    1    1    2    0    0  0.16752487700E-01 -0.54464067033E-02 -0.13772919439E-01  0.50000500000E+01  0.50000000000E+01 0.  1.
</event>
<event>
 4    1  0.5040302E-001  0.5000050E+01  0.7818608E-02  0.2136455E+00
        -11   -1    0    0    0    0  0.00000000000E+00  0.00000000000E+00  0.50000499739E+01  0.50000500000E+01  0.51100000000E-03 0. -1.
         11   -1    0    0    0    0 -0.00000000000E+00 -0.00000000000E+00 -0.50000499739E+01  0.50000500000E+01  0.51100000000E-03 0.  1.
     100001    1    1    2    0    0  0.19744286802E-01  0.86529935674E-02  0.59406515625E-02  0.50000500000E+01  0.50000000000E+01 0. -1.
     100001    1    1    2    0    0 -0.19744286802E-01 -0.86529935674E-02 -0.59406515625E-02  0.50000500000E+01  0.50000000000E+01 0.  1.
</event>
<event>
 4    1  0.5040302E-001  0.5000050E+01  0.7818608E-02  0.2136455E+00
        -11   -1    0    0    0    0  0.00000000000E+00  0.00000000000E+00  0.50000499739E+01  0.50000500000E+01  0.51100000000E-03 0.  1.
         11   -1    0    0    0    0 -0.00000000000E+00 -0.00000000000E+00 -0.50000499739E+01  0.50000500000E+01  0.51100000000E-03 0. -1.
     100001    1    1    2    0    0  0.12348648992E-01  0.10588192188E-01  0.15342866559E-01  0.50000500000E+01  0.50000000000E+01 0.  1.
     100001    1    1    2    0    0 -0.12348648992E-01 -0.10588192188E-01 -0.15342866559E-01  0.50000500000E+01  0.50000000000E+01 0. -1.
</event>
<event>
 4    1  0.5040302E-001  0.5000050E+01  0.7818608E-02  0.2136455E+00
        -11   -1    0    0    0    0  0.00000000000E+00  0.00000000000E+00  0.50000499739E+01  0.50000500000E+01  0.51100000000E-03 0.  1.
         11   -1    0    0    0    0 -0.00000000000E+00 -0.00000000000E+00 -0.50000499739E+01  0.50000500000E+01  0.51100000000E-03 0. -1.
     100001    1    1    2    0    0  0.19188182326E-01 -0.93165965656E-03  0.11443258683E-01  0.50000500000E+01  0.50000000000E+01 0.  1.
     100001    1    1    2    0    0 -0.19188182326E-01  0.93165965656E-03 -0.11443258683E-01  0.50000500000E+01  0.50000000000E+01 0. -1.
</event>
<event>
 4    1  0.5040302E-001  0.5000050E+01  0.7818608E-02  0.2136455E+00
        -11   -1    0    0    0    0  0.00000000000E+00  0.00000000000E+00  0.50000499739E+01  0.50000500000E+01  0.51100000000E-03 0. -1.
         11   -1    0    0    0    0 -0.00000000000E+00 -0.00000000000E+00 -0.50000499739E+01  0.50000500000E+01  0.51100000000E-03 0.  1.
     100001    1    1    2    0    0 -0.13760981190E-01  0.99244319631E-02 -0.14565148365E-01  0.50000500000E+01  0.50000000000E+01 0.  1.
     100001    1    1    2    0    0  0.13760981190E-01 -0.99244319631E-02  0.14565148365E-01  0.50000500000E+01  0.50000000000E+01 0. -1.
</event>
<event>
 4    1  0.5040302E-001  0.5000050E+01  0.7818608E-02  0.2136455E+00
        -11   -1    0    0    0    0  0.00000000000E+00  0.00000000000E+00  0.50000499739E+01  0.50000500000E+01  0.51100000000E-03 0. -1.
         11   -1    0    0    0    0 -0.00000000000E+00 -0.00000000000E+00 -0.50000499739E+01  0.50000500000E+01  0.51100000000E-03 0.  1.
     100001    1    1    2    0    0  0.16810232148E-01 -0.77461506430E-02 -0.12546543163E-01  0.50000500000E+01  0.50000000000E+01 0. -1.
     100001    1    1    2    0    0 -0.16810232148E-01  0.77461506430E-02  0.12546543163E-01  0.50000500000E+01  0.50000000000E+01 0. -1.
</event>
<event>
 4    1  0.5040302E-001  0.5000050E+01  0.7818608E-02  0.2136455E+00
        -11   -1    0    0    0    0  0.00000000000E+00  0.00000000000E+00  0.50000499739E+01  0.50000500000E+01  0.51100000000E-03 0. -1.
         11   -1    0    0    0    0 -0.00000000000E+00 -0.00000000000E+00 -0.50000499739E+01  0.50000500000E+01  0.51100000000E-03 0.  1.
     100001    1    1    2    0    0  0.39588871058E-02  0.94347799145E-02 -0.19882520988E-01  0.50000500000E+01  0.50000000000E+01 0.  0.
     100001    1    1    2    0    0 -0.39588871058E-02 -0.94347799145E-02  0.19882520988E-01  0.50000500000E+01  0.50000000000E+01 0. -1.
</event>
<event>
 4    1  0.5040302E-001  0.5000050E+01  0.7818608E-02  0.2136455E+00
        -11   -1    0    0    0    0  0.00000000000E+00  0.00000000000E+00  0.50000499739E+01  0.50000500000E+01  0.51100000000E-03 0. -1.
         11   -1    0    0    0    0 -0.00000000000E+00 -0.00000000000E+00 -0.50000499739E+01  0.50000500000E+01  0.51100000000E-03 0.  1.
     100001    1    1    2    0    0 -0.10400605537E-01 -0.10548215497E-01 -0.16750076247E-01  0.50000500000E+01  0.50000000000E+01 0.  1.
     100001    1    1    2    0    0  0.10400605537E-01  0.10548215497E-01  0.16750076247E-01  0.50000500000E+01  0.50000000000E+01 0. -1.
</event>
<event>
 4    1  0.5040302E-001  0.5000050E+01  0.7818608E-02  0.2136455E+00
        -11   -1    0    0    0    0  0.00000000000E+00  0.00000000000E+00  0.50000499739E+01  0.50000500000E+01  0.51100000000E-03 0. -1.
         11   -1    0    0    0    0 -0.00000000000E+00 -0.00000000000E+00 -0.50000499739E+01  0.50000500000E+01  0.51100000000E-03 0.  1.
     100001    1    1    2    0    0 -0.19065075054E-02 -0.57382270424E-02  0.21527667768E-01  0.50000500000E+01  0.50000000000E+01 0. -1.
     100001    1    1    2    0    0  0.19065075054E-02  0.57382270424E-02 -0.21527667768E-01  0.50000500000E+01  0.50000000000E+01 0.  0.
</event>
<event>
 4    1  0.5040302E-001  0.5000050E+01  0.7818608E-02  0.2136455E+00
        -11   -1    0    0    0    0  0.00000000000E+00  0.00000000000E+00  0.50000499739E+01  0.50000500000E+01  0.51100000000E-03 0. -1.
         11   -1    0    0    0    0 -0.00000000000E+00 -0.00000000000E+00 -0.50000499739E+01  0.50000500000E+01  0.51100000000E-03 0.  1.
     100001    1    1    2    0    0  0.21373116281E-01 -0.59168717768E-02 -0.28605993824E-02  0.50000500000E+01  0.50000000000E+01 0. -1.
     100001    1    1    2    0    0 -0.21373116281E-01  0.59168717768E-02  0.28605993824E-02  0.50000500000E+01  0.50000000000E+01 0.  0.
</event>
<event>
 4    1  0.5040302E-001  0.5000050E+01  0.7818608E-02  0.2136455E+00
        -11   -1    0    0    0    0  0.00000000000E+00  0.00000000000E+00  0.50000499739E+01  0.50000500000E+01  0.51100000000E-03 0.  1.
         11   -1    0    0    0    0 -0.00000000000E+00 -0.00000000000E+00 -0.50000499739E+01  0.50000500000E+01  0.51100000000E-03 0. -1.
     100001    1    1    2    0    0  0.56607487488E-03  0.70544964591E-02  0.21211226719E-01  0.50000500000E+01  0.50000000000E+01 0.  0.
     100001    1    1    2    0    0 -0.56607487488E-03 -0.70544964591E-02 -0.21211226719E-01  0.50000500000E+01  0.50000000000E+01 0. -1.
</event>
<event>
 4    1  0.5040302E-001  0.5000050E+01  0.7818608E-02  0.2136455E+00
        -11   -1    0    0    0    0  0.00000000000E+00  0.00000000000E+00  0.50000499739E+01  0.50000500000E+01  0.51100000000E-03 0. -1.
         11   -1    0    0    0    0 -0.00000000000E+00 -0.00000000000E+00 -0.50000499739E+01  0.50000500000E+01  0.51100000000E-03 0.  1.
     100001    1    1    2    0    0 -0.78849728137E-03  0.13643851682E-01 -0.17698194352E-01  0.50000500000E+01  0.50000000000E+01 0.  0.
     100001    1    1    2    0    0  0.78849728137E-03 -0.13643851682E-01  0.17698194352E-01  0.50000500000E+01  0.50000000000E+01 0. -1.
</event>
<event>
 4    1  0.5040302E-001  0.5000050E+01  0.7818608E-02  0.2136455E+00
        -11   -1    0    0    0    0  0.00000000000E+00  0.00000000000E+00  0.50000499739E+01  0.50000500000E+01  0.51100000000E-03 0.  1.
         11   -1    0    0    0    0 -0.00000000000E+00 -0.00000000000E+00 -0.50000499739E+01  0.50000500000E+01  0.51100000000E-03 0. -1.
     100001    1    1    2    0    0  0.49559089935E-02 -0.21292896035E-01 -0.46961733857E-02  0.50000500000E+01  0.50000000000E+01 0. -1.
     100001    1    1    2    0    0 -0.49559089935E-02  0.21292896035E-01  0.46961733857E-02  0.50000500000E+01  0.50000000000E+01 0.  1.
</event>
<event>
 4    1  0.5040302E-001  0.5000050E+01  0.7818608E-02  0.2136455E+00
        -11   -1    0    0    0    0  0.00000000000E+00  0.00000000000E+00  0.50000499739E+01  0.50000500000E+01  0.51100000000E-03 0.  1.
         11   -1    0    0    0    0 -0.00000000000E+00 -0.00000000000E+00 -0.50000499739E+01  0.50000500000E+01  0.51100000000E-03 0. -1.
     100001    1    1    2    0    0 -0.18980746044E-01  0.57577051010E-02  0.10323885488E-01  0.50000500000E+01  0.50000000000E+01 0. -1.
     100001    1    1    2    0    0  0.18980746044E-01 -0.57577051010E-02 -0.10323885488E-01  0.50000500000E+01  0.50000000000E+01 0.  1.
</event>
<event>
 4    1  0.5040302E-001  0.5000050E+01  0.7818608E-02  0.2136455E+00
        -11   -1    0    0    0    0  0.00000000000E+00  0.00000000000E+00  0.50000499739E+01  0.50000500000E+01  0.51100000000E-03 0. -1.
         11   -1    0    0    0    0 -0.00000000000E+00 -0.00000000000E+00 -0.50000499739E+01  0.50000500000E+01  0.51100000000E-03 0.  1.
     100001    1    1    2    0    0  0.76495882724E-02 -0.17756613179E-01  0.11233387186E-01  0.50000500000E+01  0.50000000000E+01 0. -1.
     100001    1    1    2    0    0 -0.76495882724E-02  0.17756613179E-01 -0.11233387186E-01  0.50000500000E+01  0.50000000000E+01 0.  1.
</event>
<event>
 4    1  0.5040302E-001  0.5000050E+01  0.7818608E-02  0.2136455E+00
        -11   -1    0    0    0    0  0.00000000000E+00  0.00000000000E+00  0.50000499739E+01  0.50000500000E+01  0.51100000000E-03 0.  1.
         11   -1    0    0    0    0 -0.00000000000E+00 -0.00000000000E+00 -0.50000499739E+01  0.50000500000E+01  0.51100000000E-03 0. -1.
     100001    1    1    2    0    0  0.75718994692E-02 -0.13037224181E-01 -0.16513619351E-01  0.50000500000E+01  0.50000000000E+01 0. -1.
     100001    1    1    2    0    0 -0.75718994692E-02  0.13037224181E-01  0.16513619351E-01  0.50000500000E+01  0.50000000000E+01 0.  1.
</event>
<event>
 4    1  0.5040302E-001  0.5000050E+01  0.7818608E-02  0.2136455E+00
        -11   -1    0    0    0    0  0.00000000000E+00  0.00000000000E+00  0.50000499739E+01  0.50000500000E+01  0.51100000000E-03 0.  1.
         11   -1    0    0    0    0 -0.00000000000E+00 -0.00000000000E+00 -0.50000499739E+01  0.50000500000E+01  0.51100000000E-03 0. -1.
     100001    1    1    2    0    0  0.20398721127E-01 -0.91488144556E-02  0.44030722291E-03  0.50000500000E+01  0.50000000000E+01 0.  0.
     100001    1    1    2    0    0 -0.20398721127E-01  0.91488144556E-02 -0.44030722291E-03  0.50000500000E+01  0.50000000000E+01 0. -1.
</event>
<event>
 4    1  0.5040302E-001  0.5000050E+01  0.7818608E-02  0.2136455E+00
        -11   -1    0    0    0    0  0.00000000000E+00  0.00000000000E+00  0.50000499739E+01  0.50000500000E+01  0.51100000000E-03 0. -1.
         11   -1    0    0    0    0 -0.00000000000E+00 -0.00000000000E+00 -0.50000499739E+01  0.50000500000E+01  0.51100000000E-03 0.  1.
     100001    1    1    2    0    0 -0.11621196099E-01 -0.18326045657E-01 -0.53950302879E-02  0.50000500000E+01  0.50000000000E+01 0.  1.
     100001    1    1    2    0    0  0.11621196099E-01  0.18326045657E-01  0.53950302879E-02  0.50000500000E+01  0.50000000000E+01 0. -1.
</event>
<event>
 4    1  0.5040302E-001  0.5000050E+01  0.7818608E-02  0.2136455E+00
        -11   -1    0    0    0    0  0.00000000000E+00  0.00000000000E+00  0.50000499739E+01  0.50000500000E+01  0.51100000000E-03 0.  1.
         11   -1    0    0    0    0 -0.00000000000E+00 -0.00000000000E+00 -0.50000499739E+01  0.50000500000E+01  0.51100000000E-03 0. -1.
     100001    1    1    2    0    0  0.17333312506E-01 -0.14061198221E-01 -0.13570122141E-02  0.50000500000E+01  0.50000000000E+01 0.  1.
     100001    1    1    2    0    0 -0.17333312506E-01  0.14061198221E-01  0.13570122141E-02  0.50000500000E+01  0.50000000000E+01 0.  0.
</event>
<event>
 4    1  0.5040302E-001  0.5000050E+01  0.7818608E-02  0.2136455E+00
        -11   -1    0    0    0    0  0.00000000000E+00  0.00000000000E+00  0.50000499739E+01  0.50000500000E+01  0.51100000000E-03 0. -1.
         11   -1    0    0    0    0 -0.00000000000E+00 -0.00000000000E+00 -0.50000499739E+01  0.50000500000E+01  0.51100000000E-03 0.  1.
     100001    1    1    2    0    0  0.36094749946E-02  0.39928153539E-02  0.21703262792E-01  0.50000500000E+01  0.50000000000E+01 0.  0.
     100001    1    1    2    0    0 -0.36094749946E-02 -0.39928153539E-02 -0.21703262792E-01  0.50000500000E+01  0.50000000000E+01 0.  1.
</event>
<event>
 4    1  0.5040302E-001  0.5000050E+01  0.7818608E-02  0.2136455E+00
        -11   -1    0    0    0    0  0.00000000000E+00  0.00000000000E+00  0.50000499739E+01  0.50000500000E+01  0.51100000000E-03 0. -1.
         11   -1    0    0    0    0 -0.00000000000E+00 -0.00000000000E+00 -0.50000499739E+01  0.50000500000E+01  0.51100000000E-03 0.  1.
     100001    1    1    2    0    0 -0.19954496756E-01 -0.50199177278E-02 -0.87533413749E-02  0.50000500000E+01  0.50000000000E+01 0. -1.
     100001    1    1    2    0    0  0.19954496756E-01  0.50199177278E-02  0.87533413749E-02  0.50000500000E+01  0.50000000000E+01 0.  0.
</event>
<event>
 4    1  0.5040302E-001  0.5000050E+01  0.7818608E-02  0.2136455E+00
        -11   -1    0    0    0    0  0.00000000000E+00  0.00000000000E+00  0.50000499739E+01  0.50000500000E+01  0.51100000000E-03 0. -1.
         11   -1    0    0    0    0 -0.00000000000E+00 -0.00000000000E+00 -0.50000499739E+01  0.50000500000E+01  0.51100000000E-03 0.  1.
     100001    1    1    2    0    0  0.18863918290E-01  0.58925920459E-02  0.10460996402E-01  0.50000500000E+01  0.50000000000E+01 0. -1.
     100001    1    1    2    0    0 -0.18863918290E-01 -0.58925920459E-02 -0.10460996402E-01  0.50000500000E+01  0.50000000000E+01 0.  1.
</event>
<event>
 4    1  0.5040302E-001  0.5000050E+01  0.7818608E-02  0.2136455E+00
        -11   -1    0    0    0    0  0.00000000000E+00  0.00000000000E+00  0.50000499739E+01  0.50000500000E+01  0.51100000000E-03 0. -1.
         11   -1    0    0    0    0 -0.00000000000E+00 -0.00000000000E+00 -0.50000499739E+01  0.50000500000E+01  0.51100000000E-03 0.  1.
     100001    1    1    2    0    0  0.86849489112E-02  0.20604445367E-01  0.17604980579E-03  0.50000500000E+01  0.50000000000E+01 0.  1.
     100001    1    1    2    0    0 -0.86849489112E-02 -0.20604445367E-01 -0.17604980579E-03  0.50000500000E+01  0.50000000000E+01 0. -1.
</event>
<event>
 4    1  0.5040302E-001  0.5000050E+01  0.7818608E-02  0.2136455E+00
        -11   -1    0    0    0    0  0.00000000000E+00  0.00000000000E+00  0.50000499739E+01  0.50000500000E+01  0.51100000000E-03 0. -1.
         11   -1    0    0    0    0 -0.00000000000E+00 -0.00000000000E+00 -0.50000499739E+01  0.50000500000E+01  0.51100000000E-03 0.  1.
     100001    1    1    2    0    0  0.17111549648E-01 -0.64327200751E-02 -0.12877013671E-01  0.50000500000E+01  0.50000000000E+01 0.  0.
     100001    1    1    2    0    0 -0.17111549648E-01  0.64327200751E-02  0.12877013671E-01  0.50000500000E+01  0.50000000000E+01 0.  0.
</event>
<event>
 4    1  0.5040302E-001  0.5000050E+01  0.7818608E-02  0.2136455E+00
        -11   -1    0    0    0    0  0.00000000000E+00  0.00000000000E+00  0.50000499739E+01  0.50000500000E+01  0.51100000000E-03 0. -1.
         11   -1    0    0    0    0 -0.00000000000E+00 -0.00000000000E+00 -0.50000499739E+01  0.50000500000E+01  0.51100000000E-03 0.  1.
     100001    1    1    2    0    0  0.36055889099E-02 -0.21462119919E-01 -0.51361110977E-02  0.50000500000E+01  0.50000000000E+01 0. -1.
     100001    1    1    2    0    0 -0.36055889099E-02  0.21462119919E-01  0.51361110977E-02  0.50000500000E+01  0.50000000000E+01 0.  1.
</event>
<event>
 4    1  0.5040302E-001  0.5000050E+01  0.7818608E-02  0.2136455E+00
        -11   -1    0    0    0    0  0.00000000000E+00  0.00000000000E+00  0.50000499739E+01  0.50000500000E+01  0.51100000000E-03 0.  1.
         11   -1    0    0    0    0 -0.00000000000E+00 -0.00000000000E+00 -0.50000499739E+01  0.50000500000E+01  0.51100000000E-03 0. -1.
     100001    1    1    2    0    0 -0.53667387881E-02 -0.17598053441E-01 -0.12708624232E-01  0.50000500000E+01  0.50000000000E+01 0.  0.
     100001    1    1    2    0    0  0.53667387881E-02  0.17598053441E-01  0.12708624232E-01  0.50000500000E+01  0.50000000000E+01 0.  0.
</event>
<event>
 4    1  0.5040302E-001  0.5000050E+01  0.7818608E-02  0.2136455E+00
        -11   -1    0    0    0    0  0.00000000000E+00  0.00000000000E+00  0.50000499739E+01  0.50000500000E+01  0.51100000000E-03 0. -1.
         11   -1    0    0    0    0 -0.00000000000E+00 -0.00000000000E+00 -0.50000499739E+01  0.50000500000E+01  0.51100000000E-03 0.  1.
     100001    1    1    2    0    0 -0.21709699993E-01 -0.46740038676E-02  0.26163168858E-02  0.50000500000E+01  0.50000000000E+01 0. -1.
     100001    1    1    2    0    0  0.21709699993E-01  0.46740038676E-02 -0.26163168858E-02  0.50000500000E+01  0.50000000000E+01 0.  1.
</event>
<event>
 4    1  0.5040302E-001  0.5000050E+01  0.7818608E-02  0.2136455E+00
        -11   -1    0    0    0    0  0.00000000000E+00  0.00000000000E+00  0.50000499739E+01  0.50000500000E+01  0.51100000000E-03 0.  1.
         11   -1    0    0    0    0 -0.00000000000E+00 -0.00000000000E+00 -0.50000499739E+01  0.50000500000E+01  0.51100000000E-03 0. -1.
     100001    1    1    2    0    0 -0.87919349196E-03  0.21192378450E-01  0.70790263748E-02  0.50000500000E+01  0.50000000000E+01 0. -1.
     100001    1    1    2    0    0  0.87919349196E-03 -0.21192378450E-01 -0.70790263748E-02  0.50000500000E+01  0.50000000000E+01 0.  1.
</event>
<event>
 4    1  0.5040302E-001  0.5000050E+01  0.7818608E-02  0.2136455E+00
        -11   -1    0    0    0    0  0.00000000000E+00  0.00000000000E+00  0.50000499739E+01  0.50000500000E+01  0.51100000000E-03 0.  1.
         11   -1    0    0    0    0 -0.00000000000E+00 -0.00000000000E+00 -0.50000499739E+01  0.50000500000E+01  0.51100000000E-03 0. -1.
     100001    1    1    2    0    0 -0.15762120050E-01 -0.11791346702E-01  0.10607648867E-01  0.50000500000E+01  0.50000000000E+01 0. -1.
     100001    1    1    2    0    0  0.15762120050E-01  0.11791346702E-01 -0.10607648867E-01  0.50000500000E+01  0.50000000000E+01 0.  0.
</event>
<event>
 4    1  0.5040302E-001  0.5000050E+01  0.7818608E-02  0.2136455E+00
        -11   -1    0    0    0    0  0.00000000000E+00  0.00000000000E+00  0.50000499739E+01  0.50000500000E+01  0.51100000000E-03 0.  1.
         11   -1    0    0    0    0 -0.00000000000E+00 -0.00000000000E+00 -0.50000499739E+01  0.50000500000E+01  0.51100000000E-03 0. -1.
     100001    1    1    2    0    0  0.48742667396E-02  0.18392057147E-01  0.11746329540E-01  0.50000500000E+01  0.50000000000E+01 0.  1.
     100001    1    1    2    0    0 -0.48742667396E-02 -0.18392057147E-01 -0.11746329540E-01  0.50000500000E+01  0.50000000000E+01 0. -1.
</event>
<event>
 4    1  0.5040302E-001  0.5000050E+01  0.7818608E-02  0.2136455E+00
        -11   -1    0    0    0    0  0.00000000000E+00  0.00000000000E+00  0.50000499739E+01  0.50000500000E+01  0.51100000000E-03 0. -1.
         11   -1    0    0    0    0 -0.00000000000E+00 -0.00000000000E+00 -0.50000499739E+01  0.50000500000E+01  0.51100000000E-03 0.  1.
     100001    1    1    2    0    0  0.15536814460E-01 -0.12233212696E-02 -0.16034755424E-01  0.50000500000E+01  0.50000000000E+01 0.  1.
     100001    1    1    2    0    0 -0.15536814460E-01  0.12233212696E-02  0.16034755424E-01  0.50000500000E+01  0.50000000000E+01 0. -1.
</event>
<event>
 4    1  0.5040302E-001  0.5000050E+01  0.7818608E-02  0.2136455E+00
        -11   -1    0    0    0    0  0.00000000000E+00  0.00000000000E+00  0.50000499739E+01  0.50000500000E+01  0.51100000000E-03 0. -1.
         11   -1    0    0    0    0 -0.00000000000E+00 -0.00000000000E+00 -0.50000499739E+01  0.50000500000E+01  0.51100000000E-03 0.  1.
     100001    1    1    2    0    0  0.87811748928E-03  0.32050975600E-02 -0.22112411883E-01  0.50000500000E+01  0.50000000000E+01 0.  0.
     100001    1    1    2    0    0 -0.87811748928E-03 -0.32050975600E-02  0.22112411883E-01  0.50000500000E+01  0.50000000000E+01 0. -1.
</event>
<event>
 4    1  0.5040302E-001  0.5000050E+01  0.7818608E-02  0.2136455E+00
        -11   -1    0    0    0    0  0.00000000000E+00  0.00000000000E+00  0.50000499739E+01  0.50000500000E+01  0.51100000000E-03 0.  1.
         11   -1    0    0    0    0 -0.00000000000E+00 -0.00000000000E+00 -0.50000499739E+01  0.50000500000E+01  0.51100000000E-03 0. -1.
     100001    1    1    2    0    0 -0.89890143651E-02  0.19590890051E-01  0.59495502128E-02  0.50000500000E+01  0.50000000000E+01 0.  1.
     100001    1    1    2    0    0  0.89890143651E-02 -0.19590890051E-01 -0.59495502128E-02  0.50000500000E+01  0.50000000000E+01 0. -1.
</event>
<event>
 4    1  0.5040302E-001  0.5000050E+01  0.7818608E-02  0.2136455E+00
        -11   -1    0    0    0    0  0.00000000000E+00  0.00000000000E+00  0.50000499739E+01  0.50000500000E+01  0.51100000000E-03 0.  1.
         11   -1    0    0    0    0 -0.00000000000E+00 -0.00000000000E+00 -0.50000499739E+01  0.50000500000E+01  0.51100000000E-03 0. -1.
     100001    1    1    2    0    0  0.14357182003E-01  0.11217881591E-01 -0.12962752698E-01  0.50000500000E+01  0.50000000000E+01 0. -1.
     100001    1    1    2    0    0 -0.14357182003E-01 -0.11217881591E-01  0.12962752698E-01  0.50000500000E+01  0.50000000000E+01 0.  1.
</event>
<event>
 4    1  0.5040302E-001  0.5000050E+01  0.7818608E-02  0.2136455E+00
        -11   -1    0    0    0    0  0.00000000000E+00  0.00000000000E+00  0.50000499739E+01  0.50000500000E+01  0.51100000000E-03 0.  1.
         11   -1    0    0    0    0 -0.00000000000E+00 -0.00000000000E+00 -0.50000499739E+01  0.50000500000E+01  0.51100000000E-03 0. -1.
     100001    1    1    2    0    0 -0.56025747961E-02  0.82762641705E-02 -0.20002927462E-01  0.50000500000E+01  0.50000000000E+01 0.  0.
     100001    1    1    2    0    0  0.56025747961E-02 -0.82762641705E-02  0.20002927462E-01  0.50000500000E+01  0.50000000000E+01 0.  0.
</event>
<event>
 4    1  0.5040302E-001  0.5000050E+01  0.7818608E-02  0.2136455E+00
        -11   -1    0    0    0    0  0.00000000000E+00  0.00000000000E+00  0.50000499739E+01  0.50000500000E+01  0.51100000000E-03 0. -1.
         11   -1    0    0    0    0 -0.00000000000E+00 -0.00000000000E+00 -0.50000499739E+01  0.50000500000E+01  0.51100000000E-03 0.  1.
     100001    1    1    2    0    0 -0.12632121426E-01 -0.17963580084E-01 -0.42121014744E-02  0.50000500000E+01  0.50000000000E+01 0.  1.
     100001    1    1    2    0    0  0.12632121426E-01  0.17963580084E-01  0.42121014744E-02  0.50000500000E+01  0.50000000000E+01 0.  0.
</event>
<event>
 4    1  0.5040302E-001  0.5000050E+01  0.7818608E-02  0.2136455E+00
        -11   -1    0    0    0    0  0.00000000000E+00  0.00000000000E+00  0.50000499739E+01  0.50000500000E+01  0.51100000000E-03 0. -1.
         11   -1    0    0    0    0 -0.00000000000E+00 -0.00000000000E+00 -0.50000499739E+01  0.50000500000E+01  0.51100000000E-03 0.  1.
     100001    1    1    2    0    0 -0.11863340019E-01 -0.16673479424E-01  0.90143633983E-02  0.50000500000E+01  0.50000000000E+01 0.  1.
     100001    1    1    2    0    0  0.11863340019E-01  0.16673479424E-01 -0.90143633983E-02  0.50000500000E+01  0.50000000000E+01 0.  0.
</event>
<event>
 4    1  0.5040302E-001  0.5000050E+01  0.7818608E-02  0.2136455E+00
        -11   -1    0    0    0    0  0.00000000000E+00  0.00000000000E+00  0.50000499739E+01  0.50000500000E+01  0.51100000000E-03 0.  1.
         11   -1    0    0    0    0 -0.00000000000E+00 -0.00000000000E+00 -0.50000499739E+01  0.50000500000E+01  0.51100000000E-03 0. -1.
     100001    1    1    2    0    0  0.21414115850E-01  0.57855089791E-02 -0.28224153138E-02  0.50000500000E+01  0.50000000000E+01 0. -1.
     100001    1    1    2    0    0 -0.21414115850E-01 -0.57855089791E-02  0.28224153138E-02  0.50000500000E+01  0.50000000000E+01 0.  1.
</event>
<event>
 4    1  0.5040302E-001  0.5000050E+01  0.7818608E-02  0.2136455E+00
        -11   -1    0    0    0    0  0.00000000000E+00  0.00000000000E+00  0.50000499739E+01  0.50000500000E+01  0.51100000000E-03 0.  1.
         11   -1    0    0    0    0 -0.00000000000E+00 -0.00000000000E+00 -0.50000499739E+01  0.50000500000E+01  0.51100000000E-03 0. -1.
     100001    1    1    2    0    0  0.18253930368E-01  0.90924580848E-02 -0.91718990444E-02  0.50000500000E+01  0.50000000000E+01 0. -1.
     100001    1    1    2    0    0 -0.18253930368E-01 -0.90924580848E-02  0.91718990444E-02  0.50000500000E+01  0.50000000000E+01 0.  1.
</event>
<event>
 4    1  0.5040302E-001  0.5000050E+01  0.7818608E-02  0.2136455E+00
        -11   -1    0    0    0    0  0.00000000000E+00  0.00000000000E+00  0.50000499739E+01  0.50000500000E+01  0.51100000000E-03 0.  1.
         11   -1    0    0    0    0 -0.00000000000E+00 -0.00000000000E+00 -0.50000499739E+01  0.50000500000E+01  0.51100000000E-03 0. -1.
     100001    1    1    2    0    0 -0.19916263607E-01  0.49328347836E-02  0.88888742218E-02  0.50000500000E+01  0.50000000000E+01 0.  0.
     100001    1    1    2    0    0  0.19916263607E-01 -0.49328347836E-02 -0.88888742218E-02  0.50000500000E+01  0.50000000000E+01 0.  1.
</event>
<event>
 4    1  0.5040302E-001  0.5000050E+01  0.7818608E-02  0.2136455E+00
        -11   -1    0    0    0    0  0.00000000000E+00  0.00000000000E+00  0.50000499739E+01  0.50000500000E+01  0.51100000000E-03 0. -1.
         11   -1    0    0    0    0 -0.00000000000E+00 -0.00000000000E+00 -0.50000499739E+01  0.50000500000E+01  0.51100000000E-03 0.  1.
     100001    1    1    2    0    0 -0.38317587478E-02  0.57412410959E-03 -0.22022500003E-01  0.50000500000E+01  0.50000000000E+01 0.  1.
     100001    1    1    2    0    0  0.38317587478E-02 -0.57412410959E-03  0.22022500003E-01  0.50000500000E+01  0.50000000000E+01 0.  0.
</event>
<event>
 4    1  0.5040302E-001  0.5000050E+01  0.7818608E-02  0.2136455E+00
        -11   -1    0    0    0    0  0.00000000000E+00  0.00000000000E+00  0.50000499739E+01  0.50000500000E+01  0.51100000000E-03 0. -1.
         11   -1    0    0    0    0 -0.00000000000E+00 -0.00000000000E+00 -0.50000499739E+01  0.50000500000E+01  0.51100000000E-03 0.  1.
     100001    1    1    2    0    0  0.10683418442E-01  0.16263618261E-01  0.11016432791E-01  0.50000500000E+01  0.50000000000E+01 0.  0.
     100001    1    1    2    0    0 -0.10683418442E-01 -0.16263618261E-01 -0.11016432791E-01  0.50000500000E+01  0.50000000000E+01 0.  0.
</event>
<event>
 4    1  0.5040302E-001  0.5000050E+01  0.7818608E-02  0.2136455E+00
        -11   -1    0    0    0    0  0.00000000000E+00  0.00000000000E+00  0.50000499739E+01  0.50000500000E+01  0.51100000000E-03 0. -1.
         11   -1    0    0    0    0 -0.00000000000E+00 -0.00000000000E+00 -0.50000499739E+01  0.50000500000E+01  0.51100000000E-03 0.  1.
     100001    1    1    2    0    0  0.66738619689E-02 -0.63043152636E-02 -0.20389155830E-01  0.50000500000E+01  0.50000000000E+01 0.  0.
     100001    1    1    2    0    0 -0.66738619689E-02  0.63043152636E-02  0.20389155830E-01  0.50000500000E+01  0.50000000000E+01 0.  0.
</event>
<event>
 4    1  0.5040302E-001  0.5000050E+01  0.7818608E-02  0.2136455E+00
        -11   -1    0    0    0    0  0.00000000000E+00  0.00000000000E+00  0.50000499739E+01  0.50000500000E+01  0.51100000000E-03 0.  1.
         11   -1    0    0    0    0 -0.00000000000E+00 -0.00000000000E+00 -0.50000499739E+01  0.50000500000E+01  0.51100000000E-03 0. -1.
     100001    1    1    2    0    0 -0.30838762266E-02 -0.92632560534E-03  0.22127677878E-01  0.50000500000E+01  0.50000000000E+01 0.  0.
     100001    1    1    2    0    0  0.30838762266E-02  0.92632560534E-03 -0.22127677878E-01  0.50000500000E+01  0.50000000000E+01 0. -1.
</event>
<event>
 4    1  0.5040302E-001  0.5000050E+01  0.7818608E-02  0.2136455E+00
        -11   -1    0    0    0    0  0.00000000000E+00  0.00000000000E+00  0.50000499739E+01  0.50000500000E+01  0.51100000000E-03 0.  1.
         11   -1    0    0    0    0 -0.00000000000E+00 -0.00000000000E+00 -0.50000499739E+01  0.50000500000E+01  0.51100000000E-03 0. -1.
     100001    1    1    2    0    0 -0.91460732472E-03  0.54702836711E-02  0.21661994137E-01  0.50000500000E+01  0.50000000000E+01 0.  1.
     100001    1    1    2    0    0  0.91460732472E-03 -0.54702836711E-02 -0.21661994137E-01  0.50000500000E+01  0.50000000000E+01 0.  0.
</event>
<event>
 4    1  0.5040302E-001  0.5000050E+01  0.7818608E-02  0.2136455E+00
        -11   -1    0    0    0    0  0.00000000000E+00  0.00000000000E+00  0.50000499739E+01  0.50000500000E+01  0.51100000000E-03 0. -1.
         11   -1    0    0    0    0 -0.00000000000E+00 -0.00000000000E+00 -0.50000499739E+01  0.50000500000E+01  0.51100000000E-03 0.  1.
     100001    1    1    2    0    0  0.14864786162E-01 -0.61163860965E-02  0.15544466973E-01  0.50000500000E+01  0.50000000000E+01 0.  0.
     100001    1    1    2    0    0 -0.14864786162E-01  0.61163860965E-02 -0.15544466973E-01  0.50000500000E+01  0.50000000000E+01 0.  0.
</event>
<event>
 4    1  0.5040302E-001  0.5000050E+01  0.7818608E-02  0.2136455E+00
        -11   -1    0    0    0    0  0.00000000000E+00  0.00000000000E+00  0.50000499739E+01  0.50000500000E+01  0.51100000000E-03 0.  1.
         11   -1    0    0    0    0 -0.00000000000E+00 -0.00000000000E+00 -0.50000499739E+01  0.50000500000E+01  0.51100000000E-03 0. -1.
     100001    1    1    2    0    0  0.85963168331E-02 -0.19786885488E-01  0.58809012573E-02  0.50000500000E+01  0.50000000000E+01 0.  0.
     100001    1    1    2    0    0 -0.85963168331E-02  0.19786885488E-01 -0.58809012573E-02  0.50000500000E+01  0.50000000000E+01 0.  1.
</event>
<event>
 4    1  0.5040302E-001  0.5000050E+01  0.7818608E-02  0.2136455E+00
        -11   -1    0    0    0    0  0.00000000000E+00  0.00000000000E+00  0.50000499739E+01  0.50000500000E+01  0.51100000000E-03 0.  1.
         11   -1    0    0    0    0 -0.00000000000E+00 -0.00000000000E+00 -0.50000499739E+01  0.50000500000E+01  0.51100000000E-03 0. -1.
     100001    1    1    2    0    0  0.13543792791E-01  0.10782860362E-01 -0.14152671099E-01  0.50000500000E+01  0.50000000000E+01 0.  0.
     100001    1    1    2    0    0 -0.13543792791E-01 -0.10782860362E-01  0.14152671099E-01  0.50000500000E+01  0.50000000000E+01 0.  0.
</event>
<event>
 4    1  0.5040302E-001  0.5000050E+01  0.7818608E-02  0.2136455E+00
        -11   -1    0    0    0    0  0.00000000000E+00  0.00000000000E+00  0.50000499739E+01  0.50000500000E+01  0.51100000000E-03 0.  1.
         11   -1    0    0    0    0 -0.00000000000E+00 -0.00000000000E+00 -0.50000499739E+01  0.50000500000E+01  0.51100000000E-03 0. -1.
     100001    1    1    2    0    0 -0.20232824947E-01 -0.50206209137E-02 -0.80887984469E-02  0.50000500000E+01  0.50000000000E+01 0.  1.
     100001    1    1    2    0    0  0.20232824947E-01  0.50206209137E-02  0.80887984469E-02  0.50000500000E+01  0.50000000000E+01 0.  0.
</event>
<event>
 4    1  0.5040302E-001  0.5000050E+01  0.7818608E-02  0.2136455E+00
        -11   -1    0    0    0    0  0.00000000000E+00  0.00000000000E+00  0.50000499739E+01  0.50000500000E+01  0.51100000000E-03 0. -1.
         11   -1    0    0    0    0 -0.00000000000E+00 -0.00000000000E+00 -0.50000499739E+01  0.50000500000E+01  0.51100000000E-03 0.  1.
     100001    1    1    2    0    0  0.12194548791E-01  0.16719004792E-01  0.84717388138E-02  0.50000500000E+01  0.50000000000E+01 0.  1.
     100001    1    1    2    0    0 -0.12194548791E-01 -0.16719004792E-01 -0.84717388138E-02  0.50000500000E+01  0.50000000000E+01 0.  0.
</event>
<event>
 4    1  0.5040302E-001  0.5000050E+01  0.7818608E-02  0.2136455E+00
        -11   -1    0    0    0    0  0.00000000000E+00  0.00000000000E+00  0.50000499739E+01  0.50000500000E+01  0.51100000000E-03 0. -1.
         11   -1    0    0    0    0 -0.00000000000E+00 -0.00000000000E+00 -0.50000499739E+01  0.50000500000E+01  0.51100000000E-03 0.  1.
     100001    1    1    2    0    0  0.26862325157E-02 -0.53554864885E-02 -0.21543106075E-01  0.50000500000E+01  0.50000000000E+01 0.  0.
     100001    1    1    2    0    0 -0.26862325157E-02  0.53554864885E-02  0.21543106075E-01  0.50000500000E+01  0.50000000000E+01 0.  0.
</event>
<event>
 4    1  0.5040302E-001  0.5000050E+01  0.7818608E-02  0.2136455E+00
        -11   -1    0    0    0    0  0.00000000000E+00  0.00000000000E+00  0.50000499739E+01  0.50000500000E+01  0.51100000000E-03 0. -1.
         11   -1    0    0    0    0 -0.00000000000E+00 -0.00000000000E+00 -0.50000499739E+01  0.50000500000E+01  0.51100000000E-03 0.  1.
     100001    1    1    2    0    0  0.62151609347E-02  0.34979573713E-02 -0.21192889581E-01  0.50000500000E+01  0.50000000000E+01 0.  1.
     100001    1    1    2    0    0 -0.62151609347E-02 -0.34979573713E-02  0.21192889581E-01  0.50000500000E+01  0.50000000000E+01 0.  1.
</event>
<event>
 4    1  0.5040302E-001  0.5000050E+01  0.7818608E-02  0.2136455E+00
        -11   -1    0    0    0    0  0.00000000000E+00  0.00000000000E+00  0.50000499739E+01  0.50000500000E+01  0.51100000000E-03 0.  1.
         11   -1    0    0    0    0 -0.00000000000E+00 -0.00000000000E+00 -0.50000499739E+01  0.50000500000E+01  0.51100000000E-03 0. -1.
     100001    1    1    2    0    0  0.20065658910E-01 -0.61206929064E-02 -0.77400872631E-02  0.50000500000E+01  0.50000000000E+01 0.  1.
     100001    1    1    2    0    0 -0.20065658910E-01  0.61206929064E-02  0.77400872631E-02  0.50000500000E+01  0.50000000000E+01 0.  0.
</event>
<event>
 4    1  0.5040302E-001  0.5000050E+01  0.7818608E-02  0.2136455E+00
        -11   -1    0    0    0    0  0.00000000000E+00  0.00000000000E+00  0.50000499739E+01  0.50000500000E+01  0.51100000000E-03 0.  1.
         11   -1    0    0    0    0 -0.00000000000E+00 -0.00000000000E+00 -0.50000499739E+01  0.50000500000E+01  0.51100000000E-03 0. -1.
     100001    1    1    2    0    0 -0.93790178568E-02  0.14255327287E-01  0.14450680537E-01  0.50000500000E+01  0.50000000000E+01 0.  1.
     100001    1    1    2    0    0  0.93790178568E-02 -0.14255327287E-01 -0.14450680537E-01  0.50000500000E+01  0.50000000000E+01 0. -1.
</event>
<event>
 4    1  0.5040302E-001  0.5000050E+01  0.7818608E-02  0.2136455E+00
        -11   -1    0    0    0    0  0.00000000000E+00  0.00000000000E+00  0.50000499739E+01  0.50000500000E+01  0.51100000000E-03 0. -1.
         11   -1    0    0    0    0 -0.00000000000E+00 -0.00000000000E+00 -0.50000499739E+01  0.50000500000E+01  0.51100000000E-03 0.  1.
     100001    1    1    2    0    0  0.32131479443E-02 -0.20810559120E-01  0.75232180225E-02  0.50000500000E+01  0.50000000000E+01 0.  0.
     100001    1    1    2    0    0 -0.32131479443E-02  0.20810559120E-01 -0.75232180225E-02  0.50000500000E+01  0.50000000000E+01 0. -1.
</event>
<event>
 4    1  0.5040302E-001  0.5000050E+01  0.7818608E-02  0.2136455E+00
        -11   -1    0    0    0    0  0.00000000000E+00  0.00000000000E+00  0.50000499739E+01  0.50000500000E+01  0.51100000000E-03 0. -1.
         11   -1    0    0    0    0 -0.00000000000E+00 -0.00000000000E+00 -0.50000499739E+01  0.50000500000E+01  0.51100000000E-03 0.  1.
     100001    1    1    2    0    0 -0.12253322628E-01  0.43606073362E-02 -0.18189109056E-01  0.50000500000E+01  0.50000000000E+01 0.  1.
     100001    1    1    2    0    0  0.12253322628E-01 -0.43606073362E-02  0.18189109056E-01  0.50000500000E+01  0.50000000000E+01 0.  0.
</event>
