<event>
 4    1  0.4826743E-004  0.6500000E+04  0.7818608E-02  0.7223770E-01
         52   -1    0    0    0    0  0.00000000000E+00  0.00000000000E+00  0.64930732323E+04  0.65000000000E+04  0.30000000000E+03 0.  1.
        -52   -1    0    0    0    0 -0.00000000000E+00 -0.00000000000E+00 -0.64930732323E+04  0.65000000000E+04  0.30000000000E+03 0. -1.
     100001    1    1    2    0    0  0.97679490705E+03 -0.15216631990E+04 -0.62416153813E+04  0.65000000000E+04  0.15050000000E+03 0. -1.
     100001    1    1    2    0    0 -0.97679490705E+03  0.15216631990E+04  0.62416153813E+04  0.65000000000E+04  0.15050000000E+03 0.  1.
</event>
<event>
 4    1  0.4826743E-004  0.6500000E+04  0.7818608E-02  0.7223770E-01
         52   -1    0    0    0    0  0.00000000000E+00  0.00000000000E+00  0.64930732323E+04  0.65000000000E+04  0.30000000000E+03 0.  1.
        -52   -1    0    0    0    0 -0.00000000000E+00 -0.00000000000E+00 -0.64930732323E+04  0.65000000000E+04  0.30000000000E+03 0. -1.
     100001    1    1    2    0    0  0.11782124099E+04 -0.19996111925E+04 -0.60696557024E+04  0.65000000000E+04  0.15050000000E+03 0. -1.
     100001    1    1    2    0    0 -0.11782124099E+04  0.19996111925E+04  0.60696557024E+04  0.65000000000E+04  0.15050000000E+03 0.  1.
</event>
<event>
 4    1  0.4826743E-004  0.6500000E+04  0.7818608E-02  0.7223770E-01
         52   -1    0    0    0    0  0.00000000000E+00  0.00000000000E+00  0.64930732323E+04  0.65000000000E+04  0.30000000000E+03 0.  1.
        -52   -1    0    0    0    0 -0.00000000000E+00 -0.00000000000E+00 -0.64930732323E+04  0.65000000000E+04  0.30000000000E+03 0. -1.
     100001    1    1    2    0    0 -0.27491980579E+04  0.21843646034E+04  0.54678890870E+04  0.65000000000E+04  0.15050000000E+03 0.  1.
     100001    1    1    2    0    0  0.27491980579E+04 -0.21843646034E+04 -0.54678890870E+04  0.65000000000E+04  0.15050000000E+03 0. -1.
</event>
<event>
 4    1  0.4826743E-004  0.6500000E+04  0.7818608E-02  0.7223770E-01
         52   -1    0    0    0    0  0.00000000000E+00  0.00000000000E+00  0.64930732323E+04  0.65000000000E+04  0.30000000000E+03 0.  1.
        -52   -1    0    0    0    0 -0.00000000000E+00 -0.00000000000E+00 -0.64930732323E+04  0.65000000000E+04  0.30000000000E+03 0. -1.
     100001    1    1    2    0    0  0.14330561368E+04  0.17338822752E+04  0.60965032695E+04  0.65000000000E+04  0.15050000000E+03 0.  1.
     100001    1    1    2    0    0 -0.14330561368E+04 -0.17338822752E+04 -0.60965032695E+04  0.65000000000E+04  0.15050000000E+03 0. -1.
</event>
<event>
 4    1  0.4826743E-004  0.6500000E+04  0.7818608E-02  0.7223770E-01
         52   -1    0    0    0    0  0.00000000000E+00  0.00000000000E+00  0.64930732323E+04  0.65000000000E+04  0.30000000000E+03 0. -1.
        -52   -1    0    0    0    0 -0.00000000000E+00 -0.00000000000E+00 -0.64930732323E+04  0.65000000000E+04  0.30000000000E+03 0.  1.
     100001    1    1    2    0    0 -0.47870279253E+04 -0.14780374953E+04 -0.41384923045E+04  0.65000000000E+04  0.15050000000E+03 0.  1.
     100001    1    1    2    0    0  0.47870279253E+04  0.14780374953E+04  0.41384923045E+04  0.65000000000E+04  0.15050000000E+03 0. -1.
</event>
<event>
 4    1  0.4826743E-004  0.6500000E+04  0.7818608E-02  0.7223770E-01
         52   -1    0    0    0    0  0.00000000000E+00  0.00000000000E+00  0.64930732323E+04  0.65000000000E+04  0.30000000000E+03 0.  1.
        -52   -1    0    0    0    0 -0.00000000000E+00 -0.00000000000E+00 -0.64930732323E+04  0.65000000000E+04  0.30000000000E+03 0. -1.
     100001    1    1    2    0    0  0.55544489866E+04 -0.33344884456E+03  0.33562267613E+04  0.65000000000E+04  0.15050000000E+03 0.  1.
     100001    1    1    2    0    0 -0.55544489866E+04  0.33344884456E+03 -0.33562267613E+04  0.65000000000E+04  0.15050000000E+03 0. -1.
</event>
<event>
 4    1  0.4826743E-004  0.6500000E+04  0.7818608E-02  0.7223770E-01
         52   -1    0    0    0    0  0.00000000000E+00  0.00000000000E+00  0.64930732323E+04  0.65000000000E+04  0.30000000000E+03 0.  1.
        -52   -1    0    0    0    0 -0.00000000000E+00 -0.00000000000E+00 -0.64930732323E+04  0.65000000000E+04  0.30000000000E+03 0. -1.
     100001    1    1    2    0    0  0.65892010307E+03 -0.19031588686E+04 -0.61782813442E+04  0.65000000000E+04  0.15050000000E+03 0. -1.
     100001    1    1    2    0    0 -0.65892010307E+03  0.19031588686E+04  0.61782813442E+04  0.65000000000E+04  0.15050000000E+03 0.  1.
</event>
<event>
 4    1  0.4826743E-004  0.6500000E+04  0.7818608E-02  0.7223770E-01
         52   -1    0    0    0    0  0.00000000000E+00  0.00000000000E+00  0.64930732323E+04  0.65000000000E+04  0.30000000000E+03 0.  1.
        -52   -1    0    0    0    0 -0.00000000000E+00 -0.00000000000E+00 -0.64930732323E+04  0.65000000000E+04  0.30000000000E+03 0. -1.
     100001    1    1    2    0    0  0.23504585462E+04 -0.12994924708E+03 -0.60568810097E+04  0.65000000000E+04  0.15050000000E+03 0. -1.
     100001    1    1    2    0    0 -0.23504585462E+04  0.12994924708E+03  0.60568810097E+04  0.65000000000E+04  0.15050000000E+03 0.  1.
</event>
<event>
 4    1  0.4826743E-004  0.6500000E+04  0.7818608E-02  0.7223770E-01
         52   -1    0    0    0    0  0.00000000000E+00  0.00000000000E+00  0.64930732323E+04  0.65000000000E+04  0.30000000000E+03 0.  1.
        -52   -1    0    0    0    0 -0.00000000000E+00 -0.00000000000E+00 -0.64930732323E+04  0.65000000000E+04  0.30000000000E+03 0. -1.
     100001    1    1    2    0    0 -0.26850119643E+04 -0.61083882044E+03  0.58859949403E+04  0.65000000000E+04  0.15050000000E+03 0.  1.
     100001    1    1    2    0    0  0.26850119643E+04  0.61083882044E+03 -0.58859949403E+04  0.65000000000E+04  0.15050000000E+03 0. -1.
</event>
<event>
 4    1  0.4826743E-004  0.6500000E+04  0.7818608E-02  0.7223770E-01
         52   -1    0    0    0    0  0.00000000000E+00  0.00000000000E+00  0.64930732323E+04  0.65000000000E+04  0.30000000000E+03 0.  1.
        -52   -1    0    0    0    0 -0.00000000000E+00 -0.00000000000E+00 -0.64930732323E+04  0.65000000000E+04  0.30000000000E+03 0. -1.
     100001    1    1    2    0    0 -0.67432282159E+03  0.14127240254E+02 -0.64631601329E+04  0.65000000000E+04  0.15050000000E+03 0. -1.
     100001    1    1    2    0    0  0.67432282159E+03 -0.14127240254E+02  0.64631601329E+04  0.65000000000E+04  0.15050000000E+03 0.  1.
</event>
<event>
 4    1  0.4826743E-004  0.6500000E+04  0.7818608E-02  0.7223770E-01
         52   -1    0    0    0    0  0.00000000000E+00  0.00000000000E+00  0.64930732323E+04  0.65000000000E+04  0.30000000000E+03 0.  1.
        -52   -1    0    0    0    0 -0.00000000000E+00 -0.00000000000E+00 -0.64930732323E+04  0.65000000000E+04  0.30000000000E+03 0. -1.
     100001    1    1    2    0    0  0.18204259245E+04  0.48160504882E+04  0.39647265857E+04  0.65000000000E+04  0.15050000000E+03 0.  1.
     100001    1    1    2    0    0 -0.18204259245E+04 -0.48160504882E+04 -0.39647265857E+04  0.65000000000E+04  0.15050000000E+03 0. -1.
</event>
<event>
 4    1  0.4826743E-004  0.6500000E+04  0.7818608E-02  0.7223770E-01
         52   -1    0    0    0    0  0.00000000000E+00  0.00000000000E+00  0.64930732323E+04  0.65000000000E+04  0.30000000000E+03 0.  1.
        -52   -1    0    0    0    0 -0.00000000000E+00 -0.00000000000E+00 -0.64930732323E+04  0.65000000000E+04  0.30000000000E+03 0. -1.
     100001    1    1    2    0    0  0.29755177689E+04 -0.51296913232E+04 -0.26570492441E+04  0.65000000000E+04  0.15050000000E+03 0. -1.
     100001    1    1    2    0    0 -0.29755177689E+04  0.51296913232E+04  0.26570492441E+04  0.65000000000E+04  0.15050000000E+03 0.  1.
</event>
<event>
 4    1  0.4826743E-004  0.6500000E+04  0.7818608E-02  0.7223770E-01
         52   -1    0    0    0    0  0.00000000000E+00  0.00000000000E+00  0.64930732323E+04  0.65000000000E+04  0.30000000000E+03 0. -1.
        -52   -1    0    0    0    0 -0.00000000000E+00 -0.00000000000E+00 -0.64930732323E+04  0.65000000000E+04  0.30000000000E+03 0.  1.
     100001    1    1    2    0    0  0.28489742955E+04  0.40210109956E+04  0.42358193761E+04  0.65000000000E+04  0.15050000000E+03 0. -1.
     100001    1    1    2    0    0 -0.28489742955E+04 -0.40210109956E+04 -0.42358193761E+04  0.65000000000E+04  0.15050000000E+03 0.  1.
</event>
<event>
 4    1  0.4826743E-004  0.6500000E+04  0.7818608E-02  0.7223770E-01
         52   -1    0    0    0    0  0.00000000000E+00  0.00000000000E+00  0.64930732323E+04  0.65000000000E+04  0.30000000000E+03 0.  1.
        -52   -1    0    0    0    0 -0.00000000000E+00 -0.00000000000E+00 -0.64930732323E+04  0.65000000000E+04  0.30000000000E+03 0. -1.
     100001    1    1    2    0    0 -0.15644349872E+03  0.11217012750E+04  0.63988015621E+04  0.65000000000E+04  0.15050000000E+03 0.  1.
     100001    1    1    2    0    0  0.15644349872E+03 -0.11217012750E+04 -0.63988015621E+04  0.65000000000E+04  0.15050000000E+03 0. -1.
</event>
<event>
 4    1  0.4826743E-004  0.6500000E+04  0.7818608E-02  0.7223770E-01
         52   -1    0    0    0    0  0.00000000000E+00  0.00000000000E+00  0.64930732323E+04  0.65000000000E+04  0.30000000000E+03 0. -1.
        -52   -1    0    0    0    0 -0.00000000000E+00 -0.00000000000E+00 -0.64930732323E+04  0.65000000000E+04  0.30000000000E+03 0.  1.
     100001    1    1    2    0    0 -0.50284301554E+03 -0.82058579393E+03  0.64265961135E+04  0.65000000000E+04  0.15050000000E+03 0. -1.
     100001    1    1    2    0    0  0.50284301554E+03  0.82058579393E+03 -0.64265961135E+04  0.65000000000E+04  0.15050000000E+03 0.  1.
</event>
<event>
 4    1  0.4826743E-004  0.6500000E+04  0.7818608E-02  0.7223770E-01
         52   -1    0    0    0    0  0.00000000000E+00  0.00000000000E+00  0.64930732323E+04  0.65000000000E+04  0.30000000000E+03 0. -1.
        -52   -1    0    0    0    0 -0.00000000000E+00 -0.00000000000E+00 -0.64930732323E+04  0.65000000000E+04  0.30000000000E+03 0.  1.
     100001    1    1    2    0    0  0.24468099817E+04  0.97777683630E+02 -0.60192117580E+04  0.65000000000E+04  0.15050000000E+03 0.  1.
     100001    1    1    2    0    0 -0.24468099817E+04 -0.97777683630E+02  0.60192117580E+04  0.65000000000E+04  0.15050000000E+03 0. -1.
</event>
<event>
 4    1  0.4826743E-004  0.6500000E+04  0.7818608E-02  0.7223770E-01
         52   -1    0    0    0    0  0.00000000000E+00  0.00000000000E+00  0.64930732323E+04  0.65000000000E+04  0.30000000000E+03 0.  1.
        -52   -1    0    0    0    0 -0.00000000000E+00 -0.00000000000E+00 -0.64930732323E+04  0.65000000000E+04  0.30000000000E+03 0. -1.
     100001    1    1    2    0    0  0.49012065688E+03 -0.16607213206E+03 -0.64776192802E+04  0.65000000000E+04  0.15050000000E+03 0. -1.
     100001    1    1    2    0    0 -0.49012065688E+03  0.16607213206E+03  0.64776192802E+04  0.65000000000E+04  0.15050000000E+03 0.  1.
</event>
<event>
 4    1  0.4826743E-004  0.6500000E+04  0.7818608E-02  0.7223770E-01
         52   -1    0    0    0    0  0.00000000000E+00  0.00000000000E+00  0.64930732323E+04  0.65000000000E+04  0.30000000000E+03 0. -1.
        -52   -1    0    0    0    0 -0.00000000000E+00 -0.00000000000E+00 -0.64930732323E+04  0.65000000000E+04  0.30000000000E+03 0.  1.
     100001    1    1    2    0    0 -0.32767760341E+04 -0.25479142666E+04 -0.49998221431E+04  0.65000000000E+04  0.15050000000E+03 0.  1.
     100001    1    1    2    0    0  0.32767760341E+04  0.25479142666E+04  0.49998221431E+04  0.65000000000E+04  0.15050000000E+03 0. -1.
</event>
<event>
 4    1  0.4826743E-004  0.6500000E+04  0.7818608E-02  0.7223770E-01
         52   -1    0    0    0    0  0.00000000000E+00  0.00000000000E+00  0.64930732323E+04  0.65000000000E+04  0.30000000000E+03 0.  1.
        -52   -1    0    0    0    0 -0.00000000000E+00 -0.00000000000E+00 -0.64930732323E+04  0.65000000000E+04  0.30000000000E+03 0. -1.
     100001    1    1    2    0    0  0.11788316929E+04  0.21021085134E+04 -0.60348028458E+04  0.65000000000E+04  0.15050000000E+03 0. -1.
     100001    1    1    2    0    0 -0.11788316929E+04 -0.21021085134E+04  0.60348028458E+04  0.65000000000E+04  0.15050000000E+03 0.  1.
</event>
<event>
 4    1  0.4826743E-004  0.6500000E+04  0.7818608E-02  0.7223770E-01
         52   -1    0    0    0    0  0.00000000000E+00  0.00000000000E+00  0.64930732323E+04  0.65000000000E+04  0.30000000000E+03 0. -1.
        -52   -1    0    0    0    0 -0.00000000000E+00 -0.00000000000E+00 -0.64930732323E+04  0.65000000000E+04  0.30000000000E+03 0.  1.
     100001    1    1    2    0    0  0.68753397768E+03  0.13465953799E+03  0.64603802975E+04  0.65000000000E+04  0.15050000000E+03 0. -1.
     100001    1    1    2    0    0 -0.68753397768E+03 -0.13465953799E+03 -0.64603802975E+04  0.65000000000E+04  0.15050000000E+03 0.  1.
</event>
<event>
 4    1  0.4826743E-004  0.6500000E+04  0.7818608E-02  0.7223770E-01
         52   -1    0    0    0    0  0.00000000000E+00  0.00000000000E+00  0.64930732323E+04  0.65000000000E+04  0.30000000000E+03 0. -1.
        -52   -1    0    0    0    0 -0.00000000000E+00 -0.00000000000E+00 -0.64930732323E+04  0.65000000000E+04  0.30000000000E+03 0.  1.
     100001    1    1    2    0    0 -0.20548673535E+04  0.43971822071E+04  0.43208400280E+04  0.65000000000E+04  0.15050000000E+03 0. -1.
     100001    1    1    2    0    0  0.20548673535E+04 -0.43971822071E+04 -0.43208400280E+04  0.65000000000E+04  0.15050000000E+03 0.  1.
</event>
<event>
 4    1  0.4826743E-004  0.6500000E+04  0.7818608E-02  0.7223770E-01
         52   -1    0    0    0    0  0.00000000000E+00  0.00000000000E+00  0.64930732323E+04  0.65000000000E+04  0.30000000000E+03 0.  1.
        -52   -1    0    0    0    0 -0.00000000000E+00 -0.00000000000E+00 -0.64930732323E+04  0.65000000000E+04  0.30000000000E+03 0. -1.
     100001    1    1    2    0    0 -0.60764598617E+03  0.19641514035E+03  0.64668027029E+04  0.65000000000E+04  0.15050000000E+03 0.  1.
     100001    1    1    2    0    0  0.60764598617E+03 -0.19641514035E+03 -0.64668027029E+04  0.65000000000E+04  0.15050000000E+03 0. -1.
</event>
<event>
 4    1  0.4826743E-004  0.6500000E+04  0.7818608E-02  0.7223770E-01
         52   -1    0    0    0    0  0.00000000000E+00  0.00000000000E+00  0.64930732323E+04  0.65000000000E+04  0.30000000000E+03 0. -1.
        -52   -1    0    0    0    0 -0.00000000000E+00 -0.00000000000E+00 -0.64930732323E+04  0.65000000000E+04  0.30000000000E+03 0.  1.
     100001    1    1    2    0    0  0.79866580973E+03 -0.32866459090E+04 -0.55486431984E+04  0.65000000000E+04  0.15050000000E+03 0.  1.
     100001    1    1    2    0    0 -0.79866580973E+03  0.32866459090E+04  0.55486431984E+04  0.65000000000E+04  0.15050000000E+03 0. -1.
</event>
<event>
 4    1  0.4826743E-004  0.6500000E+04  0.7818608E-02  0.7223770E-01
         52   -1    0    0    0    0  0.00000000000E+00  0.00000000000E+00  0.64930732323E+04  0.65000000000E+04  0.30000000000E+03 0.  1.
        -52   -1    0    0    0    0 -0.00000000000E+00 -0.00000000000E+00 -0.64930732323E+04  0.65000000000E+04  0.30000000000E+03 0. -1.
     100001    1    1    2    0    0  0.61074696118E+04 -0.18861697708E+04 -0.11698411375E+04  0.65000000000E+04  0.15050000000E+03 0. -1.
     100001    1    1    2    0    0 -0.61074696118E+04  0.18861697708E+04  0.11698411375E+04  0.65000000000E+04  0.15050000000E+03 0.  1.
</event>
<event>
 4    1  0.4826743E-004  0.6500000E+04  0.7818608E-02  0.7223770E-01
         52   -1    0    0    0    0  0.00000000000E+00  0.00000000000E+00  0.64930732323E+04  0.65000000000E+04  0.30000000000E+03 0. -1.
        -52   -1    0    0    0    0 -0.00000000000E+00 -0.00000000000E+00 -0.64930732323E+04  0.65000000000E+04  0.30000000000E+03 0. -1.
     100001    1    1    2    0    0 -0.38758443696E+03 -0.31734183787E+03 -0.64789213772E+04  0.65000000000E+04  0.15050000000E+03 0. -1.
     100001    1    1    2    0    0  0.38758443696E+03  0.31734183787E+03  0.64789213772E+04  0.65000000000E+04  0.15050000000E+03 0. -1.
</event>
<event>
 4    1  0.4826743E-004  0.6500000E+04  0.7818608E-02  0.7223770E-01
         52   -1    0    0    0    0  0.00000000000E+00  0.00000000000E+00  0.64930732323E+04  0.65000000000E+04  0.30000000000E+03 0. -1.
        -52   -1    0    0    0    0 -0.00000000000E+00 -0.00000000000E+00 -0.64930732323E+04  0.65000000000E+04  0.30000000000E+03 0.  1.
     100001    1    1    2    0    0  0.89083811043E+02 -0.14744017307E+04  0.63281556050E+04  0.65000000000E+04  0.15050000000E+03 0. -1.
     100001    1    1    2    0    0 -0.89083811043E+02  0.14744017307E+04 -0.63281556050E+04  0.65000000000E+04  0.15050000000E+03 0.  1.
</event>
<event>
 4    1  0.4826743E-004  0.6500000E+04  0.7818608E-02  0.7223770E-01
         52   -1    0    0    0    0  0.00000000000E+00  0.00000000000E+00  0.64930732323E+04  0.65000000000E+04  0.30000000000E+03 0.  1.
        -52   -1    0    0    0    0 -0.00000000000E+00 -0.00000000000E+00 -0.64930732323E+04  0.65000000000E+04  0.30000000000E+03 0. -1.
     100001    1    1    2    0    0 -0.19810435909E+03 -0.49068084295E+03  0.64766763639E+04  0.65000000000E+04  0.15050000000E+03 0.  1.
     100001    1    1    2    0    0  0.19810435909E+03  0.49068084295E+03 -0.64766763639E+04  0.65000000000E+04  0.15050000000E+03 0. -1.
</event>
<event>
 4    1  0.4826743E-004  0.6500000E+04  0.7818608E-02  0.7223770E-01
         52   -1    0    0    0    0  0.00000000000E+00  0.00000000000E+00  0.64930732323E+04  0.65000000000E+04  0.30000000000E+03 0.  1.
        -52   -1    0    0    0    0 -0.00000000000E+00 -0.00000000000E+00 -0.64930732323E+04  0.65000000000E+04  0.30000000000E+03 0. -1.
     100001    1    1    2    0    0  0.35118510557E+03  0.10678119462E+04  0.64002965884E+04  0.65000000000E+04  0.15050000000E+03 0.  1.
     100001    1    1    2    0    0 -0.35118510557E+03 -0.10678119462E+04 -0.64002965884E+04  0.65000000000E+04  0.15050000000E+03 0. -1.
</event>
<event>
 4    1  0.4826743E-004  0.6500000E+04  0.7818608E-02  0.7223770E-01
         52   -1    0    0    0    0  0.00000000000E+00  0.00000000000E+00  0.64930732323E+04  0.65000000000E+04  0.30000000000E+03 0.  1.
        -52   -1    0    0    0    0 -0.00000000000E+00 -0.00000000000E+00 -0.64930732323E+04  0.65000000000E+04  0.30000000000E+03 0. -1.
     100001    1    1    2    0    0 -0.12202454255E+04  0.63349778195E+03 -0.63511441026E+04  0.65000000000E+04  0.15050000000E+03 0. -1.
     100001    1    1    2    0    0  0.12202454255E+04 -0.63349778195E+03  0.63511441026E+04  0.65000000000E+04  0.15050000000E+03 0.  1.
</event>
<event>
 4    1  0.4826743E-004  0.6500000E+04  0.7818608E-02  0.7223770E-01
         52   -1    0    0    0    0  0.00000000000E+00  0.00000000000E+00  0.64930732323E+04  0.65000000000E+04  0.30000000000E+03 0. -1.
        -52   -1    0    0    0    0 -0.00000000000E+00 -0.00000000000E+00 -0.64930732323E+04  0.65000000000E+04  0.30000000000E+03 0.  1.
     100001    1    1    2    0    0  0.56411695292E+04  0.23108570276E+04  0.22504434876E+04  0.65000000000E+04  0.15050000000E+03 0. -1.
     100001    1    1    2    0    0 -0.56411695292E+04 -0.23108570276E+04 -0.22504434876E+04  0.65000000000E+04  0.15050000000E+03 0.  1.
</event>
<event>
 4    1  0.4826743E-004  0.6500000E+04  0.7818608E-02  0.7223770E-01
         52   -1    0    0    0    0  0.00000000000E+00  0.00000000000E+00  0.64930732323E+04  0.65000000000E+04  0.30000000000E+03 0.  1.
        -52   -1    0    0    0    0 -0.00000000000E+00 -0.00000000000E+00 -0.64930732323E+04  0.65000000000E+04  0.30000000000E+03 0. -1.
     100001    1    1    2    0    0 -0.94045790274E+02  0.74002009367E+03 -0.64552982426E+04  0.65000000000E+04  0.15050000000E+03 0. -1.
     100001    1    1    2    0    0  0.94045790274E+02 -0.74002009367E+03  0.64552982426E+04  0.65000000000E+04  0.15050000000E+03 0.  1.
</event>
<event>
 4    1  0.4826743E-004  0.6500000E+04  0.7818608E-02  0.7223770E-01
         52   -1    0    0    0    0  0.00000000000E+00  0.00000000000E+00  0.64930732323E+04  0.65000000000E+04  0.30000000000E+03 0.  1.
        -52   -1    0    0    0    0 -0.00000000000E+00 -0.00000000000E+00 -0.64930732323E+04  0.65000000000E+04  0.30000000000E+03 0. -1.
     100001    1    1    2    0    0  0.25817630010E+03 -0.11303962831E+04  0.63939736464E+04  0.65000000000E+04  0.15050000000E+03 0.  1.
     100001    1    1    2    0    0 -0.25817630010E+03  0.11303962831E+04 -0.63939736464E+04  0.65000000000E+04  0.15050000000E+03 0. -1.
</event>
<event>
 4    1  0.4826743E-004  0.6500000E+04  0.7818608E-02  0.7223770E-01
         52   -1    0    0    0    0  0.00000000000E+00  0.00000000000E+00  0.64930732323E+04  0.65000000000E+04  0.30000000000E+03 0. -1.
        -52   -1    0    0    0    0 -0.00000000000E+00 -0.00000000000E+00 -0.64930732323E+04  0.65000000000E+04  0.30000000000E+03 0.  1.
     100001    1    1    2    0    0  0.12987923877E+03  0.52196434545E+03 -0.64759581805E+04  0.65000000000E+04  0.15050000000E+03 0.  1.
     100001    1    1    2    0    0 -0.12987923877E+03 -0.52196434545E+03  0.64759581805E+04  0.65000000000E+04  0.15050000000E+03 0. -1.
</event>
<event>
 4    1  0.4826743E-004  0.6500000E+04  0.7818608E-02  0.7223770E-01
         52   -1    0    0    0    0  0.00000000000E+00  0.00000000000E+00  0.64930732323E+04  0.65000000000E+04  0.30000000000E+03 0. -1.
        -52   -1    0    0    0    0 -0.00000000000E+00 -0.00000000000E+00 -0.64930732323E+04  0.65000000000E+04  0.30000000000E+03 0.  1.
     100001    1    1    2    0    0  0.17999100188E+03  0.10101403432E+04  0.64167413440E+04  0.65000000000E+04  0.15050000000E+03 0. -1.
     100001    1    1    2    0    0 -0.17999100188E+03 -0.10101403432E+04 -0.64167413440E+04  0.65000000000E+04  0.15050000000E+03 0.  1.
</event>
<event>
 4    1  0.4826743E-004  0.6500000E+04  0.7818608E-02  0.7223770E-01
         52   -1    0    0    0    0  0.00000000000E+00  0.00000000000E+00  0.64930732323E+04  0.65000000000E+04  0.30000000000E+03 0.  1.
        -52   -1    0    0    0    0 -0.00000000000E+00 -0.00000000000E+00 -0.64930732323E+04  0.65000000000E+04  0.30000000000E+03 0.  1.
     100001    1    1    2    0    0  0.66775659312E+03 -0.25731428800E+03 -0.64587336405E+04  0.65000000000E+04  0.15050000000E+03 0.  1.
     100001    1    1    2    0    0 -0.66775659312E+03  0.25731428800E+03  0.64587336405E+04  0.65000000000E+04  0.15050000000E+03 0.  1.
</event>
<event>
 4    1  0.4826743E-004  0.6500000E+04  0.7818608E-02  0.7223770E-01
         52   -1    0    0    0    0  0.00000000000E+00  0.00000000000E+00  0.64930732323E+04  0.65000000000E+04  0.30000000000E+03 0. -1.
        -52   -1    0    0    0    0 -0.00000000000E+00 -0.00000000000E+00 -0.64930732323E+04  0.65000000000E+04  0.30000000000E+03 0.  1.
     100001    1    1    2    0    0 -0.97046089295E+03  0.41072095519E+04 -0.49412938692E+04  0.65000000000E+04  0.15050000000E+03 0.  1.
     100001    1    1    2    0    0  0.97046089295E+03 -0.41072095519E+04  0.49412938692E+04  0.65000000000E+04  0.15050000000E+03 0. -1.
</event>
<event>
 4    1  0.4826743E-004  0.6500000E+04  0.7818608E-02  0.7223770E-01
         52   -1    0    0    0    0  0.00000000000E+00  0.00000000000E+00  0.64930732323E+04  0.65000000000E+04  0.30000000000E+03 0.  1.
        -52   -1    0    0    0    0 -0.00000000000E+00 -0.00000000000E+00 -0.64930732323E+04  0.65000000000E+04  0.30000000000E+03 0. -1.
     100001    1    1    2    0    0  0.56087283763E+03 -0.64636379148E+04  0.36627355322E+03  0.65000000000E+04  0.15050000000E+03 0.  1.
     100001    1    1    2    0    0 -0.56087283763E+03  0.64636379148E+04 -0.36627355322E+03  0.65000000000E+04  0.15050000000E+03 0. -1.
</event>
<event>
 4    1  0.4826743E-004  0.6500000E+04  0.7818608E-02  0.7223770E-01
         52   -1    0    0    0    0  0.00000000000E+00  0.00000000000E+00  0.64930732323E+04  0.65000000000E+04  0.30000000000E+03 0. -1.
        -52   -1    0    0    0    0 -0.00000000000E+00 -0.00000000000E+00 -0.64930732323E+04  0.65000000000E+04  0.30000000000E+03 0.  1.
     100001    1    1    2    0    0  0.44242082801E+04  0.43130258288E+02 -0.47593981369E+04  0.65000000000E+04  0.15050000000E+03 0.  1.
     100001    1    1    2    0    0 -0.44242082801E+04 -0.43130258288E+02  0.47593981369E+04  0.65000000000E+04  0.15050000000E+03 0. -1.
</event>
<event>
 4    1  0.4826743E-004  0.6500000E+04  0.7818608E-02  0.7223770E-01
         52   -1    0    0    0    0  0.00000000000E+00  0.00000000000E+00  0.64930732323E+04  0.65000000000E+04  0.30000000000E+03 0. -1.
        -52   -1    0    0    0    0 -0.00000000000E+00 -0.00000000000E+00 -0.64930732323E+04  0.65000000000E+04  0.30000000000E+03 0.  1.
     100001    1    1    2    0    0 -0.13694995131E+04 -0.10819993577E+03 -0.63513867468E+04  0.65000000000E+04  0.15050000000E+03 0.  1.
     100001    1    1    2    0    0  0.13694995131E+04  0.10819993577E+03  0.63513867468E+04  0.65000000000E+04  0.15050000000E+03 0. -1.
</event>
<event>
 4    1  0.4826743E-004  0.6500000E+04  0.7818608E-02  0.7223770E-01
         52   -1    0    0    0    0  0.00000000000E+00  0.00000000000E+00  0.64930732323E+04  0.65000000000E+04  0.30000000000E+03 0. -1.
        -52   -1    0    0    0    0 -0.00000000000E+00 -0.00000000000E+00 -0.64930732323E+04  0.65000000000E+04  0.30000000000E+03 0.  1.
     100001    1    1    2    0    0 -0.25977590137E+04  0.24734407478E+04 -0.54185873365E+04  0.65000000000E+04  0.15050000000E+03 0.  1.
     100001    1    1    2    0    0  0.25977590137E+04 -0.24734407478E+04  0.54185873365E+04  0.65000000000E+04  0.15050000000E+03 0. -1.
</event>
<event>
 4    1  0.4826743E-004  0.6500000E+04  0.7818608E-02  0.7223770E-01
         52   -1    0    0    0    0  0.00000000000E+00  0.00000000000E+00  0.64930732323E+04  0.65000000000E+04  0.30000000000E+03 0.  1.
        -52   -1    0    0    0    0 -0.00000000000E+00 -0.00000000000E+00 -0.64930732323E+04  0.65000000000E+04  0.30000000000E+03 0.  1.
     100001    1    1    2    0    0  0.25051636945E+03  0.31895818914E+03  0.64855884060E+04  0.65000000000E+04  0.15050000000E+03 0.  1.
     100001    1    1    2    0    0 -0.25051636945E+03 -0.31895818914E+03 -0.64855884060E+04  0.65000000000E+04  0.15050000000E+03 0.  1.
</event>
<event>
 4    1  0.4826743E-004  0.6500000E+04  0.7818608E-02  0.7223770E-01
         52   -1    0    0    0    0  0.00000000000E+00  0.00000000000E+00  0.64930732323E+04  0.65000000000E+04  0.30000000000E+03 0.  1.
        -52   -1    0    0    0    0 -0.00000000000E+00 -0.00000000000E+00 -0.64930732323E+04  0.65000000000E+04  0.30000000000E+03 0. -1.
     100001    1    1    2    0    0  0.15200094951E+04  0.47827469388E+04  0.41282263267E+04  0.65000000000E+04  0.15050000000E+03 0.  1.
     100001    1    1    2    0    0 -0.15200094951E+04 -0.47827469388E+04 -0.41282263267E+04  0.65000000000E+04  0.15050000000E+03 0. -1.
</event>
<event>
 4    1  0.4826743E-004  0.6500000E+04  0.7818608E-02  0.7223770E-01
         52   -1    0    0    0    0  0.00000000000E+00  0.00000000000E+00  0.64930732323E+04  0.65000000000E+04  0.30000000000E+03 0.  1.
        -52   -1    0    0    0    0 -0.00000000000E+00 -0.00000000000E+00 -0.64930732323E+04  0.65000000000E+04  0.30000000000E+03 0. -1.
     100001    1    1    2    0    0  0.68214338348E+03  0.87867400023E+03  0.64023403655E+04  0.65000000000E+04  0.15050000000E+03 0.  1.
     100001    1    1    2    0    0 -0.68214338348E+03 -0.87867400023E+03 -0.64023403655E+04  0.65000000000E+04  0.15050000000E+03 0. -1.
</event>
<event>
 4    1  0.4826743E-004  0.6500000E+04  0.7818608E-02  0.7223770E-01
         52   -1    0    0    0    0  0.00000000000E+00  0.00000000000E+00  0.64930732323E+04  0.65000000000E+04  0.30000000000E+03 0.  1.
        -52   -1    0    0    0    0 -0.00000000000E+00 -0.00000000000E+00 -0.64930732323E+04  0.65000000000E+04  0.30000000000E+03 0. -1.
     100001    1    1    2    0    0  0.28641279302E+04 -0.12377244889E+04 -0.57001893863E+04  0.65000000000E+04  0.15050000000E+03 0. -1.
     100001    1    1    2    0    0 -0.28641279302E+04  0.12377244889E+04  0.57001893863E+04  0.65000000000E+04  0.15050000000E+03 0.  1.
</event>
<event>
 4    1  0.4826743E-004  0.6500000E+04  0.7818608E-02  0.7223770E-01
         52   -1    0    0    0    0  0.00000000000E+00  0.00000000000E+00  0.64930732323E+04  0.65000000000E+04  0.30000000000E+03 0.  1.
        -52   -1    0    0    0    0 -0.00000000000E+00 -0.00000000000E+00 -0.64930732323E+04  0.65000000000E+04  0.30000000000E+03 0. -1.
     100001    1    1    2    0    0 -0.25779487694E+04  0.89857055827E+03  0.58969569139E+04  0.65000000000E+04  0.15050000000E+03 0.  1.
     100001    1    1    2    0    0  0.25779487694E+04 -0.89857055827E+03 -0.58969569139E+04  0.65000000000E+04  0.15050000000E+03 0. -1.
</event>
<event>
 4    1  0.4826743E-004  0.6500000E+04  0.7818608E-02  0.7223770E-01
         52   -1    0    0    0    0  0.00000000000E+00  0.00000000000E+00  0.64930732323E+04  0.65000000000E+04  0.30000000000E+03 0. -1.
        -52   -1    0    0    0    0 -0.00000000000E+00 -0.00000000000E+00 -0.64930732323E+04  0.65000000000E+04  0.30000000000E+03 0.  1.
     100001    1    1    2    0    0 -0.15835903595E+04 -0.28678554203E+04  0.56120403252E+04  0.65000000000E+04  0.15050000000E+03 0. -1.
     100001    1    1    2    0    0  0.15835903595E+04  0.28678554203E+04 -0.56120403252E+04  0.65000000000E+04  0.15050000000E+03 0.  1.
</event>
<event>
 4    1  0.4826743E-004  0.6500000E+04  0.7818608E-02  0.7223770E-01
         52   -1    0    0    0    0  0.00000000000E+00  0.00000000000E+00  0.64930732323E+04  0.65000000000E+04  0.30000000000E+03 0. -1.
        -52   -1    0    0    0    0 -0.00000000000E+00 -0.00000000000E+00 -0.64930732323E+04  0.65000000000E+04  0.30000000000E+03 0.  1.
     100001    1    1    2    0    0 -0.10934388232E+04 -0.91828961265E+03 -0.63394388929E+04  0.65000000000E+04  0.15050000000E+03 0.  1.
     100001    1    1    2    0    0  0.10934388232E+04  0.91828961265E+03  0.63394388929E+04  0.65000000000E+04  0.15050000000E+03 0. -1.
</event>
<event>
 4    1  0.4826743E-004  0.6500000E+04  0.7818608E-02  0.7223770E-01
         52   -1    0    0    0    0  0.00000000000E+00  0.00000000000E+00  0.64930732323E+04  0.65000000000E+04  0.30000000000E+03 0.  1.
        -52   -1    0    0    0    0 -0.00000000000E+00 -0.00000000000E+00 -0.64930732323E+04  0.65000000000E+04  0.30000000000E+03 0. -1.
     100001    1    1    2    0    0 -0.35692348387E+04  0.29936897454E+04  0.45305335364E+04  0.65000000000E+04  0.15050000000E+03 0.  1.
     100001    1    1    2    0    0  0.35692348387E+04 -0.29936897454E+04 -0.45305335364E+04  0.65000000000E+04  0.15050000000E+03 0. -1.
</event>
<event>
 4    1  0.4826743E-004  0.6500000E+04  0.7818608E-02  0.7223770E-01
         52   -1    0    0    0    0  0.00000000000E+00  0.00000000000E+00  0.64930732323E+04  0.65000000000E+04  0.30000000000E+03 0.  1.
        -52   -1    0    0    0    0 -0.00000000000E+00 -0.00000000000E+00 -0.64930732323E+04  0.65000000000E+04  0.30000000000E+03 0. -1.
     100001    1    1    2    0    0  0.20484933544E+03 -0.21179838121E+03  0.64915736109E+04  0.65000000000E+04  0.15050000000E+03 0.  1.
     100001    1    1    2    0    0 -0.20484933544E+03  0.21179838121E+03 -0.64915736109E+04  0.65000000000E+04  0.15050000000E+03 0. -1.
</event>
<event>
 4    1  0.4826743E-004  0.6500000E+04  0.7818608E-02  0.7223770E-01
         52   -1    0    0    0    0  0.00000000000E+00  0.00000000000E+00  0.64930732323E+04  0.65000000000E+04  0.30000000000E+03 0.  1.
        -52   -1    0    0    0    0 -0.00000000000E+00 -0.00000000000E+00 -0.64930732323E+04  0.65000000000E+04  0.30000000000E+03 0. -1.
     100001    1    1    2    0    0  0.50337739878E+04  0.27046482090E+04 -0.30940826193E+04  0.65000000000E+04  0.15050000000E+03 0. -1.
     100001    1    1    2    0    0 -0.50337739878E+04 -0.27046482090E+04  0.30940826193E+04  0.65000000000E+04  0.15050000000E+03 0.  1.
</event>
<event>
 4    1  0.4826743E-004  0.6500000E+04  0.7818608E-02  0.7223770E-01
         52   -1    0    0    0    0  0.00000000000E+00  0.00000000000E+00  0.64930732323E+04  0.65000000000E+04  0.30000000000E+03 0. -1.
        -52   -1    0    0    0    0 -0.00000000000E+00 -0.00000000000E+00 -0.64930732323E+04  0.65000000000E+04  0.30000000000E+03 0.  1.
     100001    1    1    2    0    0  0.17265338938E+03 -0.72400223038E+02 -0.64955599270E+04  0.65000000000E+04  0.15050000000E+03 0.  1.
     100001    1    1    2    0    0 -0.17265338938E+03  0.72400223038E+02  0.64955599270E+04  0.65000000000E+04  0.15050000000E+03 0. -1.
</event>
<event>
 4    1  0.4826743E-004  0.6500000E+04  0.7818608E-02  0.7223770E-01
         52   -1    0    0    0    0  0.00000000000E+00  0.00000000000E+00  0.64930732323E+04  0.65000000000E+04  0.30000000000E+03 0.  1.
        -52   -1    0    0    0    0 -0.00000000000E+00 -0.00000000000E+00 -0.64930732323E+04  0.65000000000E+04  0.30000000000E+03 0.  1.
     100001    1    1    2    0    0 -0.16503756565E+02  0.10331584972E+03 -0.64974151177E+04  0.65000000000E+04  0.15050000000E+03 0.  1.
     100001    1    1    2    0    0  0.16503756565E+02 -0.10331584972E+03  0.64974151177E+04  0.65000000000E+04  0.15050000000E+03 0.  1.
</event>
<event>
 4    1  0.4826743E-004  0.6500000E+04  0.7818608E-02  0.7223770E-01
         52   -1    0    0    0    0  0.00000000000E+00  0.00000000000E+00  0.64930732323E+04  0.65000000000E+04  0.30000000000E+03 0. -1.
        -52   -1    0    0    0    0 -0.00000000000E+00 -0.00000000000E+00 -0.64930732323E+04  0.65000000000E+04  0.30000000000E+03 0.  1.
     100001    1    1    2    0    0 -0.59750576520E+03 -0.74092087523E+03 -0.64281702581E+04  0.65000000000E+04  0.15050000000E+03 0.  1.
     100001    1    1    2    0    0  0.59750576520E+03  0.74092087523E+03  0.64281702581E+04  0.65000000000E+04  0.15050000000E+03 0. -1.
</event>
<event>
 4    1  0.4826743E-004  0.6500000E+04  0.7818608E-02  0.7223770E-01
         52   -1    0    0    0    0  0.00000000000E+00  0.00000000000E+00  0.64930732323E+04  0.65000000000E+04  0.30000000000E+03 0.  1.
        -52   -1    0    0    0    0 -0.00000000000E+00 -0.00000000000E+00 -0.64930732323E+04  0.65000000000E+04  0.30000000000E+03 0. -1.
     100001    1    1    2    0    0 -0.10504010970E+04  0.79199605789E+03 -0.63637056445E+04  0.65000000000E+04  0.15050000000E+03 0. -1.
     100001    1    1    2    0    0  0.10504010970E+04 -0.79199605789E+03  0.63637056445E+04  0.65000000000E+04  0.15050000000E+03 0.  1.
</event>
<event>
 4    1  0.4826743E-004  0.6500000E+04  0.7818608E-02  0.7223770E-01
         52   -1    0    0    0    0  0.00000000000E+00  0.00000000000E+00  0.64930732323E+04  0.65000000000E+04  0.30000000000E+03 0. -1.
        -52   -1    0    0    0    0 -0.00000000000E+00 -0.00000000000E+00 -0.64930732323E+04  0.65000000000E+04  0.30000000000E+03 0.  1.
     100001    1    1    2    0    0 -0.80364398348E+03  0.51423617909E+04  0.38907096151E+04  0.65000000000E+04  0.15050000000E+03 0. -1.
     100001    1    1    2    0    0  0.80364398348E+03 -0.51423617909E+04 -0.38907096151E+04  0.65000000000E+04  0.15050000000E+03 0.  1.
</event>
<event>
 4    1  0.4826743E-004  0.6500000E+04  0.7818608E-02  0.7223770E-01
         52   -1    0    0    0    0  0.00000000000E+00  0.00000000000E+00  0.64930732323E+04  0.65000000000E+04  0.30000000000E+03 0.  1.
        -52   -1    0    0    0    0 -0.00000000000E+00 -0.00000000000E+00 -0.64930732323E+04  0.65000000000E+04  0.30000000000E+03 0. -1.
     100001    1    1    2    0    0 -0.12439506598E+04  0.34679708097E+03  0.63686472889E+04  0.65000000000E+04  0.15050000000E+03 0.  1.
     100001    1    1    2    0    0  0.12439506598E+04 -0.34679708097E+03 -0.63686472889E+04  0.65000000000E+04  0.15050000000E+03 0. -1.
</event>
<event>
 4    1  0.4826743E-004  0.6500000E+04  0.7818608E-02  0.7223770E-01
         52   -1    0    0    0    0  0.00000000000E+00  0.00000000000E+00  0.64930732323E+04  0.65000000000E+04  0.30000000000E+03 0. -1.
        -52   -1    0    0    0    0 -0.00000000000E+00 -0.00000000000E+00 -0.64930732323E+04  0.65000000000E+04  0.30000000000E+03 0.  1.
     100001    1    1    2    0    0  0.16488366631E+04  0.44636902413E+03 -0.62697242446E+04  0.65000000000E+04  0.15050000000E+03 0.  1.
     100001    1    1    2    0    0 -0.16488366631E+04 -0.44636902413E+03  0.62697242446E+04  0.65000000000E+04  0.15050000000E+03 0. -1.
</event>
<event>
 4    1  0.4826743E-004  0.6500000E+04  0.7818608E-02  0.7223770E-01
         52   -1    0    0    0    0  0.00000000000E+00  0.00000000000E+00  0.64930732323E+04  0.65000000000E+04  0.30000000000E+03 0.  1.
        -52   -1    0    0    0    0 -0.00000000000E+00 -0.00000000000E+00 -0.64930732323E+04  0.65000000000E+04  0.30000000000E+03 0. -1.
     100001    1    1    2    0    0 -0.14893707895E+04  0.37096666535E+04 -0.51232311798E+04  0.65000000000E+04  0.15050000000E+03 0. -1.
     100001    1    1    2    0    0  0.14893707895E+04 -0.37096666535E+04  0.51232311798E+04  0.65000000000E+04  0.15050000000E+03 0.  1.
</event>
<event>
 4    1  0.4826743E-004  0.6500000E+04  0.7818608E-02  0.7223770E-01
         52   -1    0    0    0    0  0.00000000000E+00  0.00000000000E+00  0.64930732323E+04  0.65000000000E+04  0.30000000000E+03 0. -1.
        -52   -1    0    0    0    0 -0.00000000000E+00 -0.00000000000E+00 -0.64930732323E+04  0.65000000000E+04  0.30000000000E+03 0.  1.
     100001    1    1    2    0    0 -0.19358239558E+04  0.18818122485E+04 -0.59108982417E+04  0.65000000000E+04  0.15050000000E+03 0.  1.
     100001    1    1    2    0    0  0.19358239558E+04 -0.18818122485E+04  0.59108982417E+04  0.65000000000E+04  0.15050000000E+03 0. -1.
</event>
<event>
 4    1  0.4995338E-004  0.6500000E+04  0.7818608E-02  0.7223770E-01
         52   -1    0    0    0    0  0.00000000000E+00  0.00000000000E+00  0.64930732323E+04  0.65000000000E+04  0.30000000000E+03 0. -1.
        -52   -1    0    0    0    0 -0.00000000000E+00 -0.00000000000E+00 -0.64930732323E+04  0.65000000000E+04  0.30000000000E+03 0. -1.
     100001    1    1    2    0    0 -0.17073660015E+03  0.10292881947E+03 -0.64951985667E+04  0.65000000000E+04  0.15050000000E+03 0. -1.
     100001    1    1    2    0    0  0.17073660015E+03 -0.10292881947E+03  0.64951985667E+04  0.65000000000E+04  0.15050000000E+03 0. -1.
</event>
<event>
 4    1  0.4826743E-004  0.6500000E+04  0.7818608E-02  0.7223770E-01
         52   -1    0    0    0    0  0.00000000000E+00  0.00000000000E+00  0.64930732323E+04  0.65000000000E+04  0.30000000000E+03 0. -1.
        -52   -1    0    0    0    0 -0.00000000000E+00 -0.00000000000E+00 -0.64930732323E+04  0.65000000000E+04  0.30000000000E+03 0.  1.
     100001    1    1    2    0    0 -0.81384231081E+03 -0.11362223461E+04  0.63461806800E+04  0.65000000000E+04  0.15050000000E+03 0. -1.
     100001    1    1    2    0    0  0.81384231081E+03  0.11362223461E+04 -0.63461806800E+04  0.65000000000E+04  0.15050000000E+03 0.  1.
</event>
<event>
 4    1  0.4826743E-004  0.6500000E+04  0.7818608E-02  0.7223770E-01
         52   -1    0    0    0    0  0.00000000000E+00  0.00000000000E+00  0.64930732323E+04  0.65000000000E+04  0.30000000000E+03 0.  1.
        -52   -1    0    0    0    0 -0.00000000000E+00 -0.00000000000E+00 -0.64930732323E+04  0.65000000000E+04  0.30000000000E+03 0. -1.
     100001    1    1    2    0    0  0.19709517979E+04  0.56487059137E+04  0.25366947513E+04  0.65000000000E+04  0.15050000000E+03 0.  1.
     100001    1    1    2    0    0 -0.19709517979E+04 -0.56487059137E+04 -0.25366947513E+04  0.65000000000E+04  0.15050000000E+03 0. -1.
</event>
<event>
 4    1  0.4826743E-004  0.6500000E+04  0.7818608E-02  0.7223770E-01
         52   -1    0    0    0    0  0.00000000000E+00  0.00000000000E+00  0.64930732323E+04  0.65000000000E+04  0.30000000000E+03 0. -1.
        -52   -1    0    0    0    0 -0.00000000000E+00 -0.00000000000E+00 -0.64930732323E+04  0.65000000000E+04  0.30000000000E+03 0.  1.
     100001    1    1    2    0    0 -0.46880670812E+04  0.39599834194E+04  0.21372665043E+04  0.65000000000E+04  0.15050000000E+03 0. -1.
     100001    1    1    2    0    0  0.46880670812E+04 -0.39599834194E+04 -0.21372665043E+04  0.65000000000E+04  0.15050000000E+03 0.  1.
</event>
<event>
 4    1  0.4826743E-004  0.6500000E+04  0.7818608E-02  0.7223770E-01
         52   -1    0    0    0    0  0.00000000000E+00  0.00000000000E+00  0.64930732323E+04  0.65000000000E+04  0.30000000000E+03 0. -1.
        -52   -1    0    0    0    0 -0.00000000000E+00 -0.00000000000E+00 -0.64930732323E+04  0.65000000000E+04  0.30000000000E+03 0.  1.
     100001    1    1    2    0    0 -0.33790254715E+04  0.45488315071E+03  0.55319632982E+04  0.65000000000E+04  0.15050000000E+03 0. -1.
     100001    1    1    2    0    0  0.33790254715E+04 -0.45488315071E+03 -0.55319632982E+04  0.65000000000E+04  0.15050000000E+03 0.  1.
</event>
<event>
 4    1  0.4826743E-004  0.6500000E+04  0.7818608E-02  0.7223770E-01
         52   -1    0    0    0    0  0.00000000000E+00  0.00000000000E+00  0.64930732323E+04  0.65000000000E+04  0.30000000000E+03 0.  1.
        -52   -1    0    0    0    0 -0.00000000000E+00 -0.00000000000E+00 -0.64930732323E+04  0.65000000000E+04  0.30000000000E+03 0.  1.
     100001    1    1    2    0    0 -0.98897972618E+02  0.42447966708E+02  0.64973661672E+04  0.65000000000E+04  0.15050000000E+03 0.  1.
     100001    1    1    2    0    0  0.98897972618E+02 -0.42447966708E+02 -0.64973661672E+04  0.65000000000E+04  0.15050000000E+03 0.  1.
</event>
<event>
 4    1  0.4826743E-004  0.6500000E+04  0.7818608E-02  0.7223770E-01
         52   -1    0    0    0    0  0.00000000000E+00  0.00000000000E+00  0.64930732323E+04  0.65000000000E+04  0.30000000000E+03 0.  1.
        -52   -1    0    0    0    0 -0.00000000000E+00 -0.00000000000E+00 -0.64930732323E+04  0.65000000000E+04  0.30000000000E+03 0. -1.
     100001    1    1    2    0    0  0.17159463282E+04  0.73929076992E+03 -0.62238514688E+04  0.65000000000E+04  0.15050000000E+03 0. -1.
     100001    1    1    2    0    0 -0.17159463282E+04 -0.73929076992E+03  0.62238514688E+04  0.65000000000E+04  0.15050000000E+03 0.  1.
</event>
<event>
 4    1  0.4826743E-004  0.6500000E+04  0.7818608E-02  0.7223770E-01
         52   -1    0    0    0    0  0.00000000000E+00  0.00000000000E+00  0.64930732323E+04  0.65000000000E+04  0.30000000000E+03 0. -1.
        -52   -1    0    0    0    0 -0.00000000000E+00 -0.00000000000E+00 -0.64930732323E+04  0.65000000000E+04  0.30000000000E+03 0.  1.
     100001    1    1    2    0    0  0.23218759743E+02  0.56496590592E+03  0.64736098248E+04  0.65000000000E+04  0.15050000000E+03 0. -1.
     100001    1    1    2    0    0 -0.23218759743E+02 -0.56496590592E+03 -0.64736098248E+04  0.65000000000E+04  0.15050000000E+03 0.  1.
</event>
<event>
 4    1  0.4826743E-004  0.6500000E+04  0.7818608E-02  0.7223770E-01
         52   -1    0    0    0    0  0.00000000000E+00  0.00000000000E+00  0.64930732323E+04  0.65000000000E+04  0.30000000000E+03 0.  1.
        -52   -1    0    0    0    0 -0.00000000000E+00 -0.00000000000E+00 -0.64930732323E+04  0.65000000000E+04  0.30000000000E+03 0. -1.
     100001    1    1    2    0    0  0.52943744733E+04 -0.34948554483E+04  0.14081669228E+04  0.65000000000E+04  0.15050000000E+03 0.  1.
     100001    1    1    2    0    0 -0.52943744733E+04  0.34948554483E+04 -0.14081669228E+04  0.65000000000E+04  0.15050000000E+03 0. -1.
</event>
<event>
 4    1  0.4826743E-004  0.6500000E+04  0.7818608E-02  0.7223770E-01
         52   -1    0    0    0    0  0.00000000000E+00  0.00000000000E+00  0.64930732323E+04  0.65000000000E+04  0.30000000000E+03 0.  1.
        -52   -1    0    0    0    0 -0.00000000000E+00 -0.00000000000E+00 -0.64930732323E+04  0.65000000000E+04  0.30000000000E+03 0. -1.
     100001    1    1    2    0    0  0.40459359662E+03  0.40724454782E+03 -0.64728514312E+04  0.65000000000E+04  0.15050000000E+03 0. -1.
     100001    1    1    2    0    0 -0.40459359662E+03 -0.40724454782E+03  0.64728514312E+04  0.65000000000E+04  0.15050000000E+03 0.  1.
</event>
<event>
 4    1  0.4826743E-004  0.6500000E+04  0.7818608E-02  0.7223770E-01
         52   -1    0    0    0    0  0.00000000000E+00  0.00000000000E+00  0.64930732323E+04  0.65000000000E+04  0.30000000000E+03 0. -1.
        -52   -1    0    0    0    0 -0.00000000000E+00 -0.00000000000E+00 -0.64930732323E+04  0.65000000000E+04  0.30000000000E+03 0.  1.
     100001    1    1    2    0    0  0.41503191993E+03  0.35813368390E+04 -0.54063966467E+04  0.65000000000E+04  0.15050000000E+03 0.  1.
     100001    1    1    2    0    0 -0.41503191993E+03 -0.35813368390E+04  0.54063966467E+04  0.65000000000E+04  0.15050000000E+03 0. -1.
</event>
<event>
 4    1  0.4826743E-004  0.6500000E+04  0.7818608E-02  0.7223770E-01
         52   -1    0    0    0    0  0.00000000000E+00  0.00000000000E+00  0.64930732323E+04  0.65000000000E+04  0.30000000000E+03 0.  1.
        -52   -1    0    0    0    0 -0.00000000000E+00 -0.00000000000E+00 -0.64930732323E+04  0.65000000000E+04  0.30000000000E+03 0. -1.
     100001    1    1    2    0    0 -0.82018951851E+03  0.33883451601E+04 -0.54839544108E+04  0.65000000000E+04  0.15050000000E+03 0. -1.
     100001    1    1    2    0    0  0.82018951851E+03 -0.33883451601E+04  0.54839544108E+04  0.65000000000E+04  0.15050000000E+03 0.  1.
</event>
<event>
 4    1  0.4826743E-004  0.6500000E+04  0.7818608E-02  0.7223770E-01
         52   -1    0    0    0    0  0.00000000000E+00  0.00000000000E+00  0.64930732323E+04  0.65000000000E+04  0.30000000000E+03 0. -1.
        -52   -1    0    0    0    0 -0.00000000000E+00 -0.00000000000E+00 -0.64930732323E+04  0.65000000000E+04  0.30000000000E+03 0.  1.
     100001    1    1    2    0    0  0.48737108911E+03 -0.14123763434E+04  0.63241609907E+04  0.65000000000E+04  0.15050000000E+03 0. -1.
     100001    1    1    2    0    0 -0.48737108911E+03  0.14123763434E+04 -0.63241609907E+04  0.65000000000E+04  0.15050000000E+03 0.  1.
</event>
<event>
 4    1  0.4826743E-004  0.6500000E+04  0.7818608E-02  0.7223770E-01
         52   -1    0    0    0    0  0.00000000000E+00  0.00000000000E+00  0.64930732323E+04  0.65000000000E+04  0.30000000000E+03 0. -1.
        -52   -1    0    0    0    0 -0.00000000000E+00 -0.00000000000E+00 -0.64930732323E+04  0.65000000000E+04  0.30000000000E+03 0.  1.
     100001    1    1    2    0    0 -0.18813674693E+03  0.37904191219E+03 -0.64844646304E+04  0.65000000000E+04  0.15050000000E+03 0.  1.
     100001    1    1    2    0    0  0.18813674693E+03 -0.37904191219E+03  0.64844646304E+04  0.65000000000E+04  0.15050000000E+03 0. -1.
</event>
<event>
 4    1  0.4826743E-004  0.6500000E+04  0.7818608E-02  0.7223770E-01
         52   -1    0    0    0    0  0.00000000000E+00  0.00000000000E+00  0.64930732323E+04  0.65000000000E+04  0.30000000000E+03 0. -1.
        -52   -1    0    0    0    0 -0.00000000000E+00 -0.00000000000E+00 -0.64930732323E+04  0.65000000000E+04  0.30000000000E+03 0. -1.
     100001    1    1    2    0    0 -0.21339272491E+03  0.52450994131E+02  0.64945409528E+04  0.65000000000E+04  0.15050000000E+03 0. -1.
     100001    1    1    2    0    0  0.21339272491E+03 -0.52450994131E+02 -0.64945409528E+04  0.65000000000E+04  0.15050000000E+03 0. -1.
</event>
<event>
 4    1  0.4826743E-004  0.6500000E+04  0.7818608E-02  0.7223770E-01
         52   -1    0    0    0    0  0.00000000000E+00  0.00000000000E+00  0.64930732323E+04  0.65000000000E+04  0.30000000000E+03 0.  1.
        -52   -1    0    0    0    0 -0.00000000000E+00 -0.00000000000E+00 -0.64930732323E+04  0.65000000000E+04  0.30000000000E+03 0. -1.
     100001    1    1    2    0    0  0.38616587140E+04 -0.50593946282E+04 -0.13105219276E+04  0.65000000000E+04  0.15050000000E+03 0. -1.
     100001    1    1    2    0    0 -0.38616587140E+04  0.50593946282E+04  0.13105219276E+04  0.65000000000E+04  0.15050000000E+03 0.  1.
</event>
<event>
 4    1  0.4826743E-004  0.6500000E+04  0.7818608E-02  0.7223770E-01
         52   -1    0    0    0    0  0.00000000000E+00  0.00000000000E+00  0.64930732323E+04  0.65000000000E+04  0.30000000000E+03 0. -1.
        -52   -1    0    0    0    0 -0.00000000000E+00 -0.00000000000E+00 -0.64930732323E+04  0.65000000000E+04  0.30000000000E+03 0. -1.
     100001    1    1    2    0    0  0.14868214408E+03  0.12571302876E+03 -0.64953398375E+04  0.65000000000E+04  0.15050000000E+03 0. -1.
     100001    1    1    2    0    0 -0.14868214408E+03 -0.12571302876E+03  0.64953398375E+04  0.65000000000E+04  0.15050000000E+03 0. -1.
</event>
<event>
 4    1  0.4826743E-004  0.6500000E+04  0.7818608E-02  0.7223770E-01
         52   -1    0    0    0    0  0.00000000000E+00  0.00000000000E+00  0.64930732323E+04  0.65000000000E+04  0.30000000000E+03 0. -1.
        -52   -1    0    0    0    0 -0.00000000000E+00 -0.00000000000E+00 -0.64930732323E+04  0.65000000000E+04  0.30000000000E+03 0.  1.
     100001    1    1    2    0    0 -0.61967781823E+03  0.31687898480E+03  0.64608774064E+04  0.65000000000E+04  0.15050000000E+03 0. -1.
     100001    1    1    2    0    0  0.61967781823E+03 -0.31687898480E+03 -0.64608774064E+04  0.65000000000E+04  0.15050000000E+03 0.  1.
</event>
<event>
 4    1  0.4826743E-004  0.6500000E+04  0.7818608E-02  0.7223770E-01
         52   -1    0    0    0    0  0.00000000000E+00  0.00000000000E+00  0.64930732323E+04  0.65000000000E+04  0.30000000000E+03 0.  1.
        -52   -1    0    0    0    0 -0.00000000000E+00 -0.00000000000E+00 -0.64930732323E+04  0.65000000000E+04  0.30000000000E+03 0. -1.
     100001    1    1    2    0    0  0.51069092704E+03  0.18931907555E+03  0.64753920974E+04  0.65000000000E+04  0.15050000000E+03 0.  1.
     100001    1    1    2    0    0 -0.51069092704E+03 -0.18931907555E+03 -0.64753920974E+04  0.65000000000E+04  0.15050000000E+03 0. -1.
</event>
<event>
 4    1  0.4826743E-004  0.6500000E+04  0.7818608E-02  0.7223770E-01
         52   -1    0    0    0    0  0.00000000000E+00  0.00000000000E+00  0.64930732323E+04  0.65000000000E+04  0.30000000000E+03 0. -1.
        -52   -1    0    0    0    0 -0.00000000000E+00 -0.00000000000E+00 -0.64930732323E+04  0.65000000000E+04  0.30000000000E+03 0. -1.
     100001    1    1    2    0    0 -0.84643838310E+02  0.61377298383E+02 -0.64974162555E+04  0.65000000000E+04  0.15050000000E+03 0. -1.
     100001    1    1    2    0    0  0.84643838310E+02 -0.61377298383E+02  0.64974162555E+04  0.65000000000E+04  0.15050000000E+03 0. -1.
</event>
<event>
 4    1  0.4826743E-004  0.6500000E+04  0.7818608E-02  0.7223770E-01
         52   -1    0    0    0    0  0.00000000000E+00  0.00000000000E+00  0.64930732323E+04  0.65000000000E+04  0.30000000000E+03 0.  1.
        -52   -1    0    0    0    0 -0.00000000000E+00 -0.00000000000E+00 -0.64930732323E+04  0.65000000000E+04  0.30000000000E+03 0. -1.
     100001    1    1    2    0    0  0.18435682405E+04  0.23773831120E+04 -0.57599180056E+04  0.65000000000E+04  0.15050000000E+03 0. -1.
     100001    1    1    2    0    0 -0.18435682405E+04 -0.23773831120E+04  0.57599180056E+04  0.65000000000E+04  0.15050000000E+03 0.  1.
</event>
<event>
 4    1  0.4826743E-004  0.6500000E+04  0.7818608E-02  0.7223770E-01
         52   -1    0    0    0    0  0.00000000000E+00  0.00000000000E+00  0.64930732323E+04  0.65000000000E+04  0.30000000000E+03 0. -1.
        -52   -1    0    0    0    0 -0.00000000000E+00 -0.00000000000E+00 -0.64930732323E+04  0.65000000000E+04  0.30000000000E+03 0.  1.
     100001    1    1    2    0    0 -0.31626218027E+03  0.46334347432E+03 -0.64739972821E+04  0.65000000000E+04  0.15050000000E+03 0.  1.
     100001    1    1    2    0    0  0.31626218027E+03 -0.46334347432E+03  0.64739972821E+04  0.65000000000E+04  0.15050000000E+03 0. -1.
</event>
<event>
 4    1  0.4826743E-004  0.6500000E+04  0.7818608E-02  0.7223770E-01
         52   -1    0    0    0    0  0.00000000000E+00  0.00000000000E+00  0.64930732323E+04  0.65000000000E+04  0.30000000000E+03 0.  1.
        -52   -1    0    0    0    0 -0.00000000000E+00 -0.00000000000E+00 -0.64930732323E+04  0.65000000000E+04  0.30000000000E+03 0. -1.
     100001    1    1    2    0    0 -0.42410936423E+03 -0.49830234841E+03  0.64652282069E+04  0.65000000000E+04  0.15050000000E+03 0.  1.
     100001    1    1    2    0    0  0.42410936423E+03  0.49830234841E+03 -0.64652282069E+04  0.65000000000E+04  0.15050000000E+03 0. -1.
</event>
<event>
 4    1  0.4826743E-004  0.6500000E+04  0.7818608E-02  0.7223770E-01
         52   -1    0    0    0    0  0.00000000000E+00  0.00000000000E+00  0.64930732323E+04  0.65000000000E+04  0.30000000000E+03 0. -1.
        -52   -1    0    0    0    0 -0.00000000000E+00 -0.00000000000E+00 -0.64930732323E+04  0.65000000000E+04  0.30000000000E+03 0.  1.
     100001    1    1    2    0    0  0.51677495308E+04  0.12072314082E+04  0.37502409075E+04  0.65000000000E+04  0.15050000000E+03 0. -1.
     100001    1    1    2    0    0 -0.51677495308E+04 -0.12072314082E+04 -0.37502409075E+04  0.65000000000E+04  0.15050000000E+03 0.  1.
</event>
<event>
 4    1  0.4826743E-004  0.6500000E+04  0.7818608E-02  0.7223770E-01
         52   -1    0    0    0    0  0.00000000000E+00  0.00000000000E+00  0.64930732323E+04  0.65000000000E+04  0.30000000000E+03 0. -1.
        -52   -1    0    0    0    0 -0.00000000000E+00 -0.00000000000E+00 -0.64930732323E+04  0.65000000000E+04  0.30000000000E+03 0.  1.
     100001    1    1    2    0    0  0.37609603170E+03 -0.37881476541E+03  0.64762953066E+04  0.65000000000E+04  0.15050000000E+03 0. -1.
     100001    1    1    2    0    0 -0.37609603170E+03  0.37881476541E+03 -0.64762953066E+04  0.65000000000E+04  0.15050000000E+03 0.  1.
</event>
<event>
 4    1  0.4826743E-004  0.6500000E+04  0.7818608E-02  0.7223770E-01
         52   -1    0    0    0    0  0.00000000000E+00  0.00000000000E+00  0.64930732323E+04  0.65000000000E+04  0.30000000000E+03 0. -1.
        -52   -1    0    0    0    0 -0.00000000000E+00 -0.00000000000E+00 -0.64930732323E+04  0.65000000000E+04  0.30000000000E+03 0.  1.
     100001    1    1    2    0    0 -0.63989196111E+03  0.16330723442E+02  0.64666545706E+04  0.65000000000E+04  0.15050000000E+03 0. -1.
     100001    1    1    2    0    0  0.63989196111E+03 -0.16330723442E+02 -0.64666545706E+04  0.65000000000E+04  0.15050000000E+03 0.  1.
</event>
<event>
 4    1  0.4826743E-004  0.6500000E+04  0.7818608E-02  0.7223770E-01
         52   -1    0    0    0    0  0.00000000000E+00  0.00000000000E+00  0.64930732323E+04  0.65000000000E+04  0.30000000000E+03 0.  1.
        -52   -1    0    0    0    0 -0.00000000000E+00 -0.00000000000E+00 -0.64930732323E+04  0.65000000000E+04  0.30000000000E+03 0. -1.
     100001    1    1    2    0    0 -0.48920328272E+03  0.95128575485E+03 -0.64096088267E+04  0.65000000000E+04  0.15050000000E+03 0. -1.
     100001    1    1    2    0    0  0.48920328272E+03 -0.95128575485E+03  0.64096088267E+04  0.65000000000E+04  0.15050000000E+03 0.  1.
</event>
<event>
 4    1  0.4826743E-004  0.6500000E+04  0.7818608E-02  0.7223770E-01
         52   -1    0    0    0    0  0.00000000000E+00  0.00000000000E+00  0.64930732323E+04  0.65000000000E+04  0.30000000000E+03 0. -1.
        -52   -1    0    0    0    0 -0.00000000000E+00 -0.00000000000E+00 -0.64930732323E+04  0.65000000000E+04  0.30000000000E+03 0.  1.
     100001    1    1    2    0    0  0.11854789351E+04 -0.68475066910E+03  0.63524094614E+04  0.65000000000E+04  0.15050000000E+03 0. -1.
     100001    1    1    2    0    0 -0.11854789351E+04  0.68475066910E+03 -0.63524094614E+04  0.65000000000E+04  0.15050000000E+03 0.  1.
</event>
<event>
 4    1  0.4826743E-004  0.6500000E+04  0.7818608E-02  0.7223770E-01
         52   -1    0    0    0    0  0.00000000000E+00  0.00000000000E+00  0.64930732323E+04  0.65000000000E+04  0.30000000000E+03 0.  1.
        -52   -1    0    0    0    0 -0.00000000000E+00 -0.00000000000E+00 -0.64930732323E+04  0.65000000000E+04  0.30000000000E+03 0.  1.
     100001    1    1    2    0    0  0.23548344739E+03  0.25702434518E+03  0.64889009687E+04  0.65000000000E+04  0.15050000000E+03 0.  1.
     100001    1    1    2    0    0 -0.23548344739E+03 -0.25702434518E+03 -0.64889009687E+04  0.65000000000E+04  0.15050000000E+03 0.  1.
</event>
<event>
 4    1  0.4826743E-004  0.6500000E+04  0.7818608E-02  0.7223770E-01
         52   -1    0    0    0    0  0.00000000000E+00  0.00000000000E+00  0.64930732323E+04  0.65000000000E+04  0.30000000000E+03 0.  1.
        -52   -1    0    0    0    0 -0.00000000000E+00 -0.00000000000E+00 -0.64930732323E+04  0.65000000000E+04  0.30000000000E+03 0. -1.
     100001    1    1    2    0    0  0.36885636408E+04 -0.34747234155E+04  0.40679411505E+04  0.65000000000E+04  0.15050000000E+03 0. -1.
     100001    1    1    2    0    0 -0.36885636408E+04  0.34747234155E+04 -0.40679411505E+04  0.65000000000E+04  0.15050000000E+03 0.  1.
</event>
<event>
 4    1  0.4826743E-004  0.6500000E+04  0.7818608E-02  0.7223770E-01
         52   -1    0    0    0    0  0.00000000000E+00  0.00000000000E+00  0.64930732323E+04  0.65000000000E+04  0.30000000000E+03 0. -1.
        -52   -1    0    0    0    0 -0.00000000000E+00 -0.00000000000E+00 -0.64930732323E+04  0.65000000000E+04  0.30000000000E+03 0. -1.
     100001    1    1    2    0    0 -0.98304272859E+02  0.15021796091E+02 -0.64974964691E+04  0.65000000000E+04  0.15050000000E+03 0. -1.
     100001    1    1    2    0    0  0.98304272859E+02 -0.15021796091E+02  0.64974964691E+04  0.65000000000E+04  0.15050000000E+03 0. -1.
</event>
<event>
 4    1  0.4826743E-004  0.6500000E+04  0.7818608E-02  0.7223770E-01
         52   -1    0    0    0    0  0.00000000000E+00  0.00000000000E+00  0.64930732323E+04  0.65000000000E+04  0.30000000000E+03 0. -1.
        -52   -1    0    0    0    0 -0.00000000000E+00 -0.00000000000E+00 -0.64930732323E+04  0.65000000000E+04  0.30000000000E+03 0.  1.
     100001    1    1    2    0    0 -0.64075323261E+04  0.37059373515E+03 -0.10166314593E+04  0.65000000000E+04  0.15050000000E+03 0.  1.
     100001    1    1    2    0    0  0.64075323261E+04 -0.37059373515E+03  0.10166314593E+04  0.65000000000E+04  0.15050000000E+03 0. -1.
</event>
<event>
 4    1  0.5757953E-004  0.6500000E+04  0.7818608E-02  0.7223770E-01
         52   -1    0    0    0    0  0.00000000000E+00  0.00000000000E+00  0.64930732323E+04  0.65000000000E+04  0.30000000000E+03 0. -1.
        -52   -1    0    0    0    0 -0.00000000000E+00 -0.00000000000E+00 -0.64930732323E+04  0.65000000000E+04  0.30000000000E+03 0. -1.
     100001    1    1    2    0    0  0.34540522363E+02  0.17319688359E+03 -0.64958571060E+04  0.65000000000E+04  0.15050000000E+03 0. -1.
     100001    1    1    2    0    0 -0.34540522363E+02 -0.17319688359E+03  0.64958571060E+04  0.65000000000E+04  0.15050000000E+03 0. -1.
</event>
<event>
 4    1  0.4826743E-004  0.6500000E+04  0.7818608E-02  0.7223770E-01
         52   -1    0    0    0    0  0.00000000000E+00  0.00000000000E+00  0.64930732323E+04  0.65000000000E+04  0.30000000000E+03 0.  1.
        -52   -1    0    0    0    0 -0.00000000000E+00 -0.00000000000E+00 -0.64930732323E+04  0.65000000000E+04  0.30000000000E+03 0. -1.
     100001    1    1    2    0    0  0.12021927086E+04  0.61776197555E+03 -0.63561350350E+04  0.65000000000E+04  0.15050000000E+03 0. -1.
     100001    1    1    2    0    0 -0.12021927086E+04 -0.61776197555E+03  0.63561350350E+04  0.65000000000E+04  0.15050000000E+03 0.  1.
</event>
<event>
 4    1  0.4826743E-004  0.6500000E+04  0.7818608E-02  0.7223770E-01
         52   -1    0    0    0    0  0.00000000000E+00  0.00000000000E+00  0.64930732323E+04  0.65000000000E+04  0.30000000000E+03 0. -1.
        -52   -1    0    0    0    0 -0.00000000000E+00 -0.00000000000E+00 -0.64930732323E+04  0.65000000000E+04  0.30000000000E+03 0.  1.
     100001    1    1    2    0    0 -0.17128816797E+04 -0.15659600909E+03 -0.62664873567E+04  0.65000000000E+04  0.15050000000E+03 0.  1.
     100001    1    1    2    0    0  0.17128816797E+04  0.15659600909E+03  0.62664873567E+04  0.65000000000E+04  0.15050000000E+03 0. -1.
</event>
<event>
 4    1  0.7112957E-004  0.6500000E+04  0.7818608E-02  0.7223770E-01
         52   -1    0    0    0    0  0.00000000000E+00  0.00000000000E+00  0.64930732323E+04  0.65000000000E+04  0.30000000000E+03 0.  1.
        -52   -1    0    0    0    0 -0.00000000000E+00 -0.00000000000E+00 -0.64930732323E+04  0.65000000000E+04  0.30000000000E+03 0.  1.
     100001    1    1    2    0    0 -0.63551129023E+02 -0.79528197811E+02  0.64974599860E+04  0.65000000000E+04  0.15050000000E+03 0.  1.
     100001    1    1    2    0    0  0.63551129023E+02  0.79528197811E+02 -0.64974599860E+04  0.65000000000E+04  0.15050000000E+03 0.  1.
</event>
<event>
 4    1  0.4826743E-004  0.6500000E+04  0.7818608E-02  0.7223770E-01
         52   -1    0    0    0    0  0.00000000000E+00  0.00000000000E+00  0.64930732323E+04  0.65000000000E+04  0.30000000000E+03 0.  1.
        -52   -1    0    0    0    0 -0.00000000000E+00 -0.00000000000E+00 -0.64930732323E+04  0.65000000000E+04  0.30000000000E+03 0. -1.
     100001    1    1    2    0    0 -0.28714903884E+03 -0.30213965114E+04 -0.57459601722E+04  0.65000000000E+04  0.15050000000E+03 0. -1.
     100001    1    1    2    0    0  0.28714903884E+03  0.30213965114E+04  0.57459601722E+04  0.65000000000E+04  0.15050000000E+03 0.  1.
</event>
<event>
 4    1  0.4826743E-004  0.6500000E+04  0.7818608E-02  0.7223770E-01
         52   -1    0    0    0    0  0.00000000000E+00  0.00000000000E+00  0.64930732323E+04  0.65000000000E+04  0.30000000000E+03 0.  1.
        -52   -1    0    0    0    0 -0.00000000000E+00 -0.00000000000E+00 -0.64930732323E+04  0.65000000000E+04  0.30000000000E+03 0. -1.
     100001    1    1    2    0    0 -0.16316314734E+03  0.32312636020E+03 -0.64881674526E+04  0.65000000000E+04  0.15050000000E+03 0. -1.
     100001    1    1    2    0    0  0.16316314734E+03 -0.32312636020E+03  0.64881674526E+04  0.65000000000E+04  0.15050000000E+03 0.  1.
</event>
<event>
 4    1  0.4826743E-004  0.6500000E+04  0.7818608E-02  0.7223770E-01
         52   -1    0    0    0    0  0.00000000000E+00  0.00000000000E+00  0.64930732323E+04  0.65000000000E+04  0.30000000000E+03 0.  1.
        -52   -1    0    0    0    0 -0.00000000000E+00 -0.00000000000E+00 -0.64930732323E+04  0.65000000000E+04  0.30000000000E+03 0. -1.
     100001    1    1    2    0    0 -0.15342579866E+04  0.14392891735E+04  0.61483208159E+04  0.65000000000E+04  0.15050000000E+03 0.  1.
     100001    1    1    2    0    0  0.15342579866E+04 -0.14392891735E+04 -0.61483208159E+04  0.65000000000E+04  0.15050000000E+03 0. -1.
</event>
<event>
 4    1  0.4826743E-004  0.6500000E+04  0.7818608E-02  0.7223770E-01
         52   -1    0    0    0    0  0.00000000000E+00  0.00000000000E+00  0.64930732323E+04  0.65000000000E+04  0.30000000000E+03 0. -1.
        -52   -1    0    0    0    0 -0.00000000000E+00 -0.00000000000E+00 -0.64930732323E+04  0.65000000000E+04  0.30000000000E+03 0.  1.
     100001    1    1    2    0    0 -0.25120442287E+03  0.24092354111E+03  0.64889291825E+04  0.65000000000E+04  0.15050000000E+03 0. -1.
     100001    1    1    2    0    0  0.25120442287E+03 -0.24092354111E+03 -0.64889291825E+04  0.65000000000E+04  0.15050000000E+03 0.  1.
</event>
<event>
 4    1  0.4826743E-004  0.6500000E+04  0.7818608E-02  0.7223770E-01
         52   -1    0    0    0    0  0.00000000000E+00  0.00000000000E+00  0.64930732323E+04  0.65000000000E+04  0.30000000000E+03 0. -1.
        -52   -1    0    0    0    0 -0.00000000000E+00 -0.00000000000E+00 -0.64930732323E+04  0.65000000000E+04  0.30000000000E+03 0. -1.
     100001    1    1    2    0    0  0.16108388796E+03 -0.22874769902E+03 -0.64922319907E+04  0.65000000000E+04  0.15050000000E+03 0. -1.
     100001    1    1    2    0    0 -0.16108388796E+03  0.22874769902E+03  0.64922319907E+04  0.65000000000E+04  0.15050000000E+03 0. -1.
</event>
<event>
 4    1  0.4826743E-004  0.6500000E+04  0.7818608E-02  0.7223770E-01
         52   -1    0    0    0    0  0.00000000000E+00  0.00000000000E+00  0.64930732323E+04  0.65000000000E+04  0.30000000000E+03 0.  1.
        -52   -1    0    0    0    0 -0.00000000000E+00 -0.00000000000E+00 -0.64930732323E+04  0.65000000000E+04  0.30000000000E+03 0. -1.
     100001    1    1    2    0    0  0.43416181773E+04  0.46178468262E+03  0.48129467335E+04  0.65000000000E+04  0.15050000000E+03 0.  1.
     100001    1    1    2    0    0 -0.43416181773E+04 -0.46178468262E+03 -0.48129467335E+04  0.65000000000E+04  0.15050000000E+03 0. -1.
</event>
<event>
 4    1  0.4826743E-004  0.6500000E+04  0.7818608E-02  0.7223770E-01
         52   -1    0    0    0    0  0.00000000000E+00  0.00000000000E+00  0.64930732323E+04  0.65000000000E+04  0.30000000000E+03 0.  1.
        -52   -1    0    0    0    0 -0.00000000000E+00 -0.00000000000E+00 -0.64930732323E+04  0.65000000000E+04  0.30000000000E+03 0. -1.
     100001    1    1    2    0    0 -0.40005110591E+04  0.13453094806E+04 -0.49409921491E+04  0.65000000000E+04  0.15050000000E+03 0. -1.
     100001    1    1    2    0    0  0.40005110591E+04 -0.13453094806E+04  0.49409921491E+04  0.65000000000E+04  0.15050000000E+03 0.  1.
</event>
<event>
 4    1  0.4826743E-004  0.6500000E+04  0.7818608E-02  0.7223770E-01
         52   -1    0    0    0    0  0.00000000000E+00  0.00000000000E+00  0.64930732323E+04  0.65000000000E+04  0.30000000000E+03 0. -1.
        -52   -1    0    0    0    0 -0.00000000000E+00 -0.00000000000E+00 -0.64930732323E+04  0.65000000000E+04  0.30000000000E+03 0.  1.
     100001    1    1    2    0    0 -0.25864520946E+04 -0.49165439715E+04  0.33712328144E+04  0.65000000000E+04  0.15050000000E+03 0.  1.
     100001    1    1    2    0    0  0.25864520946E+04  0.49165439715E+04 -0.33712328144E+04  0.65000000000E+04  0.15050000000E+03 0. -1.
</event>
<event>
 4    1  0.4826743E-004  0.6500000E+04  0.7818608E-02  0.7223770E-01
         52   -1    0    0    0    0  0.00000000000E+00  0.00000000000E+00  0.64930732323E+04  0.65000000000E+04  0.30000000000E+03 0. -1.
        -52   -1    0    0    0    0 -0.00000000000E+00 -0.00000000000E+00 -0.64930732323E+04  0.65000000000E+04  0.30000000000E+03 0.  1.
     100001    1    1    2    0    0  0.21260183064E+04  0.68116149229E+03  0.61027383143E+04  0.65000000000E+04  0.15050000000E+03 0. -1.
     100001    1    1    2    0    0 -0.21260183064E+04 -0.68116149229E+03 -0.61027383143E+04  0.65000000000E+04  0.15050000000E+03 0.  1.
</event>
<event>
 4    1  0.4826743E-004  0.6500000E+04  0.7818608E-02  0.7223770E-01
         52   -1    0    0    0    0  0.00000000000E+00  0.00000000000E+00  0.64930732323E+04  0.65000000000E+04  0.30000000000E+03 0.  1.
        -52   -1    0    0    0    0 -0.00000000000E+00 -0.00000000000E+00 -0.64930732323E+04  0.65000000000E+04  0.30000000000E+03 0. -1.
     100001    1    1    2    0    0 -0.14401813585E+04  0.63142642325E+04 -0.53225426908E+03  0.65000000000E+04  0.15050000000E+03 0. -1.
     100001    1    1    2    0    0  0.14401813585E+04 -0.63142642325E+04  0.53225426908E+03  0.65000000000E+04  0.15050000000E+03 0.  1.
</event>
<event>
 4    1  0.4826743E-004  0.6500000E+04  0.7818608E-02  0.7223770E-01
         52   -1    0    0    0    0  0.00000000000E+00  0.00000000000E+00  0.64930732323E+04  0.65000000000E+04  0.30000000000E+03 0.  1.
        -52   -1    0    0    0    0 -0.00000000000E+00 -0.00000000000E+00 -0.64930732323E+04  0.65000000000E+04  0.30000000000E+03 0.  1.
     100001    1    1    2    0    0 -0.16058001625E+02  0.16499482761E+02  0.64982166521E+04  0.65000000000E+04  0.15050000000E+03 0.  1.
     100001    1    1    2    0    0  0.16058001625E+02 -0.16499482761E+02 -0.64982166521E+04  0.65000000000E+04  0.15050000000E+03 0.  1.
</event>
<event>
 4    1  0.4826743E-004  0.6500000E+04  0.7818608E-02  0.7223770E-01
         52   -1    0    0    0    0  0.00000000000E+00  0.00000000000E+00  0.64930732323E+04  0.65000000000E+04  0.30000000000E+03 0.  1.
        -52   -1    0    0    0    0 -0.00000000000E+00 -0.00000000000E+00 -0.64930732323E+04  0.65000000000E+04  0.30000000000E+03 0. -1.
     100001    1    1    2    0    0  0.16478018383E+02  0.30726695437E+03 -0.64909679743E+04  0.65000000000E+04  0.15050000000E+03 0. -1.
     100001    1    1    2    0    0 -0.16478018383E+02 -0.30726695437E+03  0.64909679743E+04  0.65000000000E+04  0.15050000000E+03 0.  1.
</event>
<event>
 4    1  0.4826743E-004  0.6500000E+04  0.7818608E-02  0.7223770E-01
         52   -1    0    0    0    0  0.00000000000E+00  0.00000000000E+00  0.64930732323E+04  0.65000000000E+04  0.30000000000E+03 0.  1.
        -52   -1    0    0    0    0 -0.00000000000E+00 -0.00000000000E+00 -0.64930732323E+04  0.65000000000E+04  0.30000000000E+03 0. -1.
     100001    1    1    2    0    0 -0.34632611996E+04 -0.43690080092E+04 -0.33384039044E+04  0.65000000000E+04  0.15050000000E+03 0. -1.
     100001    1    1    2    0    0  0.34632611996E+04  0.43690080092E+04  0.33384039044E+04  0.65000000000E+04  0.15050000000E+03 0.  1.
</event>
<event>
 4    1  0.4826743E-004  0.6500000E+04  0.7818608E-02  0.7223770E-01
         52   -1    0    0    0    0  0.00000000000E+00  0.00000000000E+00  0.64930732323E+04  0.65000000000E+04  0.30000000000E+03 0. -1.
        -52   -1    0    0    0    0 -0.00000000000E+00 -0.00000000000E+00 -0.64930732323E+04  0.65000000000E+04  0.30000000000E+03 0.  1.
     100001    1    1    2    0    0 -0.52940560784E+04 -0.24199716453E+04 -0.28886081813E+04  0.65000000000E+04  0.15050000000E+03 0. -1.
     100001    1    1    2    0    0  0.52940560784E+04  0.24199716453E+04  0.28886081813E+04  0.65000000000E+04  0.15050000000E+03 0.  1.
</event>
<event>
 4    1  0.4826743E-004  0.6500000E+04  0.7818608E-02  0.7223770E-01
         52   -1    0    0    0    0  0.00000000000E+00  0.00000000000E+00  0.64930732323E+04  0.65000000000E+04  0.30000000000E+03 0. -1.
        -52   -1    0    0    0    0 -0.00000000000E+00 -0.00000000000E+00 -0.64930732323E+04  0.65000000000E+04  0.30000000000E+03 0.  1.
     100001    1    1    2    0    0 -0.32084554940E+04 -0.55239540717E+04 -0.11912575316E+04  0.65000000000E+04  0.15050000000E+03 0.  1.
     100001    1    1    2    0    0  0.32084554940E+04  0.55239540717E+04  0.11912575316E+04  0.65000000000E+04  0.15050000000E+03 0. -1.
</event>
<event>
 4    1  0.4826743E-004  0.6500000E+04  0.7818608E-02  0.7223770E-01
         52   -1    0    0    0    0  0.00000000000E+00  0.00000000000E+00  0.64930732323E+04  0.65000000000E+04  0.30000000000E+03 0. -1.
        -52   -1    0    0    0    0 -0.00000000000E+00 -0.00000000000E+00 -0.64930732323E+04  0.65000000000E+04  0.30000000000E+03 0.  1.
     100001    1    1    2    0    0  0.34212553572E+02 -0.78121358067E+03 -0.64510374819E+04  0.65000000000E+04  0.15050000000E+03 0.  1.
     100001    1    1    2    0    0 -0.34212553572E+02  0.78121358067E+03  0.64510374819E+04  0.65000000000E+04  0.15050000000E+03 0. -1.
</event>
<event>
 4    1  0.4826743E-004  0.6500000E+04  0.7818608E-02  0.7223770E-01
         52   -1    0    0    0    0  0.00000000000E+00  0.00000000000E+00  0.64930732323E+04  0.65000000000E+04  0.30000000000E+03 0. -1.
        -52   -1    0    0    0    0 -0.00000000000E+00 -0.00000000000E+00 -0.64930732323E+04  0.65000000000E+04  0.30000000000E+03 0.  1.
     100001    1    1    2    0    0  0.26105266335E+03  0.84560904710E+02 -0.64924610673E+04  0.65000000000E+04  0.15050000000E+03 0.  1.
     100001    1    1    2    0    0 -0.26105266335E+03 -0.84560904710E+02  0.64924610673E+04  0.65000000000E+04  0.15050000000E+03 0. -1.
</event>
<event>
 4    1  0.4826743E-004  0.6500000E+04  0.7818608E-02  0.7223770E-01
         52   -1    0    0    0    0  0.00000000000E+00  0.00000000000E+00  0.64930732323E+04  0.65000000000E+04  0.30000000000E+03 0. -1.
        -52   -1    0    0    0    0 -0.00000000000E+00 -0.00000000000E+00 -0.64930732323E+04  0.65000000000E+04  0.30000000000E+03 0.  1.
     100001    1    1    2    0    0  0.91798127641E+03  0.17038844516E+02  0.64330684594E+04  0.65000000000E+04  0.15050000000E+03 0. -1.
     100001    1    1    2    0    0 -0.91798127641E+03 -0.17038844516E+02 -0.64330684594E+04  0.65000000000E+04  0.15050000000E+03 0.  1.
</event>
<event>
 4    1  0.4826743E-004  0.6500000E+04  0.7818608E-02  0.7223770E-01
         52   -1    0    0    0    0  0.00000000000E+00  0.00000000000E+00  0.64930732323E+04  0.65000000000E+04  0.30000000000E+03 0. -1.
        -52   -1    0    0    0    0 -0.00000000000E+00 -0.00000000000E+00 -0.64930732323E+04  0.65000000000E+04  0.30000000000E+03 0.  1.
     100001    1    1    2    0    0  0.19412967601E+03  0.19546078030E+04  0.61942854112E+04  0.65000000000E+04  0.15050000000E+03 0. -1.
     100001    1    1    2    0    0 -0.19412967601E+03 -0.19546078030E+04 -0.61942854112E+04  0.65000000000E+04  0.15050000000E+03 0.  1.
</event>
<event>
 4    1  0.4826743E-004  0.6500000E+04  0.7818608E-02  0.7223770E-01
         52   -1    0    0    0    0  0.00000000000E+00  0.00000000000E+00  0.64930732323E+04  0.65000000000E+04  0.30000000000E+03 0. -1.
        -52   -1    0    0    0    0 -0.00000000000E+00 -0.00000000000E+00 -0.64930732323E+04  0.65000000000E+04  0.30000000000E+03 0.  1.
     100001    1    1    2    0    0 -0.30031832667E+04  0.14298924575E+04 -0.55824410052E+04  0.65000000000E+04  0.15050000000E+03 0.  1.
     100001    1    1    2    0    0  0.30031832667E+04 -0.14298924575E+04  0.55824410052E+04  0.65000000000E+04  0.15050000000E+03 0. -1.
</event>
<event>
 4    1  0.4826743E-004  0.6500000E+04  0.7818608E-02  0.7223770E-01
         52   -1    0    0    0    0  0.00000000000E+00  0.00000000000E+00  0.64930732323E+04  0.65000000000E+04  0.30000000000E+03 0. -1.
        -52   -1    0    0    0    0 -0.00000000000E+00 -0.00000000000E+00 -0.64930732323E+04  0.65000000000E+04  0.30000000000E+03 0.  1.
     100001    1    1    2    0    0  0.12374268613E+04  0.47989171115E+04  0.42031558465E+04  0.65000000000E+04  0.15050000000E+03 0. -1.
     100001    1    1    2    0    0 -0.12374268613E+04 -0.47989171115E+04 -0.42031558465E+04  0.65000000000E+04  0.15050000000E+03 0.  1.
</event>
<event>
 4    1  0.4826743E-004  0.6500000E+04  0.7818608E-02  0.7223770E-01
         52   -1    0    0    0    0  0.00000000000E+00  0.00000000000E+00  0.64930732323E+04  0.65000000000E+04  0.30000000000E+03 0. -1.
        -52   -1    0    0    0    0 -0.00000000000E+00 -0.00000000000E+00 -0.64930732323E+04  0.65000000000E+04  0.30000000000E+03 0. -1.
     100001    1    1    2    0    0 -0.11241732261E+04 -0.97985106996E+03 -0.63248301312E+04  0.65000000000E+04  0.15050000000E+03 0. -1.
     100001    1    1    2    0    0  0.11241732261E+04  0.97985106996E+03  0.63248301312E+04  0.65000000000E+04  0.15050000000E+03 0. -1.
</event>
<event>
 4    1  0.4826743E-004  0.6500000E+04  0.7818608E-02  0.7223770E-01
         52   -1    0    0    0    0  0.00000000000E+00  0.00000000000E+00  0.64930732323E+04  0.65000000000E+04  0.30000000000E+03 0. -1.
        -52   -1    0    0    0    0 -0.00000000000E+00 -0.00000000000E+00 -0.64930732323E+04  0.65000000000E+04  0.30000000000E+03 0.  1.
     100001    1    1    2    0    0  0.58732191790E+04  0.20861119592E+04 -0.18386905991E+04  0.65000000000E+04  0.15050000000E+03 0. -1.
     100001    1    1    2    0    0 -0.58732191790E+04 -0.20861119592E+04  0.18386905991E+04  0.65000000000E+04  0.15050000000E+03 0.  1.
</event>
<event>
 4    1  0.4826743E-004  0.6500000E+04  0.7818608E-02  0.7223770E-01
         52   -1    0    0    0    0  0.00000000000E+00  0.00000000000E+00  0.64930732323E+04  0.65000000000E+04  0.30000000000E+03 0. -1.
        -52   -1    0    0    0    0 -0.00000000000E+00 -0.00000000000E+00 -0.64930732323E+04  0.65000000000E+04  0.30000000000E+03 0. -1.
     100001    1    1    2    0    0  0.23768232891E+03  0.49516389891E+02  0.64937204273E+04  0.65000000000E+04  0.15050000000E+03 0. -1.
     100001    1    1    2    0    0 -0.23768232891E+03 -0.49516389891E+02 -0.64937204273E+04  0.65000000000E+04  0.15050000000E+03 0. -1.
</event>
<event>
 4    1  0.4826743E-004  0.6500000E+04  0.7818608E-02  0.7223770E-01
         52   -1    0    0    0    0  0.00000000000E+00  0.00000000000E+00  0.64930732323E+04  0.65000000000E+04  0.30000000000E+03 0. -1.
        -52   -1    0    0    0    0 -0.00000000000E+00 -0.00000000000E+00 -0.64930732323E+04  0.65000000000E+04  0.30000000000E+03 0.  1.
     100001    1    1    2    0    0 -0.52475925719E+03  0.10504120387E+03 -0.64761828122E+04  0.65000000000E+04  0.15050000000E+03 0.  1.
     100001    1    1    2    0    0  0.52475925719E+03 -0.10504120387E+03  0.64761828122E+04  0.65000000000E+04  0.15050000000E+03 0. -1.
</event>
<event>
 4    1  0.4826743E-004  0.6500000E+04  0.7818608E-02  0.7223770E-01
         52   -1    0    0    0    0  0.00000000000E+00  0.00000000000E+00  0.64930732323E+04  0.65000000000E+04  0.30000000000E+03 0. -1.
        -52   -1    0    0    0    0 -0.00000000000E+00 -0.00000000000E+00 -0.64930732323E+04  0.65000000000E+04  0.30000000000E+03 0.  1.
     100001    1    1    2    0    0  0.10866470411E+04 -0.82763079067E+03 -0.63530760449E+04  0.65000000000E+04  0.15050000000E+03 0.  1.
     100001    1    1    2    0    0 -0.10866470411E+04  0.82763079067E+03  0.63530760449E+04  0.65000000000E+04  0.15050000000E+03 0. -1.
</event>
<event>
 4    1  0.4826743E-004  0.6500000E+04  0.7818608E-02  0.7223770E-01
         52   -1    0    0    0    0  0.00000000000E+00  0.00000000000E+00  0.64930732323E+04  0.65000000000E+04  0.30000000000E+03 0.  1.
        -52   -1    0    0    0    0 -0.00000000000E+00 -0.00000000000E+00 -0.64930732323E+04  0.65000000000E+04  0.30000000000E+03 0. -1.
     100001    1    1    2    0    0 -0.62199698916E+03  0.31639289548E+03 -0.64606783724E+04  0.65000000000E+04  0.15050000000E+03 0. -1.
     100001    1    1    2    0    0  0.62199698916E+03 -0.31639289548E+03  0.64606783724E+04  0.65000000000E+04  0.15050000000E+03 0.  1.
</event>
<event>
 4    1  0.4826743E-004  0.6500000E+04  0.7818608E-02  0.7223770E-01
         52   -1    0    0    0    0  0.00000000000E+00  0.00000000000E+00  0.64930732323E+04  0.65000000000E+04  0.30000000000E+03 0. -1.
        -52   -1    0    0    0    0 -0.00000000000E+00 -0.00000000000E+00 -0.64930732323E+04  0.65000000000E+04  0.30000000000E+03 0. -1.
     100001    1    1    2    0    0 -0.47201439417E+02  0.30429578991E+03 -0.64909572365E+04  0.65000000000E+04  0.15050000000E+03 0. -1.
     100001    1    1    2    0    0  0.47201439417E+02 -0.30429578991E+03  0.64909572365E+04  0.65000000000E+04  0.15050000000E+03 0. -1.
</event>
<event>
 4    1  0.4826743E-004  0.6500000E+04  0.7818608E-02  0.7223770E-01
         52   -1    0    0    0    0  0.00000000000E+00  0.00000000000E+00  0.64930732323E+04  0.65000000000E+04  0.30000000000E+03 0. -1.
        -52   -1    0    0    0    0 -0.00000000000E+00 -0.00000000000E+00 -0.64930732323E+04  0.65000000000E+04  0.30000000000E+03 0. -1.
     100001    1    1    2    0    0 -0.35547421168E+03  0.77056764196E+02 -0.64880698278E+04  0.65000000000E+04  0.15050000000E+03 0. -1.
     100001    1    1    2    0    0  0.35547421168E+03 -0.77056764196E+02  0.64880698278E+04  0.65000000000E+04  0.15050000000E+03 0. -1.
</event>
<event>
 4    1  0.4826743E-004  0.6500000E+04  0.7818608E-02  0.7223770E-01
         52   -1    0    0    0    0  0.00000000000E+00  0.00000000000E+00  0.64930732323E+04  0.65000000000E+04  0.30000000000E+03 0.  1.
        -52   -1    0    0    0    0 -0.00000000000E+00 -0.00000000000E+00 -0.64930732323E+04  0.65000000000E+04  0.30000000000E+03 0. -1.
     100001    1    1    2    0    0 -0.11449259373E+04  0.84232232112E+03 -0.63408980007E+04  0.65000000000E+04  0.15050000000E+03 0. -1.
     100001    1    1    2    0    0  0.11449259373E+04 -0.84232232112E+03  0.63408980007E+04  0.65000000000E+04  0.15050000000E+03 0.  1.
</event>
<event>
 4    1  0.4826743E-004  0.6500000E+04  0.7818608E-02  0.7223770E-01
         52   -1    0    0    0    0  0.00000000000E+00  0.00000000000E+00  0.64930732323E+04  0.65000000000E+04  0.30000000000E+03 0. -1.
        -52   -1    0    0    0    0 -0.00000000000E+00 -0.00000000000E+00 -0.64930732323E+04  0.65000000000E+04  0.30000000000E+03 0.  1.
     100001    1    1    2    0    0  0.31033746779E+04 -0.11862720683E+04  0.55847268455E+04  0.65000000000E+04  0.15050000000E+03 0. -1.
     100001    1    1    2    0    0 -0.31033746779E+04  0.11862720683E+04 -0.55847268455E+04  0.65000000000E+04  0.15050000000E+03 0.  1.
</event>
<event>
 4    1  0.4826743E-004  0.6500000E+04  0.7818608E-02  0.7223770E-01
         52   -1    0    0    0    0  0.00000000000E+00  0.00000000000E+00  0.64930732323E+04  0.65000000000E+04  0.30000000000E+03 0.  1.
        -52   -1    0    0    0    0 -0.00000000000E+00 -0.00000000000E+00 -0.64930732323E+04  0.65000000000E+04  0.30000000000E+03 0. -1.
     100001    1    1    2    0    0  0.45733467740E+04  0.40586820224E+04  0.21997611861E+04  0.65000000000E+04  0.15050000000E+03 0.  1.
     100001    1    1    2    0    0 -0.45733467740E+04 -0.40586820224E+04 -0.21997611861E+04  0.65000000000E+04  0.15050000000E+03 0. -1.
</event>
<event>
 4    1  0.4826743E-004  0.6500000E+04  0.7818608E-02  0.7223770E-01
         52   -1    0    0    0    0  0.00000000000E+00  0.00000000000E+00  0.64930732323E+04  0.65000000000E+04  0.30000000000E+03 0.  1.
        -52   -1    0    0    0    0 -0.00000000000E+00 -0.00000000000E+00 -0.64930732323E+04  0.65000000000E+04  0.30000000000E+03 0. -1.
     100001    1    1    2    0    0  0.46906249382E+03  0.15355239868E+03 -0.64794870004E+04  0.65000000000E+04  0.15050000000E+03 0. -1.
     100001    1    1    2    0    0 -0.46906249382E+03 -0.15355239868E+03  0.64794870004E+04  0.65000000000E+04  0.15050000000E+03 0.  1.
</event>
<event>
 4    1  0.4826743E-004  0.6500000E+04  0.7818608E-02  0.7223770E-01
         52   -1    0    0    0    0  0.00000000000E+00  0.00000000000E+00  0.64930732323E+04  0.65000000000E+04  0.30000000000E+03 0.  1.
        -52   -1    0    0    0    0 -0.00000000000E+00 -0.00000000000E+00 -0.64930732323E+04  0.65000000000E+04  0.30000000000E+03 0. -1.
     100001    1    1    2    0    0 -0.17072853842E+04  0.38144318297E+03 -0.62583566106E+04  0.65000000000E+04  0.15050000000E+03 0. -1.
     100001    1    1    2    0    0  0.17072853842E+04 -0.38144318297E+03  0.62583566106E+04  0.65000000000E+04  0.15050000000E+03 0.  1.
</event>
<event>
 4    1  0.4826743E-004  0.6500000E+04  0.7818608E-02  0.7223770E-01
         52   -1    0    0    0    0  0.00000000000E+00  0.00000000000E+00  0.64930732323E+04  0.65000000000E+04  0.30000000000E+03 0.  1.
        -52   -1    0    0    0    0 -0.00000000000E+00 -0.00000000000E+00 -0.64930732323E+04  0.65000000000E+04  0.30000000000E+03 0.  1.
     100001    1    1    2    0    0  0.50650332887E+03  0.39527885687E+03  0.64664177682E+04  0.65000000000E+04  0.15050000000E+03 0.  1.
     100001    1    1    2    0    0 -0.50650332887E+03 -0.39527885687E+03 -0.64664177682E+04  0.65000000000E+04  0.15050000000E+03 0.  1.
</event>
<event>
 4    1  0.4826743E-004  0.6500000E+04  0.7818608E-02  0.7223770E-01
         52   -1    0    0    0    0  0.00000000000E+00  0.00000000000E+00  0.64930732323E+04  0.65000000000E+04  0.30000000000E+03 0. -1.
        -52   -1    0    0    0    0 -0.00000000000E+00 -0.00000000000E+00 -0.64930732323E+04  0.65000000000E+04  0.30000000000E+03 0.  1.
     100001    1    1    2    0    0 -0.53898105313E+04  0.21045905905E+04  0.29577002270E+04  0.65000000000E+04  0.15050000000E+03 0.  1.
     100001    1    1    2    0    0  0.53898105313E+04 -0.21045905905E+04 -0.29577002270E+04  0.65000000000E+04  0.15050000000E+03 0. -1.
</event>
<event>
 4    1  0.4826743E-004  0.6500000E+04  0.7818608E-02  0.7223770E-01
         52   -1    0    0    0    0  0.00000000000E+00  0.00000000000E+00  0.64930732323E+04  0.65000000000E+04  0.30000000000E+03 0. -1.
        -52   -1    0    0    0    0 -0.00000000000E+00 -0.00000000000E+00 -0.64930732323E+04  0.65000000000E+04  0.30000000000E+03 0.  1.
     100001    1    1    2    0    0 -0.47668901263E+03 -0.60830681331E+03  0.64521376424E+04  0.65000000000E+04  0.15050000000E+03 0. -1.
     100001    1    1    2    0    0  0.47668901263E+03  0.60830681331E+03 -0.64521376424E+04  0.65000000000E+04  0.15050000000E+03 0.  1.
</event>
<event>
 4    1  0.4826743E-004  0.6500000E+04  0.7818608E-02  0.7223770E-01
         52   -1    0    0    0    0  0.00000000000E+00  0.00000000000E+00  0.64930732323E+04  0.65000000000E+04  0.30000000000E+03 0.  1.
        -52   -1    0    0    0    0 -0.00000000000E+00 -0.00000000000E+00 -0.64930732323E+04  0.65000000000E+04  0.30000000000E+03 0. -1.
     100001    1    1    2    0    0  0.22998320019E+04  0.11508172270E+03  0.60765844609E+04  0.65000000000E+04  0.15050000000E+03 0.  1.
     100001    1    1    2    0    0 -0.22998320019E+04 -0.11508172270E+03 -0.60765844609E+04  0.65000000000E+04  0.15050000000E+03 0. -1.
</event>
<event>
 4    1  0.5327144E-004  0.6500000E+04  0.7818608E-02  0.7223770E-01
         52   -1    0    0    0    0  0.00000000000E+00  0.00000000000E+00  0.64930732323E+04  0.65000000000E+04  0.30000000000E+03 0. -1.
        -52   -1    0    0    0    0 -0.00000000000E+00 -0.00000000000E+00 -0.64930732323E+04  0.65000000000E+04  0.30000000000E+03 0. -1.
     100001    1    1    2    0    0  0.68093264266E+02  0.18785602858E+03  0.64951846140E+04  0.65000000000E+04  0.15050000000E+03 0. -1.
     100001    1    1    2    0    0 -0.68093264266E+02 -0.18785602858E+03 -0.64951846140E+04  0.65000000000E+04  0.15050000000E+03 0. -1.
</event>
<event>
 4    1  0.4826743E-004  0.6500000E+04  0.7818608E-02  0.7223770E-01
         52   -1    0    0    0    0  0.00000000000E+00  0.00000000000E+00  0.64930732323E+04  0.65000000000E+04  0.30000000000E+03 0. -1.
        -52   -1    0    0    0    0 -0.00000000000E+00 -0.00000000000E+00 -0.64930732323E+04  0.65000000000E+04  0.30000000000E+03 0. -1.
     100001    1    1    2    0    0  0.30241360641E+02  0.77885355246E+01 -0.64981824035E+04  0.65000000000E+04  0.15050000000E+03 0. -1.
     100001    1    1    2    0    0 -0.30241360641E+02 -0.77885355246E+01  0.64981824035E+04  0.65000000000E+04  0.15050000000E+03 0. -1.
</event>
<event>
 4    1  0.4826743E-004  0.6500000E+04  0.7818608E-02  0.7223770E-01
         52   -1    0    0    0    0  0.00000000000E+00  0.00000000000E+00  0.64930732323E+04  0.65000000000E+04  0.30000000000E+03 0.  1.
        -52   -1    0    0    0    0 -0.00000000000E+00 -0.00000000000E+00 -0.64930732323E+04  0.65000000000E+04  0.30000000000E+03 0. -1.
     100001    1    1    2    0    0 -0.70028951386E+03 -0.16592858978E+04 -0.62436939912E+04  0.65000000000E+04  0.15050000000E+03 0. -1.
     100001    1    1    2    0    0  0.70028951386E+03  0.16592858978E+04  0.62436939912E+04  0.65000000000E+04  0.15050000000E+03 0.  1.
</event>
<event>
 4    1  0.4826743E-004  0.6500000E+04  0.7818608E-02  0.7223770E-01
         52   -1    0    0    0    0  0.00000000000E+00  0.00000000000E+00  0.64930732323E+04  0.65000000000E+04  0.30000000000E+03 0.  1.
        -52   -1    0    0    0    0 -0.00000000000E+00 -0.00000000000E+00 -0.64930732323E+04  0.65000000000E+04  0.30000000000E+03 0. -1.
     100001    1    1    2    0    0 -0.57057217989E+03 -0.10805617106E+03  0.64722577978E+04  0.65000000000E+04  0.15050000000E+03 0.  1.
     100001    1    1    2    0    0  0.57057217989E+03  0.10805617106E+03 -0.64722577978E+04  0.65000000000E+04  0.15050000000E+03 0. -1.
</event>
<event>
 4    1  0.4826743E-004  0.6500000E+04  0.7818608E-02  0.7223770E-01
         52   -1    0    0    0    0  0.00000000000E+00  0.00000000000E+00  0.64930732323E+04  0.65000000000E+04  0.30000000000E+03 0.  1.
        -52   -1    0    0    0    0 -0.00000000000E+00 -0.00000000000E+00 -0.64930732323E+04  0.65000000000E+04  0.30000000000E+03 0. -1.
     100001    1    1    2    0    0  0.28804785229E+04  0.11705557729E+04  0.57061363821E+04  0.65000000000E+04  0.15050000000E+03 0.  1.
     100001    1    1    2    0    0 -0.28804785229E+04 -0.11705557729E+04 -0.57061363821E+04  0.65000000000E+04  0.15050000000E+03 0. -1.
</event>
<event>
 4    1  0.4826743E-004  0.6500000E+04  0.7818608E-02  0.7223770E-01
         52   -1    0    0    0    0  0.00000000000E+00  0.00000000000E+00  0.64930732323E+04  0.65000000000E+04  0.30000000000E+03 0. -1.
        -52   -1    0    0    0    0 -0.00000000000E+00 -0.00000000000E+00 -0.64930732323E+04  0.65000000000E+04  0.30000000000E+03 0.  1.
     100001    1    1    2    0    0  0.57102837580E+02 -0.27730897565E+03  0.64920866251E+04  0.65000000000E+04  0.15050000000E+03 0. -1.
     100001    1    1    2    0    0 -0.57102837580E+02  0.27730897565E+03 -0.64920866251E+04  0.65000000000E+04  0.15050000000E+03 0.  1.
</event>
<event>
 4    1  0.4826743E-004  0.6500000E+04  0.7818608E-02  0.7223770E-01
         52   -1    0    0    0    0  0.00000000000E+00  0.00000000000E+00  0.64930732323E+04  0.65000000000E+04  0.30000000000E+03 0.  1.
        -52   -1    0    0    0    0 -0.00000000000E+00 -0.00000000000E+00 -0.64930732323E+04  0.65000000000E+04  0.30000000000E+03 0.  1.
     100001    1    1    2    0    0 -0.17205482834E+03 -0.34000129041E+03  0.64870753047E+04  0.65000000000E+04  0.15050000000E+03 0.  1.
     100001    1    1    2    0    0  0.17205482834E+03  0.34000129041E+03 -0.64870753047E+04  0.65000000000E+04  0.15050000000E+03 0.  1.
</event>
<event>
 4    1  0.4826743E-004  0.6500000E+04  0.7818608E-02  0.7223770E-01
         52   -1    0    0    0    0  0.00000000000E+00  0.00000000000E+00  0.64930732323E+04  0.65000000000E+04  0.30000000000E+03 0. -1.
        -52   -1    0    0    0    0 -0.00000000000E+00 -0.00000000000E+00 -0.64930732323E+04  0.65000000000E+04  0.30000000000E+03 0.  1.
     100001    1    1    2    0    0 -0.15629505568E+04 -0.21923326266E+04  0.59142381556E+04  0.65000000000E+04  0.15050000000E+03 0. -1.
     100001    1    1    2    0    0  0.15629505568E+04  0.21923326266E+04 -0.59142381556E+04  0.65000000000E+04  0.15050000000E+03 0.  1.
</event>
<event>
 4    1  0.4826743E-004  0.6500000E+04  0.7818608E-02  0.7223770E-01
         52   -1    0    0    0    0  0.00000000000E+00  0.00000000000E+00  0.64930732323E+04  0.65000000000E+04  0.30000000000E+03 0. -1.
        -52   -1    0    0    0    0 -0.00000000000E+00 -0.00000000000E+00 -0.64930732323E+04  0.65000000000E+04  0.30000000000E+03 0.  1.
     100001    1    1    2    0    0 -0.40096373205E+03 -0.42978074204E+03  0.64716200715E+04  0.65000000000E+04  0.15050000000E+03 0. -1.
     100001    1    1    2    0    0  0.40096373205E+03  0.42978074204E+03 -0.64716200715E+04  0.65000000000E+04  0.15050000000E+03 0.  1.
</event>
<event>
 4    1  0.4826743E-004  0.6500000E+04  0.7818608E-02  0.7223770E-01
         52   -1    0    0    0    0  0.00000000000E+00  0.00000000000E+00  0.64930732323E+04  0.65000000000E+04  0.30000000000E+03 0. -1.
        -52   -1    0    0    0    0 -0.00000000000E+00 -0.00000000000E+00 -0.64930732323E+04  0.65000000000E+04  0.30000000000E+03 0.  1.
     100001    1    1    2    0    0  0.57446750510E+03  0.10535661682E+03 -0.64719577269E+04  0.65000000000E+04  0.15050000000E+03 0.  1.
     100001    1    1    2    0    0 -0.57446750510E+03 -0.10535661682E+03  0.64719577269E+04  0.65000000000E+04  0.15050000000E+03 0. -1.
</event>
<event>
 4    1  0.4826743E-004  0.6500000E+04  0.7818608E-02  0.7223770E-01
         52   -1    0    0    0    0  0.00000000000E+00  0.00000000000E+00  0.64930732323E+04  0.65000000000E+04  0.30000000000E+03 0.  1.
        -52   -1    0    0    0    0 -0.00000000000E+00 -0.00000000000E+00 -0.64930732323E+04  0.65000000000E+04  0.30000000000E+03 0. -1.
     100001    1    1    2    0    0  0.23312142292E+03  0.38469850850E+03  0.64826700679E+04  0.65000000000E+04  0.15050000000E+03 0.  1.
     100001    1    1    2    0    0 -0.23312142292E+03 -0.38469850850E+03 -0.64826700679E+04  0.65000000000E+04  0.15050000000E+03 0. -1.
</event>
<event>
 4    1  0.4826743E-004  0.6500000E+04  0.7818608E-02  0.7223770E-01
         52   -1    0    0    0    0  0.00000000000E+00  0.00000000000E+00  0.64930732323E+04  0.65000000000E+04  0.30000000000E+03 0. -1.
        -52   -1    0    0    0    0 -0.00000000000E+00 -0.00000000000E+00 -0.64930732323E+04  0.65000000000E+04  0.30000000000E+03 0. -1.
     100001    1    1    2    0    0 -0.53460392754E+03  0.43787349310E+03  0.64614096910E+04  0.65000000000E+04  0.15050000000E+03 0. -1.
     100001    1    1    2    0    0  0.53460392754E+03 -0.43787349310E+03 -0.64614096910E+04  0.65000000000E+04  0.15050000000E+03 0. -1.
</event>
<event>
 4    1  0.4826743E-004  0.6500000E+04  0.7818608E-02  0.7223770E-01
         52   -1    0    0    0    0  0.00000000000E+00  0.00000000000E+00  0.64930732323E+04  0.65000000000E+04  0.30000000000E+03 0. -1.
        -52   -1    0    0    0    0 -0.00000000000E+00 -0.00000000000E+00 -0.64930732323E+04  0.65000000000E+04  0.30000000000E+03 0.  1.
     100001    1    1    2    0    0  0.40729327908E+03 -0.89397058106E+03 -0.64235721009E+04  0.65000000000E+04  0.15050000000E+03 0.  1.
     100001    1    1    2    0    0 -0.40729327908E+03  0.89397058106E+03  0.64235721009E+04  0.65000000000E+04  0.15050000000E+03 0. -1.
</event>
<event>
 4    1  0.4826743E-004  0.6500000E+04  0.7818608E-02  0.7223770E-01
         52   -1    0    0    0    0  0.00000000000E+00  0.00000000000E+00  0.64930732323E+04  0.65000000000E+04  0.30000000000E+03 0.  1.
        -52   -1    0    0    0    0 -0.00000000000E+00 -0.00000000000E+00 -0.64930732323E+04  0.65000000000E+04  0.30000000000E+03 0. -1.
     100001    1    1    2    0    0 -0.18983666094E+03 -0.32447706497E+03  0.64873743862E+04  0.65000000000E+04  0.15050000000E+03 0.  1.
     100001    1    1    2    0    0  0.18983666094E+03  0.32447706497E+03 -0.64873743862E+04  0.65000000000E+04  0.15050000000E+03 0. -1.
</event>
<event>
 4    1  0.4826743E-004  0.6500000E+04  0.7818608E-02  0.7223770E-01
         52   -1    0    0    0    0  0.00000000000E+00  0.00000000000E+00  0.64930732323E+04  0.65000000000E+04  0.30000000000E+03 0.  1.
        -52   -1    0    0    0    0 -0.00000000000E+00 -0.00000000000E+00 -0.64930732323E+04  0.65000000000E+04  0.30000000000E+03 0. -1.
     100001    1    1    2    0    0  0.60045464740E+03 -0.94033474891E+03 -0.64017633919E+04  0.65000000000E+04  0.15050000000E+03 0. -1.
     100001    1    1    2    0    0 -0.60045464740E+03  0.94033474891E+03  0.64017633919E+04  0.65000000000E+04  0.15050000000E+03 0.  1.
</event>
<event>
 4    1  0.4826743E-004  0.6500000E+04  0.7818608E-02  0.7223770E-01
         52   -1    0    0    0    0  0.00000000000E+00  0.00000000000E+00  0.64930732323E+04  0.65000000000E+04  0.30000000000E+03 0. -1.
        -52   -1    0    0    0    0 -0.00000000000E+00 -0.00000000000E+00 -0.64930732323E+04  0.65000000000E+04  0.30000000000E+03 0.  1.
     100001    1    1    2    0    0 -0.74911541447E+03  0.45299640188E+03  0.64390193435E+04  0.65000000000E+04  0.15050000000E+03 0. -1.
     100001    1    1    2    0    0  0.74911541447E+03 -0.45299640188E+03 -0.64390193435E+04  0.65000000000E+04  0.15050000000E+03 0.  1.
</event>
<event>
 4    1  0.4826743E-004  0.6500000E+04  0.7818608E-02  0.7223770E-01
         52   -1    0    0    0    0  0.00000000000E+00  0.00000000000E+00  0.64930732323E+04  0.65000000000E+04  0.30000000000E+03 0.  1.
        -52   -1    0    0    0    0 -0.00000000000E+00 -0.00000000000E+00 -0.64930732323E+04  0.65000000000E+04  0.30000000000E+03 0. -1.
     100001    1    1    2    0    0  0.14335955075E+04 -0.18577381095E+04  0.60597824043E+04  0.65000000000E+04  0.15050000000E+03 0.  1.
     100001    1    1    2    0    0 -0.14335955075E+04  0.18577381095E+04 -0.60597824043E+04  0.65000000000E+04  0.15050000000E+03 0. -1.
</event>
<event>
 4    1  0.4826743E-004  0.6500000E+04  0.7818608E-02  0.7223770E-01
         52   -1    0    0    0    0  0.00000000000E+00  0.00000000000E+00  0.64930732323E+04  0.65000000000E+04  0.30000000000E+03 0. -1.
        -52   -1    0    0    0    0 -0.00000000000E+00 -0.00000000000E+00 -0.64930732323E+04  0.65000000000E+04  0.30000000000E+03 0.  1.
     100001    1    1    2    0    0 -0.27166956804E+04  0.30148128357E+04  0.50752160442E+04  0.65000000000E+04  0.15050000000E+03 0. -1.
     100001    1    1    2    0    0  0.27166956804E+04 -0.30148128357E+04 -0.50752160442E+04  0.65000000000E+04  0.15050000000E+03 0.  1.
</event>
<event>
 4    1  0.4826743E-004  0.6500000E+04  0.7818608E-02  0.7223770E-01
         52   -1    0    0    0    0  0.00000000000E+00  0.00000000000E+00  0.64930732323E+04  0.65000000000E+04  0.30000000000E+03 0. -1.
        -52   -1    0    0    0    0 -0.00000000000E+00 -0.00000000000E+00 -0.64930732323E+04  0.65000000000E+04  0.30000000000E+03 0. -1.
     100001    1    1    2    0    0 -0.13690775290E+03  0.14075380297E+03 -0.64952901694E+04  0.65000000000E+04  0.15050000000E+03 0. -1.
     100001    1    1    2    0    0  0.13690775290E+03 -0.14075380297E+03  0.64952901694E+04  0.65000000000E+04  0.15050000000E+03 0. -1.
</event>
<event>
 4    1  0.4826743E-004  0.6500000E+04  0.7818608E-02  0.7223770E-01
         52   -1    0    0    0    0  0.00000000000E+00  0.00000000000E+00  0.64930732323E+04  0.65000000000E+04  0.30000000000E+03 0. -1.
        -52   -1    0    0    0    0 -0.00000000000E+00 -0.00000000000E+00 -0.64930732323E+04  0.65000000000E+04  0.30000000000E+03 0.  1.
     100001    1    1    2    0    0 -0.80349253434E+03  0.31660147476E+04  0.56176596653E+04  0.65000000000E+04  0.15050000000E+03 0. -1.
     100001    1    1    2    0    0  0.80349253434E+03 -0.31660147476E+04 -0.56176596653E+04  0.65000000000E+04  0.15050000000E+03 0.  1.
</event>
<event>
 4    1  0.4826743E-004  0.6500000E+04  0.7818608E-02  0.7223770E-01
         52   -1    0    0    0    0  0.00000000000E+00  0.00000000000E+00  0.64930732323E+04  0.65000000000E+04  0.30000000000E+03 0.  1.
        -52   -1    0    0    0    0 -0.00000000000E+00 -0.00000000000E+00 -0.64930732323E+04  0.65000000000E+04  0.30000000000E+03 0. -1.
     100001    1    1    2    0    0  0.20386040141E+04 -0.47910485116E+04 -0.38880969101E+04  0.65000000000E+04  0.15050000000E+03 0. -1.
     100001    1    1    2    0    0 -0.20386040141E+04  0.47910485116E+04  0.38880969101E+04  0.65000000000E+04  0.15050000000E+03 0.  1.
</event>
<event>
 4    1  0.4826743E-004  0.6500000E+04  0.7818608E-02  0.7223770E-01
         52   -1    0    0    0    0  0.00000000000E+00  0.00000000000E+00  0.64930732323E+04  0.65000000000E+04  0.30000000000E+03 0.  1.
        -52   -1    0    0    0    0 -0.00000000000E+00 -0.00000000000E+00 -0.64930732323E+04  0.65000000000E+04  0.30000000000E+03 0. -1.
     100001    1    1    2    0    0 -0.12330111857E+04  0.56570769944E+04  0.29503411744E+04  0.65000000000E+04  0.15050000000E+03 0.  1.
     100001    1    1    2    0    0  0.12330111857E+04 -0.56570769944E+04 -0.29503411744E+04  0.65000000000E+04  0.15050000000E+03 0. -1.
</event>
<event>
 4    1  0.4826743E-004  0.6500000E+04  0.7818608E-02  0.7223770E-01
         52   -1    0    0    0    0  0.00000000000E+00  0.00000000000E+00  0.64930732323E+04  0.65000000000E+04  0.30000000000E+03 0.  1.
        -52   -1    0    0    0    0 -0.00000000000E+00 -0.00000000000E+00 -0.64930732323E+04  0.65000000000E+04  0.30000000000E+03 0. -1.
     100001    1    1    2    0    0 -0.49793730055E+03 -0.44037251595E+02  0.64790021543E+04  0.65000000000E+04  0.15050000000E+03 0.  1.
     100001    1    1    2    0    0  0.49793730055E+03  0.44037251595E+02 -0.64790021543E+04  0.65000000000E+04  0.15050000000E+03 0. -1.
</event>
<event>
 4    1  0.4826743E-004  0.6500000E+04  0.7818608E-02  0.7223770E-01
         52   -1    0    0    0    0  0.00000000000E+00  0.00000000000E+00  0.64930732323E+04  0.65000000000E+04  0.30000000000E+03 0. -1.
        -52   -1    0    0    0    0 -0.00000000000E+00 -0.00000000000E+00 -0.64930732323E+04  0.65000000000E+04  0.30000000000E+03 0.  1.
     100001    1    1    2    0    0  0.22169253380E+04  0.24817019094E+04  0.55815542126E+04  0.65000000000E+04  0.15050000000E+03 0. -1.
     100001    1    1    2    0    0 -0.22169253380E+04 -0.24817019094E+04 -0.55815542126E+04  0.65000000000E+04  0.15050000000E+03 0.  1.
</event>
<event>
 4    1  0.4826743E-004  0.6500000E+04  0.7818608E-02  0.7223770E-01
         52   -1    0    0    0    0  0.00000000000E+00  0.00000000000E+00  0.64930732323E+04  0.65000000000E+04  0.30000000000E+03 0.  1.
        -52   -1    0    0    0    0 -0.00000000000E+00 -0.00000000000E+00 -0.64930732323E+04  0.65000000000E+04  0.30000000000E+03 0. -1.
     100001    1    1    2    0    0 -0.13538438357E+04  0.54870838650E+04 -0.32072367042E+04  0.65000000000E+04  0.15050000000E+03 0. -1.
     100001    1    1    2    0    0  0.13538438357E+04 -0.54870838650E+04  0.32072367042E+04  0.65000000000E+04  0.15050000000E+03 0.  1.
</event>
<event>
 4    1  0.4826743E-004  0.6500000E+04  0.7818608E-02  0.7223770E-01
         52   -1    0    0    0    0  0.00000000000E+00  0.00000000000E+00  0.64930732323E+04  0.65000000000E+04  0.30000000000E+03 0.  1.
        -52   -1    0    0    0    0 -0.00000000000E+00 -0.00000000000E+00 -0.64930732323E+04  0.65000000000E+04  0.30000000000E+03 0.  1.
     100001    1    1    2    0    0 -0.24345045507E+03  0.92037942637E+02 -0.64930432497E+04  0.65000000000E+04  0.15050000000E+03 0.  1.
     100001    1    1    2    0    0  0.24345045507E+03 -0.92037942637E+02  0.64930432497E+04  0.65000000000E+04  0.15050000000E+03 0.  1.
</event>
<event>
 4    1  0.4826743E-004  0.6500000E+04  0.7818608E-02  0.7223770E-01
         52   -1    0    0    0    0  0.00000000000E+00  0.00000000000E+00  0.64930732323E+04  0.65000000000E+04  0.30000000000E+03 0. -1.
        -52   -1    0    0    0    0 -0.00000000000E+00 -0.00000000000E+00 -0.64930732323E+04  0.65000000000E+04  0.30000000000E+03 0.  1.
     100001    1    1    2    0    0  0.50608662111E+04 -0.29160852651E+04 -0.28480571747E+04  0.65000000000E+04  0.15050000000E+03 0.  1.
     100001    1    1    2    0    0 -0.50608662111E+04  0.29160852651E+04  0.28480571747E+04  0.65000000000E+04  0.15050000000E+03 0. -1.
</event>
<event>
 4    1  0.4826743E-004  0.6500000E+04  0.7818608E-02  0.7223770E-01
         52   -1    0    0    0    0  0.00000000000E+00  0.00000000000E+00  0.64930732323E+04  0.65000000000E+04  0.30000000000E+03 0. -1.
        -52   -1    0    0    0    0 -0.00000000000E+00 -0.00000000000E+00 -0.64930732323E+04  0.65000000000E+04  0.30000000000E+03 0.  1.
     100001    1    1    2    0    0  0.82287063874E+02 -0.34812020115E+03  0.64884043427E+04  0.65000000000E+04  0.15050000000E+03 0. -1.
     100001    1    1    2    0    0 -0.82287063874E+02  0.34812020115E+03 -0.64884043427E+04  0.65000000000E+04  0.15050000000E+03 0.  1.
</event>
<event>
 4    1  0.4826743E-004  0.6500000E+04  0.7818608E-02  0.7223770E-01
         52   -1    0    0    0    0  0.00000000000E+00  0.00000000000E+00  0.64930732323E+04  0.65000000000E+04  0.30000000000E+03 0.  1.
        -52   -1    0    0    0    0 -0.00000000000E+00 -0.00000000000E+00 -0.64930732323E+04  0.65000000000E+04  0.30000000000E+03 0. -1.
     100001    1    1    2    0    0  0.14469726546E+04 -0.64487487027E+03  0.63022024951E+04  0.65000000000E+04  0.15050000000E+03 0.  1.
     100001    1    1    2    0    0 -0.14469726546E+04  0.64487487027E+03 -0.63022024951E+04  0.65000000000E+04  0.15050000000E+03 0. -1.
</event>
<event>
 4    1  0.4826743E-004  0.6500000E+04  0.7818608E-02  0.7223770E-01
         52   -1    0    0    0    0  0.00000000000E+00  0.00000000000E+00  0.64930732323E+04  0.65000000000E+04  0.30000000000E+03 0.  1.
        -52   -1    0    0    0    0 -0.00000000000E+00 -0.00000000000E+00 -0.64930732323E+04  0.65000000000E+04  0.30000000000E+03 0. -1.
     100001    1    1    2    0    0  0.62231736106E+04 -0.15217021455E+04 -0.10880636668E+04  0.65000000000E+04  0.15050000000E+03 0. -1.
     100001    1    1    2    0    0 -0.62231736106E+04  0.15217021455E+04  0.10880636668E+04  0.65000000000E+04  0.15050000000E+03 0.  1.
</event>
<event>
 4    1  0.7531760E-004  0.6500000E+04  0.7818608E-02  0.7223770E-01
         52   -1    0    0    0    0  0.00000000000E+00  0.00000000000E+00  0.64930732323E+04  0.65000000000E+04  0.30000000000E+03 0. -1.
        -52   -1    0    0    0    0 -0.00000000000E+00 -0.00000000000E+00 -0.64930732323E+04  0.65000000000E+04  0.30000000000E+03 0.  1.
     100001    1    1    2    0    0  0.79223405813E+02 -0.71381487674E+02 -0.64973824026E+04  0.65000000000E+04  0.15050000000E+03 0.  1.
     100001    1    1    2    0    0 -0.79223405813E+02  0.71381487674E+02  0.64973824026E+04  0.65000000000E+04  0.15050000000E+03 0. -1.
</event>
<event>
 4    1  0.4826743E-004  0.6500000E+04  0.7818608E-02  0.7223770E-01
         52   -1    0    0    0    0  0.00000000000E+00  0.00000000000E+00  0.64930732323E+04  0.65000000000E+04  0.30000000000E+03 0.  1.
        -52   -1    0    0    0    0 -0.00000000000E+00 -0.00000000000E+00 -0.64930732323E+04  0.65000000000E+04  0.30000000000E+03 0. -1.
     100001    1    1    2    0    0  0.65744281406E+02 -0.10288481902E+04 -0.64159565804E+04  0.65000000000E+04  0.15050000000E+03 0. -1.
     100001    1    1    2    0    0 -0.65744281406E+02  0.10288481902E+04  0.64159565804E+04  0.65000000000E+04  0.15050000000E+03 0.  1.
</event>
<event>
 4    1  0.4826743E-004  0.6500000E+04  0.7818608E-02  0.7223770E-01
         52   -1    0    0    0    0  0.00000000000E+00  0.00000000000E+00  0.64930732323E+04  0.65000000000E+04  0.30000000000E+03 0. -1.
        -52   -1    0    0    0    0 -0.00000000000E+00 -0.00000000000E+00 -0.64930732323E+04  0.65000000000E+04  0.30000000000E+03 0.  1.
     100001    1    1    2    0    0 -0.71711446303E+03  0.17475307196E+04  0.62176549423E+04  0.65000000000E+04  0.15050000000E+03 0. -1.
     100001    1    1    2    0    0  0.71711446303E+03 -0.17475307196E+04 -0.62176549423E+04  0.65000000000E+04  0.15050000000E+03 0.  1.
</event>
<event>
 4    1  0.4826743E-004  0.6500000E+04  0.7818608E-02  0.7223770E-01
         52   -1    0    0    0    0  0.00000000000E+00  0.00000000000E+00  0.64930732323E+04  0.65000000000E+04  0.30000000000E+03 0. -1.
        -52   -1    0    0    0    0 -0.00000000000E+00 -0.00000000000E+00 -0.64930732323E+04  0.65000000000E+04  0.30000000000E+03 0.  1.
     100001    1    1    2    0    0 -0.62098762861E+03  0.50472314533E+04  0.40456370044E+04  0.65000000000E+04  0.15050000000E+03 0. -1.
     100001    1    1    2    0    0  0.62098762861E+03 -0.50472314533E+04 -0.40456370044E+04  0.65000000000E+04  0.15050000000E+03 0.  1.
</event>
<event>
 4    1  0.4826743E-004  0.6500000E+04  0.7818608E-02  0.7223770E-01
         52   -1    0    0    0    0  0.00000000000E+00  0.00000000000E+00  0.64930732323E+04  0.65000000000E+04  0.30000000000E+03 0.  1.
        -52   -1    0    0    0    0 -0.00000000000E+00 -0.00000000000E+00 -0.64930732323E+04  0.65000000000E+04  0.30000000000E+03 0. -1.
     100001    1    1    2    0    0 -0.96720214180E+03 -0.73817864096E+03  0.63833347132E+04  0.65000000000E+04  0.15050000000E+03 0.  1.
     100001    1    1    2    0    0  0.96720214180E+03  0.73817864096E+03 -0.63833347132E+04  0.65000000000E+04  0.15050000000E+03 0. -1.
</event>
<event>
 4    1  0.4826743E-004  0.6500000E+04  0.7818608E-02  0.7223770E-01
         52   -1    0    0    0    0  0.00000000000E+00  0.00000000000E+00  0.64930732323E+04  0.65000000000E+04  0.30000000000E+03 0. -1.
        -52   -1    0    0    0    0 -0.00000000000E+00 -0.00000000000E+00 -0.64930732323E+04  0.65000000000E+04  0.30000000000E+03 0. -1.
     100001    1    1    2    0    0  0.54069274252E+04  0.28313930213E+03  0.35933713563E+04  0.65000000000E+04  0.15050000000E+03 0. -1.
     100001    1    1    2    0    0 -0.54069274252E+04 -0.28313930213E+03 -0.35933713563E+04  0.65000000000E+04  0.15050000000E+03 0. -1.
</event>
<event>
 4    1  0.4826743E-004  0.6500000E+04  0.7818608E-02  0.7223770E-01
         52   -1    0    0    0    0  0.00000000000E+00  0.00000000000E+00  0.64930732323E+04  0.65000000000E+04  0.30000000000E+03 0. -1.
        -52   -1    0    0    0    0 -0.00000000000E+00 -0.00000000000E+00 -0.64930732323E+04  0.65000000000E+04  0.30000000000E+03 0.  1.
     100001    1    1    2    0    0  0.15258064538E+04  0.55525864674E+03 -0.62921341571E+04  0.65000000000E+04  0.15050000000E+03 0.  1.
     100001    1    1    2    0    0 -0.15258064538E+04 -0.55525864674E+03  0.62921341571E+04  0.65000000000E+04  0.15050000000E+03 0. -1.
</event>
<event>
 4    1  0.4826743E-004  0.6500000E+04  0.7818608E-02  0.7223770E-01
         52   -1    0    0    0    0  0.00000000000E+00  0.00000000000E+00  0.64930732323E+04  0.65000000000E+04  0.30000000000E+03 0.  1.
        -52   -1    0    0    0    0 -0.00000000000E+00 -0.00000000000E+00 -0.64930732323E+04  0.65000000000E+04  0.30000000000E+03 0.  1.
     100001    1    1    2    0    0  0.34264896184E+03 -0.37978580290E+03 -0.64780941783E+04  0.65000000000E+04  0.15050000000E+03 0.  1.
     100001    1    1    2    0    0 -0.34264896184E+03  0.37978580290E+03  0.64780941783E+04  0.65000000000E+04  0.15050000000E+03 0.  1.
</event>
<event>
 4    1  0.4826743E-004  0.6500000E+04  0.7818608E-02  0.7223770E-01
         52   -1    0    0    0    0  0.00000000000E+00  0.00000000000E+00  0.64930732323E+04  0.65000000000E+04  0.30000000000E+03 0.  1.
        -52   -1    0    0    0    0 -0.00000000000E+00 -0.00000000000E+00 -0.64930732323E+04  0.65000000000E+04  0.30000000000E+03 0. -1.
     100001    1    1    2    0    0 -0.56358701969E+03 -0.24527305813E+04  0.59911461438E+04  0.65000000000E+04  0.15050000000E+03 0.  1.
     100001    1    1    2    0    0  0.56358701969E+03  0.24527305813E+04 -0.59911461438E+04  0.65000000000E+04  0.15050000000E+03 0. -1.
</event>
<event>
 4    1  0.4826743E-004  0.6500000E+04  0.7818608E-02  0.7223770E-01
         52   -1    0    0    0    0  0.00000000000E+00  0.00000000000E+00  0.64930732323E+04  0.65000000000E+04  0.30000000000E+03 0. -1.
        -52   -1    0    0    0    0 -0.00000000000E+00 -0.00000000000E+00 -0.64930732323E+04  0.65000000000E+04  0.30000000000E+03 0.  1.
     100001    1    1    2    0    0  0.23151223271E+04  0.13723609799E+04 -0.59147429108E+04  0.65000000000E+04  0.15050000000E+03 0.  1.
     100001    1    1    2    0    0 -0.23151223271E+04 -0.13723609799E+04  0.59147429108E+04  0.65000000000E+04  0.15050000000E+03 0. -1.
</event>
<event>
 4    1  0.4826743E-004  0.6500000E+04  0.7818608E-02  0.7223770E-01
         52   -1    0    0    0    0  0.00000000000E+00  0.00000000000E+00  0.64930732323E+04  0.65000000000E+04  0.30000000000E+03 0. -1.
        -52   -1    0    0    0    0 -0.00000000000E+00 -0.00000000000E+00 -0.64930732323E+04  0.65000000000E+04  0.30000000000E+03 0.  1.
     100001    1    1    2    0    0  0.38169491633E+04  0.32504105049E+04 -0.41343778716E+04  0.65000000000E+04  0.15050000000E+03 0.  1.
     100001    1    1    2    0    0 -0.38169491633E+04 -0.32504105049E+04  0.41343778716E+04  0.65000000000E+04  0.15050000000E+03 0. -1.
</event>
<event>
 4    1  0.4826743E-004  0.6500000E+04  0.7818608E-02  0.7223770E-01
         52   -1    0    0    0    0  0.00000000000E+00  0.00000000000E+00  0.64930732323E+04  0.65000000000E+04  0.30000000000E+03 0. -1.
        -52   -1    0    0    0    0 -0.00000000000E+00 -0.00000000000E+00 -0.64930732323E+04  0.65000000000E+04  0.30000000000E+03 0.  1.
     100001    1    1    2    0    0 -0.39006262709E+04 -0.26750109096E+04  0.44560948238E+04  0.65000000000E+04  0.15050000000E+03 0.  1.
     100001    1    1    2    0    0  0.39006262709E+04  0.26750109096E+04 -0.44560948238E+04  0.65000000000E+04  0.15050000000E+03 0. -1.
</event>
<event>
 4    1  0.4826743E-004  0.6500000E+04  0.7818608E-02  0.7223770E-01
         52   -1    0    0    0    0  0.00000000000E+00  0.00000000000E+00  0.64930732323E+04  0.65000000000E+04  0.30000000000E+03 0. -1.
        -52   -1    0    0    0    0 -0.00000000000E+00 -0.00000000000E+00 -0.64930732323E+04  0.65000000000E+04  0.30000000000E+03 0.  1.
     100001    1    1    2    0    0 -0.14575837868E+04  0.23730266441E+04  0.58712472100E+04  0.65000000000E+04  0.15050000000E+03 0. -1.
     100001    1    1    2    0    0  0.14575837868E+04 -0.23730266441E+04 -0.58712472100E+04  0.65000000000E+04  0.15050000000E+03 0.  1.
</event>
<event>
 4    1  0.4826743E-004  0.6500000E+04  0.7818608E-02  0.7223770E-01
         52   -1    0    0    0    0  0.00000000000E+00  0.00000000000E+00  0.64930732323E+04  0.65000000000E+04  0.30000000000E+03 0.  1.
        -52   -1    0    0    0    0 -0.00000000000E+00 -0.00000000000E+00 -0.64930732323E+04  0.65000000000E+04  0.30000000000E+03 0. -1.
     100001    1    1    2    0    0  0.34415278450E+04 -0.18713076815E+04 -0.51847317581E+04  0.65000000000E+04  0.15050000000E+03 0. -1.
     100001    1    1    2    0    0 -0.34415278450E+04  0.18713076815E+04  0.51847317581E+04  0.65000000000E+04  0.15050000000E+03 0.  1.
</event>
<event>
 4    1  0.4826743E-004  0.6500000E+04  0.7818608E-02  0.7223770E-01
         52   -1    0    0    0    0  0.00000000000E+00  0.00000000000E+00  0.64930732323E+04  0.65000000000E+04  0.30000000000E+03 0.  1.
        -52   -1    0    0    0    0 -0.00000000000E+00 -0.00000000000E+00 -0.64930732323E+04  0.65000000000E+04  0.30000000000E+03 0. -1.
     100001    1    1    2    0    0 -0.97204034727E+03  0.26677481570E+04  0.58451353350E+04  0.65000000000E+04  0.15050000000E+03 0.  1.
     100001    1    1    2    0    0  0.97204034727E+03 -0.26677481570E+04 -0.58451353350E+04  0.65000000000E+04  0.15050000000E+03 0. -1.
</event>
<event>
 4    1  0.4826743E-004  0.6500000E+04  0.7818608E-02  0.7223770E-01
         52   -1    0    0    0    0  0.00000000000E+00  0.00000000000E+00  0.64930732323E+04  0.65000000000E+04  0.30000000000E+03 0.  1.
        -52   -1    0    0    0    0 -0.00000000000E+00 -0.00000000000E+00 -0.64930732323E+04  0.65000000000E+04  0.30000000000E+03 0.  1.
     100001    1    1    2    0    0  0.11149741533E+03  0.43305720620E+01  0.64972993869E+04  0.65000000000E+04  0.15050000000E+03 0.  1.
     100001    1    1    2    0    0 -0.11149741533E+03 -0.43305720620E+01 -0.64972993869E+04  0.65000000000E+04  0.15050000000E+03 0.  1.
</event>
<event>
 4    1  0.4826743E-004  0.6500000E+04  0.7818608E-02  0.7223770E-01
         52   -1    0    0    0    0  0.00000000000E+00  0.00000000000E+00  0.64930732323E+04  0.65000000000E+04  0.30000000000E+03 0. -1.
        -52   -1    0    0    0    0 -0.00000000000E+00 -0.00000000000E+00 -0.64930732323E+04  0.65000000000E+04  0.30000000000E+03 0. -1.
     100001    1    1    2    0    0 -0.45417323156E+02 -0.51165790905E+03  0.64779235254E+04  0.65000000000E+04  0.15050000000E+03 0. -1.
     100001    1    1    2    0    0  0.45417323156E+02  0.51165790905E+03 -0.64779235254E+04  0.65000000000E+04  0.15050000000E+03 0. -1.
</event>
<event>
 4    1  0.4826743E-004  0.6500000E+04  0.7818608E-02  0.7223770E-01
         52   -1    0    0    0    0  0.00000000000E+00  0.00000000000E+00  0.64930732323E+04  0.65000000000E+04  0.30000000000E+03 0.  1.
        -52   -1    0    0    0    0 -0.00000000000E+00 -0.00000000000E+00 -0.64930732323E+04  0.65000000000E+04  0.30000000000E+03 0.  1.
     100001    1    1    2    0    0 -0.18914099954E+03  0.14711451821E+03  0.64938380601E+04  0.65000000000E+04  0.15050000000E+03 0.  1.
     100001    1    1    2    0    0  0.18914099954E+03 -0.14711451821E+03 -0.64938380601E+04  0.65000000000E+04  0.15050000000E+03 0.  1.
</event>
<event>
 4    1  0.4826743E-004  0.6500000E+04  0.7818608E-02  0.7223770E-01
         52   -1    0    0    0    0  0.00000000000E+00  0.00000000000E+00  0.64930732323E+04  0.65000000000E+04  0.30000000000E+03 0. -1.
        -52   -1    0    0    0    0 -0.00000000000E+00 -0.00000000000E+00 -0.64930732323E+04  0.65000000000E+04  0.30000000000E+03 0.  1.
     100001    1    1    2    0    0 -0.27599511822E+04 -0.25663472263E+04 -0.52937586964E+04  0.65000000000E+04  0.15050000000E+03 0.  1.
     100001    1    1    2    0    0  0.27599511822E+04  0.25663472263E+04  0.52937586964E+04  0.65000000000E+04  0.15050000000E+03 0. -1.
</event>
<event>
 4    1  0.4826743E-004  0.6500000E+04  0.7818608E-02  0.7223770E-01
         52   -1    0    0    0    0  0.00000000000E+00  0.00000000000E+00  0.64930732323E+04  0.65000000000E+04  0.30000000000E+03 0. -1.
        -52   -1    0    0    0    0 -0.00000000000E+00 -0.00000000000E+00 -0.64930732323E+04  0.65000000000E+04  0.30000000000E+03 0.  1.
     100001    1    1    2    0    0 -0.21372677379E+03 -0.46973433513E+03 -0.64777326489E+04  0.65000000000E+04  0.15050000000E+03 0.  1.
     100001    1    1    2    0    0  0.21372677379E+03  0.46973433513E+03  0.64777326489E+04  0.65000000000E+04  0.15050000000E+03 0. -1.
</event>
<event>
 4    1  0.4826743E-004  0.6500000E+04  0.7818608E-02  0.7223770E-01
         52   -1    0    0    0    0  0.00000000000E+00  0.00000000000E+00  0.64930732323E+04  0.65000000000E+04  0.30000000000E+03 0. -1.
        -52   -1    0    0    0    0 -0.00000000000E+00 -0.00000000000E+00 -0.64930732323E+04  0.65000000000E+04  0.30000000000E+03 0.  1.
     100001    1    1    2    0    0 -0.21099179446E+04 -0.16309040338E+04 -0.59258542042E+04  0.65000000000E+04  0.15050000000E+03 0.  1.
     100001    1    1    2    0    0  0.21099179446E+04  0.16309040338E+04  0.59258542042E+04  0.65000000000E+04  0.15050000000E+03 0. -1.
</event>
<event>
 4    1  0.4826743E-004  0.6500000E+04  0.7818608E-02  0.7223770E-01
         52   -1    0    0    0    0  0.00000000000E+00  0.00000000000E+00  0.64930732323E+04  0.65000000000E+04  0.30000000000E+03 0.  1.
        -52   -1    0    0    0    0 -0.00000000000E+00 -0.00000000000E+00 -0.64930732323E+04  0.65000000000E+04  0.30000000000E+03 0. -1.
     100001    1    1    2    0    0 -0.21626422194E+03 -0.18024624757E+03 -0.64921561000E+04  0.65000000000E+04  0.15050000000E+03 0. -1.
     100001    1    1    2    0    0  0.21626422194E+03  0.18024624757E+03  0.64921561000E+04  0.65000000000E+04  0.15050000000E+03 0.  1.
</event>
<event>
 4    1  0.4826743E-004  0.6500000E+04  0.7818608E-02  0.7223770E-01
         52   -1    0    0    0    0  0.00000000000E+00  0.00000000000E+00  0.64930732323E+04  0.65000000000E+04  0.30000000000E+03 0. -1.
        -52   -1    0    0    0    0 -0.00000000000E+00 -0.00000000000E+00 -0.64930732323E+04  0.65000000000E+04  0.30000000000E+03 0. -1.
     100001    1    1    2    0    0 -0.37981656748E+03 -0.27513436521E+03 -0.64813108401E+04  0.65000000000E+04  0.15050000000E+03 0. -1.
     100001    1    1    2    0    0  0.37981656748E+03  0.27513436521E+03  0.64813108401E+04  0.65000000000E+04  0.15050000000E+03 0. -1.
</event>
<event>
 4    1  0.4826743E-004  0.6500000E+04  0.7818608E-02  0.7223770E-01
         52   -1    0    0    0    0  0.00000000000E+00  0.00000000000E+00  0.64930732323E+04  0.65000000000E+04  0.30000000000E+03 0.  1.
        -52   -1    0    0    0    0 -0.00000000000E+00 -0.00000000000E+00 -0.64930732323E+04  0.65000000000E+04  0.30000000000E+03 0. -1.
     100001    1    1    2    0    0  0.25914949666E+04  0.34834190466E+04 -0.48350072734E+04  0.65000000000E+04  0.15050000000E+03 0. -1.
     100001    1    1    2    0    0 -0.25914949666E+04 -0.34834190466E+04  0.48350072734E+04  0.65000000000E+04  0.15050000000E+03 0.  1.
</event>
<event>
 4    1  0.4826743E-004  0.6500000E+04  0.7818608E-02  0.7223770E-01
         52   -1    0    0    0    0  0.00000000000E+00  0.00000000000E+00  0.64930732323E+04  0.65000000000E+04  0.30000000000E+03 0. -1.
        -52   -1    0    0    0    0 -0.00000000000E+00 -0.00000000000E+00 -0.64930732323E+04  0.65000000000E+04  0.30000000000E+03 0.  1.
     100001    1    1    2    0    0  0.20736013281E+04 -0.44755270537E+04 -0.42305064559E+04  0.65000000000E+04  0.15050000000E+03 0.  1.
     100001    1    1    2    0    0 -0.20736013281E+04  0.44755270537E+04  0.42305064559E+04  0.65000000000E+04  0.15050000000E+03 0. -1.
</event>
<event>
 4    1  0.4826743E-004  0.6500000E+04  0.7818608E-02  0.7223770E-01
         52   -1    0    0    0    0  0.00000000000E+00  0.00000000000E+00  0.64930732323E+04  0.65000000000E+04  0.30000000000E+03 0.  1.
        -52   -1    0    0    0    0 -0.00000000000E+00 -0.00000000000E+00 -0.64930732323E+04  0.65000000000E+04  0.30000000000E+03 0.  1.
     100001    1    1    2    0    0  0.21046136552E+03 -0.13996510194E+03  0.64933400907E+04  0.65000000000E+04  0.15050000000E+03 0.  1.
     100001    1    1    2    0    0 -0.21046136552E+03  0.13996510194E+03 -0.64933400907E+04  0.65000000000E+04  0.15050000000E+03 0.  1.
</event>
<event>
 4    1  0.4826743E-004  0.6500000E+04  0.7818608E-02  0.7223770E-01
         52   -1    0    0    0    0  0.00000000000E+00  0.00000000000E+00  0.64930732323E+04  0.65000000000E+04  0.30000000000E+03 0. -1.
        -52   -1    0    0    0    0 -0.00000000000E+00 -0.00000000000E+00 -0.64930732323E+04  0.65000000000E+04  0.30000000000E+03 0.  1.
     100001    1    1    2    0    0  0.23185800788E+03  0.57082455898E+03 -0.64689837639E+04  0.65000000000E+04  0.15050000000E+03 0.  1.
     100001    1    1    2    0    0 -0.23185800788E+03 -0.57082455898E+03  0.64689837639E+04  0.65000000000E+04  0.15050000000E+03 0. -1.
</event>
<event>
 4    1  0.4826743E-004  0.6500000E+04  0.7818608E-02  0.7223770E-01
         52   -1    0    0    0    0  0.00000000000E+00  0.00000000000E+00  0.64930732323E+04  0.65000000000E+04  0.30000000000E+03 0. -1.
        -52   -1    0    0    0    0 -0.00000000000E+00 -0.00000000000E+00 -0.64930732323E+04  0.65000000000E+04  0.30000000000E+03 0.  1.
     100001    1    1    2    0    0  0.11296178108E+04 -0.51953890935E+04  0.37362073710E+04  0.65000000000E+04  0.15050000000E+03 0. -1.
     100001    1    1    2    0    0 -0.11296178108E+04  0.51953890935E+04 -0.37362073710E+04  0.65000000000E+04  0.15050000000E+03 0.  1.
</event>
<event>
 4    1  0.4826743E-004  0.6500000E+04  0.7818608E-02  0.7223770E-01
         52   -1    0    0    0    0  0.00000000000E+00  0.00000000000E+00  0.64930732323E+04  0.65000000000E+04  0.30000000000E+03 0. -1.
        -52   -1    0    0    0    0 -0.00000000000E+00 -0.00000000000E+00 -0.64930732323E+04  0.65000000000E+04  0.30000000000E+03 0.  1.
     100001    1    1    2    0    0 -0.29383937709E+03 -0.64213475561E+03 -0.64597733030E+04  0.65000000000E+04  0.15050000000E+03 0.  1.
     100001    1    1    2    0    0  0.29383937709E+03  0.64213475561E+03  0.64597733030E+04  0.65000000000E+04  0.15050000000E+03 0. -1.
</event>
<event>
 4    1  0.4826743E-004  0.6500000E+04  0.7818608E-02  0.7223770E-01
         52   -1    0    0    0    0  0.00000000000E+00  0.00000000000E+00  0.64930732323E+04  0.65000000000E+04  0.30000000000E+03 0. -1.
        -52   -1    0    0    0    0 -0.00000000000E+00 -0.00000000000E+00 -0.64930732323E+04  0.65000000000E+04  0.30000000000E+03 0.  1.
     100001    1    1    2    0    0  0.36775388690E+04  0.18908540596E+04  0.50127565812E+04  0.65000000000E+04  0.15050000000E+03 0. -1.
     100001    1    1    2    0    0 -0.36775388690E+04 -0.18908540596E+04 -0.50127565812E+04  0.65000000000E+04  0.15050000000E+03 0.  1.
</event>
<event>
 4    1  0.4826743E-004  0.6500000E+04  0.7818608E-02  0.7223770E-01
         52   -1    0    0    0    0  0.00000000000E+00  0.00000000000E+00  0.64930732323E+04  0.65000000000E+04  0.30000000000E+03 0. -1.
        -52   -1    0    0    0    0 -0.00000000000E+00 -0.00000000000E+00 -0.64930732323E+04  0.65000000000E+04  0.30000000000E+03 0.  1.
     100001    1    1    2    0    0 -0.56588407838E+04 -0.13032607445E+04  0.29165702744E+04  0.65000000000E+04  0.15050000000E+03 0. -1.
     100001    1    1    2    0    0  0.56588407838E+04  0.13032607445E+04 -0.29165702744E+04  0.65000000000E+04  0.15050000000E+03 0.  1.
</event>
<event>
 4    1  0.4826743E-004  0.6500000E+04  0.7818608E-02  0.7223770E-01
         52   -1    0    0    0    0  0.00000000000E+00  0.00000000000E+00  0.64930732323E+04  0.65000000000E+04  0.30000000000E+03 0.  1.
        -52   -1    0    0    0    0 -0.00000000000E+00 -0.00000000000E+00 -0.64930732323E+04  0.65000000000E+04  0.30000000000E+03 0. -1.
     100001    1    1    2    0    0  0.20033423502E+03 -0.22208441182E+04  0.61036929270E+04  0.65000000000E+04  0.15050000000E+03 0.  1.
     100001    1    1    2    0    0 -0.20033423502E+03  0.22208441182E+04 -0.61036929270E+04  0.65000000000E+04  0.15050000000E+03 0. -1.
</event>
<event>
 4    1  0.4826743E-004  0.6500000E+04  0.7818608E-02  0.7223770E-01
         52   -1    0    0    0    0  0.00000000000E+00  0.00000000000E+00  0.64930732323E+04  0.65000000000E+04  0.30000000000E+03 0. -1.
        -52   -1    0    0    0    0 -0.00000000000E+00 -0.00000000000E+00 -0.64930732323E+04  0.65000000000E+04  0.30000000000E+03 0.  1.
     100001    1    1    2    0    0  0.41232851138E+03  0.21914880619E+04 -0.61036640654E+04  0.65000000000E+04  0.15050000000E+03 0.  1.
     100001    1    1    2    0    0 -0.41232851138E+03 -0.21914880619E+04  0.61036640654E+04  0.65000000000E+04  0.15050000000E+03 0. -1.
</event>
<event>
 4    1  0.4826743E-004  0.6500000E+04  0.7818608E-02  0.7223770E-01
         52   -1    0    0    0    0  0.00000000000E+00  0.00000000000E+00  0.64930732323E+04  0.65000000000E+04  0.30000000000E+03 0. -1.
        -52   -1    0    0    0    0 -0.00000000000E+00 -0.00000000000E+00 -0.64930732323E+04  0.65000000000E+04  0.30000000000E+03 0.  1.
     100001    1    1    2    0    0 -0.15919586422E+03  0.31341683288E+03  0.64887422753E+04  0.65000000000E+04  0.15050000000E+03 0. -1.
     100001    1    1    2    0    0  0.15919586422E+03 -0.31341683288E+03 -0.64887422753E+04  0.65000000000E+04  0.15050000000E+03 0.  1.
</event>
<event>
 4    1  0.4826743E-004  0.6500000E+04  0.7818608E-02  0.7223770E-01
         52   -1    0    0    0    0  0.00000000000E+00  0.00000000000E+00  0.64930732323E+04  0.65000000000E+04  0.30000000000E+03 0. -1.
        -52   -1    0    0    0    0 -0.00000000000E+00 -0.00000000000E+00 -0.64930732323E+04  0.65000000000E+04  0.30000000000E+03 0.  1.
     100001    1    1    2    0    0  0.21894077808E+04 -0.12774065527E+04  0.59834835855E+04  0.65000000000E+04  0.15050000000E+03 0. -1.
     100001    1    1    2    0    0 -0.21894077808E+04  0.12774065527E+04 -0.59834835855E+04  0.65000000000E+04  0.15050000000E+03 0.  1.
</event>
<event>
 4    1  0.4826743E-004  0.6500000E+04  0.7818608E-02  0.7223770E-01
         52   -1    0    0    0    0  0.00000000000E+00  0.00000000000E+00  0.64930732323E+04  0.65000000000E+04  0.30000000000E+03 0. -1.
        -52   -1    0    0    0    0 -0.00000000000E+00 -0.00000000000E+00 -0.64930732323E+04  0.65000000000E+04  0.30000000000E+03 0.  1.
     100001    1    1    2    0    0 -0.33292849644E+04 -0.22299864061E+04 -0.51156985842E+04  0.65000000000E+04  0.15050000000E+03 0.  1.
     100001    1    1    2    0    0  0.33292849644E+04  0.22299864061E+04  0.51156985842E+04  0.65000000000E+04  0.15050000000E+03 0. -1.
</event>
<event>
 4    1  0.4826743E-004  0.6500000E+04  0.7818608E-02  0.7223770E-01
         52   -1    0    0    0    0  0.00000000000E+00  0.00000000000E+00  0.64930732323E+04  0.65000000000E+04  0.30000000000E+03 0. -1.
        -52   -1    0    0    0    0 -0.00000000000E+00 -0.00000000000E+00 -0.64930732323E+04  0.65000000000E+04  0.30000000000E+03 0.  1.
     100001    1    1    2    0    0 -0.14856741008E+04 -0.19718732858E+03 -0.63230719887E+04  0.65000000000E+04  0.15050000000E+03 0.  1.
     100001    1    1    2    0    0  0.14856741008E+04  0.19718732858E+03  0.63230719887E+04  0.65000000000E+04  0.15050000000E+03 0. -1.
</event>
<event>
 4    1  0.4826743E-004  0.6500000E+04  0.7818608E-02  0.7223770E-01
         52   -1    0    0    0    0  0.00000000000E+00  0.00000000000E+00  0.64930732323E+04  0.65000000000E+04  0.30000000000E+03 0.  1.
        -52   -1    0    0    0    0 -0.00000000000E+00 -0.00000000000E+00 -0.64930732323E+04  0.65000000000E+04  0.30000000000E+03 0. -1.
     100001    1    1    2    0    0 -0.31037586546E+04  0.12897027625E+04 -0.55615374447E+04  0.65000000000E+04  0.15050000000E+03 0. -1.
     100001    1    1    2    0    0  0.31037586546E+04 -0.12897027625E+04  0.55615374447E+04  0.65000000000E+04  0.15050000000E+03 0.  1.
</event>
<event>
 4    1  0.4826743E-004  0.6500000E+04  0.7818608E-02  0.7223770E-01
         52   -1    0    0    0    0  0.00000000000E+00  0.00000000000E+00  0.64930732323E+04  0.65000000000E+04  0.30000000000E+03 0. -1.
        -52   -1    0    0    0    0 -0.00000000000E+00 -0.00000000000E+00 -0.64930732323E+04  0.65000000000E+04  0.30000000000E+03 0.  1.
     100001    1    1    2    0    0 -0.14860089503E+04  0.44527134533E+03  0.63103772137E+04  0.65000000000E+04  0.15050000000E+03 0. -1.
     100001    1    1    2    0    0  0.14860089503E+04 -0.44527134533E+03 -0.63103772137E+04  0.65000000000E+04  0.15050000000E+03 0.  1.
</event>
<event>
 4    1  0.4826743E-004  0.6500000E+04  0.7818608E-02  0.7223770E-01
         52   -1    0    0    0    0  0.00000000000E+00  0.00000000000E+00  0.64930732323E+04  0.65000000000E+04  0.30000000000E+03 0. -1.
        -52   -1    0    0    0    0 -0.00000000000E+00 -0.00000000000E+00 -0.64930732323E+04  0.65000000000E+04  0.30000000000E+03 0.  1.
     100001    1    1    2    0    0  0.13258890886E+04  0.68032578052E+03  0.63250711227E+04  0.65000000000E+04  0.15050000000E+03 0. -1.
     100001    1    1    2    0    0 -0.13258890886E+04 -0.68032578052E+03 -0.63250711227E+04  0.65000000000E+04  0.15050000000E+03 0.  1.
</event>
<event>
 4    1  0.4826743E-004  0.6500000E+04  0.7818608E-02  0.7223770E-01
         52   -1    0    0    0    0  0.00000000000E+00  0.00000000000E+00  0.64930732323E+04  0.65000000000E+04  0.30000000000E+03 0.  1.
        -52   -1    0    0    0    0 -0.00000000000E+00 -0.00000000000E+00 -0.64930732323E+04  0.65000000000E+04  0.30000000000E+03 0. -1.
     100001    1    1    2    0    0 -0.44225567201E+04  0.34064572800E+04  0.33263178752E+04  0.65000000000E+04  0.15050000000E+03 0. -1.
     100001    1    1    2    0    0  0.44225567201E+04 -0.34064572800E+04 -0.33263178752E+04  0.65000000000E+04  0.15050000000E+03 0.  1.
</event>
<event>
 4    1  0.4826743E-004  0.6500000E+04  0.7818608E-02  0.7223770E-01
         52   -1    0    0    0    0  0.00000000000E+00  0.00000000000E+00  0.64930732323E+04  0.65000000000E+04  0.30000000000E+03 0.  1.
        -52   -1    0    0    0    0 -0.00000000000E+00 -0.00000000000E+00 -0.64930732323E+04  0.65000000000E+04  0.30000000000E+03 0.  1.
     100001    1    1    2    0    0 -0.20396549703E+03  0.54756131381E+02  0.64948248315E+04  0.65000000000E+04  0.15050000000E+03 0.  1.
     100001    1    1    2    0    0  0.20396549703E+03 -0.54756131381E+02 -0.64948248315E+04  0.65000000000E+04  0.15050000000E+03 0.  1.
</event>
<event>
 4    1  0.4826743E-004  0.6500000E+04  0.7818608E-02  0.7223770E-01
         52   -1    0    0    0    0  0.00000000000E+00  0.00000000000E+00  0.64930732323E+04  0.65000000000E+04  0.30000000000E+03 0.  1.
        -52   -1    0    0    0    0 -0.00000000000E+00 -0.00000000000E+00 -0.64930732323E+04  0.65000000000E+04  0.30000000000E+03 0. -1.
     100001    1    1    2    0    0 -0.11163179374E+03 -0.63775132807E+03 -0.64659230846E+04  0.65000000000E+04  0.15050000000E+03 0. -1.
     100001    1    1    2    0    0  0.11163179374E+03  0.63775132807E+03  0.64659230846E+04  0.65000000000E+04  0.15050000000E+03 0.  1.
</event>
<event>
 4    1  0.4826743E-004  0.6500000E+04  0.7818608E-02  0.7223770E-01
         52   -1    0    0    0    0  0.00000000000E+00  0.00000000000E+00  0.64930732323E+04  0.65000000000E+04  0.30000000000E+03 0.  1.
        -52   -1    0    0    0    0 -0.00000000000E+00 -0.00000000000E+00 -0.64930732323E+04  0.65000000000E+04  0.30000000000E+03 0. -1.
     100001    1    1    2    0    0 -0.33299830032E+03  0.11957489773E+04  0.63786084897E+04  0.65000000000E+04  0.15050000000E+03 0.  1.
     100001    1    1    2    0    0  0.33299830032E+03 -0.11957489773E+04 -0.63786084897E+04  0.65000000000E+04  0.15050000000E+03 0. -1.
</event>
<event>
 4    1  0.4826743E-004  0.6500000E+04  0.7818608E-02  0.7223770E-01
         52   -1    0    0    0    0  0.00000000000E+00  0.00000000000E+00  0.64930732323E+04  0.65000000000E+04  0.30000000000E+03 0. -1.
        -52   -1    0    0    0    0 -0.00000000000E+00 -0.00000000000E+00 -0.64930732323E+04  0.65000000000E+04  0.30000000000E+03 0.  1.
     100001    1    1    2    0    0 -0.45140963173E+04 -0.34892507544E+04 -0.31105326490E+04  0.65000000000E+04  0.15050000000E+03 0. -1.
     100001    1    1    2    0    0  0.45140963173E+04  0.34892507544E+04  0.31105326490E+04  0.65000000000E+04  0.15050000000E+03 0.  1.
</event>
<event>
 4    1  0.4826743E-004  0.6500000E+04  0.7818608E-02  0.7223770E-01
         52   -1    0    0    0    0  0.00000000000E+00  0.00000000000E+00  0.64930732323E+04  0.65000000000E+04  0.30000000000E+03 0.  1.
        -52   -1    0    0    0    0 -0.00000000000E+00 -0.00000000000E+00 -0.64930732323E+04  0.65000000000E+04  0.30000000000E+03 0.  1.
     100001    1    1    2    0    0 -0.29516637835E+02  0.22821344525E+03 -0.64941817915E+04  0.65000000000E+04  0.15050000000E+03 0.  1.
     100001    1    1    2    0    0  0.29516637835E+02 -0.22821344525E+03  0.64941817915E+04  0.65000000000E+04  0.15050000000E+03 0.  1.
</event>
<event>
 4    1  0.4826743E-004  0.6500000E+04  0.7818608E-02  0.7223770E-01
         52   -1    0    0    0    0  0.00000000000E+00  0.00000000000E+00  0.64930732323E+04  0.65000000000E+04  0.30000000000E+03 0.  1.
        -52   -1    0    0    0    0 -0.00000000000E+00 -0.00000000000E+00 -0.64930732323E+04  0.65000000000E+04  0.30000000000E+03 0.  1.
     100001    1    1    2    0    0  0.34631351000E+03 -0.10666609586E+04 -0.64007539480E+04  0.65000000000E+04  0.15050000000E+03 0.  1.
     100001    1    1    2    0    0 -0.34631351000E+03  0.10666609586E+04  0.64007539480E+04  0.65000000000E+04  0.15050000000E+03 0.  1.
</event>
<event>
 4    1  0.5601025E-004  0.6500000E+04  0.7818608E-02  0.7223770E-01
         52   -1    0    0    0    0  0.00000000000E+00  0.00000000000E+00  0.64930732323E+04  0.65000000000E+04  0.30000000000E+03 0. -1.
        -52   -1    0    0    0    0 -0.00000000000E+00 -0.00000000000E+00 -0.64930732323E+04  0.65000000000E+04  0.30000000000E+03 0.  1.
     100001    1    1    2    0    0  0.19830933455E+03 -0.12641392068E+02 -0.64952184993E+04  0.65000000000E+04  0.15050000000E+03 0.  1.
     100001    1    1    2    0    0 -0.19830933455E+03  0.12641392068E+02  0.64952184993E+04  0.65000000000E+04  0.15050000000E+03 0. -1.
</event>
<event>
 4    1  0.4826743E-004  0.6500000E+04  0.7818608E-02  0.7223770E-01
         52   -1    0    0    0    0  0.00000000000E+00  0.00000000000E+00  0.64930732323E+04  0.65000000000E+04  0.30000000000E+03 0. -1.
        -52   -1    0    0    0    0 -0.00000000000E+00 -0.00000000000E+00 -0.64930732323E+04  0.65000000000E+04  0.30000000000E+03 0.  1.
     100001    1    1    2    0    0  0.38702170432E+04  0.12367535460E+04 -0.50714110911E+04  0.65000000000E+04  0.15050000000E+03 0.  1.
     100001    1    1    2    0    0 -0.38702170432E+04 -0.12367535460E+04  0.50714110911E+04  0.65000000000E+04  0.15050000000E+03 0. -1.
</event>
<event>
 4    1  0.4826743E-004  0.6500000E+04  0.7818608E-02  0.7223770E-01
         52   -1    0    0    0    0  0.00000000000E+00  0.00000000000E+00  0.64930732323E+04  0.65000000000E+04  0.30000000000E+03 0. -1.
        -52   -1    0    0    0    0 -0.00000000000E+00 -0.00000000000E+00 -0.64930732323E+04  0.65000000000E+04  0.30000000000E+03 0.  1.
     100001    1    1    2    0    0  0.22879140567E+04 -0.31137497203E+04 -0.52246877131E+04  0.65000000000E+04  0.15050000000E+03 0.  1.
     100001    1    1    2    0    0 -0.22879140567E+04  0.31137497203E+04  0.52246877131E+04  0.65000000000E+04  0.15050000000E+03 0. -1.
</event>
<event>
 4    1  0.4826743E-004  0.6500000E+04  0.7818608E-02  0.7223770E-01
         52   -1    0    0    0    0  0.00000000000E+00  0.00000000000E+00  0.64930732323E+04  0.65000000000E+04  0.30000000000E+03 0.  1.
        -52   -1    0    0    0    0 -0.00000000000E+00 -0.00000000000E+00 -0.64930732323E+04  0.65000000000E+04  0.30000000000E+03 0. -1.
     100001    1    1    2    0    0 -0.25916032403E+02  0.38491103333E+03 -0.64867959430E+04  0.65000000000E+04  0.15050000000E+03 0. -1.
     100001    1    1    2    0    0  0.25916032403E+02 -0.38491103333E+03  0.64867959430E+04  0.65000000000E+04  0.15050000000E+03 0.  1.
</event>
<event>
 4    1  0.6981368E-004  0.6500000E+04  0.7818608E-02  0.7223770E-01
         52   -1    0    0    0    0  0.00000000000E+00  0.00000000000E+00  0.64930732323E+04  0.65000000000E+04  0.30000000000E+03 0.  1.
        -52   -1    0    0    0    0 -0.00000000000E+00 -0.00000000000E+00 -0.64930732323E+04  0.65000000000E+04  0.30000000000E+03 0.  1.
     100001    1    1    2    0    0 -0.13408115553E+03 -0.73711678808E+02 -0.64964558478E+04  0.65000000000E+04  0.15050000000E+03 0.  1.
     100001    1    1    2    0    0  0.13408115553E+03  0.73711678808E+02  0.64964558478E+04  0.65000000000E+04  0.15050000000E+03 0.  1.
</event>
<event>
 4    1  0.4826743E-004  0.6500000E+04  0.7818608E-02  0.7223770E-01
         52   -1    0    0    0    0  0.00000000000E+00  0.00000000000E+00  0.64930732323E+04  0.65000000000E+04  0.30000000000E+03 0. -1.
        -52   -1    0    0    0    0 -0.00000000000E+00 -0.00000000000E+00 -0.64930732323E+04  0.65000000000E+04  0.30000000000E+03 0.  1.
     100001    1    1    2    0    0 -0.44267215604E+04  0.40384184077E+04 -0.25144905531E+04  0.65000000000E+04  0.15050000000E+03 0.  1.
     100001    1    1    2    0    0  0.44267215604E+04 -0.40384184077E+04  0.25144905531E+04  0.65000000000E+04  0.15050000000E+03 0. -1.
</event>
<event>
 4    1  0.4826743E-004  0.6500000E+04  0.7818608E-02  0.7223770E-01
         52   -1    0    0    0    0  0.00000000000E+00  0.00000000000E+00  0.64930732323E+04  0.65000000000E+04  0.30000000000E+03 0. -1.
        -52   -1    0    0    0    0 -0.00000000000E+00 -0.00000000000E+00 -0.64930732323E+04  0.65000000000E+04  0.30000000000E+03 0.  1.
     100001    1    1    2    0    0  0.23209327476E+03 -0.22819007054E+03 -0.64901010588E+04  0.65000000000E+04  0.15050000000E+03 0.  1.
     100001    1    1    2    0    0 -0.23209327476E+03  0.22819007054E+03  0.64901010588E+04  0.65000000000E+04  0.15050000000E+03 0. -1.
</event>
<event>
 4    1  0.4826743E-004  0.6500000E+04  0.7818608E-02  0.7223770E-01
         52   -1    0    0    0    0  0.00000000000E+00  0.00000000000E+00  0.64930732323E+04  0.65000000000E+04  0.30000000000E+03 0.  1.
        -52   -1    0    0    0    0 -0.00000000000E+00 -0.00000000000E+00 -0.64930732323E+04  0.65000000000E+04  0.30000000000E+03 0. -1.
     100001    1    1    2    0    0  0.46607347625E+04  0.29952774049E+04  0.33960586702E+04  0.65000000000E+04  0.15050000000E+03 0.  1.
     100001    1    1    2    0    0 -0.46607347625E+04 -0.29952774049E+04 -0.33960586702E+04  0.65000000000E+04  0.15050000000E+03 0. -1.
</event>
<event>
 4    1  0.4826743E-004  0.6500000E+04  0.7818608E-02  0.7223770E-01
         52   -1    0    0    0    0  0.00000000000E+00  0.00000000000E+00  0.64930732323E+04  0.65000000000E+04  0.30000000000E+03 0.  1.
        -52   -1    0    0    0    0 -0.00000000000E+00 -0.00000000000E+00 -0.64930732323E+04  0.65000000000E+04  0.30000000000E+03 0. -1.
     100001    1    1    2    0    0  0.88188710895E+03  0.44248368038E+04 -0.46765846658E+04  0.65000000000E+04  0.15050000000E+03 0. -1.
     100001    1    1    2    0    0 -0.88188710895E+03 -0.44248368038E+04  0.46765846658E+04  0.65000000000E+04  0.15050000000E+03 0.  1.
</event>
<event>
 4    1  0.4826743E-004  0.6500000E+04  0.7818608E-02  0.7223770E-01
         52   -1    0    0    0    0  0.00000000000E+00  0.00000000000E+00  0.64930732323E+04  0.65000000000E+04  0.30000000000E+03 0. -1.
        -52   -1    0    0    0    0 -0.00000000000E+00 -0.00000000000E+00 -0.64930732323E+04  0.65000000000E+04  0.30000000000E+03 0.  1.
     100001    1    1    2    0    0 -0.41079915725E+02  0.14255361321E+03 -0.64965637577E+04  0.65000000000E+04  0.15050000000E+03 0.  1.
     100001    1    1    2    0    0  0.41079915725E+02 -0.14255361321E+03  0.64965637577E+04  0.65000000000E+04  0.15050000000E+03 0. -1.
</event>
<event>
 4    1  0.4826743E-004  0.6500000E+04  0.7818608E-02  0.7223770E-01
         52   -1    0    0    0    0  0.00000000000E+00  0.00000000000E+00  0.64930732323E+04  0.65000000000E+04  0.30000000000E+03 0.  1.
        -52   -1    0    0    0    0 -0.00000000000E+00 -0.00000000000E+00 -0.64930732323E+04  0.65000000000E+04  0.30000000000E+03 0. -1.
     100001    1    1    2    0    0 -0.37166262657E+03  0.45456301270E+03 -0.64716759120E+04  0.65000000000E+04  0.15050000000E+03 0. -1.
     100001    1    1    2    0    0  0.37166262657E+03 -0.45456301270E+03  0.64716759120E+04  0.65000000000E+04  0.15050000000E+03 0.  1.
</event>
<event>
 4    1  0.4826743E-004  0.6500000E+04  0.7818608E-02  0.7223770E-01
         52   -1    0    0    0    0  0.00000000000E+00  0.00000000000E+00  0.64930732323E+04  0.65000000000E+04  0.30000000000E+03 0.  1.
        -52   -1    0    0    0    0 -0.00000000000E+00 -0.00000000000E+00 -0.64930732323E+04  0.65000000000E+04  0.30000000000E+03 0.  1.
     100001    1    1    2    0    0 -0.18009472056E+03  0.84045762027E+03  0.64411603481E+04  0.65000000000E+04  0.15050000000E+03 0.  1.
     100001    1    1    2    0    0  0.18009472056E+03 -0.84045762027E+03 -0.64411603481E+04  0.65000000000E+04  0.15050000000E+03 0.  1.
</event>
<event>
 4    1  0.4826743E-004  0.6500000E+04  0.7818608E-02  0.7223770E-01
         52   -1    0    0    0    0  0.00000000000E+00  0.00000000000E+00  0.64930732323E+04  0.65000000000E+04  0.30000000000E+03 0.  1.
        -52   -1    0    0    0    0 -0.00000000000E+00 -0.00000000000E+00 -0.64930732323E+04  0.65000000000E+04  0.30000000000E+03 0. -1.
     100001    1    1    2    0    0 -0.34090523775E+04  0.26836632561E+03  0.55257299204E+04  0.65000000000E+04  0.15050000000E+03 0.  1.
     100001    1    1    2    0    0  0.34090523775E+04 -0.26836632561E+03 -0.55257299204E+04  0.65000000000E+04  0.15050000000E+03 0. -1.
</event>
<event>
 4    1  0.4826743E-004  0.6500000E+04  0.7818608E-02  0.7223770E-01
         52   -1    0    0    0    0  0.00000000000E+00  0.00000000000E+00  0.64930732323E+04  0.65000000000E+04  0.30000000000E+03 0.  1.
        -52   -1    0    0    0    0 -0.00000000000E+00 -0.00000000000E+00 -0.64930732323E+04  0.65000000000E+04  0.30000000000E+03 0.  1.
     100001    1    1    2    0    0 -0.17820625978E+03 -0.37055714924E+03  0.64852355145E+04  0.65000000000E+04  0.15050000000E+03 0.  1.
     100001    1    1    2    0    0  0.17820625978E+03  0.37055714924E+03 -0.64852355145E+04  0.65000000000E+04  0.15050000000E+03 0.  1.
</event>
<event>
 4    1  0.4826743E-004  0.6500000E+04  0.7818608E-02  0.7223770E-01
         52   -1    0    0    0    0  0.00000000000E+00  0.00000000000E+00  0.64930732323E+04  0.65000000000E+04  0.30000000000E+03 0.  1.
        -52   -1    0    0    0    0 -0.00000000000E+00 -0.00000000000E+00 -0.64930732323E+04  0.65000000000E+04  0.30000000000E+03 0. -1.
     100001    1    1    2    0    0  0.98413991255E+03 -0.26731891390E+03 -0.64177378398E+04  0.65000000000E+04  0.15050000000E+03 0. -1.
     100001    1    1    2    0    0 -0.98413991255E+03  0.26731891390E+03  0.64177378398E+04  0.65000000000E+04  0.15050000000E+03 0.  1.
</event>
<event>
 4    1  0.4826743E-004  0.6500000E+04  0.7818608E-02  0.7223770E-01
         52   -1    0    0    0    0  0.00000000000E+00  0.00000000000E+00  0.64930732323E+04  0.65000000000E+04  0.30000000000E+03 0. -1.
        -52   -1    0    0    0    0 -0.00000000000E+00 -0.00000000000E+00 -0.64930732323E+04  0.65000000000E+04  0.30000000000E+03 0.  1.
     100001    1    1    2    0    0 -0.61288806539E+04 -0.21532564296E+04 -0.16630823450E+03  0.65000000000E+04  0.15050000000E+03 0.  1.
     100001    1    1    2    0    0  0.61288806539E+04  0.21532564296E+04  0.16630823450E+03  0.65000000000E+04  0.15050000000E+03 0. -1.
</event>
<event>
 4    1  0.4826743E-004  0.6500000E+04  0.7818608E-02  0.7223770E-01
         52   -1    0    0    0    0  0.00000000000E+00  0.00000000000E+00  0.64930732323E+04  0.65000000000E+04  0.30000000000E+03 0.  1.
        -52   -1    0    0    0    0 -0.00000000000E+00 -0.00000000000E+00 -0.64930732323E+04  0.65000000000E+04  0.30000000000E+03 0.  1.
     100001    1    1    2    0    0 -0.13344506896E+03 -0.37703562572E+02  0.64967777094E+04  0.65000000000E+04  0.15050000000E+03 0.  1.
     100001    1    1    2    0    0  0.13344506896E+03  0.37703562572E+02 -0.64967777094E+04  0.65000000000E+04  0.15050000000E+03 0.  1.
</event>
<event>
 4    1  0.4826743E-004  0.6500000E+04  0.7818608E-02  0.7223770E-01
         52   -1    0    0    0    0  0.00000000000E+00  0.00000000000E+00  0.64930732323E+04  0.65000000000E+04  0.30000000000E+03 0.  1.
        -52   -1    0    0    0    0 -0.00000000000E+00 -0.00000000000E+00 -0.64930732323E+04  0.65000000000E+04  0.30000000000E+03 0. -1.
     100001    1    1    2    0    0 -0.16013126434E+01 -0.36309787293E+03  0.64881050485E+04  0.65000000000E+04  0.15050000000E+03 0.  1.
     100001    1    1    2    0    0  0.16013126434E+01  0.36309787293E+03 -0.64881050485E+04  0.65000000000E+04  0.15050000000E+03 0. -1.
</event>
<event>
 4    1  0.4826743E-004  0.6500000E+04  0.7818608E-02  0.7223770E-01
         52   -1    0    0    0    0  0.00000000000E+00  0.00000000000E+00  0.64930732323E+04  0.65000000000E+04  0.30000000000E+03 0. -1.
        -52   -1    0    0    0    0 -0.00000000000E+00 -0.00000000000E+00 -0.64930732323E+04  0.65000000000E+04  0.30000000000E+03 0.  1.
     100001    1    1    2    0    0 -0.23026511098E+04 -0.38280064363E+03 -0.60645371863E+04  0.65000000000E+04  0.15050000000E+03 0.  1.
     100001    1    1    2    0    0  0.23026511098E+04  0.38280064363E+03  0.60645371863E+04  0.65000000000E+04  0.15050000000E+03 0. -1.
</event>
<event>
 4    1  0.4826743E-004  0.6500000E+04  0.7818608E-02  0.7223770E-01
         52   -1    0    0    0    0  0.00000000000E+00  0.00000000000E+00  0.64930732323E+04  0.65000000000E+04  0.30000000000E+03 0. -1.
        -52   -1    0    0    0    0 -0.00000000000E+00 -0.00000000000E+00 -0.64930732323E+04  0.65000000000E+04  0.30000000000E+03 0.  1.
     100001    1    1    2    0    0 -0.14492927942E+04 -0.30397276035E+03 -0.63272822529E+04  0.65000000000E+04  0.15050000000E+03 0.  1.
     100001    1    1    2    0    0  0.14492927942E+04  0.30397276035E+03  0.63272822529E+04  0.65000000000E+04  0.15050000000E+03 0. -1.
</event>
<event>
 4    1  0.4826743E-004  0.6500000E+04  0.7818608E-02  0.7223770E-01
         52   -1    0    0    0    0  0.00000000000E+00  0.00000000000E+00  0.64930732323E+04  0.65000000000E+04  0.30000000000E+03 0.  1.
        -52   -1    0    0    0    0 -0.00000000000E+00 -0.00000000000E+00 -0.64930732323E+04  0.65000000000E+04  0.30000000000E+03 0. -1.
     100001    1    1    2    0    0 -0.32483802346E+04 -0.27491584209E+03  0.56213696624E+04  0.65000000000E+04  0.15050000000E+03 0.  1.
     100001    1    1    2    0    0  0.32483802346E+04  0.27491584209E+03 -0.56213696624E+04  0.65000000000E+04  0.15050000000E+03 0. -1.
</event>
<event>
 4    1  0.4826743E-004  0.6500000E+04  0.7818608E-02  0.7223770E-01
         52   -1    0    0    0    0  0.00000000000E+00  0.00000000000E+00  0.64930732323E+04  0.65000000000E+04  0.30000000000E+03 0. -1.
        -52   -1    0    0    0    0 -0.00000000000E+00 -0.00000000000E+00 -0.64930732323E+04  0.65000000000E+04  0.30000000000E+03 0.  1.
     100001    1    1    2    0    0  0.30635050540E+04 -0.13067129590E+04  0.55798555337E+04  0.65000000000E+04  0.15050000000E+03 0. -1.
     100001    1    1    2    0    0 -0.30635050540E+04  0.13067129590E+04 -0.55798555337E+04  0.65000000000E+04  0.15050000000E+03 0.  1.
</event>
<event>
 4    1  0.4826743E-004  0.6500000E+04  0.7818608E-02  0.7223770E-01
         52   -1    0    0    0    0  0.00000000000E+00  0.00000000000E+00  0.64930732323E+04  0.65000000000E+04  0.30000000000E+03 0.  1.
        -52   -1    0    0    0    0 -0.00000000000E+00 -0.00000000000E+00 -0.64930732323E+04  0.65000000000E+04  0.30000000000E+03 0. -1.
     100001    1    1    2    0    0 -0.37645358333E+04  0.27858574706E+04  0.45049548125E+04  0.65000000000E+04  0.15050000000E+03 0.  1.
     100001    1    1    2    0    0  0.37645358333E+04 -0.27858574706E+04 -0.45049548125E+04  0.65000000000E+04  0.15050000000E+03 0. -1.
</event>
<event>
 4    1  0.4826743E-004  0.6500000E+04  0.7818608E-02  0.7223770E-01
         52   -1    0    0    0    0  0.00000000000E+00  0.00000000000E+00  0.64930732323E+04  0.65000000000E+04  0.30000000000E+03 0.  1.
        -52   -1    0    0    0    0 -0.00000000000E+00 -0.00000000000E+00 -0.64930732323E+04  0.65000000000E+04  0.30000000000E+03 0. -1.
     100001    1    1    2    0    0  0.38398329304E+03 -0.13418579796E+03  0.64855146868E+04  0.65000000000E+04  0.15050000000E+03 0.  1.
     100001    1    1    2    0    0 -0.38398329304E+03  0.13418579796E+03 -0.64855146868E+04  0.65000000000E+04  0.15050000000E+03 0. -1.
</event>
<event>
 4    1  0.4826743E-004  0.6500000E+04  0.7818608E-02  0.7223770E-01
         52   -1    0    0    0    0  0.00000000000E+00  0.00000000000E+00  0.64930732323E+04  0.65000000000E+04  0.30000000000E+03 0.  1.
        -52   -1    0    0    0    0 -0.00000000000E+00 -0.00000000000E+00 -0.64930732323E+04  0.65000000000E+04  0.30000000000E+03 0. -1.
     100001    1    1    2    0    0 -0.60859010766E+03  0.13850111850E+04  0.63197082091E+04  0.65000000000E+04  0.15050000000E+03 0.  1.
     100001    1    1    2    0    0  0.60859010766E+03 -0.13850111850E+04 -0.63197082091E+04  0.65000000000E+04  0.15050000000E+03 0. -1.
</event>
<event>
 4    1  0.4826743E-004  0.6500000E+04  0.7818608E-02  0.7223770E-01
         52   -1    0    0    0    0  0.00000000000E+00  0.00000000000E+00  0.64930732323E+04  0.65000000000E+04  0.30000000000E+03 0. -1.
        -52   -1    0    0    0    0 -0.00000000000E+00 -0.00000000000E+00 -0.64930732323E+04  0.65000000000E+04  0.30000000000E+03 0.  1.
     100001    1    1    2    0    0  0.26213265157E+04 -0.34957090110E+04 -0.48099912223E+04  0.65000000000E+04  0.15050000000E+03 0.  1.
     100001    1    1    2    0    0 -0.26213265157E+04  0.34957090110E+04  0.48099912223E+04  0.65000000000E+04  0.15050000000E+03 0. -1.
</event>
<event>
 4    1  0.4826743E-004  0.6500000E+04  0.7818608E-02  0.7223770E-01
         52   -1    0    0    0    0  0.00000000000E+00  0.00000000000E+00  0.64930732323E+04  0.65000000000E+04  0.30000000000E+03 0. -1.
        -52   -1    0    0    0    0 -0.00000000000E+00 -0.00000000000E+00 -0.64930732323E+04  0.65000000000E+04  0.30000000000E+03 0.  1.
     100001    1    1    2    0    0 -0.14912169491E+04 -0.88668784026E+03  0.62623802531E+04  0.65000000000E+04  0.15050000000E+03 0. -1.
     100001    1    1    2    0    0  0.14912169491E+04  0.88668784026E+03 -0.62623802531E+04  0.65000000000E+04  0.15050000000E+03 0.  1.
</event>
<event>
 4    1  0.4826743E-004  0.6500000E+04  0.7818608E-02  0.7223770E-01
         52   -1    0    0    0    0  0.00000000000E+00  0.00000000000E+00  0.64930732323E+04  0.65000000000E+04  0.30000000000E+03 0. -1.
        -52   -1    0    0    0    0 -0.00000000000E+00 -0.00000000000E+00 -0.64930732323E+04  0.65000000000E+04  0.30000000000E+03 0.  1.
     100001    1    1    2    0    0 -0.55101506872E+03 -0.80727989532E+03 -0.64243311959E+04  0.65000000000E+04  0.15050000000E+03 0.  1.
     100001    1    1    2    0    0  0.55101506872E+03  0.80727989532E+03  0.64243311959E+04  0.65000000000E+04  0.15050000000E+03 0. -1.
</event>
<event>
 4    1  0.4826743E-004  0.6500000E+04  0.7818608E-02  0.7223770E-01
         52   -1    0    0    0    0  0.00000000000E+00  0.00000000000E+00  0.64930732323E+04  0.65000000000E+04  0.30000000000E+03 0.  1.
        -52   -1    0    0    0    0 -0.00000000000E+00 -0.00000000000E+00 -0.64930732323E+04  0.65000000000E+04  0.30000000000E+03 0. -1.
     100001    1    1    2    0    0 -0.16297139740E+04  0.52564079129E+03 -0.62685790951E+04  0.65000000000E+04  0.15050000000E+03 0. -1.
     100001    1    1    2    0    0  0.16297139740E+04 -0.52564079129E+03  0.62685790951E+04  0.65000000000E+04  0.15050000000E+03 0.  1.
</event>
<event>
 4    1  0.4826743E-004  0.6500000E+04  0.7818608E-02  0.7223770E-01
         52   -1    0    0    0    0  0.00000000000E+00  0.00000000000E+00  0.64930732323E+04  0.65000000000E+04  0.30000000000E+03 0. -1.
        -52   -1    0    0    0    0 -0.00000000000E+00 -0.00000000000E+00 -0.64930732323E+04  0.65000000000E+04  0.30000000000E+03 0.  1.
     100001    1    1    2    0    0 -0.25169673845E+03 -0.26972941070E+03  0.64877765488E+04  0.65000000000E+04  0.15050000000E+03 0. -1.
     100001    1    1    2    0    0  0.25169673845E+03  0.26972941070E+03 -0.64877765488E+04  0.65000000000E+04  0.15050000000E+03 0.  1.
</event>
<event>
 4    1  0.4826743E-004  0.6500000E+04  0.7818608E-02  0.7223770E-01
         52   -1    0    0    0    0  0.00000000000E+00  0.00000000000E+00  0.64930732323E+04  0.65000000000E+04  0.30000000000E+03 0. -1.
        -52   -1    0    0    0    0 -0.00000000000E+00 -0.00000000000E+00 -0.64930732323E+04  0.65000000000E+04  0.30000000000E+03 0.  1.
     100001    1    1    2    0    0 -0.22729675322E+04  0.30080203615E+04 -0.52927102559E+04  0.65000000000E+04  0.15050000000E+03 0.  1.
     100001    1    1    2    0    0  0.22729675322E+04 -0.30080203615E+04  0.52927102559E+04  0.65000000000E+04  0.15050000000E+03 0. -1.
</event>
<event>
 4    1  0.4826743E-004  0.6500000E+04  0.7818608E-02  0.7223770E-01
         52   -1    0    0    0    0  0.00000000000E+00  0.00000000000E+00  0.64930732323E+04  0.65000000000E+04  0.30000000000E+03 0. -1.
        -52   -1    0    0    0    0 -0.00000000000E+00 -0.00000000000E+00 -0.64930732323E+04  0.65000000000E+04  0.30000000000E+03 0.  1.
     100001    1    1    2    0    0 -0.35252753114E+03  0.52210663492E+03 -0.64676486262E+04  0.65000000000E+04  0.15050000000E+03 0.  1.
     100001    1    1    2    0    0  0.35252753114E+03 -0.52210663492E+03  0.64676486262E+04  0.65000000000E+04  0.15050000000E+03 0. -1.
</event>
<event>
 4    1  0.4826743E-004  0.6500000E+04  0.7818608E-02  0.7223770E-01
         52   -1    0    0    0    0  0.00000000000E+00  0.00000000000E+00  0.64930732323E+04  0.65000000000E+04  0.30000000000E+03 0.  1.
        -52   -1    0    0    0    0 -0.00000000000E+00 -0.00000000000E+00 -0.64930732323E+04  0.65000000000E+04  0.30000000000E+03 0. -1.
     100001    1    1    2    0    0 -0.10642644960E+04 -0.10426680289E+04 -0.63251509242E+04  0.65000000000E+04  0.15050000000E+03 0. -1.
     100001    1    1    2    0    0  0.10642644960E+04  0.10426680289E+04  0.63251509242E+04  0.65000000000E+04  0.15050000000E+03 0.  1.
</event>
<event>
 4    1  0.4826743E-004  0.6500000E+04  0.7818608E-02  0.7223770E-01
         52   -1    0    0    0    0  0.00000000000E+00  0.00000000000E+00  0.64930732323E+04  0.65000000000E+04  0.30000000000E+03 0. -1.
        -52   -1    0    0    0    0 -0.00000000000E+00 -0.00000000000E+00 -0.64930732323E+04  0.65000000000E+04  0.30000000000E+03 0.  1.
     100001    1    1    2    0    0 -0.13596130286E+04 -0.37164335980E+03 -0.63435544749E+04  0.65000000000E+04  0.15050000000E+03 0.  1.
     100001    1    1    2    0    0  0.13596130286E+04  0.37164335980E+03  0.63435544749E+04  0.65000000000E+04  0.15050000000E+03 0. -1.
</event>
<event>
 4    1  0.4826743E-004  0.6500000E+04  0.7818608E-02  0.7223770E-01
         52   -1    0    0    0    0  0.00000000000E+00  0.00000000000E+00  0.64930732323E+04  0.65000000000E+04  0.30000000000E+03 0.  1.
        -52   -1    0    0    0    0 -0.00000000000E+00 -0.00000000000E+00 -0.64930732323E+04  0.65000000000E+04  0.30000000000E+03 0. -1.
     100001    1    1    2    0    0  0.21062773479E+03 -0.10107556954E+03  0.64940564701E+04  0.65000000000E+04  0.15050000000E+03 0.  1.
     100001    1    1    2    0    0 -0.21062773479E+03  0.10107556954E+03 -0.64940564701E+04  0.65000000000E+04  0.15050000000E+03 0. -1.
</event>
<event>
 4    1  0.4826743E-004  0.6500000E+04  0.7818608E-02  0.7223770E-01
         52   -1    0    0    0    0  0.00000000000E+00  0.00000000000E+00  0.64930732323E+04  0.65000000000E+04  0.30000000000E+03 0. -1.
        -52   -1    0    0    0    0 -0.00000000000E+00 -0.00000000000E+00 -0.64930732323E+04  0.65000000000E+04  0.30000000000E+03 0.  1.
     100001    1    1    2    0    0  0.11369966615E+04  0.16912869845E+03  0.63957785941E+04  0.65000000000E+04  0.15050000000E+03 0. -1.
     100001    1    1    2    0    0 -0.11369966615E+04 -0.16912869845E+03 -0.63957785941E+04  0.65000000000E+04  0.15050000000E+03 0.  1.
</event>
<event>
 4    1  0.4826743E-004  0.6500000E+04  0.7818608E-02  0.7223770E-01
         52   -1    0    0    0    0  0.00000000000E+00  0.00000000000E+00  0.64930732323E+04  0.65000000000E+04  0.30000000000E+03 0.  1.
        -52   -1    0    0    0    0 -0.00000000000E+00 -0.00000000000E+00 -0.64930732323E+04  0.65000000000E+04  0.30000000000E+03 0. -1.
     100001    1    1    2    0    0  0.14245776445E+04 -0.75452436812E+03  0.62951267869E+04  0.65000000000E+04  0.15050000000E+03 0.  1.
     100001    1    1    2    0    0 -0.14245776445E+04  0.75452436812E+03 -0.62951267869E+04  0.65000000000E+04  0.15050000000E+03 0. -1.
</event>
<event>
 4    1  0.4826743E-004  0.6500000E+04  0.7818608E-02  0.7223770E-01
         52   -1    0    0    0    0  0.00000000000E+00  0.00000000000E+00  0.64930732323E+04  0.65000000000E+04  0.30000000000E+03 0.  1.
        -52   -1    0    0    0    0 -0.00000000000E+00 -0.00000000000E+00 -0.64930732323E+04  0.65000000000E+04  0.30000000000E+03 0. -1.
     100001    1    1    2    0    0 -0.26027786468E+03  0.25634770712E+03  0.64879805052E+04  0.65000000000E+04  0.15050000000E+03 0.  1.
     100001    1    1    2    0    0  0.26027786468E+03 -0.25634770712E+03 -0.64879805052E+04  0.65000000000E+04  0.15050000000E+03 0. -1.
</event>
<event>
 4    1  0.4826743E-004  0.6500000E+04  0.7818608E-02  0.7223770E-01
         52   -1    0    0    0    0  0.00000000000E+00  0.00000000000E+00  0.64930732323E+04  0.65000000000E+04  0.30000000000E+03 0.  1.
        -52   -1    0    0    0    0 -0.00000000000E+00 -0.00000000000E+00 -0.64930732323E+04  0.65000000000E+04  0.30000000000E+03 0. -1.
     100001    1    1    2    0    0 -0.12892704843E+04 -0.12481447741E+04 -0.62455797162E+04  0.65000000000E+04  0.15050000000E+03 0. -1.
     100001    1    1    2    0    0  0.12892704843E+04  0.12481447741E+04  0.62455797162E+04  0.65000000000E+04  0.15050000000E+03 0.  1.
</event>
<event>
 4    1  0.4826743E-004  0.6500000E+04  0.7818608E-02  0.7223770E-01
         52   -1    0    0    0    0  0.00000000000E+00  0.00000000000E+00  0.64930732323E+04  0.65000000000E+04  0.30000000000E+03 0. -1.
        -52   -1    0    0    0    0 -0.00000000000E+00 -0.00000000000E+00 -0.64930732323E+04  0.65000000000E+04  0.30000000000E+03 0.  1.
     100001    1    1    2    0    0 -0.91541228950E+03 -0.44121745976E+04 -0.46821026698E+04  0.65000000000E+04  0.15050000000E+03 0.  1.
     100001    1    1    2    0    0  0.91541228950E+03  0.44121745976E+04  0.46821026698E+04  0.65000000000E+04  0.15050000000E+03 0. -1.
</event>
<event>
 4    1  0.4826743E-004  0.6500000E+04  0.7818608E-02  0.7223770E-01
         52   -1    0    0    0    0  0.00000000000E+00  0.00000000000E+00  0.64930732323E+04  0.65000000000E+04  0.30000000000E+03 0. -1.
        -52   -1    0    0    0    0 -0.00000000000E+00 -0.00000000000E+00 -0.64930732323E+04  0.65000000000E+04  0.30000000000E+03 0.  1.
     100001    1    1    2    0    0 -0.58680173257E+03 -0.12073769412E+04  0.63580857495E+04  0.65000000000E+04  0.15050000000E+03 0. -1.
     100001    1    1    2    0    0  0.58680173257E+03  0.12073769412E+04 -0.63580857495E+04  0.65000000000E+04  0.15050000000E+03 0.  1.
</event>
<event>
 4    1  0.4826743E-004  0.6500000E+04  0.7818608E-02  0.7223770E-01
         52   -1    0    0    0    0  0.00000000000E+00  0.00000000000E+00  0.64930732323E+04  0.65000000000E+04  0.30000000000E+03 0. -1.
        -52   -1    0    0    0    0 -0.00000000000E+00 -0.00000000000E+00 -0.64930732323E+04  0.65000000000E+04  0.30000000000E+03 0.  1.
     100001    1    1    2    0    0  0.15250857447E+04 -0.14386964015E+04 -0.61507410843E+04  0.65000000000E+04  0.15050000000E+03 0.  1.
     100001    1    1    2    0    0 -0.15250857447E+04  0.14386964015E+04  0.61507410843E+04  0.65000000000E+04  0.15050000000E+03 0. -1.
</event>
<event>
 4    1  0.4826743E-004  0.6500000E+04  0.7818608E-02  0.7223770E-01
         52   -1    0    0    0    0  0.00000000000E+00  0.00000000000E+00  0.64930732323E+04  0.65000000000E+04  0.30000000000E+03 0.  1.
        -52   -1    0    0    0    0 -0.00000000000E+00 -0.00000000000E+00 -0.64930732323E+04  0.65000000000E+04  0.30000000000E+03 0. -1.
     100001    1    1    2    0    0  0.54618061307E+04 -0.37708887792E+03  0.35005467457E+04  0.65000000000E+04  0.15050000000E+03 0. -1.
     100001    1    1    2    0    0 -0.54618061307E+04  0.37708887792E+03 -0.35005467457E+04  0.65000000000E+04  0.15050000000E+03 0.  1.
</event>
<event>
 4    1  0.4826743E-004  0.6500000E+04  0.7818608E-02  0.7223770E-01
         52   -1    0    0    0    0  0.00000000000E+00  0.00000000000E+00  0.64930732323E+04  0.65000000000E+04  0.30000000000E+03 0.  1.
        -52   -1    0    0    0    0 -0.00000000000E+00 -0.00000000000E+00 -0.64930732323E+04  0.65000000000E+04  0.30000000000E+03 0. -1.
     100001    1    1    2    0    0 -0.52591262311E+04 -0.37612999386E+04 -0.64927945243E+03  0.65000000000E+04  0.15050000000E+03 0. -1.
     100001    1    1    2    0    0  0.52591262311E+04  0.37612999386E+04  0.64927945243E+03  0.65000000000E+04  0.15050000000E+03 0.  1.
</event>
<event>
 4    1  0.4826743E-004  0.6500000E+04  0.7818608E-02  0.7223770E-01
         52   -1    0    0    0    0  0.00000000000E+00  0.00000000000E+00  0.64930732323E+04  0.65000000000E+04  0.30000000000E+03 0. -1.
        -52   -1    0    0    0    0 -0.00000000000E+00 -0.00000000000E+00 -0.64930732323E+04  0.65000000000E+04  0.30000000000E+03 0.  1.
     100001    1    1    2    0    0 -0.90137790267E+03  0.14849435404E+04  0.62617737350E+04  0.65000000000E+04  0.15050000000E+03 0. -1.
     100001    1    1    2    0    0  0.90137790267E+03 -0.14849435404E+04 -0.62617737350E+04  0.65000000000E+04  0.15050000000E+03 0.  1.
</event>
<event>
 4    1  0.4826743E-004  0.6500000E+04  0.7818608E-02  0.7223770E-01
         52   -1    0    0    0    0  0.00000000000E+00  0.00000000000E+00  0.64930732323E+04  0.65000000000E+04  0.30000000000E+03 0.  1.
        -52   -1    0    0    0    0 -0.00000000000E+00 -0.00000000000E+00 -0.64930732323E+04  0.65000000000E+04  0.30000000000E+03 0. -1.
     100001    1    1    2    0    0  0.18727790870E+04  0.26648477997E+03  0.62168347335E+04  0.65000000000E+04  0.15050000000E+03 0.  1.
     100001    1    1    2    0    0 -0.18727790870E+04 -0.26648477997E+03 -0.62168347335E+04  0.65000000000E+04  0.15050000000E+03 0. -1.
</event>
<event>
 4    1  0.4826743E-004  0.6500000E+04  0.7818608E-02  0.7223770E-01
         52   -1    0    0    0    0  0.00000000000E+00  0.00000000000E+00  0.64930732323E+04  0.65000000000E+04  0.30000000000E+03 0.  1.
        -52   -1    0    0    0    0 -0.00000000000E+00 -0.00000000000E+00 -0.64930732323E+04  0.65000000000E+04  0.30000000000E+03 0.  1.
     100001    1    1    2    0    0 -0.17926695274E+03 -0.76555704992E+03  0.64505143603E+04  0.65000000000E+04  0.15050000000E+03 0.  1.
     100001    1    1    2    0    0  0.17926695274E+03  0.76555704992E+03 -0.64505143603E+04  0.65000000000E+04  0.15050000000E+03 0.  1.
</event>
<event>
 4    1  0.4826743E-004  0.6500000E+04  0.7818608E-02  0.7223770E-01
         52   -1    0    0    0    0  0.00000000000E+00  0.00000000000E+00  0.64930732323E+04  0.65000000000E+04  0.30000000000E+03 0.  1.
        -52   -1    0    0    0    0 -0.00000000000E+00 -0.00000000000E+00 -0.64930732323E+04  0.65000000000E+04  0.30000000000E+03 0.  1.
     100001    1    1    2    0    0  0.39720134391E+02 -0.13021334920E+03 -0.64968312695E+04  0.65000000000E+04  0.15050000000E+03 0.  1.
     100001    1    1    2    0    0 -0.39720134391E+02  0.13021334920E+03  0.64968312695E+04  0.65000000000E+04  0.15050000000E+03 0.  1.
</event>
<event>
 4    1  0.4826743E-004  0.6500000E+04  0.7818608E-02  0.7223770E-01
         52   -1    0    0    0    0  0.00000000000E+00  0.00000000000E+00  0.64930732323E+04  0.65000000000E+04  0.30000000000E+03 0.  1.
        -52   -1    0    0    0    0 -0.00000000000E+00 -0.00000000000E+00 -0.64930732323E+04  0.65000000000E+04  0.30000000000E+03 0. -1.
     100001    1    1    2    0    0 -0.40872949274E+03  0.47485099009E+03 -0.64679831856E+04  0.65000000000E+04  0.15050000000E+03 0. -1.
     100001    1    1    2    0    0  0.40872949274E+03 -0.47485099009E+03  0.64679831856E+04  0.65000000000E+04  0.15050000000E+03 0.  1.
</event>
<event>
 4    1  0.4826743E-004  0.6500000E+04  0.7818608E-02  0.7223770E-01
         52   -1    0    0    0    0  0.00000000000E+00  0.00000000000E+00  0.64930732323E+04  0.65000000000E+04  0.30000000000E+03 0. -1.
        -52   -1    0    0    0    0 -0.00000000000E+00 -0.00000000000E+00 -0.64930732323E+04  0.65000000000E+04  0.30000000000E+03 0.  1.
     100001    1    1    2    0    0  0.42022558801E+04  0.11126687912E+04 -0.48301514913E+04  0.65000000000E+04  0.15050000000E+03 0.  1.
     100001    1    1    2    0    0 -0.42022558801E+04 -0.11126687912E+04  0.48301514913E+04  0.65000000000E+04  0.15050000000E+03 0. -1.
</event>
<event>
 4    1  0.4826743E-004  0.6500000E+04  0.7818608E-02  0.7223770E-01
         52   -1    0    0    0    0  0.00000000000E+00  0.00000000000E+00  0.64930732323E+04  0.65000000000E+04  0.30000000000E+03 0. -1.
        -52   -1    0    0    0    0 -0.00000000000E+00 -0.00000000000E+00 -0.64930732323E+04  0.65000000000E+04  0.30000000000E+03 0.  1.
     100001    1    1    2    0    0  0.50760315951E+04 -0.13226208680E+04  0.38356129934E+04  0.65000000000E+04  0.15050000000E+03 0. -1.
     100001    1    1    2    0    0 -0.50760315951E+04  0.13226208680E+04 -0.38356129934E+04  0.65000000000E+04  0.15050000000E+03 0.  1.
</event>
<event>
 4    1  0.4826743E-004  0.6500000E+04  0.7818608E-02  0.7223770E-01
         52   -1    0    0    0    0  0.00000000000E+00  0.00000000000E+00  0.64930732323E+04  0.65000000000E+04  0.30000000000E+03 0. -1.
        -52   -1    0    0    0    0 -0.00000000000E+00 -0.00000000000E+00 -0.64930732323E+04  0.65000000000E+04  0.30000000000E+03 0.  1.
     100001    1    1    2    0    0  0.45831502447E+04  0.13291576286E+04  0.44108302600E+04  0.65000000000E+04  0.15050000000E+03 0. -1.
     100001    1    1    2    0    0 -0.45831502447E+04 -0.13291576286E+04 -0.44108302600E+04  0.65000000000E+04  0.15050000000E+03 0.  1.
</event>
<event>
 4    1  0.4826743E-004  0.6500000E+04  0.7818608E-02  0.7223770E-01
         52   -1    0    0    0    0  0.00000000000E+00  0.00000000000E+00  0.64930732323E+04  0.65000000000E+04  0.30000000000E+03 0.  1.
        -52   -1    0    0    0    0 -0.00000000000E+00 -0.00000000000E+00 -0.64930732323E+04  0.65000000000E+04  0.30000000000E+03 0.  1.
     100001    1    1    2    0    0 -0.74187652620E+02 -0.99921838843E+02  0.64970656121E+04  0.65000000000E+04  0.15050000000E+03 0.  1.
     100001    1    1    2    0    0  0.74187652620E+02  0.99921838843E+02 -0.64970656121E+04  0.65000000000E+04  0.15050000000E+03 0.  1.
</event>
<event>
 4    1  0.4826743E-004  0.6500000E+04  0.7818608E-02  0.7223770E-01
         52   -1    0    0    0    0  0.00000000000E+00  0.00000000000E+00  0.64930732323E+04  0.65000000000E+04  0.30000000000E+03 0. -1.
        -52   -1    0    0    0    0 -0.00000000000E+00 -0.00000000000E+00 -0.64930732323E+04  0.65000000000E+04  0.30000000000E+03 0.  1.
     100001    1    1    2    0    0 -0.25635861183E+04  0.21309338529E+04 -0.55780370095E+04  0.65000000000E+04  0.15050000000E+03 0.  1.
     100001    1    1    2    0    0  0.25635861183E+04 -0.21309338529E+04  0.55780370095E+04  0.65000000000E+04  0.15050000000E+03 0. -1.
</event>
<event>
 4    1  0.4826743E-004  0.6500000E+04  0.7818608E-02  0.7223770E-01
         52   -1    0    0    0    0  0.00000000000E+00  0.00000000000E+00  0.64930732323E+04  0.65000000000E+04  0.30000000000E+03 0. -1.
        -52   -1    0    0    0    0 -0.00000000000E+00 -0.00000000000E+00 -0.64930732323E+04  0.65000000000E+04  0.30000000000E+03 0. -1.
     100001    1    1    2    0    0  0.94296384480E+02 -0.79906716505E+02 -0.64970818725E+04  0.65000000000E+04  0.15050000000E+03 0. -1.
     100001    1    1    2    0    0 -0.94296384480E+02  0.79906716505E+02  0.64970818725E+04  0.65000000000E+04  0.15050000000E+03 0. -1.
</event>
<event>
 4    1  0.4826743E-004  0.6500000E+04  0.7818608E-02  0.7223770E-01
         52   -1    0    0    0    0  0.00000000000E+00  0.00000000000E+00  0.64930732323E+04  0.65000000000E+04  0.30000000000E+03 0.  1.
        -52   -1    0    0    0    0 -0.00000000000E+00 -0.00000000000E+00 -0.64930732323E+04  0.65000000000E+04  0.30000000000E+03 0. -1.
     100001    1    1    2    0    0 -0.14948841892E+04 -0.22223661898E+04  0.59206215492E+04  0.65000000000E+04  0.15050000000E+03 0.  1.
     100001    1    1    2    0    0  0.14948841892E+04  0.22223661898E+04 -0.59206215492E+04  0.65000000000E+04  0.15050000000E+03 0. -1.
</event>
<event>
 4    1  0.4826743E-004  0.6500000E+04  0.7818608E-02  0.7223770E-01
         52   -1    0    0    0    0  0.00000000000E+00  0.00000000000E+00  0.64930732323E+04  0.65000000000E+04  0.30000000000E+03 0. -1.
        -52   -1    0    0    0    0 -0.00000000000E+00 -0.00000000000E+00 -0.64930732323E+04  0.65000000000E+04  0.30000000000E+03 0.  1.
     100001    1    1    2    0    0 -0.25983459708E+04 -0.60903298278E+03  0.59249495181E+04  0.65000000000E+04  0.15050000000E+03 0. -1.
     100001    1    1    2    0    0  0.25983459708E+04  0.60903298278E+03 -0.59249495181E+04  0.65000000000E+04  0.15050000000E+03 0.  1.
</event>
<event>
 4    1  0.4826743E-004  0.6500000E+04  0.7818608E-02  0.7223770E-01
         52   -1    0    0    0    0  0.00000000000E+00  0.00000000000E+00  0.64930732323E+04  0.65000000000E+04  0.30000000000E+03 0.  1.
        -52   -1    0    0    0    0 -0.00000000000E+00 -0.00000000000E+00 -0.64930732323E+04  0.65000000000E+04  0.30000000000E+03 0. -1.
     100001    1    1    2    0    0  0.68556499046E+03 -0.63696965323E+03 -0.64305225336E+04  0.65000000000E+04  0.15050000000E+03 0. -1.
     100001    1    1    2    0    0 -0.68556499046E+03  0.63696965323E+03  0.64305225336E+04  0.65000000000E+04  0.15050000000E+03 0.  1.
</event>
<event>
 4    1  0.4826743E-004  0.6500000E+04  0.7818608E-02  0.7223770E-01
         52   -1    0    0    0    0  0.00000000000E+00  0.00000000000E+00  0.64930732323E+04  0.65000000000E+04  0.30000000000E+03 0. -1.
        -52   -1    0    0    0    0 -0.00000000000E+00 -0.00000000000E+00 -0.64930732323E+04  0.65000000000E+04  0.30000000000E+03 0.  1.
     100001    1    1    2    0    0 -0.25835738082E+04  0.15702011169E+04 -0.57521269614E+04  0.65000000000E+04  0.15050000000E+03 0.  1.
     100001    1    1    2    0    0  0.25835738082E+04 -0.15702011169E+04  0.57521269614E+04  0.65000000000E+04  0.15050000000E+03 0. -1.
</event>
<event>
 4    1  0.4826743E-004  0.6500000E+04  0.7818608E-02  0.7223770E-01
         52   -1    0    0    0    0  0.00000000000E+00  0.00000000000E+00  0.64930732323E+04  0.65000000000E+04  0.30000000000E+03 0. -1.
        -52   -1    0    0    0    0 -0.00000000000E+00 -0.00000000000E+00 -0.64930732323E+04  0.65000000000E+04  0.30000000000E+03 0.  1.
     100001    1    1    2    0    0  0.51013717610E+03 -0.34077628865E+02  0.64781130375E+04  0.65000000000E+04  0.15050000000E+03 0. -1.
     100001    1    1    2    0    0 -0.51013717610E+03  0.34077628865E+02 -0.64781130375E+04  0.65000000000E+04  0.15050000000E+03 0.  1.
</event>
<event>
 4    1  0.4826743E-004  0.6500000E+04  0.7818608E-02  0.7223770E-01
         52   -1    0    0    0    0  0.00000000000E+00  0.00000000000E+00  0.64930732323E+04  0.65000000000E+04  0.30000000000E+03 0. -1.
        -52   -1    0    0    0    0 -0.00000000000E+00 -0.00000000000E+00 -0.64930732323E+04  0.65000000000E+04  0.30000000000E+03 0.  1.
     100001    1    1    2    0    0  0.10446873331E+03 -0.38351035569E+03  0.64860894105E+04  0.65000000000E+04  0.15050000000E+03 0. -1.
     100001    1    1    2    0    0 -0.10446873331E+03  0.38351035569E+03 -0.64860894105E+04  0.65000000000E+04  0.15050000000E+03 0.  1.
</event>
<event>
 4    1  0.4826743E-004  0.6500000E+04  0.7818608E-02  0.7223770E-01
         52   -1    0    0    0    0  0.00000000000E+00  0.00000000000E+00  0.64930732323E+04  0.65000000000E+04  0.30000000000E+03 0.  1.
        -52   -1    0    0    0    0 -0.00000000000E+00 -0.00000000000E+00 -0.64930732323E+04  0.65000000000E+04  0.30000000000E+03 0. -1.
     100001    1    1    2    0    0 -0.13822447126E+03 -0.41130797797E+03  0.64837542746E+04  0.65000000000E+04  0.15050000000E+03 0.  1.
     100001    1    1    2    0    0  0.13822447126E+03  0.41130797797E+03 -0.64837542746E+04  0.65000000000E+04  0.15050000000E+03 0. -1.
</event>
<event>
 4    1  0.4826743E-004  0.6500000E+04  0.7818608E-02  0.7223770E-01
         52   -1    0    0    0    0  0.00000000000E+00  0.00000000000E+00  0.64930732323E+04  0.65000000000E+04  0.30000000000E+03 0. -1.
        -52   -1    0    0    0    0 -0.00000000000E+00 -0.00000000000E+00 -0.64930732323E+04  0.65000000000E+04  0.30000000000E+03 0.  1.
     100001    1    1    2    0    0  0.53865264126E+03  0.18793840474E+04 -0.61971863523E+04  0.65000000000E+04  0.15050000000E+03 0.  1.
     100001    1    1    2    0    0 -0.53865264126E+03 -0.18793840474E+04  0.61971863523E+04  0.65000000000E+04  0.15050000000E+03 0. -1.
</event>
<event>
 4    1  0.4826743E-004  0.6500000E+04  0.7818608E-02  0.7223770E-01
         52   -1    0    0    0    0  0.00000000000E+00  0.00000000000E+00  0.64930732323E+04  0.65000000000E+04  0.30000000000E+03 0. -1.
        -52   -1    0    0    0    0 -0.00000000000E+00 -0.00000000000E+00 -0.64930732323E+04  0.65000000000E+04  0.30000000000E+03 0.  1.
     100001    1    1    2    0    0  0.20367787941E+03 -0.40314643890E+04  0.50924610899E+04  0.65000000000E+04  0.15050000000E+03 0. -1.
     100001    1    1    2    0    0 -0.20367787941E+03  0.40314643890E+04 -0.50924610899E+04  0.65000000000E+04  0.15050000000E+03 0.  1.
</event>
<event>
 4    1  0.4826743E-004  0.6500000E+04  0.7818608E-02  0.7223770E-01
         52   -1    0    0    0    0  0.00000000000E+00  0.00000000000E+00  0.64930732323E+04  0.65000000000E+04  0.30000000000E+03 0.  1.
        -52   -1    0    0    0    0 -0.00000000000E+00 -0.00000000000E+00 -0.64930732323E+04  0.65000000000E+04  0.30000000000E+03 0. -1.
     100001    1    1    2    0    0 -0.98577160816E+03  0.42115448015E+04  0.48495870413E+04  0.65000000000E+04  0.15050000000E+03 0. -1.
     100001    1    1    2    0    0  0.98577160816E+03 -0.42115448015E+04 -0.48495870413E+04  0.65000000000E+04  0.15050000000E+03 0.  1.
</event>
<event>
 4    1  0.4826743E-004  0.6500000E+04  0.7818608E-02  0.7223770E-01
         52   -1    0    0    0    0  0.00000000000E+00  0.00000000000E+00  0.64930732323E+04  0.65000000000E+04  0.30000000000E+03 0. -1.
        -52   -1    0    0    0    0 -0.00000000000E+00 -0.00000000000E+00 -0.64930732323E+04  0.65000000000E+04  0.30000000000E+03 0.  1.
     100001    1    1    2    0    0  0.46216955039E+02  0.34288218472E+04  0.55198183379E+04  0.65000000000E+04  0.15050000000E+03 0. -1.
     100001    1    1    2    0    0 -0.46216955039E+02 -0.34288218472E+04 -0.55198183379E+04  0.65000000000E+04  0.15050000000E+03 0.  1.
</event>
<event>
 4    1  0.4826743E-004  0.6500000E+04  0.7818608E-02  0.7223770E-01
         52   -1    0    0    0    0  0.00000000000E+00  0.00000000000E+00  0.64930732323E+04  0.65000000000E+04  0.30000000000E+03 0.  1.
        -52   -1    0    0    0    0 -0.00000000000E+00 -0.00000000000E+00 -0.64930732323E+04  0.65000000000E+04  0.30000000000E+03 0. -1.
     100001    1    1    2    0    0 -0.94325790727E+03 -0.13001642360E+04 -0.62966012443E+04  0.65000000000E+04  0.15050000000E+03 0. -1.
     100001    1    1    2    0    0  0.94325790727E+03  0.13001642360E+04  0.62966012443E+04  0.65000000000E+04  0.15050000000E+03 0.  1.
</event>
<event>
 4    1  0.4826743E-004  0.6500000E+04  0.7818608E-02  0.7223770E-01
         52   -1    0    0    0    0  0.00000000000E+00  0.00000000000E+00  0.64930732323E+04  0.65000000000E+04  0.30000000000E+03 0. -1.
        -52   -1    0    0    0    0 -0.00000000000E+00 -0.00000000000E+00 -0.64930732323E+04  0.65000000000E+04  0.30000000000E+03 0.  1.
     100001    1    1    2    0    0  0.89643251752E+03 -0.60946858383E+04  0.20684687630E+04  0.65000000000E+04  0.15050000000E+03 0. -1.
     100001    1    1    2    0    0 -0.89643251752E+03  0.60946858383E+04 -0.20684687630E+04  0.65000000000E+04  0.15050000000E+03 0.  1.
</event>
<event>
 4    1  0.4826743E-004  0.6500000E+04  0.7818608E-02  0.7223770E-01
         52   -1    0    0    0    0  0.00000000000E+00  0.00000000000E+00  0.64930732323E+04  0.65000000000E+04  0.30000000000E+03 0. -1.
        -52   -1    0    0    0    0 -0.00000000000E+00 -0.00000000000E+00 -0.64930732323E+04  0.65000000000E+04  0.30000000000E+03 0.  1.
     100001    1    1    2    0    0 -0.43970798219E+04 -0.40369005694E+04  0.25683599013E+04  0.65000000000E+04  0.15050000000E+03 0. -1.
     100001    1    1    2    0    0  0.43970798219E+04  0.40369005694E+04 -0.25683599013E+04  0.65000000000E+04  0.15050000000E+03 0.  1.
</event>
<event>
 4    1  0.4908392E-004  0.6500000E+04  0.7818608E-02  0.7223770E-01
         52   -1    0    0    0    0  0.00000000000E+00  0.00000000000E+00  0.64930732323E+04  0.65000000000E+04  0.30000000000E+03 0. -1.
        -52   -1    0    0    0    0 -0.00000000000E+00 -0.00000000000E+00 -0.64930732323E+04  0.65000000000E+04  0.30000000000E+03 0.  1.
     100001    1    1    2    0    0  0.29064294589E+03  0.13586770378E+02 -0.64917402773E+04  0.65000000000E+04  0.15050000000E+03 0.  1.
     100001    1    1    2    0    0 -0.29064294589E+03 -0.13586770378E+02  0.64917402773E+04  0.65000000000E+04  0.15050000000E+03 0. -1.
</event>
<event>
 4    1  0.4826743E-004  0.6500000E+04  0.7818608E-02  0.7223770E-01
         52   -1    0    0    0    0  0.00000000000E+00  0.00000000000E+00  0.64930732323E+04  0.65000000000E+04  0.30000000000E+03 0.  1.
        -52   -1    0    0    0    0 -0.00000000000E+00 -0.00000000000E+00 -0.64930732323E+04  0.65000000000E+04  0.30000000000E+03 0. -1.
     100001    1    1    2    0    0 -0.34756116186E+04  0.32043104636E+04  0.44586845683E+04  0.65000000000E+04  0.15050000000E+03 0.  1.
     100001    1    1    2    0    0  0.34756116186E+04 -0.32043104636E+04 -0.44586845683E+04  0.65000000000E+04  0.15050000000E+03 0. -1.
</event>
<event>
 4    1  0.4826743E-004  0.6500000E+04  0.7818608E-02  0.7223770E-01
         52   -1    0    0    0    0  0.00000000000E+00  0.00000000000E+00  0.64930732323E+04  0.65000000000E+04  0.30000000000E+03 0.  1.
        -52   -1    0    0    0    0 -0.00000000000E+00 -0.00000000000E+00 -0.64930732323E+04  0.65000000000E+04  0.30000000000E+03 0. -1.
     100001    1    1    2    0    0  0.50002400641E+03  0.40257381859E+03 -0.64664719951E+04  0.65000000000E+04  0.15050000000E+03 0. -1.
     100001    1    1    2    0    0 -0.50002400641E+03 -0.40257381859E+03  0.64664719951E+04  0.65000000000E+04  0.15050000000E+03 0.  1.
</event>
<event>
 4    1  0.4826743E-004  0.6500000E+04  0.7818608E-02  0.7223770E-01
         52   -1    0    0    0    0  0.00000000000E+00  0.00000000000E+00  0.64930732323E+04  0.65000000000E+04  0.30000000000E+03 0. -1.
        -52   -1    0    0    0    0 -0.00000000000E+00 -0.00000000000E+00 -0.64930732323E+04  0.65000000000E+04  0.30000000000E+03 0.  1.
     100001    1    1    2    0    0 -0.26398685323E+04  0.15442379501E+04 -0.57335654732E+04  0.65000000000E+04  0.15050000000E+03 0.  1.
     100001    1    1    2    0    0  0.26398685323E+04 -0.15442379501E+04  0.57335654732E+04  0.65000000000E+04  0.15050000000E+03 0. -1.
</event>
<event>
 4    1  0.4826743E-004  0.6500000E+04  0.7818608E-02  0.7223770E-01
         52   -1    0    0    0    0  0.00000000000E+00  0.00000000000E+00  0.64930732323E+04  0.65000000000E+04  0.30000000000E+03 0. -1.
        -52   -1    0    0    0    0 -0.00000000000E+00 -0.00000000000E+00 -0.64930732323E+04  0.65000000000E+04  0.30000000000E+03 0.  1.
     100001    1    1    2    0    0 -0.28074248583E+03 -0.10705641885E+04  0.64033136519E+04  0.65000000000E+04  0.15050000000E+03 0. -1.
     100001    1    1    2    0    0  0.28074248583E+03  0.10705641885E+04 -0.64033136519E+04  0.65000000000E+04  0.15050000000E+03 0.  1.
</event>
<event>
 4    1  0.4826743E-004  0.6500000E+04  0.7818608E-02  0.7223770E-01
         52   -1    0    0    0    0  0.00000000000E+00  0.00000000000E+00  0.64930732323E+04  0.65000000000E+04  0.30000000000E+03 0.  1.
        -52   -1    0    0    0    0 -0.00000000000E+00 -0.00000000000E+00 -0.64930732323E+04  0.65000000000E+04  0.30000000000E+03 0. -1.
     100001    1    1    2    0    0 -0.20104157906E+04 -0.14339394672E+04  0.60107733033E+04  0.65000000000E+04  0.15050000000E+03 0.  1.
     100001    1    1    2    0    0  0.20104157906E+04  0.14339394672E+04 -0.60107733033E+04  0.65000000000E+04  0.15050000000E+03 0. -1.
</event>
<event>
 4    1  0.4826743E-004  0.6500000E+04  0.7818608E-02  0.7223770E-01
         52   -1    0    0    0    0  0.00000000000E+00  0.00000000000E+00  0.64930732323E+04  0.65000000000E+04  0.30000000000E+03 0.  1.
        -52   -1    0    0    0    0 -0.00000000000E+00 -0.00000000000E+00 -0.64930732323E+04  0.65000000000E+04  0.30000000000E+03 0. -1.
     100001    1    1    2    0    0  0.20028709912E+04 -0.33670625043E+04 -0.51844717797E+04  0.65000000000E+04  0.15050000000E+03 0. -1.
     100001    1    1    2    0    0 -0.20028709912E+04  0.33670625043E+04  0.51844717797E+04  0.65000000000E+04  0.15050000000E+03 0.  1.
</event>
<event>
 4    1  0.4826743E-004  0.6500000E+04  0.7818608E-02  0.7223770E-01
         52   -1    0    0    0    0  0.00000000000E+00  0.00000000000E+00  0.64930732323E+04  0.65000000000E+04  0.30000000000E+03 0. -1.
        -52   -1    0    0    0    0 -0.00000000000E+00 -0.00000000000E+00 -0.64930732323E+04  0.65000000000E+04  0.30000000000E+03 0. -1.
     100001    1    1    2    0    0  0.48548932919E+03 -0.64904327399E+03 -0.64475105808E+04  0.65000000000E+04  0.15050000000E+03 0. -1.
     100001    1    1    2    0    0 -0.48548932919E+03  0.64904327399E+03  0.64475105808E+04  0.65000000000E+04  0.15050000000E+03 0. -1.
</event>
<event>
 4    1  0.4826743E-004  0.6500000E+04  0.7818608E-02  0.7223770E-01
         52   -1    0    0    0    0  0.00000000000E+00  0.00000000000E+00  0.64930732323E+04  0.65000000000E+04  0.30000000000E+03 0. -1.
        -52   -1    0    0    0    0 -0.00000000000E+00 -0.00000000000E+00 -0.64930732323E+04  0.65000000000E+04  0.30000000000E+03 0.  1.
     100001    1    1    2    0    0  0.75231735442E+03  0.18286966010E+04 -0.61900918483E+04  0.65000000000E+04  0.15050000000E+03 0.  1.
     100001    1    1    2    0    0 -0.75231735442E+03 -0.18286966010E+04  0.61900918483E+04  0.65000000000E+04  0.15050000000E+03 0. -1.
</event>
<event>
 4    1  0.4826743E-004  0.6500000E+04  0.7818608E-02  0.7223770E-01
         52   -1    0    0    0    0  0.00000000000E+00  0.00000000000E+00  0.64930732323E+04  0.65000000000E+04  0.30000000000E+03 0. -1.
        -52   -1    0    0    0    0 -0.00000000000E+00 -0.00000000000E+00 -0.64930732323E+04  0.65000000000E+04  0.30000000000E+03 0.  1.
     100001    1    1    2    0    0 -0.51465086671E+03 -0.10862298426E+04 -0.63861247220E+04  0.65000000000E+04  0.15050000000E+03 0.  1.
     100001    1    1    2    0    0  0.51465086671E+03  0.10862298426E+04  0.63861247220E+04  0.65000000000E+04  0.15050000000E+03 0. -1.
</event>
<event>
 4    1  0.4826743E-004  0.6500000E+04  0.7818608E-02  0.7223770E-01
         52   -1    0    0    0    0  0.00000000000E+00  0.00000000000E+00  0.64930732323E+04  0.65000000000E+04  0.30000000000E+03 0. -1.
        -52   -1    0    0    0    0 -0.00000000000E+00 -0.00000000000E+00 -0.64930732323E+04  0.65000000000E+04  0.30000000000E+03 0.  1.
     100001    1    1    2    0    0  0.23027852428E+03 -0.69868445841E+03 -0.64564821365E+04  0.65000000000E+04  0.15050000000E+03 0.  1.
     100001    1    1    2    0    0 -0.23027852428E+03  0.69868445841E+03  0.64564821365E+04  0.65000000000E+04  0.15050000000E+03 0. -1.
</event>
<event>
 4    1  0.4826743E-004  0.6500000E+04  0.7818608E-02  0.7223770E-01
         52   -1    0    0    0    0  0.00000000000E+00  0.00000000000E+00  0.64930732323E+04  0.65000000000E+04  0.30000000000E+03 0. -1.
        -52   -1    0    0    0    0 -0.00000000000E+00 -0.00000000000E+00 -0.64930732323E+04  0.65000000000E+04  0.30000000000E+03 0.  1.
     100001    1    1    2    0    0 -0.45213452438E+03 -0.91572147549E+03 -0.64175056136E+04  0.65000000000E+04  0.15050000000E+03 0.  1.
     100001    1    1    2    0    0  0.45213452438E+03  0.91572147549E+03  0.64175056136E+04  0.65000000000E+04  0.15050000000E+03 0. -1.
</event>
<event>
 4    1  0.4826743E-004  0.6500000E+04  0.7818608E-02  0.7223770E-01
         52   -1    0    0    0    0  0.00000000000E+00  0.00000000000E+00  0.64930732323E+04  0.65000000000E+04  0.30000000000E+03 0. -1.
        -52   -1    0    0    0    0 -0.00000000000E+00 -0.00000000000E+00 -0.64930732323E+04  0.65000000000E+04  0.30000000000E+03 0.  1.
     100001    1    1    2    0    0 -0.15852771485E+03  0.42724659636E+04  0.48936952606E+04  0.65000000000E+04  0.15050000000E+03 0. -1.
     100001    1    1    2    0    0  0.15852771485E+03 -0.42724659636E+04 -0.48936952606E+04  0.65000000000E+04  0.15050000000E+03 0.  1.
</event>
<event>
 4    1  0.4826743E-004  0.6500000E+04  0.7818608E-02  0.7223770E-01
         52   -1    0    0    0    0  0.00000000000E+00  0.00000000000E+00  0.64930732323E+04  0.65000000000E+04  0.30000000000E+03 0. -1.
        -52   -1    0    0    0    0 -0.00000000000E+00 -0.00000000000E+00 -0.64930732323E+04  0.65000000000E+04  0.30000000000E+03 0.  1.
     100001    1    1    2    0    0  0.43868742729E+04 -0.41409471002E+04  0.24156243452E+04  0.65000000000E+04  0.15050000000E+03 0. -1.
     100001    1    1    2    0    0 -0.43868742729E+04  0.41409471002E+04 -0.24156243452E+04  0.65000000000E+04  0.15050000000E+03 0.  1.
</event>
<event>
 4    1  0.4826743E-004  0.6500000E+04  0.7818608E-02  0.7223770E-01
         52   -1    0    0    0    0  0.00000000000E+00  0.00000000000E+00  0.64930732323E+04  0.65000000000E+04  0.30000000000E+03 0. -1.
        -52   -1    0    0    0    0 -0.00000000000E+00 -0.00000000000E+00 -0.64930732323E+04  0.65000000000E+04  0.30000000000E+03 0.  1.
     100001    1    1    2    0    0  0.27685081620E+04 -0.34399269048E+04  0.47675586202E+04  0.65000000000E+04  0.15050000000E+03 0. -1.
     100001    1    1    2    0    0 -0.27685081620E+04  0.34399269048E+04 -0.47675586202E+04  0.65000000000E+04  0.15050000000E+03 0.  1.
</event>
<event>
 4    1  0.4826743E-004  0.6500000E+04  0.7818608E-02  0.7223770E-01
         52   -1    0    0    0    0  0.00000000000E+00  0.00000000000E+00  0.64930732323E+04  0.65000000000E+04  0.30000000000E+03 0. -1.
        -52   -1    0    0    0    0 -0.00000000000E+00 -0.00000000000E+00 -0.64930732323E+04  0.65000000000E+04  0.30000000000E+03 0.  1.
     100001    1    1    2    0    0  0.67654063415E+03 -0.16107115718E+04  0.62590135607E+04  0.65000000000E+04  0.15050000000E+03 0. -1.
     100001    1    1    2    0    0 -0.67654063415E+03  0.16107115718E+04 -0.62590135607E+04  0.65000000000E+04  0.15050000000E+03 0.  1.
</event>
<event>
 4    1  0.4826743E-004  0.6500000E+04  0.7818608E-02  0.7223770E-01
         52   -1    0    0    0    0  0.00000000000E+00  0.00000000000E+00  0.64930732323E+04  0.65000000000E+04  0.30000000000E+03 0.  1.
        -52   -1    0    0    0    0 -0.00000000000E+00 -0.00000000000E+00 -0.64930732323E+04  0.65000000000E+04  0.30000000000E+03 0. -1.
     100001    1    1    2    0    0  0.47126562381E+04 -0.28503235535E+04  0.34487500013E+04  0.65000000000E+04  0.15050000000E+03 0.  1.
     100001    1    1    2    0    0 -0.47126562381E+04  0.28503235535E+04 -0.34487500013E+04  0.65000000000E+04  0.15050000000E+03 0. -1.
</event>
<event>
 4    1  0.4826743E-004  0.6500000E+04  0.7818608E-02  0.7223770E-01
         52   -1    0    0    0    0  0.00000000000E+00  0.00000000000E+00  0.64930732323E+04  0.65000000000E+04  0.30000000000E+03 0. -1.
        -52   -1    0    0    0    0 -0.00000000000E+00 -0.00000000000E+00 -0.64930732323E+04  0.65000000000E+04  0.30000000000E+03 0.  1.
     100001    1    1    2    0    0 -0.39531513875E+04 -0.21312834340E+03  0.51531078163E+04  0.65000000000E+04  0.15050000000E+03 0. -1.
     100001    1    1    2    0    0  0.39531513875E+04  0.21312834340E+03 -0.51531078163E+04  0.65000000000E+04  0.15050000000E+03 0.  1.
</event>
<event>
 4    1  0.5714076E-004  0.6500000E+04  0.7818608E-02  0.7223770E-01
         52   -1    0    0    0    0  0.00000000000E+00  0.00000000000E+00  0.64930732323E+04  0.65000000000E+04  0.30000000000E+03 0.  1.
        -52   -1    0    0    0    0 -0.00000000000E+00 -0.00000000000E+00 -0.64930732323E+04  0.65000000000E+04  0.30000000000E+03 0.  1.
     100001    1    1    2    0    0 -0.16960354007E+03  0.62361365864E+02  0.64957444107E+04  0.65000000000E+04  0.15050000000E+03 0.  1.
     100001    1    1    2    0    0  0.16960354007E+03 -0.62361365864E+02 -0.64957444107E+04  0.65000000000E+04  0.15050000000E+03 0.  1.
</event>
<event>
 4    1  0.4826743E-004  0.6500000E+04  0.7818608E-02  0.7223770E-01
         52   -1    0    0    0    0  0.00000000000E+00  0.00000000000E+00  0.64930732323E+04  0.65000000000E+04  0.30000000000E+03 0.  1.
        -52   -1    0    0    0    0 -0.00000000000E+00 -0.00000000000E+00 -0.64930732323E+04  0.65000000000E+04  0.30000000000E+03 0. -1.
     100001    1    1    2    0    0 -0.57198666689E+03 -0.12022290142E+03 -0.64719183753E+04  0.65000000000E+04  0.15050000000E+03 0. -1.
     100001    1    1    2    0    0  0.57198666689E+03  0.12022290142E+03  0.64719183753E+04  0.65000000000E+04  0.15050000000E+03 0.  1.
</event>
<event>
 4    1  0.4826743E-004  0.6500000E+04  0.7818608E-02  0.7223770E-01
         52   -1    0    0    0    0  0.00000000000E+00  0.00000000000E+00  0.64930732323E+04  0.65000000000E+04  0.30000000000E+03 0.  1.
        -52   -1    0    0    0    0 -0.00000000000E+00 -0.00000000000E+00 -0.64930732323E+04  0.65000000000E+04  0.30000000000E+03 0. -1.
     100001    1    1    2    0    0 -0.65977371290E+03  0.57615349791E+03 -0.64389514321E+04  0.65000000000E+04  0.15050000000E+03 0. -1.
     100001    1    1    2    0    0  0.65977371290E+03 -0.57615349791E+03  0.64389514321E+04  0.65000000000E+04  0.15050000000E+03 0.  1.
</event>
<event>
 4    1  0.4826743E-004  0.6500000E+04  0.7818608E-02  0.7223770E-01
         52   -1    0    0    0    0  0.00000000000E+00  0.00000000000E+00  0.64930732323E+04  0.65000000000E+04  0.30000000000E+03 0. -1.
        -52   -1    0    0    0    0 -0.00000000000E+00 -0.00000000000E+00 -0.64930732323E+04  0.65000000000E+04  0.30000000000E+03 0.  1.
     100001    1    1    2    0    0  0.13432474460E+04 -0.76786583882E+03 -0.63113721252E+04  0.65000000000E+04  0.15050000000E+03 0.  1.
     100001    1    1    2    0    0 -0.13432474460E+04  0.76786583882E+03  0.63113721252E+04  0.65000000000E+04  0.15050000000E+03 0. -1.
</event>
<event>
 4    1  0.6704903E-004  0.6500000E+04  0.7818608E-02  0.7223770E-01
         52   -1    0    0    0    0  0.00000000000E+00  0.00000000000E+00  0.64930732323E+04  0.65000000000E+04  0.30000000000E+03 0. -1.
        -52   -1    0    0    0    0 -0.00000000000E+00 -0.00000000000E+00 -0.64930732323E+04  0.65000000000E+04  0.30000000000E+03 0.  1.
     100001    1    1    2    0    0  0.37710450418E+02 -0.15814283340E+03 -0.64962234041E+04  0.65000000000E+04  0.15050000000E+03 0.  1.
     100001    1    1    2    0    0 -0.37710450418E+02  0.15814283340E+03  0.64962234041E+04  0.65000000000E+04  0.15050000000E+03 0. -1.
</event>
<event>
 4    1  0.4826743E-004  0.6500000E+04  0.7818608E-02  0.7223770E-01
         52   -1    0    0    0    0  0.00000000000E+00  0.00000000000E+00  0.64930732323E+04  0.65000000000E+04  0.30000000000E+03 0.  1.
        -52   -1    0    0    0    0 -0.00000000000E+00 -0.00000000000E+00 -0.64930732323E+04  0.65000000000E+04  0.30000000000E+03 0. -1.
     100001    1    1    2    0    0  0.11024827366E+04  0.23046034246E+04 -0.59750049892E+04  0.65000000000E+04  0.15050000000E+03 0. -1.
     100001    1    1    2    0    0 -0.11024827366E+04 -0.23046034246E+04  0.59750049892E+04  0.65000000000E+04  0.15050000000E+03 0.  1.
</event>
<event>
 4    1  0.4826743E-004  0.6500000E+04  0.7818608E-02  0.7223770E-01
         52   -1    0    0    0    0  0.00000000000E+00  0.00000000000E+00  0.64930732323E+04  0.65000000000E+04  0.30000000000E+03 0.  1.
        -52   -1    0    0    0    0 -0.00000000000E+00 -0.00000000000E+00 -0.64930732323E+04  0.65000000000E+04  0.30000000000E+03 0. -1.
     100001    1    1    2    0    0 -0.28742081276E+03 -0.37366111454E+03  0.64811354251E+04  0.65000000000E+04  0.15050000000E+03 0.  1.
     100001    1    1    2    0    0  0.28742081276E+03  0.37366111454E+03 -0.64811354251E+04  0.65000000000E+04  0.15050000000E+03 0. -1.
</event>
<event>
 4    1  0.4826743E-004  0.6500000E+04  0.7818608E-02  0.7223770E-01
         52   -1    0    0    0    0  0.00000000000E+00  0.00000000000E+00  0.64930732323E+04  0.65000000000E+04  0.30000000000E+03 0. -1.
        -52   -1    0    0    0    0 -0.00000000000E+00 -0.00000000000E+00 -0.64930732323E+04  0.65000000000E+04  0.30000000000E+03 0. -1.
     100001    1    1    2    0    0 -0.11920040131E+04 -0.54359586583E+03  0.63648236203E+04  0.65000000000E+04  0.15050000000E+03 0. -1.
     100001    1    1    2    0    0  0.11920040131E+04  0.54359586583E+03 -0.63648236203E+04  0.65000000000E+04  0.15050000000E+03 0. -1.
</event>
<event>
 4    1  0.4826743E-004  0.6500000E+04  0.7818608E-02  0.7223770E-01
         52   -1    0    0    0    0  0.00000000000E+00  0.00000000000E+00  0.64930732323E+04  0.65000000000E+04  0.30000000000E+03 0.  1.
        -52   -1    0    0    0    0 -0.00000000000E+00 -0.00000000000E+00 -0.64930732323E+04  0.65000000000E+04  0.30000000000E+03 0. -1.
     100001    1    1    2    0    0  0.27703176302E+03 -0.60292245504E+02 -0.64920696236E+04  0.65000000000E+04  0.15050000000E+03 0. -1.
     100001    1    1    2    0    0 -0.27703176302E+03  0.60292245504E+02  0.64920696236E+04  0.65000000000E+04  0.15050000000E+03 0.  1.
</event>
<event>
 4    1  0.4826743E-004  0.6500000E+04  0.7818608E-02  0.7223770E-01
         52   -1    0    0    0    0  0.00000000000E+00  0.00000000000E+00  0.64930732323E+04  0.65000000000E+04  0.30000000000E+03 0.  1.
        -52   -1    0    0    0    0 -0.00000000000E+00 -0.00000000000E+00 -0.64930732323E+04  0.65000000000E+04  0.30000000000E+03 0. -1.
     100001    1    1    2    0    0 -0.37264669246E+03 -0.51398853395E+03 -0.64671709410E+04  0.65000000000E+04  0.15050000000E+03 0. -1.
     100001    1    1    2    0    0  0.37264669246E+03  0.51398853395E+03  0.64671709410E+04  0.65000000000E+04  0.15050000000E+03 0.  1.
</event>
<event>
 4    1  0.4826743E-004  0.6500000E+04  0.7818608E-02  0.7223770E-01
         52   -1    0    0    0    0  0.00000000000E+00  0.00000000000E+00  0.64930732323E+04  0.65000000000E+04  0.30000000000E+03 0. -1.
        -52   -1    0    0    0    0 -0.00000000000E+00 -0.00000000000E+00 -0.64930732323E+04  0.65000000000E+04  0.30000000000E+03 0.  1.
     100001    1    1    2    0    0  0.40861106074E+03  0.30100432166E+03 -0.64784089983E+04  0.65000000000E+04  0.15050000000E+03 0.  1.
     100001    1    1    2    0    0 -0.40861106074E+03 -0.30100432166E+03  0.64784089983E+04  0.65000000000E+04  0.15050000000E+03 0. -1.
</event>
<event>
 4    1  0.4826743E-004  0.6500000E+04  0.7818608E-02  0.7223770E-01
         52   -1    0    0    0    0  0.00000000000E+00  0.00000000000E+00  0.64930732323E+04  0.65000000000E+04  0.30000000000E+03 0. -1.
        -52   -1    0    0    0    0 -0.00000000000E+00 -0.00000000000E+00 -0.64930732323E+04  0.65000000000E+04  0.30000000000E+03 0.  1.
     100001    1    1    2    0    0  0.45789850616E+04  0.18094823823E+04 -0.42409926980E+04  0.65000000000E+04  0.15050000000E+03 0.  1.
     100001    1    1    2    0    0 -0.45789850616E+04 -0.18094823823E+04  0.42409926980E+04  0.65000000000E+04  0.15050000000E+03 0. -1.
</event>
<event>
 4    1  0.4826743E-004  0.6500000E+04  0.7818608E-02  0.7223770E-01
         52   -1    0    0    0    0  0.00000000000E+00  0.00000000000E+00  0.64930732323E+04  0.65000000000E+04  0.30000000000E+03 0.  1.
        -52   -1    0    0    0    0 -0.00000000000E+00 -0.00000000000E+00 -0.64930732323E+04  0.65000000000E+04  0.30000000000E+03 0. -1.
     100001    1    1    2    0    0  0.77510525891E+03 -0.55726947188E+03  0.64277532874E+04  0.65000000000E+04  0.15050000000E+03 0.  1.
     100001    1    1    2    0    0 -0.77510525891E+03  0.55726947188E+03 -0.64277532874E+04  0.65000000000E+04  0.15050000000E+03 0. -1.
</event>
<event>
 4    1  0.4826743E-004  0.6500000E+04  0.7818608E-02  0.7223770E-01
         52   -1    0    0    0    0  0.00000000000E+00  0.00000000000E+00  0.64930732323E+04  0.65000000000E+04  0.30000000000E+03 0. -1.
        -52   -1    0    0    0    0 -0.00000000000E+00 -0.00000000000E+00 -0.64930732323E+04  0.65000000000E+04  0.30000000000E+03 0.  1.
     100001    1    1    2    0    0  0.30555991818E+03  0.31653197674E+03  0.64833471598E+04  0.65000000000E+04  0.15050000000E+03 0. -1.
     100001    1    1    2    0    0 -0.30555991818E+03 -0.31653197674E+03 -0.64833471598E+04  0.65000000000E+04  0.15050000000E+03 0.  1.
</event>
<event>
 4    1  0.4826743E-004  0.6500000E+04  0.7818608E-02  0.7223770E-01
         52   -1    0    0    0    0  0.00000000000E+00  0.00000000000E+00  0.64930732323E+04  0.65000000000E+04  0.30000000000E+03 0. -1.
        -52   -1    0    0    0    0 -0.00000000000E+00 -0.00000000000E+00 -0.64930732323E+04  0.65000000000E+04  0.30000000000E+03 0.  1.
     100001    1    1    2    0    0 -0.35780847674E+04  0.23512056019E+04 -0.48884037645E+04  0.65000000000E+04  0.15050000000E+03 0.  1.
     100001    1    1    2    0    0  0.35780847674E+04 -0.23512056019E+04  0.48884037645E+04  0.65000000000E+04  0.15050000000E+03 0. -1.
</event>
<event>
 4    1  0.4826743E-004  0.6500000E+04  0.7818608E-02  0.7223770E-01
         52   -1    0    0    0    0  0.00000000000E+00  0.00000000000E+00  0.64930732323E+04  0.65000000000E+04  0.30000000000E+03 0. -1.
        -52   -1    0    0    0    0 -0.00000000000E+00 -0.00000000000E+00 -0.64930732323E+04  0.65000000000E+04  0.30000000000E+03 0.  1.
     100001    1    1    2    0    0  0.10584274576E+04  0.11245874015E+04  0.63120824015E+04  0.65000000000E+04  0.15050000000E+03 0. -1.
     100001    1    1    2    0    0 -0.10584274576E+04 -0.11245874015E+04 -0.63120824015E+04  0.65000000000E+04  0.15050000000E+03 0.  1.
</event>
<event>
 4    1  0.4826743E-004  0.6500000E+04  0.7818608E-02  0.7223770E-01
         52   -1    0    0    0    0  0.00000000000E+00  0.00000000000E+00  0.64930732323E+04  0.65000000000E+04  0.30000000000E+03 0.  1.
        -52   -1    0    0    0    0 -0.00000000000E+00 -0.00000000000E+00 -0.64930732323E+04  0.65000000000E+04  0.30000000000E+03 0. -1.
     100001    1    1    2    0    0 -0.48583626914E+03  0.72891705244E+03  0.64389434537E+04  0.65000000000E+04  0.15050000000E+03 0.  1.
     100001    1    1    2    0    0  0.48583626914E+03 -0.72891705244E+03 -0.64389434537E+04  0.65000000000E+04  0.15050000000E+03 0. -1.
</event>
<event>
 4    1  0.4826743E-004  0.6500000E+04  0.7818608E-02  0.7223770E-01
         52   -1    0    0    0    0  0.00000000000E+00  0.00000000000E+00  0.64930732323E+04  0.65000000000E+04  0.30000000000E+03 0. -1.
        -52   -1    0    0    0    0 -0.00000000000E+00 -0.00000000000E+00 -0.64930732323E+04  0.65000000000E+04  0.30000000000E+03 0.  1.
     100001    1    1    2    0    0  0.49313328659E+04 -0.31736787635E+03 -0.42200217472E+04  0.65000000000E+04  0.15050000000E+03 0.  1.
     100001    1    1    2    0    0 -0.49313328659E+04  0.31736787635E+03  0.42200217472E+04  0.65000000000E+04  0.15050000000E+03 0. -1.
</event>
<event>
 4    1  0.4826743E-004  0.6500000E+04  0.7818608E-02  0.7223770E-01
         52   -1    0    0    0    0  0.00000000000E+00  0.00000000000E+00  0.64930732323E+04  0.65000000000E+04  0.30000000000E+03 0. -1.
        -52   -1    0    0    0    0 -0.00000000000E+00 -0.00000000000E+00 -0.64930732323E+04  0.65000000000E+04  0.30000000000E+03 0.  1.
     100001    1    1    2    0    0  0.11600465176E+04  0.54491453367E+04 -0.33449150850E+04  0.65000000000E+04  0.15050000000E+03 0.  1.
     100001    1    1    2    0    0 -0.11600465176E+04 -0.54491453367E+04  0.33449150850E+04  0.65000000000E+04  0.15050000000E+03 0. -1.
</event>
<event>
 4    1  0.4826743E-004  0.6500000E+04  0.7818608E-02  0.7223770E-01
         52   -1    0    0    0    0  0.00000000000E+00  0.00000000000E+00  0.64930732323E+04  0.65000000000E+04  0.30000000000E+03 0.  1.
        -52   -1    0    0    0    0 -0.00000000000E+00 -0.00000000000E+00 -0.64930732323E+04  0.65000000000E+04  0.30000000000E+03 0. -1.
     100001    1    1    2    0    0 -0.35943659385E+03  0.10830194432E+04  0.63972825458E+04  0.65000000000E+04  0.15050000000E+03 0.  1.
     100001    1    1    2    0    0  0.35943659385E+03 -0.10830194432E+04 -0.63972825458E+04  0.65000000000E+04  0.15050000000E+03 0. -1.
</event>
<event>
 4    1  0.4826743E-004  0.6500000E+04  0.7818608E-02  0.7223770E-01
         52   -1    0    0    0    0  0.00000000000E+00  0.00000000000E+00  0.64930732323E+04  0.65000000000E+04  0.30000000000E+03 0. -1.
        -52   -1    0    0    0    0 -0.00000000000E+00 -0.00000000000E+00 -0.64930732323E+04  0.65000000000E+04  0.30000000000E+03 0.  1.
     100001    1    1    2    0    0  0.39927104287E+03 -0.72111167671E+03 -0.64457684052E+04  0.65000000000E+04  0.15050000000E+03 0.  1.
     100001    1    1    2    0    0 -0.39927104287E+03  0.72111167671E+03  0.64457684052E+04  0.65000000000E+04  0.15050000000E+03 0. -1.
</event>
<event>
 4    1  0.4826743E-004  0.6500000E+04  0.7818608E-02  0.7223770E-01
         52   -1    0    0    0    0  0.00000000000E+00  0.00000000000E+00  0.64930732323E+04  0.65000000000E+04  0.30000000000E+03 0. -1.
        -52   -1    0    0    0    0 -0.00000000000E+00 -0.00000000000E+00 -0.64930732323E+04  0.65000000000E+04  0.30000000000E+03 0.  1.
     100001    1    1    2    0    0  0.77065159048E+03 -0.11043204651E+04 -0.63571945217E+04  0.65000000000E+04  0.15050000000E+03 0.  1.
     100001    1    1    2    0    0 -0.77065159048E+03  0.11043204651E+04  0.63571945217E+04  0.65000000000E+04  0.15050000000E+03 0. -1.
</event>
<event>
 4    1  0.4826743E-004  0.6500000E+04  0.7818608E-02  0.7223770E-01
         52   -1    0    0    0    0  0.00000000000E+00  0.00000000000E+00  0.64930732323E+04  0.65000000000E+04  0.30000000000E+03 0.  1.
        -52   -1    0    0    0    0 -0.00000000000E+00 -0.00000000000E+00 -0.64930732323E+04  0.65000000000E+04  0.30000000000E+03 0. -1.
     100001    1    1    2    0    0 -0.14777336210E+04  0.12312033419E+04  0.62070759160E+04  0.65000000000E+04  0.15050000000E+03 0.  1.
     100001    1    1    2    0    0  0.14777336210E+04 -0.12312033419E+04 -0.62070759160E+04  0.65000000000E+04  0.15050000000E+03 0. -1.
</event>
<event>
 4    1  0.4826743E-004  0.6500000E+04  0.7818608E-02  0.7223770E-01
         52   -1    0    0    0    0  0.00000000000E+00  0.00000000000E+00  0.64930732323E+04  0.65000000000E+04  0.30000000000E+03 0. -1.
        -52   -1    0    0    0    0 -0.00000000000E+00 -0.00000000000E+00 -0.64930732323E+04  0.65000000000E+04  0.30000000000E+03 0.  1.
     100001    1    1    2    0    0 -0.47458048525E+03  0.40016316856E+03 -0.64685386720E+04  0.65000000000E+04  0.15050000000E+03 0.  1.
     100001    1    1    2    0    0  0.47458048525E+03 -0.40016316856E+03  0.64685386720E+04  0.65000000000E+04  0.15050000000E+03 0. -1.
</event>
<event>
 4    1  0.4826743E-004  0.6500000E+04  0.7818608E-02  0.7223770E-01
         52   -1    0    0    0    0  0.00000000000E+00  0.00000000000E+00  0.64930732323E+04  0.65000000000E+04  0.30000000000E+03 0. -1.
        -52   -1    0    0    0    0 -0.00000000000E+00 -0.00000000000E+00 -0.64930732323E+04  0.65000000000E+04  0.30000000000E+03 0.  1.
     100001    1    1    2    0    0 -0.29958900078E+04  0.22313068572E+04  0.53172608099E+04  0.65000000000E+04  0.15050000000E+03 0. -1.
     100001    1    1    2    0    0  0.29958900078E+04 -0.22313068572E+04 -0.53172608099E+04  0.65000000000E+04  0.15050000000E+03 0.  1.
</event>
<event>
 4    1  0.4826743E-004  0.6500000E+04  0.7818608E-02  0.7223770E-01
         52   -1    0    0    0    0  0.00000000000E+00  0.00000000000E+00  0.64930732323E+04  0.65000000000E+04  0.30000000000E+03 0.  1.
        -52   -1    0    0    0    0 -0.00000000000E+00 -0.00000000000E+00 -0.64930732323E+04  0.65000000000E+04  0.30000000000E+03 0. -1.
     100001    1    1    2    0    0 -0.25241815629E+04  0.68516017988E+03 -0.59486479737E+04  0.65000000000E+04  0.15050000000E+03 0. -1.
     100001    1    1    2    0    0  0.25241815629E+04 -0.68516017988E+03  0.59486479737E+04  0.65000000000E+04  0.15050000000E+03 0.  1.
</event>
<event>
 4    1  0.4826743E-004  0.6500000E+04  0.7818608E-02  0.7223770E-01
         52   -1    0    0    0    0  0.00000000000E+00  0.00000000000E+00  0.64930732323E+04  0.65000000000E+04  0.30000000000E+03 0. -1.
        -52   -1    0    0    0    0 -0.00000000000E+00 -0.00000000000E+00 -0.64930732323E+04  0.65000000000E+04  0.30000000000E+03 0.  1.
     100001    1    1    2    0    0  0.78377157575E+03  0.42963940332E+03 -0.64364945312E+04  0.65000000000E+04  0.15050000000E+03 0.  1.
     100001    1    1    2    0    0 -0.78377157575E+03 -0.42963940332E+03  0.64364945312E+04  0.65000000000E+04  0.15050000000E+03 0. -1.
</event>
<event>
 4    1  0.4826743E-004  0.6500000E+04  0.7818608E-02  0.7223770E-01
         52   -1    0    0    0    0  0.00000000000E+00  0.00000000000E+00  0.64930732323E+04  0.65000000000E+04  0.30000000000E+03 0.  1.
        -52   -1    0    0    0    0 -0.00000000000E+00 -0.00000000000E+00 -0.64930732323E+04  0.65000000000E+04  0.30000000000E+03 0. -1.
     100001    1    1    2    0    0 -0.93585520295E+03  0.35252446884E+04  0.53781199945E+04  0.65000000000E+04  0.15050000000E+03 0.  1.
     100001    1    1    2    0    0  0.93585520295E+03 -0.35252446884E+04 -0.53781199945E+04  0.65000000000E+04  0.15050000000E+03 0. -1.
</event>
<event>
 4    1  0.4826743E-004  0.6500000E+04  0.7818608E-02  0.7223770E-01
         52   -1    0    0    0    0  0.00000000000E+00  0.00000000000E+00  0.64930732323E+04  0.65000000000E+04  0.30000000000E+03 0. -1.
        -52   -1    0    0    0    0 -0.00000000000E+00 -0.00000000000E+00 -0.64930732323E+04  0.65000000000E+04  0.30000000000E+03 0.  1.
     100001    1    1    2    0    0 -0.39663641013E+03  0.17853632346E+03 -0.64836836821E+04  0.65000000000E+04  0.15050000000E+03 0.  1.
     100001    1    1    2    0    0  0.39663641013E+03 -0.17853632346E+03  0.64836836821E+04  0.65000000000E+04  0.15050000000E+03 0. -1.
</event>
<event>
 4    1  0.4826743E-004  0.6500000E+04  0.7818608E-02  0.7223770E-01
         52   -1    0    0    0    0  0.00000000000E+00  0.00000000000E+00  0.64930732323E+04  0.65000000000E+04  0.30000000000E+03 0. -1.
        -52   -1    0    0    0    0 -0.00000000000E+00 -0.00000000000E+00 -0.64930732323E+04  0.65000000000E+04  0.30000000000E+03 0.  1.
     100001    1    1    2    0    0 -0.46170869436E+03  0.68448277087E+03  0.64455921503E+04  0.65000000000E+04  0.15050000000E+03 0. -1.
     100001    1    1    2    0    0  0.46170869436E+03 -0.68448277087E+03 -0.64455921503E+04  0.65000000000E+04  0.15050000000E+03 0.  1.
</event>
<event>
 4    1  0.5269789E-004  0.6500000E+04  0.7818608E-02  0.7223770E-01
         52   -1    0    0    0    0  0.00000000000E+00  0.00000000000E+00  0.64930732323E+04  0.65000000000E+04  0.30000000000E+03 0. -1.
        -52   -1    0    0    0    0 -0.00000000000E+00 -0.00000000000E+00 -0.64930732323E+04  0.65000000000E+04  0.30000000000E+03 0. -1.
     100001    1    1    2    0    0 -0.21665592840E+02 -0.21116775014E+03  0.64947893371E+04  0.65000000000E+04  0.15050000000E+03 0. -1.
     100001    1    1    2    0    0  0.21665592840E+02  0.21116775014E+03 -0.64947893371E+04  0.65000000000E+04  0.15050000000E+03 0. -1.
</event>
<event>
 4    1  0.4826743E-004  0.6500000E+04  0.7818608E-02  0.7223770E-01
         52   -1    0    0    0    0  0.00000000000E+00  0.00000000000E+00  0.64930732323E+04  0.65000000000E+04  0.30000000000E+03 0. -1.
        -52   -1    0    0    0    0 -0.00000000000E+00 -0.00000000000E+00 -0.64930732323E+04  0.65000000000E+04  0.30000000000E+03 0.  1.
     100001    1    1    2    0    0  0.98252669824E+03  0.12142957754E+04 -0.63077315104E+04  0.65000000000E+04  0.15050000000E+03 0.  1.
     100001    1    1    2    0    0 -0.98252669824E+03 -0.12142957754E+04  0.63077315104E+04  0.65000000000E+04  0.15050000000E+03 0. -1.
</event>
<event>
 4    1  0.4826743E-004  0.6500000E+04  0.7818608E-02  0.7223770E-01
         52   -1    0    0    0    0  0.00000000000E+00  0.00000000000E+00  0.64930732323E+04  0.65000000000E+04  0.30000000000E+03 0.  1.
        -52   -1    0    0    0    0 -0.00000000000E+00 -0.00000000000E+00 -0.64930732323E+04  0.65000000000E+04  0.30000000000E+03 0. -1.
     100001    1    1    2    0    0 -0.96832607316E+01  0.15964814501E+04 -0.62990874707E+04  0.65000000000E+04  0.15050000000E+03 0. -1.
     100001    1    1    2    0    0  0.96832607316E+01 -0.15964814501E+04  0.62990874707E+04  0.65000000000E+04  0.15050000000E+03 0.  1.
</event>
<event>
 4    1  0.4826743E-004  0.6500000E+04  0.7818608E-02  0.7223770E-01
         52   -1    0    0    0    0  0.00000000000E+00  0.00000000000E+00  0.64930732323E+04  0.65000000000E+04  0.30000000000E+03 0. -1.
        -52   -1    0    0    0    0 -0.00000000000E+00 -0.00000000000E+00 -0.64930732323E+04  0.65000000000E+04  0.30000000000E+03 0.  1.
     100001    1    1    2    0    0  0.41317377681E+04 -0.29845266311E+04 -0.40309668262E+04  0.65000000000E+04  0.15050000000E+03 0.  1.
     100001    1    1    2    0    0 -0.41317377681E+04  0.29845266311E+04  0.40309668262E+04  0.65000000000E+04  0.15050000000E+03 0. -1.
</event>
<event>
 4    1  0.4826743E-004  0.6500000E+04  0.7818608E-02  0.7223770E-01
         52   -1    0    0    0    0  0.00000000000E+00  0.00000000000E+00  0.64930732323E+04  0.65000000000E+04  0.30000000000E+03 0. -1.
        -52   -1    0    0    0    0 -0.00000000000E+00 -0.00000000000E+00 -0.64930732323E+04  0.65000000000E+04  0.30000000000E+03 0.  1.
     100001    1    1    2    0    0  0.39652509351E+04 -0.12387896859E+04  0.49969525599E+04  0.65000000000E+04  0.15050000000E+03 0. -1.
     100001    1    1    2    0    0 -0.39652509351E+04  0.12387896859E+04 -0.49969525599E+04  0.65000000000E+04  0.15050000000E+03 0.  1.
</event>
<event>
 4    1  0.4826743E-004  0.6500000E+04  0.7818608E-02  0.7223770E-01
         52   -1    0    0    0    0  0.00000000000E+00  0.00000000000E+00  0.64930732323E+04  0.65000000000E+04  0.30000000000E+03 0.  1.
        -52   -1    0    0    0    0 -0.00000000000E+00 -0.00000000000E+00 -0.64930732323E+04  0.65000000000E+04  0.30000000000E+03 0. -1.
     100001    1    1    2    0    0  0.30967618513E+04  0.21378177382E+04 -0.52978440053E+04  0.65000000000E+04  0.15050000000E+03 0. -1.
     100001    1    1    2    0    0 -0.30967618513E+04 -0.21378177382E+04  0.52978440053E+04  0.65000000000E+04  0.15050000000E+03 0.  1.
</event>
<event>
 4    1  0.4826743E-004  0.6500000E+04  0.7818608E-02  0.7223770E-01
         52   -1    0    0    0    0  0.00000000000E+00  0.00000000000E+00  0.64930732323E+04  0.65000000000E+04  0.30000000000E+03 0.  1.
        -52   -1    0    0    0    0 -0.00000000000E+00 -0.00000000000E+00 -0.64930732323E+04  0.65000000000E+04  0.30000000000E+03 0.  1.
     100001    1    1    2    0    0  0.83596646334E+03  0.35838436066E+03  0.64342886532E+04  0.65000000000E+04  0.15050000000E+03 0.  1.
     100001    1    1    2    0    0 -0.83596646334E+03 -0.35838436066E+03 -0.64342886532E+04  0.65000000000E+04  0.15050000000E+03 0.  1.
</event>
<event>
 4    1  0.4826743E-004  0.6500000E+04  0.7818608E-02  0.7223770E-01
         52   -1    0    0    0    0  0.00000000000E+00  0.00000000000E+00  0.64930732323E+04  0.65000000000E+04  0.30000000000E+03 0.  1.
        -52   -1    0    0    0    0 -0.00000000000E+00 -0.00000000000E+00 -0.64930732323E+04  0.65000000000E+04  0.30000000000E+03 0.  1.
     100001    1    1    2    0    0  0.25281368040E+03  0.78396176779E+02 -0.64928644705E+04  0.65000000000E+04  0.15050000000E+03 0.  1.
     100001    1    1    2    0    0 -0.25281368040E+03 -0.78396176779E+02  0.64928644705E+04  0.65000000000E+04  0.15050000000E+03 0.  1.
</event>
<event>
 4    1  0.4826743E-004  0.6500000E+04  0.7818608E-02  0.7223770E-01
         52   -1    0    0    0    0  0.00000000000E+00  0.00000000000E+00  0.64930732323E+04  0.65000000000E+04  0.30000000000E+03 0. -1.
        -52   -1    0    0    0    0 -0.00000000000E+00 -0.00000000000E+00 -0.64930732323E+04  0.65000000000E+04  0.30000000000E+03 0.  1.
     100001    1    1    2    0    0 -0.38031557074E+04 -0.22026932648E+03  0.52644883739E+04  0.65000000000E+04  0.15050000000E+03 0. -1.
     100001    1    1    2    0    0  0.38031557074E+04  0.22026932648E+03 -0.52644883739E+04  0.65000000000E+04  0.15050000000E+03 0.  1.
</event>
<event>
 4    1  0.4826743E-004  0.6500000E+04  0.7818608E-02  0.7223770E-01
         52   -1    0    0    0    0  0.00000000000E+00  0.00000000000E+00  0.64930732323E+04  0.65000000000E+04  0.30000000000E+03 0.  1.
        -52   -1    0    0    0    0 -0.00000000000E+00 -0.00000000000E+00 -0.64930732323E+04  0.65000000000E+04  0.30000000000E+03 0. -1.
     100001    1    1    2    0    0 -0.33932452281E+03  0.76825939323E+03  0.64437555915E+04  0.65000000000E+04  0.15050000000E+03 0.  1.
     100001    1    1    2    0    0  0.33932452281E+03 -0.76825939323E+03 -0.64437555915E+04  0.65000000000E+04  0.15050000000E+03 0. -1.
</event>
<event>
 4    1  0.4826743E-004  0.6500000E+04  0.7818608E-02  0.7223770E-01
         52   -1    0    0    0    0  0.00000000000E+00  0.00000000000E+00  0.64930732323E+04  0.65000000000E+04  0.30000000000E+03 0.  1.
        -52   -1    0    0    0    0 -0.00000000000E+00 -0.00000000000E+00 -0.64930732323E+04  0.65000000000E+04  0.30000000000E+03 0. -1.
     100001    1    1    2    0    0 -0.10025194319E+04 -0.93603214869E+03 -0.63518618023E+04  0.65000000000E+04  0.15050000000E+03 0. -1.
     100001    1    1    2    0    0  0.10025194319E+04  0.93603214869E+03  0.63518618023E+04  0.65000000000E+04  0.15050000000E+03 0.  1.
</event>
<event>
 4    1  0.4826743E-004  0.6500000E+04  0.7818608E-02  0.7223770E-01
         52   -1    0    0    0    0  0.00000000000E+00  0.00000000000E+00  0.64930732323E+04  0.65000000000E+04  0.30000000000E+03 0. -1.
        -52   -1    0    0    0    0 -0.00000000000E+00 -0.00000000000E+00 -0.64930732323E+04  0.65000000000E+04  0.30000000000E+03 0.  1.
     100001    1    1    2    0    0 -0.32809570574E+03 -0.69086042559E+03 -0.64530934311E+04  0.65000000000E+04  0.15050000000E+03 0.  1.
     100001    1    1    2    0    0  0.32809570574E+03  0.69086042559E+03  0.64530934311E+04  0.65000000000E+04  0.15050000000E+03 0. -1.
</event>
<event>
 4    1  0.4826743E-004  0.6500000E+04  0.7818608E-02  0.7223770E-01
         52   -1    0    0    0    0  0.00000000000E+00  0.00000000000E+00  0.64930732323E+04  0.65000000000E+04  0.30000000000E+03 0. -1.
        -52   -1    0    0    0    0 -0.00000000000E+00 -0.00000000000E+00 -0.64930732323E+04  0.65000000000E+04  0.30000000000E+03 0.  1.
     100001    1    1    2    0    0  0.49532778144E+04  0.42061727026E+04  0.22357080493E+02  0.65000000000E+04  0.15050000000E+03 0.  1.
     100001    1    1    2    0    0 -0.49532778144E+04 -0.42061727026E+04 -0.22357080493E+02  0.65000000000E+04  0.15050000000E+03 0. -1.
</event>
<event>
 4    1  0.4826743E-004  0.6500000E+04  0.7818608E-02  0.7223770E-01
         52   -1    0    0    0    0  0.00000000000E+00  0.00000000000E+00  0.64930732323E+04  0.65000000000E+04  0.30000000000E+03 0. -1.
        -52   -1    0    0    0    0 -0.00000000000E+00 -0.00000000000E+00 -0.64930732323E+04  0.65000000000E+04  0.30000000000E+03 0. -1.
     100001    1    1    2    0    0  0.18162801514E+03 -0.13155955318E+03 -0.64943862757E+04  0.65000000000E+04  0.15050000000E+03 0. -1.
     100001    1    1    2    0    0 -0.18162801514E+03  0.13155955318E+03  0.64943862757E+04  0.65000000000E+04  0.15050000000E+03 0. -1.
</event>
<event>
 4    1  0.4826743E-004  0.6500000E+04  0.7818608E-02  0.7223770E-01
         52   -1    0    0    0    0  0.00000000000E+00  0.00000000000E+00  0.64930732323E+04  0.65000000000E+04  0.30000000000E+03 0. -1.
        -52   -1    0    0    0    0 -0.00000000000E+00 -0.00000000000E+00 -0.64930732323E+04  0.65000000000E+04  0.30000000000E+03 0.  1.
     100001    1    1    2    0    0  0.28779258813E+03 -0.22828620121E+03  0.64878664125E+04  0.65000000000E+04  0.15050000000E+03 0. -1.
     100001    1    1    2    0    0 -0.28779258813E+03  0.22828620121E+03 -0.64878664125E+04  0.65000000000E+04  0.15050000000E+03 0.  1.
</event>
<event>
 4    1  0.4826743E-004  0.6500000E+04  0.7818608E-02  0.7223770E-01
         52   -1    0    0    0    0  0.00000000000E+00  0.00000000000E+00  0.64930732323E+04  0.65000000000E+04  0.30000000000E+03 0.  1.
        -52   -1    0    0    0    0 -0.00000000000E+00 -0.00000000000E+00 -0.64930732323E+04  0.65000000000E+04  0.30000000000E+03 0. -1.
     100001    1    1    2    0    0 -0.12684805747E+04  0.25325372242E+02  0.63731989932E+04  0.65000000000E+04  0.15050000000E+03 0.  1.
     100001    1    1    2    0    0  0.12684805747E+04 -0.25325372242E+02 -0.63731989932E+04  0.65000000000E+04  0.15050000000E+03 0. -1.
</event>
<event>
 4    1  0.4826743E-004  0.6500000E+04  0.7818608E-02  0.7223770E-01
         52   -1    0    0    0    0  0.00000000000E+00  0.00000000000E+00  0.64930732323E+04  0.65000000000E+04  0.30000000000E+03 0. -1.
        -52   -1    0    0    0    0 -0.00000000000E+00 -0.00000000000E+00 -0.64930732323E+04  0.65000000000E+04  0.30000000000E+03 0.  1.
     100001    1    1    2    0    0 -0.26318901284E+03 -0.31776828343E+03  0.64851449183E+04  0.65000000000E+04  0.15050000000E+03 0. -1.
     100001    1    1    2    0    0  0.26318901284E+03  0.31776828343E+03 -0.64851449183E+04  0.65000000000E+04  0.15050000000E+03 0.  1.
</event>
<event>
 4    1  0.4826743E-004  0.6500000E+04  0.7818608E-02  0.7223770E-01
         52   -1    0    0    0    0  0.00000000000E+00  0.00000000000E+00  0.64930732323E+04  0.65000000000E+04  0.30000000000E+03 0. -1.
        -52   -1    0    0    0    0 -0.00000000000E+00 -0.00000000000E+00 -0.64930732323E+04  0.65000000000E+04  0.30000000000E+03 0.  1.
     100001    1    1    2    0    0 -0.33148685426E+03 -0.12076963276E+03  0.64886732782E+04  0.65000000000E+04  0.15050000000E+03 0. -1.
     100001    1    1    2    0    0  0.33148685426E+03  0.12076963276E+03 -0.64886732782E+04  0.65000000000E+04  0.15050000000E+03 0.  1.
</event>
<event>
 4    1  0.4826743E-004  0.6500000E+04  0.7818608E-02  0.7223770E-01
         52   -1    0    0    0    0  0.00000000000E+00  0.00000000000E+00  0.64930732323E+04  0.65000000000E+04  0.30000000000E+03 0. -1.
        -52   -1    0    0    0    0 -0.00000000000E+00 -0.00000000000E+00 -0.64930732323E+04  0.65000000000E+04  0.30000000000E+03 0.  1.
     100001    1    1    2    0    0  0.42446032491E+03 -0.14230341051E+04 -0.63263067518E+04  0.65000000000E+04  0.15050000000E+03 0.  1.
     100001    1    1    2    0    0 -0.42446032491E+03  0.14230341051E+04  0.63263067518E+04  0.65000000000E+04  0.15050000000E+03 0. -1.
</event>
<event>
 4    1  0.7999954E-004  0.6500000E+04  0.7818608E-02  0.7223770E-01
         52   -1    0    0    0    0  0.00000000000E+00  0.00000000000E+00  0.64930732323E+04  0.65000000000E+04  0.30000000000E+03 0.  1.
        -52   -1    0    0    0    0 -0.00000000000E+00 -0.00000000000E+00 -0.64930732323E+04  0.65000000000E+04  0.30000000000E+03 0.  1.
     100001    1    1    2    0    0 -0.84793187935E+02 -0.32397441014E+02 -0.64976234325E+04  0.65000000000E+04  0.15050000000E+03 0.  1.
     100001    1    1    2    0    0  0.84793187935E+02  0.32397441014E+02  0.64976234325E+04  0.65000000000E+04  0.15050000000E+03 0.  1.
</event>
<event>
 4    1  0.4826743E-004  0.6500000E+04  0.7818608E-02  0.7223770E-01
         52   -1    0    0    0    0  0.00000000000E+00  0.00000000000E+00  0.64930732323E+04  0.65000000000E+04  0.30000000000E+03 0.  1.
        -52   -1    0    0    0    0 -0.00000000000E+00 -0.00000000000E+00 -0.64930732323E+04  0.65000000000E+04  0.30000000000E+03 0.  1.
     100001    1    1    2    0    0  0.10195127147E+03  0.43448771441E+03  0.64829141684E+04  0.65000000000E+04  0.15050000000E+03 0.  1.
     100001    1    1    2    0    0 -0.10195127147E+03 -0.43448771441E+03 -0.64829141684E+04  0.65000000000E+04  0.15050000000E+03 0.  1.
</event>
<event>
 4    1  0.4826743E-004  0.6500000E+04  0.7818608E-02  0.7223770E-01
         52   -1    0    0    0    0  0.00000000000E+00  0.00000000000E+00  0.64930732323E+04  0.65000000000E+04  0.30000000000E+03 0.  1.
        -52   -1    0    0    0    0 -0.00000000000E+00 -0.00000000000E+00 -0.64930732323E+04  0.65000000000E+04  0.30000000000E+03 0. -1.
     100001    1    1    2    0    0  0.11987974150E+03  0.16297077739E+04 -0.62894380647E+04  0.65000000000E+04  0.15050000000E+03 0. -1.
     100001    1    1    2    0    0 -0.11987974150E+03 -0.16297077739E+04  0.62894380647E+04  0.65000000000E+04  0.15050000000E+03 0.  1.
</event>
<event>
 4    1  0.4826743E-004  0.6500000E+04  0.7818608E-02  0.7223770E-01
         52   -1    0    0    0    0  0.00000000000E+00  0.00000000000E+00  0.64930732323E+04  0.65000000000E+04  0.30000000000E+03 0. -1.
        -52   -1    0    0    0    0 -0.00000000000E+00 -0.00000000000E+00 -0.64930732323E+04  0.65000000000E+04  0.30000000000E+03 0.  1.
     100001    1    1    2    0    0  0.13191885622E+04 -0.25694787745E+03  0.63577566071E+04  0.65000000000E+04  0.15050000000E+03 0. -1.
     100001    1    1    2    0    0 -0.13191885622E+04  0.25694787745E+03 -0.63577566071E+04  0.65000000000E+04  0.15050000000E+03 0.  1.
</event>
<event>
 4    1  0.4826743E-004  0.6500000E+04  0.7818608E-02  0.7223770E-01
         52   -1    0    0    0    0  0.00000000000E+00  0.00000000000E+00  0.64930732323E+04  0.65000000000E+04  0.30000000000E+03 0.  1.
        -52   -1    0    0    0    0 -0.00000000000E+00 -0.00000000000E+00 -0.64930732323E+04  0.65000000000E+04  0.30000000000E+03 0. -1.
     100001    1    1    2    0    0 -0.23086645275E+04 -0.97900746999E+03  0.59949113608E+04  0.65000000000E+04  0.15050000000E+03 0.  1.
     100001    1    1    2    0    0  0.23086645275E+04  0.97900746999E+03 -0.59949113608E+04  0.65000000000E+04  0.15050000000E+03 0. -1.
</event>
<event>
 4    1  0.4826743E-004  0.6500000E+04  0.7818608E-02  0.7223770E-01
         52   -1    0    0    0    0  0.00000000000E+00  0.00000000000E+00  0.64930732323E+04  0.65000000000E+04  0.30000000000E+03 0.  1.
        -52   -1    0    0    0    0 -0.00000000000E+00 -0.00000000000E+00 -0.64930732323E+04  0.65000000000E+04  0.30000000000E+03 0. -1.
     100001    1    1    2    0    0  0.36563094009E+03 -0.53619307252E+04  0.36528567812E+04  0.65000000000E+04  0.15050000000E+03 0.  1.
     100001    1    1    2    0    0 -0.36563094009E+03  0.53619307252E+04 -0.36528567812E+04  0.65000000000E+04  0.15050000000E+03 0. -1.
</event>
<event>
 4    1  0.4826743E-004  0.6500000E+04  0.7818608E-02  0.7223770E-01
         52   -1    0    0    0    0  0.00000000000E+00  0.00000000000E+00  0.64930732323E+04  0.65000000000E+04  0.30000000000E+03 0.  1.
        -52   -1    0    0    0    0 -0.00000000000E+00 -0.00000000000E+00 -0.64930732323E+04  0.65000000000E+04  0.30000000000E+03 0. -1.
     100001    1    1    2    0    0 -0.30420599312E+03 -0.62209654134E+03 -0.64612540855E+04  0.65000000000E+04  0.15050000000E+03 0. -1.
     100001    1    1    2    0    0  0.30420599312E+03  0.62209654134E+03  0.64612540855E+04  0.65000000000E+04  0.15050000000E+03 0.  1.
</event>
<event>
 4    1  0.4826743E-004  0.6500000E+04  0.7818608E-02  0.7223770E-01
         52   -1    0    0    0    0  0.00000000000E+00  0.00000000000E+00  0.64930732323E+04  0.65000000000E+04  0.30000000000E+03 0. -1.
        -52   -1    0    0    0    0 -0.00000000000E+00 -0.00000000000E+00 -0.64930732323E+04  0.65000000000E+04  0.30000000000E+03 0.  1.
     100001    1    1    2    0    0 -0.28636259541E+04  0.47804569333E+04 -0.33427874078E+04  0.65000000000E+04  0.15050000000E+03 0.  1.
     100001    1    1    2    0    0  0.28636259541E+04 -0.47804569333E+04  0.33427874078E+04  0.65000000000E+04  0.15050000000E+03 0. -1.
</event>
<event>
 4    1  0.4826743E-004  0.6500000E+04  0.7818608E-02  0.7223770E-01
         52   -1    0    0    0    0  0.00000000000E+00  0.00000000000E+00  0.64930732323E+04  0.65000000000E+04  0.30000000000E+03 0.  1.
        -52   -1    0    0    0    0 -0.00000000000E+00 -0.00000000000E+00 -0.64930732323E+04  0.65000000000E+04  0.30000000000E+03 0. -1.
     100001    1    1    2    0    0  0.49838429023E+03  0.19737270257E+03  0.64761104735E+04  0.65000000000E+04  0.15050000000E+03 0.  1.
     100001    1    1    2    0    0 -0.49838429023E+03 -0.19737270257E+03 -0.64761104735E+04  0.65000000000E+04  0.15050000000E+03 0. -1.
</event>
<event>
 4    1  0.4826743E-004  0.6500000E+04  0.7818608E-02  0.7223770E-01
         52   -1    0    0    0    0  0.00000000000E+00  0.00000000000E+00  0.64930732323E+04  0.65000000000E+04  0.30000000000E+03 0.  1.
        -52   -1    0    0    0    0 -0.00000000000E+00 -0.00000000000E+00 -0.64930732323E+04  0.65000000000E+04  0.30000000000E+03 0. -1.
     100001    1    1    2    0    0 -0.15885711933E+03  0.30777579981E+03  0.64890205904E+04  0.65000000000E+04  0.15050000000E+03 0.  1.
     100001    1    1    2    0    0  0.15885711933E+03 -0.30777579981E+03 -0.64890205904E+04  0.65000000000E+04  0.15050000000E+03 0. -1.
</event>
<event>
 4    1  0.4826743E-004  0.6500000E+04  0.7818608E-02  0.7223770E-01
         52   -1    0    0    0    0  0.00000000000E+00  0.00000000000E+00  0.64930732323E+04  0.65000000000E+04  0.30000000000E+03 0.  1.
        -52   -1    0    0    0    0 -0.00000000000E+00 -0.00000000000E+00 -0.64930732323E+04  0.65000000000E+04  0.30000000000E+03 0. -1.
     100001    1    1    2    0    0 -0.14873215202E+04 -0.16513832933E+03  0.63236029111E+04  0.65000000000E+04  0.15050000000E+03 0.  1.
     100001    1    1    2    0    0  0.14873215202E+04  0.16513832933E+03 -0.63236029111E+04  0.65000000000E+04  0.15050000000E+03 0. -1.
</event>
<event>
 4    1  0.4826743E-004  0.6500000E+04  0.7818608E-02  0.7223770E-01
         52   -1    0    0    0    0  0.00000000000E+00  0.00000000000E+00  0.64930732323E+04  0.65000000000E+04  0.30000000000E+03 0. -1.
        -52   -1    0    0    0    0 -0.00000000000E+00 -0.00000000000E+00 -0.64930732323E+04  0.65000000000E+04  0.30000000000E+03 0.  1.
     100001    1    1    2    0    0 -0.36343840692E+01  0.56760448223E+03  0.64734196290E+04  0.65000000000E+04  0.15050000000E+03 0. -1.
     100001    1    1    2    0    0  0.36343840692E+01 -0.56760448223E+03 -0.64734196290E+04  0.65000000000E+04  0.15050000000E+03 0.  1.
</event>
<event>
 4    1  0.4976950E-004  0.6500000E+04  0.7818608E-02  0.7223770E-01
         52   -1    0    0    0    0  0.00000000000E+00  0.00000000000E+00  0.64930732323E+04  0.65000000000E+04  0.30000000000E+03 0.  1.
        -52   -1    0    0    0    0 -0.00000000000E+00 -0.00000000000E+00 -0.64930732323E+04  0.65000000000E+04  0.30000000000E+03 0. -1.
     100001    1    1    2    0    0  0.67573826050E+02 -0.25479222242E+03 -0.64929087820E+04  0.65000000000E+04  0.15050000000E+03 0. -1.
     100001    1    1    2    0    0 -0.67573826050E+02  0.25479222242E+03  0.64929087820E+04  0.65000000000E+04  0.15050000000E+03 0.  1.
</event>
<event>
 4    1  0.4826743E-004  0.6500000E+04  0.7818608E-02  0.7223770E-01
         52   -1    0    0    0    0  0.00000000000E+00  0.00000000000E+00  0.64930732323E+04  0.65000000000E+04  0.30000000000E+03 0.  1.
        -52   -1    0    0    0    0 -0.00000000000E+00 -0.00000000000E+00 -0.64930732323E+04  0.65000000000E+04  0.30000000000E+03 0.  1.
     100001    1    1    2    0    0  0.27638617593E+03 -0.32223055617E+03 -0.64843756755E+04  0.65000000000E+04  0.15050000000E+03 0.  1.
     100001    1    1    2    0    0 -0.27638617593E+03  0.32223055617E+03  0.64843756755E+04  0.65000000000E+04  0.15050000000E+03 0.  1.
</event>
<event>
 4    1  0.4826743E-004  0.6500000E+04  0.7818608E-02  0.7223770E-01
         52   -1    0    0    0    0  0.00000000000E+00  0.00000000000E+00  0.64930732323E+04  0.65000000000E+04  0.30000000000E+03 0.  1.
        -52   -1    0    0    0    0 -0.00000000000E+00 -0.00000000000E+00 -0.64930732323E+04  0.65000000000E+04  0.30000000000E+03 0. -1.
     100001    1    1    2    0    0 -0.25104923495E+04  0.16009832206E+04  0.57759527907E+04  0.65000000000E+04  0.15050000000E+03 0.  1.
     100001    1    1    2    0    0  0.25104923495E+04 -0.16009832206E+04 -0.57759527907E+04  0.65000000000E+04  0.15050000000E+03 0. -1.
</event>
<event>
 4    1  0.4826743E-004  0.6500000E+04  0.7818608E-02  0.7223770E-01
         52   -1    0    0    0    0  0.00000000000E+00  0.00000000000E+00  0.64930732323E+04  0.65000000000E+04  0.30000000000E+03 0.  1.
        -52   -1    0    0    0    0 -0.00000000000E+00 -0.00000000000E+00 -0.64930732323E+04  0.65000000000E+04  0.30000000000E+03 0. -1.
     100001    1    1    2    0    0  0.67023305312E+03 -0.64267412867E+04  0.68929952709E+03  0.65000000000E+04  0.15050000000E+03 0.  1.
     100001    1    1    2    0    0 -0.67023305312E+03  0.64267412867E+04 -0.68929952709E+03  0.65000000000E+04  0.15050000000E+03 0. -1.
</event>
<event>
 4    1  0.4826743E-004  0.6500000E+04  0.7818608E-02  0.7223770E-01
         52   -1    0    0    0    0  0.00000000000E+00  0.00000000000E+00  0.64930732323E+04  0.65000000000E+04  0.30000000000E+03 0. -1.
        -52   -1    0    0    0    0 -0.00000000000E+00 -0.00000000000E+00 -0.64930732323E+04  0.65000000000E+04  0.30000000000E+03 0.  1.
     100001    1    1    2    0    0  0.25763393474E+04 -0.70295823845E+03 -0.59241602808E+04  0.65000000000E+04  0.15050000000E+03 0.  1.
     100001    1    1    2    0    0 -0.25763393474E+04  0.70295823845E+03  0.59241602808E+04  0.65000000000E+04  0.15050000000E+03 0. -1.
</event>
<event>
 4    1  0.4826743E-004  0.6500000E+04  0.7818608E-02  0.7223770E-01
         52   -1    0    0    0    0  0.00000000000E+00  0.00000000000E+00  0.64930732323E+04  0.65000000000E+04  0.30000000000E+03 0. -1.
        -52   -1    0    0    0    0 -0.00000000000E+00 -0.00000000000E+00 -0.64930732323E+04  0.65000000000E+04  0.30000000000E+03 0.  1.
     100001    1    1    2    0    0 -0.14905971302E+04 -0.57792726451E+03  0.62985291952E+04  0.65000000000E+04  0.15050000000E+03 0. -1.
     100001    1    1    2    0    0  0.14905971302E+04  0.57792726451E+03 -0.62985291952E+04  0.65000000000E+04  0.15050000000E+03 0.  1.
</event>
<event>
 4    1  0.4826743E-004  0.6500000E+04  0.7818608E-02  0.7223770E-01
         52   -1    0    0    0    0  0.00000000000E+00  0.00000000000E+00  0.64930732323E+04  0.65000000000E+04  0.30000000000E+03 0. -1.
        -52   -1    0    0    0    0 -0.00000000000E+00 -0.00000000000E+00 -0.64930732323E+04  0.65000000000E+04  0.30000000000E+03 0.  1.
     100001    1    1    2    0    0 -0.44605565868E+02 -0.65741241727E+03 -0.64647636467E+04  0.65000000000E+04  0.15050000000E+03 0.  1.
     100001    1    1    2    0    0  0.44605565868E+02  0.65741241727E+03  0.64647636467E+04  0.65000000000E+04  0.15050000000E+03 0. -1.
</event>
<event>
 4    1  0.4826743E-004  0.6500000E+04  0.7818608E-02  0.7223770E-01
         52   -1    0    0    0    0  0.00000000000E+00  0.00000000000E+00  0.64930732323E+04  0.65000000000E+04  0.30000000000E+03 0. -1.
        -52   -1    0    0    0    0 -0.00000000000E+00 -0.00000000000E+00 -0.64930732323E+04  0.65000000000E+04  0.30000000000E+03 0.  1.
     100001    1    1    2    0    0 -0.47348185915E+03  0.12376608596E+04  0.63617104835E+04  0.65000000000E+04  0.15050000000E+03 0. -1.
     100001    1    1    2    0    0  0.47348185915E+03 -0.12376608596E+04 -0.63617104835E+04  0.65000000000E+04  0.15050000000E+03 0.  1.
</event>
<event>
 4    1  0.4826743E-004  0.6500000E+04  0.7818608E-02  0.7223770E-01
         52   -1    0    0    0    0  0.00000000000E+00  0.00000000000E+00  0.64930732323E+04  0.65000000000E+04  0.30000000000E+03 0. -1.
        -52   -1    0    0    0    0 -0.00000000000E+00 -0.00000000000E+00 -0.64930732323E+04  0.65000000000E+04  0.30000000000E+03 0.  1.
     100001    1    1    2    0    0  0.34921930759E+04 -0.60557008419E+03 -0.54465789394E+04  0.65000000000E+04  0.15050000000E+03 0.  1.
     100001    1    1    2    0    0 -0.34921930759E+04  0.60557008419E+03  0.54465789394E+04  0.65000000000E+04  0.15050000000E+03 0. -1.
</event>
<event>
 4    1  0.4826743E-004  0.6500000E+04  0.7818608E-02  0.7223770E-01
         52   -1    0    0    0    0  0.00000000000E+00  0.00000000000E+00  0.64930732323E+04  0.65000000000E+04  0.30000000000E+03 0.  1.
        -52   -1    0    0    0    0 -0.00000000000E+00 -0.00000000000E+00 -0.64930732323E+04  0.65000000000E+04  0.30000000000E+03 0. -1.
     100001    1    1    2    0    0 -0.75556116492E+03  0.35352970774E+04  0.53998288538E+04  0.65000000000E+04  0.15050000000E+03 0.  1.
     100001    1    1    2    0    0  0.75556116492E+03 -0.35352970774E+04 -0.53998288538E+04  0.65000000000E+04  0.15050000000E+03 0. -1.
</event>
<event>
 4    1  0.4826743E-004  0.6500000E+04  0.7818608E-02  0.7223770E-01
         52   -1    0    0    0    0  0.00000000000E+00  0.00000000000E+00  0.64930732323E+04  0.65000000000E+04  0.30000000000E+03 0.  1.
        -52   -1    0    0    0    0 -0.00000000000E+00 -0.00000000000E+00 -0.64930732323E+04  0.65000000000E+04  0.30000000000E+03 0. -1.
     100001    1    1    2    0    0 -0.13899367642E+04 -0.51177060763E+03 -0.63272044685E+04  0.65000000000E+04  0.15050000000E+03 0. -1.
     100001    1    1    2    0    0  0.13899367642E+04  0.51177060763E+03  0.63272044685E+04  0.65000000000E+04  0.15050000000E+03 0.  1.
</event>
<event>
 4    1  0.4826743E-004  0.6500000E+04  0.7818608E-02  0.7223770E-01
         52   -1    0    0    0    0  0.00000000000E+00  0.00000000000E+00  0.64930732323E+04  0.65000000000E+04  0.30000000000E+03 0.  1.
        -52   -1    0    0    0    0 -0.00000000000E+00 -0.00000000000E+00 -0.64930732323E+04  0.65000000000E+04  0.30000000000E+03 0. -1.
     100001    1    1    2    0    0  0.53765907212E+03 -0.48301465126E+04 -0.43136941407E+04  0.65000000000E+04  0.15050000000E+03 0. -1.
     100001    1    1    2    0    0 -0.53765907212E+03  0.48301465126E+04  0.43136941407E+04  0.65000000000E+04  0.15050000000E+03 0.  1.
</event>
<event>
 4    1  0.4826743E-004  0.6500000E+04  0.7818608E-02  0.7223770E-01
         52   -1    0    0    0    0  0.00000000000E+00  0.00000000000E+00  0.64930732323E+04  0.65000000000E+04  0.30000000000E+03 0.  1.
        -52   -1    0    0    0    0 -0.00000000000E+00 -0.00000000000E+00 -0.64930732323E+04  0.65000000000E+04  0.30000000000E+03 0. -1.
     100001    1    1    2    0    0  0.59469578934E+04  0.18054305632E+04 -0.18977518397E+04  0.65000000000E+04  0.15050000000E+03 0.  1.
     100001    1    1    2    0    0 -0.59469578934E+04 -0.18054305632E+04  0.18977518397E+04  0.65000000000E+04  0.15050000000E+03 0. -1.
</event>
<event>
 4    1  0.4826743E-004  0.6500000E+04  0.7818608E-02  0.7223770E-01
         52   -1    0    0    0    0  0.00000000000E+00  0.00000000000E+00  0.64930732323E+04  0.65000000000E+04  0.30000000000E+03 0. -1.
        -52   -1    0    0    0    0 -0.00000000000E+00 -0.00000000000E+00 -0.64930732323E+04  0.65000000000E+04  0.30000000000E+03 0.  1.
     100001    1    1    2    0    0  0.51915217044E+03 -0.66443170150E+02  0.64771456738E+04  0.65000000000E+04  0.15050000000E+03 0. -1.
     100001    1    1    2    0    0 -0.51915217044E+03  0.66443170150E+02 -0.64771456738E+04  0.65000000000E+04  0.15050000000E+03 0.  1.
</event>
<event>
 4    1  0.4826743E-004  0.6500000E+04  0.7818608E-02  0.7223770E-01
         52   -1    0    0    0    0  0.00000000000E+00  0.00000000000E+00  0.64930732323E+04  0.65000000000E+04  0.30000000000E+03 0.  1.
        -52   -1    0    0    0    0 -0.00000000000E+00 -0.00000000000E+00 -0.64930732323E+04  0.65000000000E+04  0.30000000000E+03 0. -1.
     100001    1    1    2    0    0 -0.33780999642E+03 -0.25340010885E+04 -0.59742842784E+04  0.65000000000E+04  0.15050000000E+03 0. -1.
     100001    1    1    2    0    0  0.33780999642E+03  0.25340010885E+04  0.59742842784E+04  0.65000000000E+04  0.15050000000E+03 0.  1.
</event>
<event>
 4    1  0.4826743E-004  0.6500000E+04  0.7818608E-02  0.7223770E-01
         52   -1    0    0    0    0  0.00000000000E+00  0.00000000000E+00  0.64930732323E+04  0.65000000000E+04  0.30000000000E+03 0.  1.
        -52   -1    0    0    0    0 -0.00000000000E+00 -0.00000000000E+00 -0.64930732323E+04  0.65000000000E+04  0.30000000000E+03 0. -1.
     100001    1    1    2    0    0 -0.69873650138E+03  0.23314087814E+03 -0.64563737797E+04  0.65000000000E+04  0.15050000000E+03 0. -1.
     100001    1    1    2    0    0  0.69873650138E+03 -0.23314087814E+03  0.64563737797E+04  0.65000000000E+04  0.15050000000E+03 0.  1.
</event>
<event>
 4    1  0.4826743E-004  0.6500000E+04  0.7818608E-02  0.7223770E-01
         52   -1    0    0    0    0  0.00000000000E+00  0.00000000000E+00  0.64930732323E+04  0.65000000000E+04  0.30000000000E+03 0.  1.
        -52   -1    0    0    0    0 -0.00000000000E+00 -0.00000000000E+00 -0.64930732323E+04  0.65000000000E+04  0.30000000000E+03 0. -1.
     100001    1    1    2    0    0 -0.38090854482E+04 -0.11734186934E+04 -0.51323782370E+04  0.65000000000E+04  0.15050000000E+03 0. -1.
     100001    1    1    2    0    0  0.38090854482E+04  0.11734186934E+04  0.51323782370E+04  0.65000000000E+04  0.15050000000E+03 0.  1.
</event>
<event>
 4    1  0.4826743E-004  0.6500000E+04  0.7818608E-02  0.7223770E-01
         52   -1    0    0    0    0  0.00000000000E+00  0.00000000000E+00  0.64930732323E+04  0.65000000000E+04  0.30000000000E+03 0.  1.
        -52   -1    0    0    0    0 -0.00000000000E+00 -0.00000000000E+00 -0.64930732323E+04  0.65000000000E+04  0.30000000000E+03 0. -1.
     100001    1    1    2    0    0 -0.31769637724E+03  0.52297567815E+03  0.64693829074E+04  0.65000000000E+04  0.15050000000E+03 0.  1.
     100001    1    1    2    0    0  0.31769637724E+03 -0.52297567815E+03 -0.64693829074E+04  0.65000000000E+04  0.15050000000E+03 0. -1.
</event>
<event>
 4    1  0.4826743E-004  0.6500000E+04  0.7818608E-02  0.7223770E-01
         52   -1    0    0    0    0  0.00000000000E+00  0.00000000000E+00  0.64930732323E+04  0.65000000000E+04  0.30000000000E+03 0.  1.
        -52   -1    0    0    0    0 -0.00000000000E+00 -0.00000000000E+00 -0.64930732323E+04  0.65000000000E+04  0.30000000000E+03 0. -1.
     100001    1    1    2    0    0  0.15574809366E+04 -0.18375779967E+04 -0.60353052937E+04  0.65000000000E+04  0.15050000000E+03 0. -1.
     100001    1    1    2    0    0 -0.15574809366E+04  0.18375779967E+04  0.60353052937E+04  0.65000000000E+04  0.15050000000E+03 0.  1.
</event>
<event>
 4    1  0.4826743E-004  0.6500000E+04  0.7818608E-02  0.7223770E-01
         52   -1    0    0    0    0  0.00000000000E+00  0.00000000000E+00  0.64930732323E+04  0.65000000000E+04  0.30000000000E+03 0.  1.
        -52   -1    0    0    0    0 -0.00000000000E+00 -0.00000000000E+00 -0.64930732323E+04  0.65000000000E+04  0.30000000000E+03 0. -1.
     100001    1    1    2    0    0 -0.21342421776E+03  0.64925641682E+01 -0.64947484709E+04  0.65000000000E+04  0.15050000000E+03 0. -1.
     100001    1    1    2    0    0  0.21342421776E+03 -0.64925641682E+01  0.64947484709E+04  0.65000000000E+04  0.15050000000E+03 0.  1.
</event>
<event>
 4    1  0.4826743E-004  0.6500000E+04  0.7818608E-02  0.7223770E-01
         52   -1    0    0    0    0  0.00000000000E+00  0.00000000000E+00  0.64930732323E+04  0.65000000000E+04  0.30000000000E+03 0.  1.
        -52   -1    0    0    0    0 -0.00000000000E+00 -0.00000000000E+00 -0.64930732323E+04  0.65000000000E+04  0.30000000000E+03 0.  1.
     100001    1    1    2    0    0 -0.49217787049E+04  0.34831181758E+04  0.24230831400E+04  0.65000000000E+04  0.15050000000E+03 0.  1.
     100001    1    1    2    0    0  0.49217787049E+04 -0.34831181758E+04 -0.24230831400E+04  0.65000000000E+04  0.15050000000E+03 0.  1.
</event>
<event>
 4    1  0.4826743E-004  0.6500000E+04  0.7818608E-02  0.7223770E-01
         52   -1    0    0    0    0  0.00000000000E+00  0.00000000000E+00  0.64930732323E+04  0.65000000000E+04  0.30000000000E+03 0.  1.
        -52   -1    0    0    0    0 -0.00000000000E+00 -0.00000000000E+00 -0.64930732323E+04  0.65000000000E+04  0.30000000000E+03 0. -1.
     100001    1    1    2    0    0 -0.12746595892E+03  0.38719801402E+03 -0.64854591108E+04  0.65000000000E+04  0.15050000000E+03 0. -1.
     100001    1    1    2    0    0  0.12746595892E+03 -0.38719801402E+03  0.64854591108E+04  0.65000000000E+04  0.15050000000E+03 0.  1.
</event>
<event>
 4    1  0.4826743E-004  0.6500000E+04  0.7818608E-02  0.7223770E-01
         52   -1    0    0    0    0  0.00000000000E+00  0.00000000000E+00  0.64930732323E+04  0.65000000000E+04  0.30000000000E+03 0.  1.
        -52   -1    0    0    0    0 -0.00000000000E+00 -0.00000000000E+00 -0.64930732323E+04  0.65000000000E+04  0.30000000000E+03 0. -1.
     100001    1    1    2    0    0  0.25355472479E+04 -0.23006926942E+04 -0.55231479276E+04  0.65000000000E+04  0.15050000000E+03 0. -1.
     100001    1    1    2    0    0 -0.25355472479E+04  0.23006926942E+04  0.55231479276E+04  0.65000000000E+04  0.15050000000E+03 0.  1.
</event>
<event>
 4    1  0.4826743E-004  0.6500000E+04  0.7818608E-02  0.7223770E-01
         52   -1    0    0    0    0  0.00000000000E+00  0.00000000000E+00  0.64930732323E+04  0.65000000000E+04  0.30000000000E+03 0.  1.
        -52   -1    0    0    0    0 -0.00000000000E+00 -0.00000000000E+00 -0.64930732323E+04  0.65000000000E+04  0.30000000000E+03 0. -1.
     100001    1    1    2    0    0 -0.23633531979E+02 -0.13524565174E+04  0.63559147709E+04  0.65000000000E+04  0.15050000000E+03 0.  1.
     100001    1    1    2    0    0  0.23633531979E+02  0.13524565174E+04 -0.63559147709E+04  0.65000000000E+04  0.15050000000E+03 0. -1.
</event>
<event>
 4    1  0.4826743E-004  0.6500000E+04  0.7818608E-02  0.7223770E-01
         52   -1    0    0    0    0  0.00000000000E+00  0.00000000000E+00  0.64930732323E+04  0.65000000000E+04  0.30000000000E+03 0. -1.
        -52   -1    0    0    0    0 -0.00000000000E+00 -0.00000000000E+00 -0.64930732323E+04  0.65000000000E+04  0.30000000000E+03 0. -1.
     100001    1    1    2    0    0 -0.24840017453E+03 -0.39559917463E+03 -0.64814464741E+04  0.65000000000E+04  0.15050000000E+03 0. -1.
     100001    1    1    2    0    0  0.24840017453E+03  0.39559917463E+03  0.64814464741E+04  0.65000000000E+04  0.15050000000E+03 0. -1.
</event>
<event>
 4    1  0.4826743E-004  0.6500000E+04  0.7818608E-02  0.7223770E-01
         52   -1    0    0    0    0  0.00000000000E+00  0.00000000000E+00  0.64930732323E+04  0.65000000000E+04  0.30000000000E+03 0. -1.
        -52   -1    0    0    0    0 -0.00000000000E+00 -0.00000000000E+00 -0.64930732323E+04  0.65000000000E+04  0.30000000000E+03 0.  1.
     100001    1    1    2    0    0 -0.23972537907E+03  0.16169270785E+03  0.64918207739E+04  0.65000000000E+04  0.15050000000E+03 0. -1.
     100001    1    1    2    0    0  0.23972537907E+03 -0.16169270785E+03 -0.64918207739E+04  0.65000000000E+04  0.15050000000E+03 0.  1.
</event>
<event>
 4    1  0.4826743E-004  0.6500000E+04  0.7818608E-02  0.7223770E-01
         52   -1    0    0    0    0  0.00000000000E+00  0.00000000000E+00  0.64930732323E+04  0.65000000000E+04  0.30000000000E+03 0.  1.
        -52   -1    0    0    0    0 -0.00000000000E+00 -0.00000000000E+00 -0.64930732323E+04  0.65000000000E+04  0.30000000000E+03 0. -1.
     100001    1    1    2    0    0 -0.15051577038E+03  0.75478557321E+03  0.64525183837E+04  0.65000000000E+04  0.15050000000E+03 0.  1.
     100001    1    1    2    0    0  0.15051577038E+03 -0.75478557321E+03 -0.64525183837E+04  0.65000000000E+04  0.15050000000E+03 0. -1.
</event>
<event>
 4    1  0.4826743E-004  0.6500000E+04  0.7818608E-02  0.7223770E-01
         52   -1    0    0    0    0  0.00000000000E+00  0.00000000000E+00  0.64930732323E+04  0.65000000000E+04  0.30000000000E+03 0. -1.
        -52   -1    0    0    0    0 -0.00000000000E+00 -0.00000000000E+00 -0.64930732323E+04  0.65000000000E+04  0.30000000000E+03 0.  1.
     100001    1    1    2    0    0  0.40033602234E+04  0.34943656916E+04  0.37403028066E+04  0.65000000000E+04  0.15050000000E+03 0. -1.
     100001    1    1    2    0    0 -0.40033602234E+04 -0.34943656916E+04 -0.37403028066E+04  0.65000000000E+04  0.15050000000E+03 0.  1.
</event>
<event>
 4    1  0.4826743E-004  0.6500000E+04  0.7818608E-02  0.7223770E-01
         52   -1    0    0    0    0  0.00000000000E+00  0.00000000000E+00  0.64930732323E+04  0.65000000000E+04  0.30000000000E+03 0.  1.
        -52   -1    0    0    0    0 -0.00000000000E+00 -0.00000000000E+00 -0.64930732323E+04  0.65000000000E+04  0.30000000000E+03 0. -1.
     100001    1    1    2    0    0  0.24796111686E+04  0.90276330058E+03 -0.59383412352E+04  0.65000000000E+04  0.15050000000E+03 0. -1.
     100001    1    1    2    0    0 -0.24796111686E+04 -0.90276330058E+03  0.59383412352E+04  0.65000000000E+04  0.15050000000E+03 0.  1.
</event>
<event>
 4    1  0.4826743E-004  0.6500000E+04  0.7818608E-02  0.7223770E-01
         52   -1    0    0    0    0  0.00000000000E+00  0.00000000000E+00  0.64930732323E+04  0.65000000000E+04  0.30000000000E+03 0.  1.
        -52   -1    0    0    0    0 -0.00000000000E+00 -0.00000000000E+00 -0.64930732323E+04  0.65000000000E+04  0.30000000000E+03 0. -1.
     100001    1    1    2    0    0 -0.11186139174E+04  0.38155038017E+04  0.51398427401E+04  0.65000000000E+04  0.15050000000E+03 0.  1.
     100001    1    1    2    0    0  0.11186139174E+04 -0.38155038017E+04 -0.51398427401E+04  0.65000000000E+04  0.15050000000E+03 0. -1.
</event>
<event>
 4    1  0.4826743E-004  0.6500000E+04  0.7818608E-02  0.7223770E-01
         52   -1    0    0    0    0  0.00000000000E+00  0.00000000000E+00  0.64930732323E+04  0.65000000000E+04  0.30000000000E+03 0. -1.
        -52   -1    0    0    0    0 -0.00000000000E+00 -0.00000000000E+00 -0.64930732323E+04  0.65000000000E+04  0.30000000000E+03 0. -1.
     100001    1    1    2    0    0 -0.68921331193E+02 -0.25211719848E+03 -0.64929990388E+04  0.65000000000E+04  0.15050000000E+03 0. -1.
     100001    1    1    2    0    0  0.68921331193E+02  0.25211719848E+03  0.64929990388E+04  0.65000000000E+04  0.15050000000E+03 0. -1.
</event>
<event>
 4    1  0.5168761E-004  0.6500000E+04  0.7818608E-02  0.7223770E-01
         52   -1    0    0    0    0  0.00000000000E+00  0.00000000000E+00  0.64930732323E+04  0.65000000000E+04  0.30000000000E+03 0.  1.
        -52   -1    0    0    0    0 -0.00000000000E+00 -0.00000000000E+00 -0.64930732323E+04  0.65000000000E+04  0.30000000000E+03 0.  1.
     100001    1    1    2    0    0  0.79452691587E+02 -0.20643688380E+03  0.64944915762E+04  0.65000000000E+04  0.15050000000E+03 0.  1.
     100001    1    1    2    0    0 -0.79452691587E+02  0.20643688380E+03 -0.64944915762E+04  0.65000000000E+04  0.15050000000E+03 0.  1.
</event>
<event>
 4    1  0.4826743E-004  0.6500000E+04  0.7818608E-02  0.7223770E-01
         52   -1    0    0    0    0  0.00000000000E+00  0.00000000000E+00  0.64930732323E+04  0.65000000000E+04  0.30000000000E+03 0.  1.
        -52   -1    0    0    0    0 -0.00000000000E+00 -0.00000000000E+00 -0.64930732323E+04  0.65000000000E+04  0.30000000000E+03 0. -1.
     100001    1    1    2    0    0 -0.14635486662E+04 -0.19629294409E+04  0.60193257979E+04  0.65000000000E+04  0.15050000000E+03 0.  1.
     100001    1    1    2    0    0  0.14635486662E+04  0.19629294409E+04 -0.60193257979E+04  0.65000000000E+04  0.15050000000E+03 0. -1.
</event>
<event>
 4    1  0.4826743E-004  0.6500000E+04  0.7818608E-02  0.7223770E-01
         52   -1    0    0    0    0  0.00000000000E+00  0.00000000000E+00  0.64930732323E+04  0.65000000000E+04  0.30000000000E+03 0. -1.
        -52   -1    0    0    0    0 -0.00000000000E+00 -0.00000000000E+00 -0.64930732323E+04  0.65000000000E+04  0.30000000000E+03 0.  1.
     100001    1    1    2    0    0 -0.92846878509E+03 -0.70855273826E+02  0.64311954562E+04  0.65000000000E+04  0.15050000000E+03 0. -1.
     100001    1    1    2    0    0  0.92846878509E+03  0.70855273826E+02 -0.64311954562E+04  0.65000000000E+04  0.15050000000E+03 0.  1.
</event>
<event>
 4    1  0.4826743E-004  0.6500000E+04  0.7818608E-02  0.7223770E-01
         52   -1    0    0    0    0  0.00000000000E+00  0.00000000000E+00  0.64930732323E+04  0.65000000000E+04  0.30000000000E+03 0. -1.
        -52   -1    0    0    0    0 -0.00000000000E+00 -0.00000000000E+00 -0.64930732323E+04  0.65000000000E+04  0.30000000000E+03 0. -1.
     100001    1    1    2    0    0  0.13531698237E+03  0.21983929912E+03  0.64931278862E+04  0.65000000000E+04  0.15050000000E+03 0. -1.
     100001    1    1    2    0    0 -0.13531698237E+03 -0.21983929912E+03 -0.64931278862E+04  0.65000000000E+04  0.15050000000E+03 0. -1.
</event>
<event>
 4    1  0.4826743E-004  0.6500000E+04  0.7818608E-02  0.7223770E-01
         52   -1    0    0    0    0  0.00000000000E+00  0.00000000000E+00  0.64930732323E+04  0.65000000000E+04  0.30000000000E+03 0.  1.
        -52   -1    0    0    0    0 -0.00000000000E+00 -0.00000000000E+00 -0.64930732323E+04  0.65000000000E+04  0.30000000000E+03 0. -1.
     100001    1    1    2    0    0  0.12535175729E+03 -0.49435912086E+03 -0.64782131600E+04  0.65000000000E+04  0.15050000000E+03 0. -1.
     100001    1    1    2    0    0 -0.12535175729E+03  0.49435912086E+03  0.64782131600E+04  0.65000000000E+04  0.15050000000E+03 0.  1.
</event>
<event>
 4    1  0.4826743E-004  0.6500000E+04  0.7818608E-02  0.7223770E-01
         52   -1    0    0    0    0  0.00000000000E+00  0.00000000000E+00  0.64930732323E+04  0.65000000000E+04  0.30000000000E+03 0.  1.
        -52   -1    0    0    0    0 -0.00000000000E+00 -0.00000000000E+00 -0.64930732323E+04  0.65000000000E+04  0.30000000000E+03 0. -1.
     100001    1    1    2    0    0 -0.12768475282E+04 -0.78961549620E+03  0.63224613489E+04  0.65000000000E+04  0.15050000000E+03 0.  1.
     100001    1    1    2    0    0  0.12768475282E+04  0.78961549620E+03 -0.63224613489E+04  0.65000000000E+04  0.15050000000E+03 0. -1.
</event>
<event>
 4    1  0.4826743E-004  0.6500000E+04  0.7818608E-02  0.7223770E-01
         52   -1    0    0    0    0  0.00000000000E+00  0.00000000000E+00  0.64930732323E+04  0.65000000000E+04  0.30000000000E+03 0.  1.
        -52   -1    0    0    0    0 -0.00000000000E+00 -0.00000000000E+00 -0.64930732323E+04  0.65000000000E+04  0.30000000000E+03 0.  1.
     100001    1    1    2    0    0 -0.28345511213E+03 -0.29569654003E+02  0.64920049742E+04  0.65000000000E+04  0.15050000000E+03 0.  1.
     100001    1    1    2    0    0  0.28345511213E+03  0.29569654003E+02 -0.64920049742E+04  0.65000000000E+04  0.15050000000E+03 0.  1.
</event>
<event>
 4    1  0.4826743E-004  0.6500000E+04  0.7818608E-02  0.7223770E-01
         52   -1    0    0    0    0  0.00000000000E+00  0.00000000000E+00  0.64930732323E+04  0.65000000000E+04  0.30000000000E+03 0. -1.
        -52   -1    0    0    0    0 -0.00000000000E+00 -0.00000000000E+00 -0.64930732323E+04  0.65000000000E+04  0.30000000000E+03 0.  1.
     100001    1    1    2    0    0 -0.19498642458E+04  0.12295284594E+04 -0.60756595478E+04  0.65000000000E+04  0.15050000000E+03 0.  1.
     100001    1    1    2    0    0  0.19498642458E+04 -0.12295284594E+04  0.60756595478E+04  0.65000000000E+04  0.15050000000E+03 0. -1.
</event>
<event>
 4    1  0.4826743E-004  0.6500000E+04  0.7818608E-02  0.7223770E-01
         52   -1    0    0    0    0  0.00000000000E+00  0.00000000000E+00  0.64930732323E+04  0.65000000000E+04  0.30000000000E+03 0. -1.
        -52   -1    0    0    0    0 -0.00000000000E+00 -0.00000000000E+00 -0.64930732323E+04  0.65000000000E+04  0.30000000000E+03 0.  1.
     100001    1    1    2    0    0  0.17197272670E+03 -0.29466041506E+03  0.64892950596E+04  0.65000000000E+04  0.15050000000E+03 0. -1.
     100001    1    1    2    0    0 -0.17197272670E+03  0.29466041506E+03 -0.64892950596E+04  0.65000000000E+04  0.15050000000E+03 0.  1.
</event>
<event>
 4    1  0.4826743E-004  0.6500000E+04  0.7818608E-02  0.7223770E-01
         52   -1    0    0    0    0  0.00000000000E+00  0.00000000000E+00  0.64930732323E+04  0.65000000000E+04  0.30000000000E+03 0. -1.
        -52   -1    0    0    0    0 -0.00000000000E+00 -0.00000000000E+00 -0.64930732323E+04  0.65000000000E+04  0.30000000000E+03 0. -1.
     100001    1    1    2    0    0 -0.89552992012E+02 -0.17801020204E+03  0.64952014888E+04  0.65000000000E+04  0.15050000000E+03 0. -1.
     100001    1    1    2    0    0  0.89552992012E+02  0.17801020204E+03 -0.64952014888E+04  0.65000000000E+04  0.15050000000E+03 0. -1.
</event>
<event>
 4    1  0.4826743E-004  0.6500000E+04  0.7818608E-02  0.7223770E-01
         52   -1    0    0    0    0  0.00000000000E+00  0.00000000000E+00  0.64930732323E+04  0.65000000000E+04  0.30000000000E+03 0. -1.
        -52   -1    0    0    0    0 -0.00000000000E+00 -0.00000000000E+00 -0.64930732323E+04  0.65000000000E+04  0.30000000000E+03 0.  1.
     100001    1    1    2    0    0  0.65741701925E+02 -0.39940573296E+03 -0.64856381983E+04  0.65000000000E+04  0.15050000000E+03 0.  1.
     100001    1    1    2    0    0 -0.65741701925E+02  0.39940573296E+03  0.64856381983E+04  0.65000000000E+04  0.15050000000E+03 0. -1.
</event>
<event>
 4    1  0.4826743E-004  0.6500000E+04  0.7818608E-02  0.7223770E-01
         52   -1    0    0    0    0  0.00000000000E+00  0.00000000000E+00  0.64930732323E+04  0.65000000000E+04  0.30000000000E+03 0. -1.
        -52   -1    0    0    0    0 -0.00000000000E+00 -0.00000000000E+00 -0.64930732323E+04  0.65000000000E+04  0.30000000000E+03 0. -1.
     100001    1    1    2    0    0  0.50938823727E+02 -0.27217899514E+02 -0.64980007827E+04  0.65000000000E+04  0.15050000000E+03 0. -1.
     100001    1    1    2    0    0 -0.50938823727E+02  0.27217899514E+02  0.64980007827E+04  0.65000000000E+04  0.15050000000E+03 0. -1.
</event>
<event>
 4    1  0.4826743E-004  0.6500000E+04  0.7818608E-02  0.7223770E-01
         52   -1    0    0    0    0  0.00000000000E+00  0.00000000000E+00  0.64930732323E+04  0.65000000000E+04  0.30000000000E+03 0. -1.
        -52   -1    0    0    0    0 -0.00000000000E+00 -0.00000000000E+00 -0.64930732323E+04  0.65000000000E+04  0.30000000000E+03 0.  1.
     100001    1    1    2    0    0  0.40515728596E+03  0.71299948227E+03  0.64463035192E+04  0.65000000000E+04  0.15050000000E+03 0. -1.
     100001    1    1    2    0    0 -0.40515728596E+03 -0.71299948227E+03 -0.64463035192E+04  0.65000000000E+04  0.15050000000E+03 0.  1.
</event>
<event>
 4    1  0.4826743E-004  0.6500000E+04  0.7818608E-02  0.7223770E-01
         52   -1    0    0    0    0  0.00000000000E+00  0.00000000000E+00  0.64930732323E+04  0.65000000000E+04  0.30000000000E+03 0.  1.
        -52   -1    0    0    0    0 -0.00000000000E+00 -0.00000000000E+00 -0.64930732323E+04  0.65000000000E+04  0.30000000000E+03 0. -1.
     100001    1    1    2    0    0 -0.22572924265E+04 -0.72580802862E+03  0.60502217610E+04  0.65000000000E+04  0.15050000000E+03 0.  1.
     100001    1    1    2    0    0  0.22572924265E+04  0.72580802862E+03 -0.60502217610E+04  0.65000000000E+04  0.15050000000E+03 0. -1.
</event>
<event>
 4    1  0.4826743E-004  0.6500000E+04  0.7818608E-02  0.7223770E-01
         52   -1    0    0    0    0  0.00000000000E+00  0.00000000000E+00  0.64930732323E+04  0.65000000000E+04  0.30000000000E+03 0. -1.
        -52   -1    0    0    0    0 -0.00000000000E+00 -0.00000000000E+00 -0.64930732323E+04  0.65000000000E+04  0.30000000000E+03 0.  1.
     100001    1    1    2    0    0  0.25129056754E+04 -0.34344316301E+03 -0.59828673402E+04  0.65000000000E+04  0.15050000000E+03 0.  1.
     100001    1    1    2    0    0 -0.25129056754E+04  0.34344316301E+03  0.59828673402E+04  0.65000000000E+04  0.15050000000E+03 0. -1.
</event>
<event>
 4    1  0.4826743E-004  0.6500000E+04  0.7818608E-02  0.7223770E-01
         52   -1    0    0    0    0  0.00000000000E+00  0.00000000000E+00  0.64930732323E+04  0.65000000000E+04  0.30000000000E+03 0. -1.
        -52   -1    0    0    0    0 -0.00000000000E+00 -0.00000000000E+00 -0.64930732323E+04  0.65000000000E+04  0.30000000000E+03 0.  1.
     100001    1    1    2    0    0 -0.37981993775E+03  0.14649061882E+04 -0.63195835642E+04  0.65000000000E+04  0.15050000000E+03 0.  1.
     100001    1    1    2    0    0  0.37981993775E+03 -0.14649061882E+04  0.63195835642E+04  0.65000000000E+04  0.15050000000E+03 0. -1.
</event>
<event>
 4    1  0.4826743E-004  0.6500000E+04  0.7818608E-02  0.7223770E-01
         52   -1    0    0    0    0  0.00000000000E+00  0.00000000000E+00  0.64930732323E+04  0.65000000000E+04  0.30000000000E+03 0.  1.
        -52   -1    0    0    0    0 -0.00000000000E+00 -0.00000000000E+00 -0.64930732323E+04  0.65000000000E+04  0.30000000000E+03 0. -1.
     100001    1    1    2    0    0  0.33116036968E+04  0.10437046237E+04  0.54928418295E+04  0.65000000000E+04  0.15050000000E+03 0.  1.
     100001    1    1    2    0    0 -0.33116036968E+04 -0.10437046237E+04 -0.54928418295E+04  0.65000000000E+04  0.15050000000E+03 0. -1.
</event>
<event>
 4    1  0.4826743E-004  0.6500000E+04  0.7818608E-02  0.7223770E-01
         52   -1    0    0    0    0  0.00000000000E+00  0.00000000000E+00  0.64930732323E+04  0.65000000000E+04  0.30000000000E+03 0. -1.
        -52   -1    0    0    0    0 -0.00000000000E+00 -0.00000000000E+00 -0.64930732323E+04  0.65000000000E+04  0.30000000000E+03 0.  1.
     100001    1    1    2    0    0  0.15509496719E+04  0.21945064722E+04  0.59165907590E+04  0.65000000000E+04  0.15050000000E+03 0. -1.
     100001    1    1    2    0    0 -0.15509496719E+04 -0.21945064722E+04 -0.59165907590E+04  0.65000000000E+04  0.15050000000E+03 0.  1.
</event>
<event>
 4    1  0.4826743E-004  0.6500000E+04  0.7818608E-02  0.7223770E-01
         52   -1    0    0    0    0  0.00000000000E+00  0.00000000000E+00  0.64930732323E+04  0.65000000000E+04  0.30000000000E+03 0. -1.
        -52   -1    0    0    0    0 -0.00000000000E+00 -0.00000000000E+00 -0.64930732323E+04  0.65000000000E+04  0.30000000000E+03 0.  1.
     100001    1    1    2    0    0  0.46818534076E+03 -0.26609969506E+04 -0.59099278731E+04  0.65000000000E+04  0.15050000000E+03 0.  1.
     100001    1    1    2    0    0 -0.46818534076E+03  0.26609969506E+04  0.59099278731E+04  0.65000000000E+04  0.15050000000E+03 0. -1.
</event>
<event>
 4    1  0.4826743E-004  0.6500000E+04  0.7818608E-02  0.7223770E-01
         52   -1    0    0    0    0  0.00000000000E+00  0.00000000000E+00  0.64930732323E+04  0.65000000000E+04  0.30000000000E+03 0.  1.
        -52   -1    0    0    0    0 -0.00000000000E+00 -0.00000000000E+00 -0.64930732323E+04  0.65000000000E+04  0.30000000000E+03 0. -1.
     100001    1    1    2    0    0 -0.13118644467E+04  0.19069336727E+04 -0.60720643435E+04  0.65000000000E+04  0.15050000000E+03 0. -1.
     100001    1    1    2    0    0  0.13118644467E+04 -0.19069336727E+04  0.60720643435E+04  0.65000000000E+04  0.15050000000E+03 0.  1.
</event>
<event>
 4    1  0.4826743E-004  0.6500000E+04  0.7818608E-02  0.7223770E-01
         52   -1    0    0    0    0  0.00000000000E+00  0.00000000000E+00  0.64930732323E+04  0.65000000000E+04  0.30000000000E+03 0.  1.
        -52   -1    0    0    0    0 -0.00000000000E+00 -0.00000000000E+00 -0.64930732323E+04  0.65000000000E+04  0.30000000000E+03 0. -1.
     100001    1    1    2    0    0  0.27528070632E+03 -0.17626835655E+04 -0.62485611888E+04  0.65000000000E+04  0.15050000000E+03 0. -1.
     100001    1    1    2    0    0 -0.27528070632E+03  0.17626835655E+04  0.62485611888E+04  0.65000000000E+04  0.15050000000E+03 0.  1.
</event>
<event>
 4    1  0.4826743E-004  0.6500000E+04  0.7818608E-02  0.7223770E-01
         52   -1    0    0    0    0  0.00000000000E+00  0.00000000000E+00  0.64930732323E+04  0.65000000000E+04  0.30000000000E+03 0.  1.
        -52   -1    0    0    0    0 -0.00000000000E+00 -0.00000000000E+00 -0.64930732323E+04  0.65000000000E+04  0.30000000000E+03 0. -1.
     100001    1    1    2    0    0  0.48016772634E+04  0.18038799687E+04  0.39896443784E+04  0.65000000000E+04  0.15050000000E+03 0.  1.
     100001    1    1    2    0    0 -0.48016772634E+04 -0.18038799687E+04 -0.39896443784E+04  0.65000000000E+04  0.15050000000E+03 0. -1.
</event>
<event>
 4    1  0.4826743E-004  0.6500000E+04  0.7818608E-02  0.7223770E-01
         52   -1    0    0    0    0  0.00000000000E+00  0.00000000000E+00  0.64930732323E+04  0.65000000000E+04  0.30000000000E+03 0. -1.
        -52   -1    0    0    0    0 -0.00000000000E+00 -0.00000000000E+00 -0.64930732323E+04  0.65000000000E+04  0.30000000000E+03 0.  1.
     100001    1    1    2    0    0  0.11511717601E+03 -0.15374176986E+04 -0.63127208560E+04  0.65000000000E+04  0.15050000000E+03 0.  1.
     100001    1    1    2    0    0 -0.11511717601E+03  0.15374176986E+04  0.63127208560E+04  0.65000000000E+04  0.15050000000E+03 0. -1.
</event>
<event>
 4    1  0.4826743E-004  0.6500000E+04  0.7818608E-02  0.7223770E-01
         52   -1    0    0    0    0  0.00000000000E+00  0.00000000000E+00  0.64930732323E+04  0.65000000000E+04  0.30000000000E+03 0. -1.
        -52   -1    0    0    0    0 -0.00000000000E+00 -0.00000000000E+00 -0.64930732323E+04  0.65000000000E+04  0.30000000000E+03 0. -1.
     100001    1    1    2    0    0 -0.14473919118E+03  0.23599375979E+03  0.64923576043E+04  0.65000000000E+04  0.15050000000E+03 0. -1.
     100001    1    1    2    0    0  0.14473919118E+03 -0.23599375979E+03 -0.64923576043E+04  0.65000000000E+04  0.15050000000E+03 0. -1.
</event>
<event>
 4    1  0.4826743E-004  0.6500000E+04  0.7818608E-02  0.7223770E-01
         52   -1    0    0    0    0  0.00000000000E+00  0.00000000000E+00  0.64930732323E+04  0.65000000000E+04  0.30000000000E+03 0.  1.
        -52   -1    0    0    0    0 -0.00000000000E+00 -0.00000000000E+00 -0.64930732323E+04  0.65000000000E+04  0.30000000000E+03 0.  1.
     100001    1    1    2    0    0  0.35800200233E+02  0.15047125390E+02 -0.64981414019E+04  0.65000000000E+04  0.15050000000E+03 0.  1.
     100001    1    1    2    0    0 -0.35800200233E+02 -0.15047125390E+02  0.64981414019E+04  0.65000000000E+04  0.15050000000E+03 0.  1.
</event>
<event>
 4    1  0.4826743E-004  0.6500000E+04  0.7818608E-02  0.7223770E-01
         52   -1    0    0    0    0  0.00000000000E+00  0.00000000000E+00  0.64930732323E+04  0.65000000000E+04  0.30000000000E+03 0.  1.
        -52   -1    0    0    0    0 -0.00000000000E+00 -0.00000000000E+00 -0.64930732323E+04  0.65000000000E+04  0.30000000000E+03 0. -1.
     100001    1    1    2    0    0 -0.34753498676E+04 -0.13065298814E+04  0.53331297300E+04  0.65000000000E+04  0.15050000000E+03 0.  1.
     100001    1    1    2    0    0  0.34753498676E+04  0.13065298814E+04 -0.53331297300E+04  0.65000000000E+04  0.15050000000E+03 0. -1.
</event>
<event>
 4    1  0.5222976E-004  0.6500000E+04  0.7818608E-02  0.7223770E-01
         52   -1    0    0    0    0  0.00000000000E+00  0.00000000000E+00  0.64930732323E+04  0.65000000000E+04  0.30000000000E+03 0.  1.
        -52   -1    0    0    0    0 -0.00000000000E+00 -0.00000000000E+00 -0.64930732323E+04  0.65000000000E+04  0.30000000000E+03 0. -1.
     100001    1    1    2    0    0  0.15119332990E+03 -0.12265190868E+03  0.64953403942E+04  0.65000000000E+04  0.15050000000E+03 0.  1.
     100001    1    1    2    0    0 -0.15119332990E+03  0.12265190868E+03 -0.64953403942E+04  0.65000000000E+04  0.15050000000E+03 0. -1.
</event>
<event>
 4    1  0.4826743E-004  0.6500000E+04  0.7818608E-02  0.7223770E-01
         52   -1    0    0    0    0  0.00000000000E+00  0.00000000000E+00  0.64930732323E+04  0.65000000000E+04  0.30000000000E+03 0.  1.
        -52   -1    0    0    0    0 -0.00000000000E+00 -0.00000000000E+00 -0.64930732323E+04  0.65000000000E+04  0.30000000000E+03 0. -1.
     100001    1    1    2    0    0  0.60547521541E+03  0.20273387622E+03  0.64668113077E+04  0.65000000000E+04  0.15050000000E+03 0.  1.
     100001    1    1    2    0    0 -0.60547521541E+03 -0.20273387622E+03 -0.64668113077E+04  0.65000000000E+04  0.15050000000E+03 0. -1.
</event>
<event>
 4    1  0.4826743E-004  0.6500000E+04  0.7818608E-02  0.7223770E-01
         52   -1    0    0    0    0  0.00000000000E+00  0.00000000000E+00  0.64930732323E+04  0.65000000000E+04  0.30000000000E+03 0.  1.
        -52   -1    0    0    0    0 -0.00000000000E+00 -0.00000000000E+00 -0.64930732323E+04  0.65000000000E+04  0.30000000000E+03 0. -1.
     100001    1    1    2    0    0  0.17604809559E+04  0.15208351886E+04 -0.60675461995E+04  0.65000000000E+04  0.15050000000E+03 0. -1.
     100001    1    1    2    0    0 -0.17604809559E+04 -0.15208351886E+04  0.60675461995E+04  0.65000000000E+04  0.15050000000E+03 0.  1.
</event>
<event>
 4    1  0.4826743E-004  0.6500000E+04  0.7818608E-02  0.7223770E-01
         52   -1    0    0    0    0  0.00000000000E+00  0.00000000000E+00  0.64930732323E+04  0.65000000000E+04  0.30000000000E+03 0. -1.
        -52   -1    0    0    0    0 -0.00000000000E+00 -0.00000000000E+00 -0.64930732323E+04  0.65000000000E+04  0.30000000000E+03 0. -1.
     100001    1    1    2    0    0 -0.27713252704E+03  0.12058212629E+03 -0.64912254054E+04  0.65000000000E+04  0.15050000000E+03 0. -1.
     100001    1    1    2    0    0  0.27713252704E+03 -0.12058212629E+03  0.64912254054E+04  0.65000000000E+04  0.15050000000E+03 0. -1.
</event>
<event>
 4    1  0.4826743E-004  0.6500000E+04  0.7818608E-02  0.7223770E-01
         52   -1    0    0    0    0  0.00000000000E+00  0.00000000000E+00  0.64930732323E+04  0.65000000000E+04  0.30000000000E+03 0. -1.
        -52   -1    0    0    0    0 -0.00000000000E+00 -0.00000000000E+00 -0.64930732323E+04  0.65000000000E+04  0.30000000000E+03 0.  1.
     100001    1    1    2    0    0 -0.15096282013E+03  0.27882364754E+03 -0.64905174948E+04  0.65000000000E+04  0.15050000000E+03 0.  1.
     100001    1    1    2    0    0  0.15096282013E+03 -0.27882364754E+03  0.64905174948E+04  0.65000000000E+04  0.15050000000E+03 0. -1.
</event>
<event>
 4    1  0.4826743E-004  0.6500000E+04  0.7818608E-02  0.7223770E-01
         52   -1    0    0    0    0  0.00000000000E+00  0.00000000000E+00  0.64930732323E+04  0.65000000000E+04  0.30000000000E+03 0.  1.
        -52   -1    0    0    0    0 -0.00000000000E+00 -0.00000000000E+00 -0.64930732323E+04  0.65000000000E+04  0.30000000000E+03 0. -1.
     100001    1    1    2    0    0  0.11396798532E+04  0.14619055479E+04  0.62282671548E+04  0.65000000000E+04  0.15050000000E+03 0.  1.
     100001    1    1    2    0    0 -0.11396798532E+04 -0.14619055479E+04 -0.62282671548E+04  0.65000000000E+04  0.15050000000E+03 0. -1.
</event>
<event>
 4    1  0.4826743E-004  0.6500000E+04  0.7818608E-02  0.7223770E-01
         52   -1    0    0    0    0  0.00000000000E+00  0.00000000000E+00  0.64930732323E+04  0.65000000000E+04  0.30000000000E+03 0.  1.
        -52   -1    0    0    0    0 -0.00000000000E+00 -0.00000000000E+00 -0.64930732323E+04  0.65000000000E+04  0.30000000000E+03 0. -1.
     100001    1    1    2    0    0 -0.61219850921E+03 -0.76848108779E+03  0.64235503853E+04  0.65000000000E+04  0.15050000000E+03 0.  1.
     100001    1    1    2    0    0  0.61219850921E+03  0.76848108779E+03 -0.64235503853E+04  0.65000000000E+04  0.15050000000E+03 0. -1.
</event>
<event>
 4    1  0.4826743E-004  0.6500000E+04  0.7818608E-02  0.7223770E-01
         52   -1    0    0    0    0  0.00000000000E+00  0.00000000000E+00  0.64930732323E+04  0.65000000000E+04  0.30000000000E+03 0. -1.
        -52   -1    0    0    0    0 -0.00000000000E+00 -0.00000000000E+00 -0.64930732323E+04  0.65000000000E+04  0.30000000000E+03 0.  1.
     100001    1    1    2    0    0  0.96733114575E+03 -0.35483329640E+04  0.53573270743E+04  0.65000000000E+04  0.15050000000E+03 0. -1.
     100001    1    1    2    0    0 -0.96733114575E+03  0.35483329640E+04 -0.53573270743E+04  0.65000000000E+04  0.15050000000E+03 0.  1.
</event>
<event>
 4    1  0.4826743E-004  0.6500000E+04  0.7818608E-02  0.7223770E-01
         52   -1    0    0    0    0  0.00000000000E+00  0.00000000000E+00  0.64930732323E+04  0.65000000000E+04  0.30000000000E+03 0.  1.
        -52   -1    0    0    0    0 -0.00000000000E+00 -0.00000000000E+00 -0.64930732323E+04  0.65000000000E+04  0.30000000000E+03 0. -1.
     100001    1    1    2    0    0 -0.24168304172E+04  0.30758105948E+03  0.60242571638E+04  0.65000000000E+04  0.15050000000E+03 0.  1.
     100001    1    1    2    0    0  0.24168304172E+04 -0.30758105948E+03 -0.60242571638E+04  0.65000000000E+04  0.15050000000E+03 0. -1.
</event>
<event>
 4    1  0.4826743E-004  0.6500000E+04  0.7818608E-02  0.7223770E-01
         52   -1    0    0    0    0  0.00000000000E+00  0.00000000000E+00  0.64930732323E+04  0.65000000000E+04  0.30000000000E+03 0. -1.
        -52   -1    0    0    0    0 -0.00000000000E+00 -0.00000000000E+00 -0.64930732323E+04  0.65000000000E+04  0.30000000000E+03 0.  1.
     100001    1    1    2    0    0 -0.96694477611E+03 -0.12608028079E+03 -0.64246767477E+04  0.65000000000E+04  0.15050000000E+03 0.  1.
     100001    1    1    2    0    0  0.96694477611E+03  0.12608028079E+03  0.64246767477E+04  0.65000000000E+04  0.15050000000E+03 0. -1.
</event>
<event>
 4    1  0.4826743E-004  0.6500000E+04  0.7818608E-02  0.7223770E-01
         52   -1    0    0    0    0  0.00000000000E+00  0.00000000000E+00  0.64930732323E+04  0.65000000000E+04  0.30000000000E+03 0. -1.
        -52   -1    0    0    0    0 -0.00000000000E+00 -0.00000000000E+00 -0.64930732323E+04  0.65000000000E+04  0.30000000000E+03 0.  1.
     100001    1    1    2    0    0  0.11277306041E+04  0.23750407781E+04 -0.59426218740E+04  0.65000000000E+04  0.15050000000E+03 0.  1.
     100001    1    1    2    0    0 -0.11277306041E+04 -0.23750407781E+04  0.59426218740E+04  0.65000000000E+04  0.15050000000E+03 0. -1.
</event>
<event>
 4    1  0.4826743E-004  0.6500000E+04  0.7818608E-02  0.7223770E-01
         52   -1    0    0    0    0  0.00000000000E+00  0.00000000000E+00  0.64930732323E+04  0.65000000000E+04  0.30000000000E+03 0.  1.
        -52   -1    0    0    0    0 -0.00000000000E+00 -0.00000000000E+00 -0.64930732323E+04  0.65000000000E+04  0.30000000000E+03 0. -1.
     100001    1    1    2    0    0 -0.22071569819E+03  0.11661201407E+02 -0.64944975438E+04  0.65000000000E+04  0.15050000000E+03 0. -1.
     100001    1    1    2    0    0  0.22071569819E+03 -0.11661201407E+02  0.64944975438E+04  0.65000000000E+04  0.15050000000E+03 0.  1.
</event>
<event>
 4    1  0.4826743E-004  0.6500000E+04  0.7818608E-02  0.7223770E-01
         52   -1    0    0    0    0  0.00000000000E+00  0.00000000000E+00  0.64930732323E+04  0.65000000000E+04  0.30000000000E+03 0.  1.
        -52   -1    0    0    0    0 -0.00000000000E+00 -0.00000000000E+00 -0.64930732323E+04  0.65000000000E+04  0.30000000000E+03 0. -1.
     100001    1    1    2    0    0  0.45331558174E+04  0.84082306748E+03  0.45793956647E+04  0.65000000000E+04  0.15050000000E+03 0.  1.
     100001    1    1    2    0    0 -0.45331558174E+04 -0.84082306748E+03 -0.45793956647E+04  0.65000000000E+04  0.15050000000E+03 0. -1.
</event>
<event>
 4    1  0.4826743E-004  0.6500000E+04  0.7818608E-02  0.7223770E-01
         52   -1    0    0    0    0  0.00000000000E+00  0.00000000000E+00  0.64930732323E+04  0.65000000000E+04  0.30000000000E+03 0. -1.
        -52   -1    0    0    0    0 -0.00000000000E+00 -0.00000000000E+00 -0.64930732323E+04  0.65000000000E+04  0.30000000000E+03 0.  1.
     100001    1    1    2    0    0  0.73056552075E+02 -0.17037158495E+04  0.62705155126E+04  0.65000000000E+04  0.15050000000E+03 0. -1.
     100001    1    1    2    0    0 -0.73056552075E+02  0.17037158495E+04 -0.62705155126E+04  0.65000000000E+04  0.15050000000E+03 0.  1.
</event>
<event>
 4    1  0.4826743E-004  0.6500000E+04  0.7818608E-02  0.7223770E-01
         52   -1    0    0    0    0  0.00000000000E+00  0.00000000000E+00  0.64930732323E+04  0.65000000000E+04  0.30000000000E+03 0.  1.
        -52   -1    0    0    0    0 -0.00000000000E+00 -0.00000000000E+00 -0.64930732323E+04  0.65000000000E+04  0.30000000000E+03 0. -1.
     100001    1    1    2    0    0  0.19271399581E+04  0.43238745824E+03 -0.61908418182E+04  0.65000000000E+04  0.15050000000E+03 0. -1.
     100001    1    1    2    0    0 -0.19271399581E+04 -0.43238745824E+03  0.61908418182E+04  0.65000000000E+04  0.15050000000E+03 0.  1.
</event>
<event>
 4    1  0.4826743E-004  0.6500000E+04  0.7818608E-02  0.7223770E-01
         52   -1    0    0    0    0  0.00000000000E+00  0.00000000000E+00  0.64930732323E+04  0.65000000000E+04  0.30000000000E+03 0.  1.
        -52   -1    0    0    0    0 -0.00000000000E+00 -0.00000000000E+00 -0.64930732323E+04  0.65000000000E+04  0.30000000000E+03 0. -1.
     100001    1    1    2    0    0  0.11456506718E+04 -0.13456915135E+04 -0.62533150120E+04  0.65000000000E+04  0.15050000000E+03 0. -1.
     100001    1    1    2    0    0 -0.11456506718E+04  0.13456915135E+04  0.62533150120E+04  0.65000000000E+04  0.15050000000E+03 0.  1.
</event>
<event>
 4    1  0.4838157E-004  0.6500000E+04  0.7818608E-02  0.7223770E-01
         52   -1    0    0    0    0  0.00000000000E+00  0.00000000000E+00  0.64930732323E+04  0.65000000000E+04  0.30000000000E+03 0. -1.
        -52   -1    0    0    0    0 -0.00000000000E+00 -0.00000000000E+00 -0.64930732323E+04  0.65000000000E+04  0.30000000000E+03 0. -1.
     100001    1    1    2    0    0  0.11053404972E+03 -0.21949888948E+03 -0.64936085662E+04  0.65000000000E+04  0.15050000000E+03 0. -1.
     100001    1    1    2    0    0 -0.11053404972E+03  0.21949888948E+03  0.64936085662E+04  0.65000000000E+04  0.15050000000E+03 0. -1.
</event>
<event>
 4    1  0.4826743E-004  0.6500000E+04  0.7818608E-02  0.7223770E-01
         52   -1    0    0    0    0  0.00000000000E+00  0.00000000000E+00  0.64930732323E+04  0.65000000000E+04  0.30000000000E+03 0. -1.
        -52   -1    0    0    0    0 -0.00000000000E+00 -0.00000000000E+00 -0.64930732323E+04  0.65000000000E+04  0.30000000000E+03 0.  1.
     100001    1    1    2    0    0 -0.21297649647E+04  0.34863529960E+03  0.61294293677E+04  0.65000000000E+04  0.15050000000E+03 0. -1.
     100001    1    1    2    0    0  0.21297649647E+04 -0.34863529960E+03 -0.61294293677E+04  0.65000000000E+04  0.15050000000E+03 0.  1.
</event>
<event>
 4    1  0.4826743E-004  0.6500000E+04  0.7818608E-02  0.7223770E-01
         52   -1    0    0    0    0  0.00000000000E+00  0.00000000000E+00  0.64930732323E+04  0.65000000000E+04  0.30000000000E+03 0.  1.
        -52   -1    0    0    0    0 -0.00000000000E+00 -0.00000000000E+00 -0.64930732323E+04  0.65000000000E+04  0.30000000000E+03 0. -1.
     100001    1    1    2    0    0 -0.48331938160E+03  0.11714837393E+04  0.63734902506E+04  0.65000000000E+04  0.15050000000E+03 0.  1.
     100001    1    1    2    0    0  0.48331938160E+03 -0.11714837393E+04 -0.63734902506E+04  0.65000000000E+04  0.15050000000E+03 0. -1.
</event>
<event>
 4    1  0.4826743E-004  0.6500000E+04  0.7818608E-02  0.7223770E-01
         52   -1    0    0    0    0  0.00000000000E+00  0.00000000000E+00  0.64930732323E+04  0.65000000000E+04  0.30000000000E+03 0. -1.
        -52   -1    0    0    0    0 -0.00000000000E+00 -0.00000000000E+00 -0.64930732323E+04  0.65000000000E+04  0.30000000000E+03 0.  1.
     100001    1    1    2    0    0 -0.19653284653E+04  0.56714174443E+04  0.24899513942E+04  0.65000000000E+04  0.15050000000E+03 0. -1.
     100001    1    1    2    0    0  0.19653284653E+04 -0.56714174443E+04 -0.24899513942E+04  0.65000000000E+04  0.15050000000E+03 0.  1.
</event>
<event>
 4    1  0.4826743E-004  0.6500000E+04  0.7818608E-02  0.7223770E-01
         52   -1    0    0    0    0  0.00000000000E+00  0.00000000000E+00  0.64930732323E+04  0.65000000000E+04  0.30000000000E+03 0. -1.
        -52   -1    0    0    0    0 -0.00000000000E+00 -0.00000000000E+00 -0.64930732323E+04  0.65000000000E+04  0.30000000000E+03 0.  1.
     100001    1    1    2    0    0 -0.31753305169E+03  0.17617964085E+03 -0.64881032086E+04  0.65000000000E+04  0.15050000000E+03 0.  1.
     100001    1    1    2    0    0  0.31753305169E+03 -0.17617964085E+03  0.64881032086E+04  0.65000000000E+04  0.15050000000E+03 0. -1.
</event>
<event>
 4    1  0.4826743E-004  0.6500000E+04  0.7818608E-02  0.7223770E-01
         52   -1    0    0    0    0  0.00000000000E+00  0.00000000000E+00  0.64930732323E+04  0.65000000000E+04  0.30000000000E+03 0. -1.
        -52   -1    0    0    0    0 -0.00000000000E+00 -0.00000000000E+00 -0.64930732323E+04  0.65000000000E+04  0.30000000000E+03 0. -1.
     100001    1    1    2    0    0 -0.75798641460E+01  0.33128195278E+03  0.64898031221E+04  0.65000000000E+04  0.15050000000E+03 0. -1.
     100001    1    1    2    0    0  0.75798641460E+01 -0.33128195278E+03 -0.64898031221E+04  0.65000000000E+04  0.15050000000E+03 0. -1.
</event>
<event>
 4    1  0.4826743E-004  0.6500000E+04  0.7818608E-02  0.7223770E-01
         52   -1    0    0    0    0  0.00000000000E+00  0.00000000000E+00  0.64930732323E+04  0.65000000000E+04  0.30000000000E+03 0. -1.
        -52   -1    0    0    0    0 -0.00000000000E+00 -0.00000000000E+00 -0.64930732323E+04  0.65000000000E+04  0.30000000000E+03 0.  1.
     100001    1    1    2    0    0  0.81619854695E+03  0.12217174393E+04  0.63299744218E+04  0.65000000000E+04  0.15050000000E+03 0. -1.
     100001    1    1    2    0    0 -0.81619854695E+03 -0.12217174393E+04 -0.63299744218E+04  0.65000000000E+04  0.15050000000E+03 0.  1.
</event>
<event>
 4    1  0.4826743E-004  0.6500000E+04  0.7818608E-02  0.7223770E-01
         52   -1    0    0    0    0  0.00000000000E+00  0.00000000000E+00  0.64930732323E+04  0.65000000000E+04  0.30000000000E+03 0. -1.
        -52   -1    0    0    0    0 -0.00000000000E+00 -0.00000000000E+00 -0.64930732323E+04  0.65000000000E+04  0.30000000000E+03 0.  1.
     100001    1    1    2    0    0  0.12035034102E+04  0.23851535593E+04  0.59236789067E+04  0.65000000000E+04  0.15050000000E+03 0. -1.
     100001    1    1    2    0    0 -0.12035034102E+04 -0.23851535593E+04 -0.59236789067E+04  0.65000000000E+04  0.15050000000E+03 0.  1.
</event>
<event>
 4    1  0.4826743E-004  0.6500000E+04  0.7818608E-02  0.7223770E-01
         52   -1    0    0    0    0  0.00000000000E+00  0.00000000000E+00  0.64930732323E+04  0.65000000000E+04  0.30000000000E+03 0.  1.
        -52   -1    0    0    0    0 -0.00000000000E+00 -0.00000000000E+00 -0.64930732323E+04  0.65000000000E+04  0.30000000000E+03 0. -1.
     100001    1    1    2    0    0  0.13909589079E+04  0.62770410644E+03 -0.63165315341E+04  0.65000000000E+04  0.15050000000E+03 0. -1.
     100001    1    1    2    0    0 -0.13909589079E+04 -0.62770410644E+03  0.63165315341E+04  0.65000000000E+04  0.15050000000E+03 0.  1.
</event>
<event>
 4    1  0.4826743E-004  0.6500000E+04  0.7818608E-02  0.7223770E-01
         52   -1    0    0    0    0  0.00000000000E+00  0.00000000000E+00  0.64930732323E+04  0.65000000000E+04  0.30000000000E+03 0. -1.
        -52   -1    0    0    0    0 -0.00000000000E+00 -0.00000000000E+00 -0.64930732323E+04  0.65000000000E+04  0.30000000000E+03 0.  1.
     100001    1    1    2    0    0  0.34403668379E+03  0.18987903157E+04 -0.62051256109E+04  0.65000000000E+04  0.15050000000E+03 0.  1.
     100001    1    1    2    0    0 -0.34403668379E+03 -0.18987903157E+04  0.62051256109E+04  0.65000000000E+04  0.15050000000E+03 0. -1.
</event>
<event>
 4    1  0.4826743E-004  0.6500000E+04  0.7818608E-02  0.7223770E-01
         52   -1    0    0    0    0  0.00000000000E+00  0.00000000000E+00  0.64930732323E+04  0.65000000000E+04  0.30000000000E+03 0.  1.
        -52   -1    0    0    0    0 -0.00000000000E+00 -0.00000000000E+00 -0.64930732323E+04  0.65000000000E+04  0.30000000000E+03 0. -1.
     100001    1    1    2    0    0  0.11510779353E+03  0.76205527796E+03  0.64523927112E+04  0.65000000000E+04  0.15050000000E+03 0.  1.
     100001    1    1    2    0    0 -0.11510779353E+03 -0.76205527796E+03 -0.64523927112E+04  0.65000000000E+04  0.15050000000E+03 0. -1.
</event>
<event>
 4    1  0.4826743E-004  0.6500000E+04  0.7818608E-02  0.7223770E-01
         52   -1    0    0    0    0  0.00000000000E+00  0.00000000000E+00  0.64930732323E+04  0.65000000000E+04  0.30000000000E+03 0.  1.
        -52   -1    0    0    0    0 -0.00000000000E+00 -0.00000000000E+00 -0.64930732323E+04  0.65000000000E+04  0.30000000000E+03 0. -1.
     100001    1    1    2    0    0  0.13241407002E+04  0.56097445766E+04  0.30007943850E+04  0.65000000000E+04  0.15050000000E+03 0.  1.
     100001    1    1    2    0    0 -0.13241407002E+04 -0.56097445766E+04 -0.30007943850E+04  0.65000000000E+04  0.15050000000E+03 0. -1.
</event>
<event>
 4    1  0.4826743E-004  0.6500000E+04  0.7818608E-02  0.7223770E-01
         52   -1    0    0    0    0  0.00000000000E+00  0.00000000000E+00  0.64930732323E+04  0.65000000000E+04  0.30000000000E+03 0.  1.
        -52   -1    0    0    0    0 -0.00000000000E+00 -0.00000000000E+00 -0.64930732323E+04  0.65000000000E+04  0.30000000000E+03 0. -1.
     100001    1    1    2    0    0  0.31143365559E+03  0.30418692197E+03 -0.64836586234E+04  0.65000000000E+04  0.15050000000E+03 0. -1.
     100001    1    1    2    0    0 -0.31143365559E+03 -0.30418692197E+03  0.64836586234E+04  0.65000000000E+04  0.15050000000E+03 0.  1.
</event>
<event>
 4    1  0.4826743E-004  0.6500000E+04  0.7818608E-02  0.7223770E-01
         52   -1    0    0    0    0  0.00000000000E+00  0.00000000000E+00  0.64930732323E+04  0.65000000000E+04  0.30000000000E+03 0. -1.
        -52   -1    0    0    0    0 -0.00000000000E+00 -0.00000000000E+00 -0.64930732323E+04  0.65000000000E+04  0.30000000000E+03 0.  1.
     100001    1    1    2    0    0  0.85378521339E+03  0.39664810399E+04  0.50759657918E+04  0.65000000000E+04  0.15050000000E+03 0. -1.
     100001    1    1    2    0    0 -0.85378521339E+03 -0.39664810399E+04 -0.50759657918E+04  0.65000000000E+04  0.15050000000E+03 0.  1.
</event>
<event>
 4    1  0.4826743E-004  0.6500000E+04  0.7818608E-02  0.7223770E-01
         52   -1    0    0    0    0  0.00000000000E+00  0.00000000000E+00  0.64930732323E+04  0.65000000000E+04  0.30000000000E+03 0.  1.
        -52   -1    0    0    0    0 -0.00000000000E+00 -0.00000000000E+00 -0.64930732323E+04  0.65000000000E+04  0.30000000000E+03 0. -1.
     100001    1    1    2    0    0 -0.60414799430E+02 -0.66839496112E+03 -0.64635089524E+04  0.65000000000E+04  0.15050000000E+03 0. -1.
     100001    1    1    2    0    0  0.60414799430E+02  0.66839496112E+03  0.64635089524E+04  0.65000000000E+04  0.15050000000E+03 0.  1.
</event>
<event>
 4    1  0.4826743E-004  0.6500000E+04  0.7818608E-02  0.7223770E-01
         52   -1    0    0    0    0  0.00000000000E+00  0.00000000000E+00  0.64930732323E+04  0.65000000000E+04  0.30000000000E+03 0.  1.
        -52   -1    0    0    0    0 -0.00000000000E+00 -0.00000000000E+00 -0.64930732323E+04  0.65000000000E+04  0.30000000000E+03 0. -1.
     100001    1    1    2    0    0 -0.50176021503E+03  0.31730678228E+04  0.56486482479E+04  0.65000000000E+04  0.15050000000E+03 0.  1.
     100001    1    1    2    0    0  0.50176021503E+03 -0.31730678228E+04 -0.56486482479E+04  0.65000000000E+04  0.15050000000E+03 0. -1.
</event>
<event>
 4    1  0.4826743E-004  0.6500000E+04  0.7818608E-02  0.7223770E-01
         52   -1    0    0    0    0  0.00000000000E+00  0.00000000000E+00  0.64930732323E+04  0.65000000000E+04  0.30000000000E+03 0. -1.
        -52   -1    0    0    0    0 -0.00000000000E+00 -0.00000000000E+00 -0.64930732323E+04  0.65000000000E+04  0.30000000000E+03 0.  1.
     100001    1    1    2    0    0 -0.23498939953E+04  0.42904479024E+04  0.42775465816E+04  0.65000000000E+04  0.15050000000E+03 0. -1.
     100001    1    1    2    0    0  0.23498939953E+04 -0.42904479024E+04 -0.42775465816E+04  0.65000000000E+04  0.15050000000E+03 0.  1.
</event>
<event>
 4    1  0.4826743E-004  0.6500000E+04  0.7818608E-02  0.7223770E-01
         52   -1    0    0    0    0  0.00000000000E+00  0.00000000000E+00  0.64930732323E+04  0.65000000000E+04  0.30000000000E+03 0. -1.
        -52   -1    0    0    0    0 -0.00000000000E+00 -0.00000000000E+00 -0.64930732323E+04  0.65000000000E+04  0.30000000000E+03 0. -1.
     100001    1    1    2    0    0 -0.21699559866E+03  0.31219811753E+02  0.64945583363E+04  0.65000000000E+04  0.15050000000E+03 0. -1.
     100001    1    1    2    0    0  0.21699559866E+03 -0.31219811753E+02 -0.64945583363E+04  0.65000000000E+04  0.15050000000E+03 0. -1.
</event>
<event>
 4    1  0.4826743E-004  0.6500000E+04  0.7818608E-02  0.7223770E-01
         52   -1    0    0    0    0  0.00000000000E+00  0.00000000000E+00  0.64930732323E+04  0.65000000000E+04  0.30000000000E+03 0. -1.
        -52   -1    0    0    0    0 -0.00000000000E+00 -0.00000000000E+00 -0.64930732323E+04  0.65000000000E+04  0.30000000000E+03 0.  1.
     100001    1    1    2    0    0  0.53362845638E+03 -0.46861262262E+03 -0.64593337606E+04  0.65000000000E+04  0.15050000000E+03 0.  1.
     100001    1    1    2    0    0 -0.53362845638E+03  0.46861262262E+03  0.64593337606E+04  0.65000000000E+04  0.15050000000E+03 0. -1.
</event>
<event>
 4    1  0.5969541E-004  0.6500000E+04  0.7818608E-02  0.7223770E-01
         52   -1    0    0    0    0  0.00000000000E+00  0.00000000000E+00  0.64930732323E+04  0.65000000000E+04  0.30000000000E+03 0. -1.
        -52   -1    0    0    0    0 -0.00000000000E+00 -0.00000000000E+00 -0.64930732323E+04  0.65000000000E+04  0.30000000000E+03 0. -1.
     100001    1    1    2    0    0 -0.18049225171E+03 -0.10679082874E+03 -0.64948724403E+04  0.65000000000E+04  0.15050000000E+03 0. -1.
     100001    1    1    2    0    0  0.18049225171E+03  0.10679082874E+03  0.64948724403E+04  0.65000000000E+04  0.15050000000E+03 0. -1.
</event>
<event>
 4    1  0.4826743E-004  0.6500000E+04  0.7818608E-02  0.7223770E-01
         52   -1    0    0    0    0  0.00000000000E+00  0.00000000000E+00  0.64930732323E+04  0.65000000000E+04  0.30000000000E+03 0. -1.
        -52   -1    0    0    0    0 -0.00000000000E+00 -0.00000000000E+00 -0.64930732323E+04  0.65000000000E+04  0.30000000000E+03 0. -1.
     100001    1    1    2    0    0  0.20646861407E+03  0.21545772863E+03  0.64914018847E+04  0.65000000000E+04  0.15050000000E+03 0. -1.
     100001    1    1    2    0    0 -0.20646861407E+03 -0.21545772863E+03 -0.64914018847E+04  0.65000000000E+04  0.15050000000E+03 0. -1.
</event>
<event>
 4    1  0.4826743E-004  0.6500000E+04  0.7818608E-02  0.7223770E-01
         52   -1    0    0    0    0  0.00000000000E+00  0.00000000000E+00  0.64930732323E+04  0.65000000000E+04  0.30000000000E+03 0. -1.
        -52   -1    0    0    0    0 -0.00000000000E+00 -0.00000000000E+00 -0.64930732323E+04  0.65000000000E+04  0.30000000000E+03 0.  1.
     100001    1    1    2    0    0  0.51904882944E+04  0.74674656460E+03  0.38377793818E+04  0.65000000000E+04  0.15050000000E+03 0. -1.
     100001    1    1    2    0    0 -0.51904882944E+04 -0.74674656460E+03 -0.38377793818E+04  0.65000000000E+04  0.15050000000E+03 0.  1.
</event>
<event>
 4    1  0.4826743E-004  0.6500000E+04  0.7818608E-02  0.7223770E-01
         52   -1    0    0    0    0  0.00000000000E+00  0.00000000000E+00  0.64930732323E+04  0.65000000000E+04  0.30000000000E+03 0. -1.
        -52   -1    0    0    0    0 -0.00000000000E+00 -0.00000000000E+00 -0.64930732323E+04  0.65000000000E+04  0.30000000000E+03 0.  1.
     100001    1    1    2    0    0  0.61819663776E+03  0.75128646677E+03  0.64250098297E+04  0.65000000000E+04  0.15050000000E+03 0. -1.
     100001    1    1    2    0    0 -0.61819663776E+03 -0.75128646677E+03 -0.64250098297E+04  0.65000000000E+04  0.15050000000E+03 0.  1.
</event>
<event>
 4    1  0.4826743E-004  0.6500000E+04  0.7818608E-02  0.7223770E-01
         52   -1    0    0    0    0  0.00000000000E+00  0.00000000000E+00  0.64930732323E+04  0.65000000000E+04  0.30000000000E+03 0. -1.
        -52   -1    0    0    0    0 -0.00000000000E+00 -0.00000000000E+00 -0.64930732323E+04  0.65000000000E+04  0.30000000000E+03 0.  1.
     100001    1    1    2    0    0 -0.48647646157E+03 -0.10937954976E+04  0.63870417105E+04  0.65000000000E+04  0.15050000000E+03 0. -1.
     100001    1    1    2    0    0  0.48647646157E+03  0.10937954976E+04 -0.63870417105E+04  0.65000000000E+04  0.15050000000E+03 0.  1.
</event>
<event>
 4    1  0.4826743E-004  0.6500000E+04  0.7818608E-02  0.7223770E-01
         52   -1    0    0    0    0  0.00000000000E+00  0.00000000000E+00  0.64930732323E+04  0.65000000000E+04  0.30000000000E+03 0.  1.
        -52   -1    0    0    0    0 -0.00000000000E+00 -0.00000000000E+00 -0.64930732323E+04  0.65000000000E+04  0.30000000000E+03 0. -1.
     100001    1    1    2    0    0  0.17956415489E+03  0.68094428518E+03 -0.64599861722E+04  0.65000000000E+04  0.15050000000E+03 0. -1.
     100001    1    1    2    0    0 -0.17956415489E+03 -0.68094428518E+03  0.64599861722E+04  0.65000000000E+04  0.15050000000E+03 0.  1.
</event>
<event>
 4    1  0.4826743E-004  0.6500000E+04  0.7818608E-02  0.7223770E-01
         52   -1    0    0    0    0  0.00000000000E+00  0.00000000000E+00  0.64930732323E+04  0.65000000000E+04  0.30000000000E+03 0.  1.
        -52   -1    0    0    0    0 -0.00000000000E+00 -0.00000000000E+00 -0.64930732323E+04  0.65000000000E+04  0.30000000000E+03 0. -1.
     100001    1    1    2    0    0  0.31289325721E+04  0.47100913691E+04  0.32019009984E+04  0.65000000000E+04  0.15050000000E+03 0.  1.
     100001    1    1    2    0    0 -0.31289325721E+04 -0.47100913691E+04 -0.32019009984E+04  0.65000000000E+04  0.15050000000E+03 0. -1.
</event>
<event>
 4    1  0.4826743E-004  0.6500000E+04  0.7818608E-02  0.7223770E-01
         52   -1    0    0    0    0  0.00000000000E+00  0.00000000000E+00  0.64930732323E+04  0.65000000000E+04  0.30000000000E+03 0. -1.
        -52   -1    0    0    0    0 -0.00000000000E+00 -0.00000000000E+00 -0.64930732323E+04  0.65000000000E+04  0.30000000000E+03 0.  1.
     100001    1    1    2    0    0  0.68972971090E+03  0.62252951295E+04  0.17312779172E+04  0.65000000000E+04  0.15050000000E+03 0.  1.
     100001    1    1    2    0    0 -0.68972971090E+03 -0.62252951295E+04 -0.17312779172E+04  0.65000000000E+04  0.15050000000E+03 0. -1.
</event>
<event>
 4    1  0.4826743E-004  0.6500000E+04  0.7818608E-02  0.7223770E-01
         52   -1    0    0    0    0  0.00000000000E+00  0.00000000000E+00  0.64930732323E+04  0.65000000000E+04  0.30000000000E+03 0. -1.
        -52   -1    0    0    0    0 -0.00000000000E+00 -0.00000000000E+00 -0.64930732323E+04  0.65000000000E+04  0.30000000000E+03 0. -1.
     100001    1    1    2    0    0  0.13212269905E+03 -0.16537424762E+02  0.64968930925E+04  0.65000000000E+04  0.15050000000E+03 0. -1.
     100001    1    1    2    0    0 -0.13212269905E+03  0.16537424762E+02 -0.64968930925E+04  0.65000000000E+04  0.15050000000E+03 0. -1.
</event>
<event>
 4    1  0.4826743E-004  0.6500000E+04  0.7818608E-02  0.7223770E-01
         52   -1    0    0    0    0  0.00000000000E+00  0.00000000000E+00  0.64930732323E+04  0.65000000000E+04  0.30000000000E+03 0.  1.
        -52   -1    0    0    0    0 -0.00000000000E+00 -0.00000000000E+00 -0.64930732323E+04  0.65000000000E+04  0.30000000000E+03 0. -1.
     100001    1    1    2    0    0  0.56027350030E+03 -0.92879390826E+03  0.64070886704E+04  0.65000000000E+04  0.15050000000E+03 0.  1.
     100001    1    1    2    0    0 -0.56027350030E+03  0.92879390826E+03 -0.64070886704E+04  0.65000000000E+04  0.15050000000E+03 0. -1.
</event>
<event>
 4    1  0.4826743E-004  0.6500000E+04  0.7818608E-02  0.7223770E-01
         52   -1    0    0    0    0  0.00000000000E+00  0.00000000000E+00  0.64930732323E+04  0.65000000000E+04  0.30000000000E+03 0. -1.
        -52   -1    0    0    0    0 -0.00000000000E+00 -0.00000000000E+00 -0.64930732323E+04  0.65000000000E+04  0.30000000000E+03 0. -1.
     100001    1    1    2    0    0 -0.13998621635E+04  0.83115300438E+03  0.62910190237E+04  0.65000000000E+04  0.15050000000E+03 0. -1.
     100001    1    1    2    0    0  0.13998621635E+04 -0.83115300438E+03 -0.62910190237E+04  0.65000000000E+04  0.15050000000E+03 0. -1.
</event>
<event>
 4    1  0.4826743E-004  0.6500000E+04  0.7818608E-02  0.7223770E-01
         52   -1    0    0    0    0  0.00000000000E+00  0.00000000000E+00  0.64930732323E+04  0.65000000000E+04  0.30000000000E+03 0. -1.
        -52   -1    0    0    0    0 -0.00000000000E+00 -0.00000000000E+00 -0.64930732323E+04  0.65000000000E+04  0.30000000000E+03 0.  1.
     100001    1    1    2    0    0 -0.10076198933E+04  0.84294674185E+02 -0.64191079060E+04  0.65000000000E+04  0.15050000000E+03 0.  1.
     100001    1    1    2    0    0  0.10076198933E+04 -0.84294674185E+02  0.64191079060E+04  0.65000000000E+04  0.15050000000E+03 0. -1.
</event>
<event>
 4    1  0.4826743E-004  0.6500000E+04  0.7818608E-02  0.7223770E-01
         52   -1    0    0    0    0  0.00000000000E+00  0.00000000000E+00  0.64930732323E+04  0.65000000000E+04  0.30000000000E+03 0. -1.
        -52   -1    0    0    0    0 -0.00000000000E+00 -0.00000000000E+00 -0.64930732323E+04  0.65000000000E+04  0.30000000000E+03 0.  1.
     100001    1    1    2    0    0 -0.33596357050E+04 -0.90429923488E+03  0.54883914377E+04  0.65000000000E+04  0.15050000000E+03 0. -1.
     100001    1    1    2    0    0  0.33596357050E+04  0.90429923488E+03 -0.54883914377E+04  0.65000000000E+04  0.15050000000E+03 0.  1.
</event>
<event>
 4    1  0.4826743E-004  0.6500000E+04  0.7818608E-02  0.7223770E-01
         52   -1    0    0    0    0  0.00000000000E+00  0.00000000000E+00  0.64930732323E+04  0.65000000000E+04  0.30000000000E+03 0. -1.
        -52   -1    0    0    0    0 -0.00000000000E+00 -0.00000000000E+00 -0.64930732323E+04  0.65000000000E+04  0.30000000000E+03 0.  1.
     100001    1    1    2    0    0  0.35704604970E+04  0.11460880512E+04 -0.53071314067E+04  0.65000000000E+04  0.15050000000E+03 0.  1.
     100001    1    1    2    0    0 -0.35704604970E+04 -0.11460880512E+04  0.53071314067E+04  0.65000000000E+04  0.15050000000E+03 0. -1.
</event>
<event>
 4    1  0.5600923E-004  0.6500000E+04  0.7818608E-02  0.7223770E-01
         52   -1    0    0    0    0  0.00000000000E+00  0.00000000000E+00  0.64930732323E+04  0.65000000000E+04  0.30000000000E+03 0. -1.
        -52   -1    0    0    0    0 -0.00000000000E+00 -0.00000000000E+00 -0.64930732323E+04  0.65000000000E+04  0.30000000000E+03 0. -1.
     100001    1    1    2    0    0  0.10685503957E+03 -0.11334814614E+03  0.64963900705E+04  0.65000000000E+04  0.15050000000E+03 0. -1.
     100001    1    1    2    0    0 -0.10685503957E+03  0.11334814614E+03 -0.64963900705E+04  0.65000000000E+04  0.15050000000E+03 0. -1.
</event>
<event>
 4    1  0.4826743E-004  0.6500000E+04  0.7818608E-02  0.7223770E-01
         52   -1    0    0    0    0  0.00000000000E+00  0.00000000000E+00  0.64930732323E+04  0.65000000000E+04  0.30000000000E+03 0. -1.
        -52   -1    0    0    0    0 -0.00000000000E+00 -0.00000000000E+00 -0.64930732323E+04  0.65000000000E+04  0.30000000000E+03 0.  1.
     100001    1    1    2    0    0 -0.40654503929E+04  0.25403384142E+03 -0.50630948698E+04  0.65000000000E+04  0.15050000000E+03 0.  1.
     100001    1    1    2    0    0  0.40654503929E+04 -0.25403384142E+03  0.50630948698E+04  0.65000000000E+04  0.15050000000E+03 0. -1.
</event>
<event>
 4    1  0.4826743E-004  0.6500000E+04  0.7818608E-02  0.7223770E-01
         52   -1    0    0    0    0  0.00000000000E+00  0.00000000000E+00  0.64930732323E+04  0.65000000000E+04  0.30000000000E+03 0.  1.
        -52   -1    0    0    0    0 -0.00000000000E+00 -0.00000000000E+00 -0.64930732323E+04  0.65000000000E+04  0.30000000000E+03 0.  1.
     100001    1    1    2    0    0 -0.20281471870E+03 -0.56047458413E+03  0.64708642530E+04  0.65000000000E+04  0.15050000000E+03 0.  1.
     100001    1    1    2    0    0  0.20281471870E+03  0.56047458413E+03 -0.64708642530E+04  0.65000000000E+04  0.15050000000E+03 0.  1.
</event>
<event>
 4    1  0.4826743E-004  0.6500000E+04  0.7818608E-02  0.7223770E-01
         52   -1    0    0    0    0  0.00000000000E+00  0.00000000000E+00  0.64930732323E+04  0.65000000000E+04  0.30000000000E+03 0. -1.
        -52   -1    0    0    0    0 -0.00000000000E+00 -0.00000000000E+00 -0.64930732323E+04  0.65000000000E+04  0.30000000000E+03 0.  1.
     100001    1    1    2    0    0  0.90704994191E+03  0.54658490241E+03  0.64113848034E+04  0.65000000000E+04  0.15050000000E+03 0. -1.
     100001    1    1    2    0    0 -0.90704994191E+03 -0.54658490241E+03 -0.64113848034E+04  0.65000000000E+04  0.15050000000E+03 0.  1.
</event>
<event>
 4    1  0.4826743E-004  0.6500000E+04  0.7818608E-02  0.7223770E-01
         52   -1    0    0    0    0  0.00000000000E+00  0.00000000000E+00  0.64930732323E+04  0.65000000000E+04  0.30000000000E+03 0. -1.
        -52   -1    0    0    0    0 -0.00000000000E+00 -0.00000000000E+00 -0.64930732323E+04  0.65000000000E+04  0.30000000000E+03 0.  1.
     100001    1    1    2    0    0 -0.43935710894E+02  0.21424670197E+03 -0.64945760257E+04  0.65000000000E+04  0.15050000000E+03 0.  1.
     100001    1    1    2    0    0  0.43935710894E+02 -0.21424670197E+03  0.64945760257E+04  0.65000000000E+04  0.15050000000E+03 0. -1.
</event>
<event>
 4    1  0.4826743E-004  0.6500000E+04  0.7818608E-02  0.7223770E-01
         52   -1    0    0    0    0  0.00000000000E+00  0.00000000000E+00  0.64930732323E+04  0.65000000000E+04  0.30000000000E+03 0. -1.
        -52   -1    0    0    0    0 -0.00000000000E+00 -0.00000000000E+00 -0.64930732323E+04  0.65000000000E+04  0.30000000000E+03 0. -1.
     100001    1    1    2    0    0 -0.22771971304E+03 -0.17053713590E+03  0.64920266918E+04  0.65000000000E+04  0.15050000000E+03 0. -1.
     100001    1    1    2    0    0  0.22771971304E+03  0.17053713590E+03 -0.64920266918E+04  0.65000000000E+04  0.15050000000E+03 0. -1.
</event>
<event>
 4    1  0.4826743E-004  0.6500000E+04  0.7818608E-02  0.7223770E-01
         52   -1    0    0    0    0  0.00000000000E+00  0.00000000000E+00  0.64930732323E+04  0.65000000000E+04  0.30000000000E+03 0.  1.
        -52   -1    0    0    0    0 -0.00000000000E+00 -0.00000000000E+00 -0.64930732323E+04  0.65000000000E+04  0.30000000000E+03 0.  1.
     100001    1    1    2    0    0  0.60815016987E+03  0.31603795124E+03  0.64620138606E+04  0.65000000000E+04  0.15050000000E+03 0.  1.
     100001    1    1    2    0    0 -0.60815016987E+03 -0.31603795124E+03 -0.64620138606E+04  0.65000000000E+04  0.15050000000E+03 0.  1.
</event>
<event>
 4    1  0.4826743E-004  0.6500000E+04  0.7818608E-02  0.7223770E-01
         52   -1    0    0    0    0  0.00000000000E+00  0.00000000000E+00  0.64930732323E+04  0.65000000000E+04  0.30000000000E+03 0.  1.
        -52   -1    0    0    0    0 -0.00000000000E+00 -0.00000000000E+00 -0.64930732323E+04  0.65000000000E+04  0.30000000000E+03 0. -1.
     100001    1    1    2    0    0 -0.28315842592E+04  0.17067206973E+03 -0.58463964438E+04  0.65000000000E+04  0.15050000000E+03 0. -1.
     100001    1    1    2    0    0  0.28315842592E+04 -0.17067206973E+03  0.58463964438E+04  0.65000000000E+04  0.15050000000E+03 0.  1.
</event>
<event>
 4    1  0.4826743E-004  0.6500000E+04  0.7818608E-02  0.7223770E-01
         52   -1    0    0    0    0  0.00000000000E+00  0.00000000000E+00  0.64930732323E+04  0.65000000000E+04  0.30000000000E+03 0. -1.
        -52   -1    0    0    0    0 -0.00000000000E+00 -0.00000000000E+00 -0.64930732323E+04  0.65000000000E+04  0.30000000000E+03 0.  1.
     100001    1    1    2    0    0  0.26063775709E+04 -0.14578633615E+04 -0.57713759301E+04  0.65000000000E+04  0.15050000000E+03 0.  1.
     100001    1    1    2    0    0 -0.26063775709E+04  0.14578633615E+04  0.57713759301E+04  0.65000000000E+04  0.15050000000E+03 0. -1.
</event>
<event>
 4    1  0.6156270E-004  0.6500000E+04  0.7818608E-02  0.7223770E-01
         52   -1    0    0    0    0  0.00000000000E+00  0.00000000000E+00  0.64930732323E+04  0.65000000000E+04  0.30000000000E+03 0.  1.
        -52   -1    0    0    0    0 -0.00000000000E+00 -0.00000000000E+00 -0.64930732323E+04  0.65000000000E+04  0.30000000000E+03 0.  1.
     100001    1    1    2    0    0  0.97057597194E+02 -0.15895245658E+03  0.64955880172E+04  0.65000000000E+04  0.15050000000E+03 0.  1.
     100001    1    1    2    0    0 -0.97057597194E+02  0.15895245658E+03 -0.64955880172E+04  0.65000000000E+04  0.15050000000E+03 0.  1.
</event>
<event>
 4    1  0.4826743E-004  0.6500000E+04  0.7818608E-02  0.7223770E-01
         52   -1    0    0    0    0  0.00000000000E+00  0.00000000000E+00  0.64930732323E+04  0.65000000000E+04  0.30000000000E+03 0.  1.
        -52   -1    0    0    0    0 -0.00000000000E+00 -0.00000000000E+00 -0.64930732323E+04  0.65000000000E+04  0.30000000000E+03 0. -1.
     100001    1    1    2    0    0 -0.39561965711E+04 -0.25452977098E+03  0.51488904665E+04  0.65000000000E+04  0.15050000000E+03 0.  1.
     100001    1    1    2    0    0  0.39561965711E+04  0.25452977098E+03 -0.51488904665E+04  0.65000000000E+04  0.15050000000E+03 0. -1.
</event>
<event>
 4    1  0.4826743E-004  0.6500000E+04  0.7818608E-02  0.7223770E-01
         52   -1    0    0    0    0  0.00000000000E+00  0.00000000000E+00  0.64930732323E+04  0.65000000000E+04  0.30000000000E+03 0. -1.
        -52   -1    0    0    0    0 -0.00000000000E+00 -0.00000000000E+00 -0.64930732323E+04  0.65000000000E+04  0.30000000000E+03 0.  1.
     100001    1    1    2    0    0 -0.25184190346E+03 -0.26949648112E+03  0.64877805953E+04  0.65000000000E+04  0.15050000000E+03 0. -1.
     100001    1    1    2    0    0  0.25184190346E+03  0.26949648112E+03 -0.64877805953E+04  0.65000000000E+04  0.15050000000E+03 0.  1.
</event>
<event>
 4    1  0.4826743E-004  0.6500000E+04  0.7818608E-02  0.7223770E-01
         52   -1    0    0    0    0  0.00000000000E+00  0.00000000000E+00  0.64930732323E+04  0.65000000000E+04  0.30000000000E+03 0. -1.
        -52   -1    0    0    0    0 -0.00000000000E+00 -0.00000000000E+00 -0.64930732323E+04  0.65000000000E+04  0.30000000000E+03 0.  1.
     100001    1    1    2    0    0  0.28938973853E+04 -0.19675399361E+04 -0.54755359805E+04  0.65000000000E+04  0.15050000000E+03 0.  1.
     100001    1    1    2    0    0 -0.28938973853E+04  0.19675399361E+04  0.54755359805E+04  0.65000000000E+04  0.15050000000E+03 0. -1.
</event>
<event>
 4    1  0.4826743E-004  0.6500000E+04  0.7818608E-02  0.7223770E-01
         52   -1    0    0    0    0  0.00000000000E+00  0.00000000000E+00  0.64930732323E+04  0.65000000000E+04  0.30000000000E+03 0.  1.
        -52   -1    0    0    0    0 -0.00000000000E+00 -0.00000000000E+00 -0.64930732323E+04  0.65000000000E+04  0.30000000000E+03 0. -1.
     100001    1    1    2    0    0  0.23806063889E+03 -0.27832128738E+04  0.58672312875E+04  0.65000000000E+04  0.15050000000E+03 0.  1.
     100001    1    1    2    0    0 -0.23806063889E+03  0.27832128738E+04 -0.58672312875E+04  0.65000000000E+04  0.15050000000E+03 0. -1.
</event>
<event>
 4    1  0.4826743E-004  0.6500000E+04  0.7818608E-02  0.7223770E-01
         52   -1    0    0    0    0  0.00000000000E+00  0.00000000000E+00  0.64930732323E+04  0.65000000000E+04  0.30000000000E+03 0.  1.
        -52   -1    0    0    0    0 -0.00000000000E+00 -0.00000000000E+00 -0.64930732323E+04  0.65000000000E+04  0.30000000000E+03 0. -1.
     100001    1    1    2    0    0 -0.34584832316E+04  0.26642650599E+04  0.48133081323E+04  0.65000000000E+04  0.15050000000E+03 0.  1.
     100001    1    1    2    0    0  0.34584832316E+04 -0.26642650599E+04 -0.48133081323E+04  0.65000000000E+04  0.15050000000E+03 0. -1.
</event>
<event>
 4    1  0.4826743E-004  0.6500000E+04  0.7818608E-02  0.7223770E-01
         52   -1    0    0    0    0  0.00000000000E+00  0.00000000000E+00  0.64930732323E+04  0.65000000000E+04  0.30000000000E+03 0.  1.
        -52   -1    0    0    0    0 -0.00000000000E+00 -0.00000000000E+00 -0.64930732323E+04  0.65000000000E+04  0.30000000000E+03 0.  1.
     100001    1    1    2    0    0 -0.32248979712E+03 -0.22563361699E+03 -0.64863271234E+04  0.65000000000E+04  0.15050000000E+03 0.  1.
     100001    1    1    2    0    0  0.32248979712E+03  0.22563361699E+03  0.64863271234E+04  0.65000000000E+04  0.15050000000E+03 0.  1.
</event>
<event>
 4    1  0.4826743E-004  0.6500000E+04  0.7818608E-02  0.7223770E-01
         52   -1    0    0    0    0  0.00000000000E+00  0.00000000000E+00  0.64930732323E+04  0.65000000000E+04  0.30000000000E+03 0.  1.
        -52   -1    0    0    0    0 -0.00000000000E+00 -0.00000000000E+00 -0.64930732323E+04  0.65000000000E+04  0.30000000000E+03 0. -1.
     100001    1    1    2    0    0 -0.17454771463E+04  0.77715470666E+03  0.62110135923E+04  0.65000000000E+04  0.15050000000E+03 0.  1.
     100001    1    1    2    0    0  0.17454771463E+04 -0.77715470666E+03 -0.62110135923E+04  0.65000000000E+04  0.15050000000E+03 0. -1.
</event>
<event>
 4    1  0.4826743E-004  0.6500000E+04  0.7818608E-02  0.7223770E-01
         52   -1    0    0    0    0  0.00000000000E+00  0.00000000000E+00  0.64930732323E+04  0.65000000000E+04  0.30000000000E+03 0. -1.
        -52   -1    0    0    0    0 -0.00000000000E+00 -0.00000000000E+00 -0.64930732323E+04  0.65000000000E+04  0.30000000000E+03 0.  1.
     100001    1    1    2    0    0  0.35252118454E+04 -0.24356408117E+04 -0.48854769503E+04  0.65000000000E+04  0.15050000000E+03 0.  1.
     100001    1    1    2    0    0 -0.35252118454E+04  0.24356408117E+04  0.48854769503E+04  0.65000000000E+04  0.15050000000E+03 0. -1.
</event>
<event>
 4    1  0.4826743E-004  0.6500000E+04  0.7818608E-02  0.7223770E-01
         52   -1    0    0    0    0  0.00000000000E+00  0.00000000000E+00  0.64930732323E+04  0.65000000000E+04  0.30000000000E+03 0. -1.
        -52   -1    0    0    0    0 -0.00000000000E+00 -0.00000000000E+00 -0.64930732323E+04  0.65000000000E+04  0.30000000000E+03 0.  1.
     100001    1    1    2    0    0  0.39566633477E+04  0.31178544440E+04  0.41050150509E+04  0.65000000000E+04  0.15050000000E+03 0. -1.
     100001    1    1    2    0    0 -0.39566633477E+04 -0.31178544440E+04 -0.41050150509E+04  0.65000000000E+04  0.15050000000E+03 0.  1.
</event>
<event>
 4    1  0.4826743E-004  0.6500000E+04  0.7818608E-02  0.7223770E-01
         52   -1    0    0    0    0  0.00000000000E+00  0.00000000000E+00  0.64930732323E+04  0.65000000000E+04  0.30000000000E+03 0. -1.
        -52   -1    0    0    0    0 -0.00000000000E+00 -0.00000000000E+00 -0.64930732323E+04  0.65000000000E+04  0.30000000000E+03 0.  1.
     100001    1    1    2    0    0 -0.30840422821E+03 -0.71872393703E+03  0.64510210420E+04  0.65000000000E+04  0.15050000000E+03 0. -1.
     100001    1    1    2    0    0  0.30840422821E+03  0.71872393703E+03 -0.64510210420E+04  0.65000000000E+04  0.15050000000E+03 0.  1.
</event>
<event>
 4    1  0.4826743E-004  0.6500000E+04  0.7818608E-02  0.7223770E-01
         52   -1    0    0    0    0  0.00000000000E+00  0.00000000000E+00  0.64930732323E+04  0.65000000000E+04  0.30000000000E+03 0. -1.
        -52   -1    0    0    0    0 -0.00000000000E+00 -0.00000000000E+00 -0.64930732323E+04  0.65000000000E+04  0.30000000000E+03 0.  1.
     100001    1    1    2    0    0  0.20090293993E+04  0.28357958948E+04  0.54908480461E+04  0.65000000000E+04  0.15050000000E+03 0. -1.
     100001    1    1    2    0    0 -0.20090293993E+04 -0.28357958948E+04 -0.54908480461E+04  0.65000000000E+04  0.15050000000E+03 0.  1.
</event>
<event>
 4    1  0.4826743E-004  0.6500000E+04  0.7818608E-02  0.7223770E-01
         52   -1    0    0    0    0  0.00000000000E+00  0.00000000000E+00  0.64930732323E+04  0.65000000000E+04  0.30000000000E+03 0. -1.
        -52   -1    0    0    0    0 -0.00000000000E+00 -0.00000000000E+00 -0.64930732323E+04  0.65000000000E+04  0.30000000000E+03 0.  1.
     100001    1    1    2    0    0  0.29318581537E+04  0.19606530398E+04  0.54577831740E+04  0.65000000000E+04  0.15050000000E+03 0. -1.
     100001    1    1    2    0    0 -0.29318581537E+04 -0.19606530398E+04 -0.54577831740E+04  0.65000000000E+04  0.15050000000E+03 0.  1.
</event>
<event>
 4    1  0.4826743E-004  0.6500000E+04  0.7818608E-02  0.7223770E-01
         52   -1    0    0    0    0  0.00000000000E+00  0.00000000000E+00  0.64930732323E+04  0.65000000000E+04  0.30000000000E+03 0. -1.
        -52   -1    0    0    0    0 -0.00000000000E+00 -0.00000000000E+00 -0.64930732323E+04  0.65000000000E+04  0.30000000000E+03 0.  1.
     100001    1    1    2    0    0  0.72653917670E+02 -0.52004824457E+03  0.64770071006E+04  0.65000000000E+04  0.15050000000E+03 0. -1.
     100001    1    1    2    0    0 -0.72653917670E+02  0.52004824457E+03 -0.64770071006E+04  0.65000000000E+04  0.15050000000E+03 0.  1.
</event>
<event>
 4    1  0.4826743E-004  0.6500000E+04  0.7818608E-02  0.7223770E-01
         52   -1    0    0    0    0  0.00000000000E+00  0.00000000000E+00  0.64930732323E+04  0.65000000000E+04  0.30000000000E+03 0. -1.
        -52   -1    0    0    0    0 -0.00000000000E+00 -0.00000000000E+00 -0.64930732323E+04  0.65000000000E+04  0.30000000000E+03 0. -1.
     100001    1    1    2    0    0 -0.29725212146E+03  0.18483620889E+02  0.64914289091E+04  0.65000000000E+04  0.15050000000E+03 0. -1.
     100001    1    1    2    0    0  0.29725212146E+03 -0.18483620889E+02 -0.64914289091E+04  0.65000000000E+04  0.15050000000E+03 0. -1.
</event>
<event>
 4    1  0.4826743E-004  0.6500000E+04  0.7818608E-02  0.7223770E-01
         52   -1    0    0    0    0  0.00000000000E+00  0.00000000000E+00  0.64930732323E+04  0.65000000000E+04  0.30000000000E+03 0.  1.
        -52   -1    0    0    0    0 -0.00000000000E+00 -0.00000000000E+00 -0.64930732323E+04  0.65000000000E+04  0.30000000000E+03 0. -1.
     100001    1    1    2    0    0 -0.54421732392E+04 -0.28572244154E+03  0.35395568749E+04  0.65000000000E+04  0.15050000000E+03 0.  1.
     100001    1    1    2    0    0  0.54421732392E+04  0.28572244154E+03 -0.35395568749E+04  0.65000000000E+04  0.15050000000E+03 0. -1.
</event>
<event>
 4    1  0.4826743E-004  0.6500000E+04  0.7818608E-02  0.7223770E-01
         52   -1    0    0    0    0  0.00000000000E+00  0.00000000000E+00  0.64930732323E+04  0.65000000000E+04  0.30000000000E+03 0.  1.
        -52   -1    0    0    0    0 -0.00000000000E+00 -0.00000000000E+00 -0.64930732323E+04  0.65000000000E+04  0.30000000000E+03 0. -1.
     100001    1    1    2    0    0  0.95093455544E+03  0.18436514432E+04 -0.61582483368E+04  0.65000000000E+04  0.15050000000E+03 0. -1.
     100001    1    1    2    0    0 -0.95093455544E+03 -0.18436514432E+04  0.61582483368E+04  0.65000000000E+04  0.15050000000E+03 0.  1.
</event>
<event>
 4    1  0.4826743E-004  0.6500000E+04  0.7818608E-02  0.7223770E-01
         52   -1    0    0    0    0  0.00000000000E+00  0.00000000000E+00  0.64930732323E+04  0.65000000000E+04  0.30000000000E+03 0. -1.
        -52   -1    0    0    0    0 -0.00000000000E+00 -0.00000000000E+00 -0.64930732323E+04  0.65000000000E+04  0.30000000000E+03 0.  1.
     100001    1    1    2    0    0 -0.45087008326E+03  0.22783389158E+04 -0.60690392735E+04  0.65000000000E+04  0.15050000000E+03 0.  1.
     100001    1    1    2    0    0  0.45087008326E+03 -0.22783389158E+04  0.60690392735E+04  0.65000000000E+04  0.15050000000E+03 0. -1.
</event>
<event>
 4    1  0.4826743E-004  0.6500000E+04  0.7818608E-02  0.7223770E-01
         52   -1    0    0    0    0  0.00000000000E+00  0.00000000000E+00  0.64930732323E+04  0.65000000000E+04  0.30000000000E+03 0.  1.
        -52   -1    0    0    0    0 -0.00000000000E+00 -0.00000000000E+00 -0.64930732323E+04  0.65000000000E+04  0.30000000000E+03 0. -1.
     100001    1    1    2    0    0 -0.43421693349E+03  0.16930044826E+03  0.64815231823E+04  0.65000000000E+04  0.15050000000E+03 0.  1.
     100001    1    1    2    0    0  0.43421693349E+03 -0.16930044826E+03 -0.64815231823E+04  0.65000000000E+04  0.15050000000E+03 0. -1.
</event>
<event>
 4    1  0.4826743E-004  0.6500000E+04  0.7818608E-02  0.7223770E-01
         52   -1    0    0    0    0  0.00000000000E+00  0.00000000000E+00  0.64930732323E+04  0.65000000000E+04  0.30000000000E+03 0.  1.
        -52   -1    0    0    0    0 -0.00000000000E+00 -0.00000000000E+00 -0.64930732323E+04  0.65000000000E+04  0.30000000000E+03 0. -1.
     100001    1    1    2    0    0  0.27501032563E+04 -0.20339770603E+04 -0.55251442649E+04  0.65000000000E+04  0.15050000000E+03 0. -1.
     100001    1    1    2    0    0 -0.27501032563E+04  0.20339770603E+04  0.55251442649E+04  0.65000000000E+04  0.15050000000E+03 0.  1.
</event>
<event>
 4    1  0.4826743E-004  0.6500000E+04  0.7818608E-02  0.7223770E-01
         52   -1    0    0    0    0  0.00000000000E+00  0.00000000000E+00  0.64930732323E+04  0.65000000000E+04  0.30000000000E+03 0.  1.
        -52   -1    0    0    0    0 -0.00000000000E+00 -0.00000000000E+00 -0.64930732323E+04  0.65000000000E+04  0.30000000000E+03 0. -1.
     100001    1    1    2    0    0 -0.24844756934E+03  0.17753660220E+04  0.62460947034E+04  0.65000000000E+04  0.15050000000E+03 0.  1.
     100001    1    1    2    0    0  0.24844756934E+03 -0.17753660220E+04 -0.62460947034E+04  0.65000000000E+04  0.15050000000E+03 0. -1.
</event>
<event>
 4    1  0.4826743E-004  0.6500000E+04  0.7818608E-02  0.7223770E-01
         52   -1    0    0    0    0  0.00000000000E+00  0.00000000000E+00  0.64930732323E+04  0.65000000000E+04  0.30000000000E+03 0.  1.
        -52   -1    0    0    0    0 -0.00000000000E+00 -0.00000000000E+00 -0.64930732323E+04  0.65000000000E+04  0.30000000000E+03 0.  1.
     100001    1    1    2    0    0 -0.51533319460E+02 -0.37282582472E+03  0.64873488400E+04  0.65000000000E+04  0.15050000000E+03 0.  1.
     100001    1    1    2    0    0  0.51533319460E+02  0.37282582472E+03 -0.64873488400E+04  0.65000000000E+04  0.15050000000E+03 0.  1.
</event>
<event>
 4    1  0.4826743E-004  0.6500000E+04  0.7818608E-02  0.7223770E-01
         52   -1    0    0    0    0  0.00000000000E+00  0.00000000000E+00  0.64930732323E+04  0.65000000000E+04  0.30000000000E+03 0. -1.
        -52   -1    0    0    0    0 -0.00000000000E+00 -0.00000000000E+00 -0.64930732323E+04  0.65000000000E+04  0.30000000000E+03 0.  1.
     100001    1    1    2    0    0  0.41250561795E+04 -0.21842640264E+04 -0.45210896838E+04  0.65000000000E+04  0.15050000000E+03 0.  1.
     100001    1    1    2    0    0 -0.41250561795E+04  0.21842640264E+04  0.45210896838E+04  0.65000000000E+04  0.15050000000E+03 0. -1.
</event>
<event>
 4    1  0.4826743E-004  0.6500000E+04  0.7818608E-02  0.7223770E-01
         52   -1    0    0    0    0  0.00000000000E+00  0.00000000000E+00  0.64930732323E+04  0.65000000000E+04  0.30000000000E+03 0. -1.
        -52   -1    0    0    0    0 -0.00000000000E+00 -0.00000000000E+00 -0.64930732323E+04  0.65000000000E+04  0.30000000000E+03 0.  1.
     100001    1    1    2    0    0  0.30585260472E+04 -0.12573074768E+04 -0.55939204568E+04  0.65000000000E+04  0.15050000000E+03 0.  1.
     100001    1    1    2    0    0 -0.30585260472E+04  0.12573074768E+04  0.55939204568E+04  0.65000000000E+04  0.15050000000E+03 0. -1.
</event>
<event>
 4    1  0.4826743E-004  0.6500000E+04  0.7818608E-02  0.7223770E-01
         52   -1    0    0    0    0  0.00000000000E+00  0.00000000000E+00  0.64930732323E+04  0.65000000000E+04  0.30000000000E+03 0. -1.
        -52   -1    0    0    0    0 -0.00000000000E+00 -0.00000000000E+00 -0.64930732323E+04  0.65000000000E+04  0.30000000000E+03 0.  1.
     100001    1    1    2    0    0  0.15959850121E+04  0.41200060975E+03 -0.62857328204E+04  0.65000000000E+04  0.15050000000E+03 0.  1.
     100001    1    1    2    0    0 -0.15959850121E+04 -0.41200060975E+03  0.62857328204E+04  0.65000000000E+04  0.15050000000E+03 0. -1.
</event>
<event>
 4    1  0.4826743E-004  0.6500000E+04  0.7818608E-02  0.7223770E-01
         52   -1    0    0    0    0  0.00000000000E+00  0.00000000000E+00  0.64930732323E+04  0.65000000000E+04  0.30000000000E+03 0.  1.
        -52   -1    0    0    0    0 -0.00000000000E+00 -0.00000000000E+00 -0.64930732323E+04  0.65000000000E+04  0.30000000000E+03 0. -1.
     100001    1    1    2    0    0  0.43806277615E+03 -0.32092144327E+03  0.64755277917E+04  0.65000000000E+04  0.15050000000E+03 0.  1.
     100001    1    1    2    0    0 -0.43806277615E+03  0.32092144327E+03 -0.64755277917E+04  0.65000000000E+04  0.15050000000E+03 0. -1.
</event>
<event>
 4    1  0.4826743E-004  0.6500000E+04  0.7818608E-02  0.7223770E-01
         52   -1    0    0    0    0  0.00000000000E+00  0.00000000000E+00  0.64930732323E+04  0.65000000000E+04  0.30000000000E+03 0. -1.
        -52   -1    0    0    0    0 -0.00000000000E+00 -0.00000000000E+00 -0.64930732323E+04  0.65000000000E+04  0.30000000000E+03 0.  1.
     100001    1    1    2    0    0  0.37250261630E+03  0.30747221165E+03 -0.64802818141E+04  0.65000000000E+04  0.15050000000E+03 0.  1.
     100001    1    1    2    0    0 -0.37250261630E+03 -0.30747221165E+03  0.64802818141E+04  0.65000000000E+04  0.15050000000E+03 0. -1.
</event>
<event>
 4    1  0.4826743E-004  0.6500000E+04  0.7818608E-02  0.7223770E-01
         52   -1    0    0    0    0  0.00000000000E+00  0.00000000000E+00  0.64930732323E+04  0.65000000000E+04  0.30000000000E+03 0. -1.
        -52   -1    0    0    0    0 -0.00000000000E+00 -0.00000000000E+00 -0.64930732323E+04  0.65000000000E+04  0.30000000000E+03 0.  1.
     100001    1    1    2    0    0 -0.45906075728E+04  0.25991123289E+04 -0.37945074733E+04  0.65000000000E+04  0.15050000000E+03 0.  1.
     100001    1    1    2    0    0  0.45906075728E+04 -0.25991123289E+04  0.37945074733E+04  0.65000000000E+04  0.15050000000E+03 0. -1.
</event>
<event>
 4    1  0.4826743E-004  0.6500000E+04  0.7818608E-02  0.7223770E-01
         52   -1    0    0    0    0  0.00000000000E+00  0.00000000000E+00  0.64930732323E+04  0.65000000000E+04  0.30000000000E+03 0.  1.
        -52   -1    0    0    0    0 -0.00000000000E+00 -0.00000000000E+00 -0.64930732323E+04  0.65000000000E+04  0.30000000000E+03 0. -1.
     100001    1    1    2    0    0 -0.52157234971E+04  0.65373039332E+03  0.38204992769E+04  0.65000000000E+04  0.15050000000E+03 0.  1.
     100001    1    1    2    0    0  0.52157234971E+04 -0.65373039332E+03 -0.38204992769E+04  0.65000000000E+04  0.15050000000E+03 0. -1.
</event>
<event>
 4    1  0.4826743E-004  0.6500000E+04  0.7818608E-02  0.7223770E-01
         52   -1    0    0    0    0  0.00000000000E+00  0.00000000000E+00  0.64930732323E+04  0.65000000000E+04  0.30000000000E+03 0. -1.
        -52   -1    0    0    0    0 -0.00000000000E+00 -0.00000000000E+00 -0.64930732323E+04  0.65000000000E+04  0.30000000000E+03 0.  1.
     100001    1    1    2    0    0 -0.31485383945E+03  0.33993650304E+03 -0.64817173638E+04  0.65000000000E+04  0.15050000000E+03 0.  1.
     100001    1    1    2    0    0  0.31485383945E+03 -0.33993650304E+03  0.64817173638E+04  0.65000000000E+04  0.15050000000E+03 0. -1.
</event>
<event>
 4    1  0.4826743E-004  0.6500000E+04  0.7818608E-02  0.7223770E-01
         52   -1    0    0    0    0  0.00000000000E+00  0.00000000000E+00  0.64930732323E+04  0.65000000000E+04  0.30000000000E+03 0. -1.
        -52   -1    0    0    0    0 -0.00000000000E+00 -0.00000000000E+00 -0.64930732323E+04  0.65000000000E+04  0.30000000000E+03 0.  1.
     100001    1    1    2    0    0  0.11273135894E+03 -0.99797963710E+03 -0.64201774146E+04  0.65000000000E+04  0.15050000000E+03 0.  1.
     100001    1    1    2    0    0 -0.11273135894E+03  0.99797963710E+03  0.64201774146E+04  0.65000000000E+04  0.15050000000E+03 0. -1.
</event>
<event>
 4    1  0.4826743E-004  0.6500000E+04  0.7818608E-02  0.7223770E-01
         52   -1    0    0    0    0  0.00000000000E+00  0.00000000000E+00  0.64930732323E+04  0.65000000000E+04  0.30000000000E+03 0. -1.
        -52   -1    0    0    0    0 -0.00000000000E+00 -0.00000000000E+00 -0.64930732323E+04  0.65000000000E+04  0.30000000000E+03 0.  1.
     100001    1    1    2    0    0  0.10226785464E+04 -0.29880819262E+04 -0.56791588060E+04  0.65000000000E+04  0.15050000000E+03 0.  1.
     100001    1    1    2    0    0 -0.10226785464E+04  0.29880819262E+04  0.56791588060E+04  0.65000000000E+04  0.15050000000E+03 0. -1.
</event>
<event>
 4    1  0.4826743E-004  0.6500000E+04  0.7818608E-02  0.7223770E-01
         52   -1    0    0    0    0  0.00000000000E+00  0.00000000000E+00  0.64930732323E+04  0.65000000000E+04  0.30000000000E+03 0.  1.
        -52   -1    0    0    0    0 -0.00000000000E+00 -0.00000000000E+00 -0.64930732323E+04  0.65000000000E+04  0.30000000000E+03 0. -1.
     100001    1    1    2    0    0 -0.25917839365E+03  0.13279976275E+03 -0.64917286244E+04  0.65000000000E+04  0.15050000000E+03 0. -1.
     100001    1    1    2    0    0  0.25917839365E+03 -0.13279976275E+03  0.64917286244E+04  0.65000000000E+04  0.15050000000E+03 0.  1.
</event>
<event>
 4    1  0.4826743E-004  0.6500000E+04  0.7818608E-02  0.7223770E-01
         52   -1    0    0    0    0  0.00000000000E+00  0.00000000000E+00  0.64930732323E+04  0.65000000000E+04  0.30000000000E+03 0. -1.
        -52   -1    0    0    0    0 -0.00000000000E+00 -0.00000000000E+00 -0.64930732323E+04  0.65000000000E+04  0.30000000000E+03 0. -1.
     100001    1    1    2    0    0 -0.35315745803E+03 -0.33109813739E+03  0.64802008907E+04  0.65000000000E+04  0.15050000000E+03 0. -1.
     100001    1    1    2    0    0  0.35315745803E+03  0.33109813739E+03 -0.64802008907E+04  0.65000000000E+04  0.15050000000E+03 0. -1.
</event>
<event>
 4    1  0.4826743E-004  0.6500000E+04  0.7818608E-02  0.7223770E-01
         52   -1    0    0    0    0  0.00000000000E+00  0.00000000000E+00  0.64930732323E+04  0.65000000000E+04  0.30000000000E+03 0. -1.
        -52   -1    0    0    0    0 -0.00000000000E+00 -0.00000000000E+00 -0.64930732323E+04  0.65000000000E+04  0.30000000000E+03 0.  1.
     100001    1    1    2    0    0 -0.50060134128E+03 -0.33603373124E+04  0.55393935764E+04  0.65000000000E+04  0.15050000000E+03 0. -1.
     100001    1    1    2    0    0  0.50060134128E+03  0.33603373124E+04 -0.55393935764E+04  0.65000000000E+04  0.15050000000E+03 0.  1.
</event>
<event>
 4    1  0.4826743E-004  0.6500000E+04  0.7818608E-02  0.7223770E-01
         52   -1    0    0    0    0  0.00000000000E+00  0.00000000000E+00  0.64930732323E+04  0.65000000000E+04  0.30000000000E+03 0. -1.
        -52   -1    0    0    0    0 -0.00000000000E+00 -0.00000000000E+00 -0.64930732323E+04  0.65000000000E+04  0.30000000000E+03 0.  1.
     100001    1    1    2    0    0  0.56717223936E+04  0.29204745620E+04  0.12368278670E+04  0.65000000000E+04  0.15050000000E+03 0. -1.
     100001    1    1    2    0    0 -0.56717223936E+04 -0.29204745620E+04 -0.12368278670E+04  0.65000000000E+04  0.15050000000E+03 0.  1.
</event>
<event>
 4    1  0.4826743E-004  0.6500000E+04  0.7818608E-02  0.7223770E-01
         52   -1    0    0    0    0  0.00000000000E+00  0.00000000000E+00  0.64930732323E+04  0.65000000000E+04  0.30000000000E+03 0. -1.
        -52   -1    0    0    0    0 -0.00000000000E+00 -0.00000000000E+00 -0.64930732323E+04  0.65000000000E+04  0.30000000000E+03 0.  1.
     100001    1    1    2    0    0 -0.81956748679E+02 -0.34958960514E+03  0.64883295192E+04  0.65000000000E+04  0.15050000000E+03 0. -1.
     100001    1    1    2    0    0  0.81956748679E+02  0.34958960514E+03 -0.64883295192E+04  0.65000000000E+04  0.15050000000E+03 0.  1.
</event>
<event>
 4    1  0.4826743E-004  0.6500000E+04  0.7818608E-02  0.7223770E-01
         52   -1    0    0    0    0  0.00000000000E+00  0.00000000000E+00  0.64930732323E+04  0.65000000000E+04  0.30000000000E+03 0.  1.
        -52   -1    0    0    0    0 -0.00000000000E+00 -0.00000000000E+00 -0.64930732323E+04  0.65000000000E+04  0.30000000000E+03 0. -1.
     100001    1    1    2    0    0  0.12978125083E+04 -0.10921232183E+04 -0.62729816929E+04  0.65000000000E+04  0.15050000000E+03 0. -1.
     100001    1    1    2    0    0 -0.12978125083E+04  0.10921232183E+04  0.62729816929E+04  0.65000000000E+04  0.15050000000E+03 0.  1.
</event>
<event>
 4    1  0.4826743E-004  0.6500000E+04  0.7818608E-02  0.7223770E-01
         52   -1    0    0    0    0  0.00000000000E+00  0.00000000000E+00  0.64930732323E+04  0.65000000000E+04  0.30000000000E+03 0. -1.
        -52   -1    0    0    0    0 -0.00000000000E+00 -0.00000000000E+00 -0.64930732323E+04  0.65000000000E+04  0.30000000000E+03 0.  1.
     100001    1    1    2    0    0  0.31730193949E+04 -0.63740611925E+03 -0.56349810212E+04  0.65000000000E+04  0.15050000000E+03 0.  1.
     100001    1    1    2    0    0 -0.31730193949E+04  0.63740611925E+03  0.56349810212E+04  0.65000000000E+04  0.15050000000E+03 0. -1.
</event>
<event>
 4    1  0.4826743E-004  0.6500000E+04  0.7818608E-02  0.7223770E-01
         52   -1    0    0    0    0  0.00000000000E+00  0.00000000000E+00  0.64930732323E+04  0.65000000000E+04  0.30000000000E+03 0. -1.
        -52   -1    0    0    0    0 -0.00000000000E+00 -0.00000000000E+00 -0.64930732323E+04  0.65000000000E+04  0.30000000000E+03 0.  1.
     100001    1    1    2    0    0 -0.13977044249E+02  0.34948014026E+04 -0.54784594138E+04  0.65000000000E+04  0.15050000000E+03 0.  1.
     100001    1    1    2    0    0  0.13977044249E+02 -0.34948014026E+04  0.54784594138E+04  0.65000000000E+04  0.15050000000E+03 0. -1.
</event>
<event>
 4    1  0.4826743E-004  0.6500000E+04  0.7818608E-02  0.7223770E-01
         52   -1    0    0    0    0  0.00000000000E+00  0.00000000000E+00  0.64930732323E+04  0.65000000000E+04  0.30000000000E+03 0. -1.
        -52   -1    0    0    0    0 -0.00000000000E+00 -0.00000000000E+00 -0.64930732323E+04  0.65000000000E+04  0.30000000000E+03 0.  1.
     100001    1    1    2    0    0  0.97475909244E+02 -0.96061393649E+03  0.64261239532E+04  0.65000000000E+04  0.15050000000E+03 0. -1.
     100001    1    1    2    0    0 -0.97475909244E+02  0.96061393649E+03 -0.64261239532E+04  0.65000000000E+04  0.15050000000E+03 0.  1.
</event>
<event>
 4    1  0.4826743E-004  0.6500000E+04  0.7818608E-02  0.7223770E-01
         52   -1    0    0    0    0  0.00000000000E+00  0.00000000000E+00  0.64930732323E+04  0.65000000000E+04  0.30000000000E+03 0.  1.
        -52   -1    0    0    0    0 -0.00000000000E+00 -0.00000000000E+00 -0.64930732323E+04  0.65000000000E+04  0.30000000000E+03 0. -1.
     100001    1    1    2    0    0 -0.25770909927E+03 -0.31108676062E+03 -0.64856889224E+04  0.65000000000E+04  0.15050000000E+03 0. -1.
     100001    1    1    2    0    0  0.25770909927E+03  0.31108676062E+03  0.64856889224E+04  0.65000000000E+04  0.15050000000E+03 0.  1.
</event>
<event>
 4    1  0.4826743E-004  0.6500000E+04  0.7818608E-02  0.7223770E-01
         52   -1    0    0    0    0  0.00000000000E+00  0.00000000000E+00  0.64930732323E+04  0.65000000000E+04  0.30000000000E+03 0. -1.
        -52   -1    0    0    0    0 -0.00000000000E+00 -0.00000000000E+00 -0.64930732323E+04  0.65000000000E+04  0.30000000000E+03 0.  1.
     100001    1    1    2    0    0 -0.15528619049E+04  0.13398763885E+04 -0.61660928405E+04  0.65000000000E+04  0.15050000000E+03 0.  1.
     100001    1    1    2    0    0  0.15528619049E+04 -0.13398763885E+04  0.61660928405E+04  0.65000000000E+04  0.15050000000E+03 0. -1.
</event>
<event>
 4    1  0.4826743E-004  0.6500000E+04  0.7818608E-02  0.7223770E-01
         52   -1    0    0    0    0  0.00000000000E+00  0.00000000000E+00  0.64930732323E+04  0.65000000000E+04  0.30000000000E+03 0. -1.
        -52   -1    0    0    0    0 -0.00000000000E+00 -0.00000000000E+00 -0.64930732323E+04  0.65000000000E+04  0.30000000000E+03 0.  1.
     100001    1    1    2    0    0  0.46882637063E+03 -0.42419600974E+03 -0.64674267935E+04  0.65000000000E+04  0.15050000000E+03 0.  1.
     100001    1    1    2    0    0 -0.46882637063E+03  0.42419600974E+03  0.64674267935E+04  0.65000000000E+04  0.15050000000E+03 0. -1.
</event>
<event>
 4    1  0.4826743E-004  0.6500000E+04  0.7818608E-02  0.7223770E-01
         52   -1    0    0    0    0  0.00000000000E+00  0.00000000000E+00  0.64930732323E+04  0.65000000000E+04  0.30000000000E+03 0. -1.
        -52   -1    0    0    0    0 -0.00000000000E+00 -0.00000000000E+00 -0.64930732323E+04  0.65000000000E+04  0.30000000000E+03 0. -1.
     100001    1    1    2    0    0  0.44639925689E+03  0.16599997789E+03 -0.64807809299E+04  0.65000000000E+04  0.15050000000E+03 0. -1.
     100001    1    1    2    0    0 -0.44639925689E+03 -0.16599997789E+03  0.64807809299E+04  0.65000000000E+04  0.15050000000E+03 0. -1.
</event>
<event>
 4    1  0.4826743E-004  0.6500000E+04  0.7818608E-02  0.7223770E-01
         52   -1    0    0    0    0  0.00000000000E+00  0.00000000000E+00  0.64930732323E+04  0.65000000000E+04  0.30000000000E+03 0. -1.
        -52   -1    0    0    0    0 -0.00000000000E+00 -0.00000000000E+00 -0.64930732323E+04  0.65000000000E+04  0.30000000000E+03 0.  1.
     100001    1    1    2    0    0 -0.17323552575E+04  0.11503403868E+04  0.61565422118E+04  0.65000000000E+04  0.15050000000E+03 0. -1.
     100001    1    1    2    0    0  0.17323552575E+04 -0.11503403868E+04 -0.61565422118E+04  0.65000000000E+04  0.15050000000E+03 0.  1.
</event>
<event>
 4    1  0.4826743E-004  0.6500000E+04  0.7818608E-02  0.7223770E-01
         52   -1    0    0    0    0  0.00000000000E+00  0.00000000000E+00  0.64930732323E+04  0.65000000000E+04  0.30000000000E+03 0.  1.
        -52   -1    0    0    0    0 -0.00000000000E+00 -0.00000000000E+00 -0.64930732323E+04  0.65000000000E+04  0.30000000000E+03 0. -1.
     100001    1    1    2    0    0 -0.95456368514E+03 -0.22612824319E+03 -0.64237857949E+04  0.65000000000E+04  0.15050000000E+03 0. -1.
     100001    1    1    2    0    0  0.95456368514E+03  0.22612824319E+03  0.64237857949E+04  0.65000000000E+04  0.15050000000E+03 0.  1.
</event>
<event>
 4    1  0.4826743E-004  0.6500000E+04  0.7818608E-02  0.7223770E-01
         52   -1    0    0    0    0  0.00000000000E+00  0.00000000000E+00  0.64930732323E+04  0.65000000000E+04  0.30000000000E+03 0. -1.
        -52   -1    0    0    0    0 -0.00000000000E+00 -0.00000000000E+00 -0.64930732323E+04  0.65000000000E+04  0.30000000000E+03 0.  1.
     100001    1    1    2    0    0  0.88039370932E+03 -0.55604806343E+03 -0.64142861815E+04  0.65000000000E+04  0.15050000000E+03 0.  1.
     100001    1    1    2    0    0 -0.88039370932E+03  0.55604806343E+03  0.64142861815E+04  0.65000000000E+04  0.15050000000E+03 0. -1.
</event>
<event>
 4    1  0.4826743E-004  0.6500000E+04  0.7818608E-02  0.7223770E-01
         52   -1    0    0    0    0  0.00000000000E+00  0.00000000000E+00  0.64930732323E+04  0.65000000000E+04  0.30000000000E+03 0.  1.
        -52   -1    0    0    0    0 -0.00000000000E+00 -0.00000000000E+00 -0.64930732323E+04  0.65000000000E+04  0.30000000000E+03 0. -1.
     100001    1    1    2    0    0 -0.24337636842E+03 -0.27254818544E+03 -0.64879762006E+04  0.65000000000E+04  0.15050000000E+03 0. -1.
     100001    1    1    2    0    0  0.24337636842E+03  0.27254818544E+03  0.64879762006E+04  0.65000000000E+04  0.15050000000E+03 0.  1.
</event>
<event>
 4    1  0.4826743E-004  0.6500000E+04  0.7818608E-02  0.7223770E-01
         52   -1    0    0    0    0  0.00000000000E+00  0.00000000000E+00  0.64930732323E+04  0.65000000000E+04  0.30000000000E+03 0.  1.
        -52   -1    0    0    0    0 -0.00000000000E+00 -0.00000000000E+00 -0.64930732323E+04  0.65000000000E+04  0.30000000000E+03 0. -1.
     100001    1    1    2    0    0  0.10603782979E+04 -0.18396289475E+03 -0.64085181804E+04  0.65000000000E+04  0.15050000000E+03 0. -1.
     100001    1    1    2    0    0 -0.10603782979E+04  0.18396289475E+03  0.64085181804E+04  0.65000000000E+04  0.15050000000E+03 0.  1.
</event>
<event>
 4    1  0.4826743E-004  0.6500000E+04  0.7818608E-02  0.7223770E-01
         52   -1    0    0    0    0  0.00000000000E+00  0.00000000000E+00  0.64930732323E+04  0.65000000000E+04  0.30000000000E+03 0. -1.
        -52   -1    0    0    0    0 -0.00000000000E+00 -0.00000000000E+00 -0.64930732323E+04  0.65000000000E+04  0.30000000000E+03 0.  1.
     100001    1    1    2    0    0  0.16704976375E+04  0.30606899433E+04  0.54835175266E+04  0.65000000000E+04  0.15050000000E+03 0. -1.
     100001    1    1    2    0    0 -0.16704976375E+04 -0.30606899433E+04 -0.54835175266E+04  0.65000000000E+04  0.15050000000E+03 0.  1.
</event>
<event>
 4    1  0.4826743E-004  0.6500000E+04  0.7818608E-02  0.7223770E-01
         52   -1    0    0    0    0  0.00000000000E+00  0.00000000000E+00  0.64930732323E+04  0.65000000000E+04  0.30000000000E+03 0.  1.
        -52   -1    0    0    0    0 -0.00000000000E+00 -0.00000000000E+00 -0.64930732323E+04  0.65000000000E+04  0.30000000000E+03 0. -1.
     100001    1    1    2    0    0 -0.48306878732E+04 -0.16798368263E+04  0.40087345459E+04  0.65000000000E+04  0.15050000000E+03 0.  1.
     100001    1    1    2    0    0  0.48306878732E+04  0.16798368263E+04 -0.40087345459E+04  0.65000000000E+04  0.15050000000E+03 0. -1.
</event>
<event>
 4    1  0.4826743E-004  0.6500000E+04  0.7818608E-02  0.7223770E-01
         52   -1    0    0    0    0  0.00000000000E+00  0.00000000000E+00  0.64930732323E+04  0.65000000000E+04  0.30000000000E+03 0.  1.
        -52   -1    0    0    0    0 -0.00000000000E+00 -0.00000000000E+00 -0.64930732323E+04  0.65000000000E+04  0.30000000000E+03 0. -1.
     100001    1    1    2    0    0 -0.15675927681E+03  0.12678915793E+03  0.64951290048E+04  0.65000000000E+04  0.15050000000E+03 0.  1.
     100001    1    1    2    0    0  0.15675927681E+03 -0.12678915793E+03 -0.64951290048E+04  0.65000000000E+04  0.15050000000E+03 0. -1.
</event>
<event>
 4    1  0.4826743E-004  0.6500000E+04  0.7818608E-02  0.7223770E-01
         52   -1    0    0    0    0  0.00000000000E+00  0.00000000000E+00  0.64930732323E+04  0.65000000000E+04  0.30000000000E+03 0. -1.
        -52   -1    0    0    0    0 -0.00000000000E+00 -0.00000000000E+00 -0.64930732323E+04  0.65000000000E+04  0.30000000000E+03 0.  1.
     100001    1    1    2    0    0 -0.36871176685E+03 -0.11615302112E+04  0.63829655296E+04  0.65000000000E+04  0.15050000000E+03 0. -1.
     100001    1    1    2    0    0  0.36871176685E+03  0.11615302112E+04 -0.63829655296E+04  0.65000000000E+04  0.15050000000E+03 0.  1.
</event>
<event>
 4    1  0.4826743E-004  0.6500000E+04  0.7818608E-02  0.7223770E-01
         52   -1    0    0    0    0  0.00000000000E+00  0.00000000000E+00  0.64930732323E+04  0.65000000000E+04  0.30000000000E+03 0. -1.
        -52   -1    0    0    0    0 -0.00000000000E+00 -0.00000000000E+00 -0.64930732323E+04  0.65000000000E+04  0.30000000000E+03 0.  1.
     100001    1    1    2    0    0 -0.45080977272E+03  0.11518878800E+03  0.64815778821E+04  0.65000000000E+04  0.15050000000E+03 0. -1.
     100001    1    1    2    0    0  0.45080977272E+03 -0.11518878800E+03 -0.64815778821E+04  0.65000000000E+04  0.15050000000E+03 0.  1.
</event>
<event>
 4    1  0.4826743E-004  0.6500000E+04  0.7818608E-02  0.7223770E-01
         52   -1    0    0    0    0  0.00000000000E+00  0.00000000000E+00  0.64930732323E+04  0.65000000000E+04  0.30000000000E+03 0.  1.
        -52   -1    0    0    0    0 -0.00000000000E+00 -0.00000000000E+00 -0.64930732323E+04  0.65000000000E+04  0.30000000000E+03 0. -1.
     100001    1    1    2    0    0  0.37647811935E+03  0.27584297933E+03 -0.64814754976E+04  0.65000000000E+04  0.15050000000E+03 0. -1.
     100001    1    1    2    0    0 -0.37647811935E+03 -0.27584297933E+03  0.64814754976E+04  0.65000000000E+04  0.15050000000E+03 0.  1.
</event>
<event>
 4    1  0.4826743E-004  0.6500000E+04  0.7818608E-02  0.7223770E-01
         52   -1    0    0    0    0  0.00000000000E+00  0.00000000000E+00  0.64930732323E+04  0.65000000000E+04  0.30000000000E+03 0. -1.
        -52   -1    0    0    0    0 -0.00000000000E+00 -0.00000000000E+00 -0.64930732323E+04  0.65000000000E+04  0.30000000000E+03 0.  1.
     100001    1    1    2    0    0 -0.14879827082E+04 -0.41216616483E+03 -0.63121609820E+04  0.65000000000E+04  0.15050000000E+03 0.  1.
     100001    1    1    2    0    0  0.14879827082E+04  0.41216616483E+03  0.63121609820E+04  0.65000000000E+04  0.15050000000E+03 0. -1.
</event>
<event>
 4    1  0.4826743E-004  0.6500000E+04  0.7818608E-02  0.7223770E-01
         52   -1    0    0    0    0  0.00000000000E+00  0.00000000000E+00  0.64930732323E+04  0.65000000000E+04  0.30000000000E+03 0.  1.
        -52   -1    0    0    0    0 -0.00000000000E+00 -0.00000000000E+00 -0.64930732323E+04  0.65000000000E+04  0.30000000000E+03 0. -1.
     100001    1    1    2    0    0  0.29404286289E+03  0.26732232160E+04 -0.59156374282E+04  0.65000000000E+04  0.15050000000E+03 0. -1.
     100001    1    1    2    0    0 -0.29404286289E+03 -0.26732232160E+04  0.59156374282E+04  0.65000000000E+04  0.15050000000E+03 0.  1.
</event>
<event>
 4    1  0.4826743E-004  0.6500000E+04  0.7818608E-02  0.7223770E-01
         52   -1    0    0    0    0  0.00000000000E+00  0.00000000000E+00  0.64930732323E+04  0.65000000000E+04  0.30000000000E+03 0. -1.
        -52   -1    0    0    0    0 -0.00000000000E+00 -0.00000000000E+00 -0.64930732323E+04  0.65000000000E+04  0.30000000000E+03 0.  1.
     100001    1    1    2    0    0  0.18791068892E+03  0.12341639082E+04 -0.63772155970E+04  0.65000000000E+04  0.15050000000E+03 0.  1.
     100001    1    1    2    0    0 -0.18791068892E+03 -0.12341639082E+04  0.63772155970E+04  0.65000000000E+04  0.15050000000E+03 0. -1.
</event>
<event>
 4    1  0.4826743E-004  0.6500000E+04  0.7818608E-02  0.7223770E-01
         52   -1    0    0    0    0  0.00000000000E+00  0.00000000000E+00  0.64930732323E+04  0.65000000000E+04  0.30000000000E+03 0.  1.
        -52   -1    0    0    0    0 -0.00000000000E+00 -0.00000000000E+00 -0.64930732323E+04  0.65000000000E+04  0.30000000000E+03 0. -1.
     100001    1    1    2    0    0 -0.26179230988E+04  0.58747886042E+04 -0.92773231859E+03  0.65000000000E+04  0.15050000000E+03 0. -1.
     100001    1    1    2    0    0  0.26179230988E+04 -0.58747886042E+04  0.92773231859E+03  0.65000000000E+04  0.15050000000E+03 0.  1.
</event>
<event>
 4    1  0.4826743E-004  0.6500000E+04  0.7818608E-02  0.7223770E-01
         52   -1    0    0    0    0  0.00000000000E+00  0.00000000000E+00  0.64930732323E+04  0.65000000000E+04  0.30000000000E+03 0.  1.
        -52   -1    0    0    0    0 -0.00000000000E+00 -0.00000000000E+00 -0.64930732323E+04  0.65000000000E+04  0.30000000000E+03 0. -1.
     100001    1    1    2    0    0  0.81439117490E+03 -0.10973410022E+04 -0.63529488814E+04  0.65000000000E+04  0.15050000000E+03 0. -1.
     100001    1    1    2    0    0 -0.81439117490E+03  0.10973410022E+04  0.63529488814E+04  0.65000000000E+04  0.15050000000E+03 0.  1.
</event>
<event>
 4    1  0.4826743E-004  0.6500000E+04  0.7818608E-02  0.7223770E-01
         52   -1    0    0    0    0  0.00000000000E+00  0.00000000000E+00  0.64930732323E+04  0.65000000000E+04  0.30000000000E+03 0.  1.
        -52   -1    0    0    0    0 -0.00000000000E+00 -0.00000000000E+00 -0.64930732323E+04  0.65000000000E+04  0.30000000000E+03 0.  1.
     100001    1    1    2    0    0 -0.62524592302E+01 -0.20393410060E+03  0.64950536210E+04  0.65000000000E+04  0.15050000000E+03 0.  1.
     100001    1    1    2    0    0  0.62524592302E+01  0.20393410060E+03 -0.64950536210E+04  0.65000000000E+04  0.15050000000E+03 0.  1.
</event>
<event>
 4    1  0.4826743E-004  0.6500000E+04  0.7818608E-02  0.7223770E-01
         52   -1    0    0    0    0  0.00000000000E+00  0.00000000000E+00  0.64930732323E+04  0.65000000000E+04  0.30000000000E+03 0. -1.
        -52   -1    0    0    0    0 -0.00000000000E+00 -0.00000000000E+00 -0.64930732323E+04  0.65000000000E+04  0.30000000000E+03 0. -1.
     100001    1    1    2    0    0 -0.55068967591E+03  0.85547415781E+02 -0.64743163555E+04  0.65000000000E+04  0.15050000000E+03 0. -1.
     100001    1    1    2    0    0  0.55068967591E+03 -0.85547415781E+02  0.64743163555E+04  0.65000000000E+04  0.15050000000E+03 0. -1.
</event>
<event>
 4    1  0.4826743E-004  0.6500000E+04  0.7818608E-02  0.7223770E-01
         52   -1    0    0    0    0  0.00000000000E+00  0.00000000000E+00  0.64930732323E+04  0.65000000000E+04  0.30000000000E+03 0.  1.
        -52   -1    0    0    0    0 -0.00000000000E+00 -0.00000000000E+00 -0.64930732323E+04  0.65000000000E+04  0.30000000000E+03 0. -1.
     100001    1    1    2    0    0  0.10307727053E+04  0.22872086640E+04 -0.59944586000E+04  0.65000000000E+04  0.15050000000E+03 0. -1.
     100001    1    1    2    0    0 -0.10307727053E+04 -0.22872086640E+04  0.59944586000E+04  0.65000000000E+04  0.15050000000E+03 0.  1.
</event>
<event>
 4    1  0.4826743E-004  0.6500000E+04  0.7818608E-02  0.7223770E-01
         52   -1    0    0    0    0  0.00000000000E+00  0.00000000000E+00  0.64930732323E+04  0.65000000000E+04  0.30000000000E+03 0. -1.
        -52   -1    0    0    0    0 -0.00000000000E+00 -0.00000000000E+00 -0.64930732323E+04  0.65000000000E+04  0.30000000000E+03 0.  1.
     100001    1    1    2    0    0 -0.11833838226E+03  0.12993953179E+04  0.63659184400E+04  0.65000000000E+04  0.15050000000E+03 0. -1.
     100001    1    1    2    0    0  0.11833838226E+03 -0.12993953179E+04 -0.63659184400E+04  0.65000000000E+04  0.15050000000E+03 0.  1.
</event>
<event>
 4    1  0.4826743E-004  0.6500000E+04  0.7818608E-02  0.7223770E-01
         52   -1    0    0    0    0  0.00000000000E+00  0.00000000000E+00  0.64930732323E+04  0.65000000000E+04  0.30000000000E+03 0.  1.
        -52   -1    0    0    0    0 -0.00000000000E+00 -0.00000000000E+00 -0.64930732323E+04  0.65000000000E+04  0.30000000000E+03 0. -1.
     100001    1    1    2    0    0  0.30283694095E+03 -0.38692815128E+03 -0.64796547858E+04  0.65000000000E+04  0.15050000000E+03 0. -1.
     100001    1    1    2    0    0 -0.30283694095E+03  0.38692815128E+03  0.64796547858E+04  0.65000000000E+04  0.15050000000E+03 0.  1.
</event>
<event>
 4    1  0.4826743E-004  0.6500000E+04  0.7818608E-02  0.7223770E-01
         52   -1    0    0    0    0  0.00000000000E+00  0.00000000000E+00  0.64930732323E+04  0.65000000000E+04  0.30000000000E+03 0.  1.
        -52   -1    0    0    0    0 -0.00000000000E+00 -0.00000000000E+00 -0.64930732323E+04  0.65000000000E+04  0.30000000000E+03 0.  1.
     100001    1    1    2    0    0 -0.23530801568E+03  0.40775397129E+03  0.64811817276E+04  0.65000000000E+04  0.15050000000E+03 0.  1.
     100001    1    1    2    0    0  0.23530801568E+03 -0.40775397129E+03 -0.64811817276E+04  0.65000000000E+04  0.15050000000E+03 0.  1.
</event>
<event>
 4    1  0.6177369E-004  0.6500000E+04  0.7818608E-02  0.7223770E-01
         52   -1    0    0    0    0  0.00000000000E+00  0.00000000000E+00  0.64930732323E+04  0.65000000000E+04  0.30000000000E+03 0.  1.
        -52   -1    0    0    0    0 -0.00000000000E+00 -0.00000000000E+00 -0.64930732323E+04  0.65000000000E+04  0.30000000000E+03 0.  1.
     100001    1    1    2    0    0 -0.96628940373E+02  0.86864510683E+02 -0.64969583002E+04  0.65000000000E+04  0.15050000000E+03 0.  1.
     100001    1    1    2    0    0  0.96628940373E+02 -0.86864510683E+02  0.64969583002E+04  0.65000000000E+04  0.15050000000E+03 0.  1.
</event>
<event>
 4    1  0.4826743E-004  0.6500000E+04  0.7818608E-02  0.7223770E-01
         52   -1    0    0    0    0  0.00000000000E+00  0.00000000000E+00  0.64930732323E+04  0.65000000000E+04  0.30000000000E+03 0.  1.
        -52   -1    0    0    0    0 -0.00000000000E+00 -0.00000000000E+00 -0.64930732323E+04  0.65000000000E+04  0.30000000000E+03 0.  1.
     100001    1    1    2    0    0  0.65283979582E+03  0.40364819286E+03 -0.64527682499E+04  0.65000000000E+04  0.15050000000E+03 0.  1.
     100001    1    1    2    0    0 -0.65283979582E+03 -0.40364819286E+03  0.64527682499E+04  0.65000000000E+04  0.15050000000E+03 0.  1.
</event>
<event>
 4    1  0.4826743E-004  0.6500000E+04  0.7818608E-02  0.7223770E-01
         52   -1    0    0    0    0  0.00000000000E+00  0.00000000000E+00  0.64930732323E+04  0.65000000000E+04  0.30000000000E+03 0. -1.
        -52   -1    0    0    0    0 -0.00000000000E+00 -0.00000000000E+00 -0.64930732323E+04  0.65000000000E+04  0.30000000000E+03 0.  1.
     100001    1    1    2    0    0  0.38821318286E+04 -0.17593766093E+04 -0.49052009299E+04  0.65000000000E+04  0.15050000000E+03 0.  1.
     100001    1    1    2    0    0 -0.38821318286E+04  0.17593766093E+04  0.49052009299E+04  0.65000000000E+04  0.15050000000E+03 0. -1.
</event>
<event>
 4    1  0.4826743E-004  0.6500000E+04  0.7818608E-02  0.7223770E-01
         52   -1    0    0    0    0  0.00000000000E+00  0.00000000000E+00  0.64930732323E+04  0.65000000000E+04  0.30000000000E+03 0. -1.
        -52   -1    0    0    0    0 -0.00000000000E+00 -0.00000000000E+00 -0.64930732323E+04  0.65000000000E+04  0.30000000000E+03 0.  1.
     100001    1    1    2    0    0 -0.10192502653E+04 -0.48396867651E+03  0.63995509973E+04  0.65000000000E+04  0.15050000000E+03 0. -1.
     100001    1    1    2    0    0  0.10192502653E+04  0.48396867651E+03 -0.63995509973E+04  0.65000000000E+04  0.15050000000E+03 0.  1.
</event>
<event>
 4    1  0.4826743E-004  0.6500000E+04  0.7818608E-02  0.7223770E-01
         52   -1    0    0    0    0  0.00000000000E+00  0.00000000000E+00  0.64930732323E+04  0.65000000000E+04  0.30000000000E+03 0. -1.
        -52   -1    0    0    0    0 -0.00000000000E+00 -0.00000000000E+00 -0.64930732323E+04  0.65000000000E+04  0.30000000000E+03 0.  1.
     100001    1    1    2    0    0  0.17897153130E+04 -0.27455327370E+03 -0.62409045297E+04  0.65000000000E+04  0.15050000000E+03 0.  1.
     100001    1    1    2    0    0 -0.17897153130E+04  0.27455327370E+03  0.62409045297E+04  0.65000000000E+04  0.15050000000E+03 0. -1.
</event>
<event>
 4    1  0.4826743E-004  0.6500000E+04  0.7818608E-02  0.7223770E-01
         52   -1    0    0    0    0  0.00000000000E+00  0.00000000000E+00  0.64930732323E+04  0.65000000000E+04  0.30000000000E+03 0. -1.
        -52   -1    0    0    0    0 -0.00000000000E+00 -0.00000000000E+00 -0.64930732323E+04  0.65000000000E+04  0.30000000000E+03 0.  1.
     100001    1    1    2    0    0 -0.46240769775E+04 -0.13955102408E+04  0.43471614905E+04  0.65000000000E+04  0.15050000000E+03 0. -1.
     100001    1    1    2    0    0  0.46240769775E+04  0.13955102408E+04 -0.43471614905E+04  0.65000000000E+04  0.15050000000E+03 0.  1.
</event>
<event>
 4    1  0.4826743E-004  0.6500000E+04  0.7818608E-02  0.7223770E-01
         52   -1    0    0    0    0  0.00000000000E+00  0.00000000000E+00  0.64930732323E+04  0.65000000000E+04  0.30000000000E+03 0.  1.
        -52   -1    0    0    0    0 -0.00000000000E+00 -0.00000000000E+00 -0.64930732323E+04  0.65000000000E+04  0.30000000000E+03 0. -1.
     100001    1    1    2    0    0  0.14592285203E+04 -0.17737351361E+04  0.60788046146E+04  0.65000000000E+04  0.15050000000E+03 0.  1.
     100001    1    1    2    0    0 -0.14592285203E+04  0.17737351361E+04 -0.60788046146E+04  0.65000000000E+04  0.15050000000E+03 0. -1.
</event>
<event>
 4    1  0.4826743E-004  0.6500000E+04  0.7818608E-02  0.7223770E-01
         52   -1    0    0    0    0  0.00000000000E+00  0.00000000000E+00  0.64930732323E+04  0.65000000000E+04  0.30000000000E+03 0. -1.
        -52   -1    0    0    0    0 -0.00000000000E+00 -0.00000000000E+00 -0.64930732323E+04  0.65000000000E+04  0.30000000000E+03 0. -1.
     100001    1    1    2    0    0  0.83587546493E+02 -0.36752648980E+03  0.64873174079E+04  0.65000000000E+04  0.15050000000E+03 0. -1.
     100001    1    1    2    0    0 -0.83587546493E+02  0.36752648980E+03 -0.64873174079E+04  0.65000000000E+04  0.15050000000E+03 0. -1.
</event>
<event>
 4    1  0.4826743E-004  0.6500000E+04  0.7818608E-02  0.7223770E-01
         52   -1    0    0    0    0  0.00000000000E+00  0.00000000000E+00  0.64930732323E+04  0.65000000000E+04  0.30000000000E+03 0.  1.
        -52   -1    0    0    0    0 -0.00000000000E+00 -0.00000000000E+00 -0.64930732323E+04  0.65000000000E+04  0.30000000000E+03 0. -1.
     100001    1    1    2    0    0  0.37813449053E+03 -0.27680912676E+04 -0.58670294691E+04  0.65000000000E+04  0.15050000000E+03 0. -1.
     100001    1    1    2    0    0 -0.37813449053E+03  0.27680912676E+04  0.58670294691E+04  0.65000000000E+04  0.15050000000E+03 0.  1.
</event>
<event>
 4    1  0.4826743E-004  0.6500000E+04  0.7818608E-02  0.7223770E-01
         52   -1    0    0    0    0  0.00000000000E+00  0.00000000000E+00  0.64930732323E+04  0.65000000000E+04  0.30000000000E+03 0.  1.
        -52   -1    0    0    0    0 -0.00000000000E+00 -0.00000000000E+00 -0.64930732323E+04  0.65000000000E+04  0.30000000000E+03 0. -1.
     100001    1    1    2    0    0  0.50055986495E+04 -0.22994284538E+04 -0.34473120972E+04  0.65000000000E+04  0.15050000000E+03 0. -1.
     100001    1    1    2    0    0 -0.50055986495E+04  0.22994284538E+04  0.34473120972E+04  0.65000000000E+04  0.15050000000E+03 0.  1.
</event>
<event>
 4    1  0.4826743E-004  0.6500000E+04  0.7818608E-02  0.7223770E-01
         52   -1    0    0    0    0  0.00000000000E+00  0.00000000000E+00  0.64930732323E+04  0.65000000000E+04  0.30000000000E+03 0. -1.
        -52   -1    0    0    0    0 -0.00000000000E+00 -0.00000000000E+00 -0.64930732323E+04  0.65000000000E+04  0.30000000000E+03 0.  1.
     100001    1    1    2    0    0  0.15292282740E+04 -0.37159103362E+03  0.63048180576E+04  0.65000000000E+04  0.15050000000E+03 0. -1.
     100001    1    1    2    0    0 -0.15292282740E+04  0.37159103362E+03 -0.63048180576E+04  0.65000000000E+04  0.15050000000E+03 0.  1.
</event>
<event>
 4    1  0.4826743E-004  0.6500000E+04  0.7818608E-02  0.7223770E-01
         52   -1    0    0    0    0  0.00000000000E+00  0.00000000000E+00  0.64930732323E+04  0.65000000000E+04  0.30000000000E+03 0.  1.
        -52   -1    0    0    0    0 -0.00000000000E+00 -0.00000000000E+00 -0.64930732323E+04  0.65000000000E+04  0.30000000000E+03 0. -1.
     100001    1    1    2    0    0 -0.47508895810E+04 -0.25599786608E+04  0.36197938056E+04  0.65000000000E+04  0.15050000000E+03 0.  1.
     100001    1    1    2    0    0  0.47508895810E+04  0.25599786608E+04 -0.36197938056E+04  0.65000000000E+04  0.15050000000E+03 0. -1.
</event>
<event>
 4    1  0.4826743E-004  0.6500000E+04  0.7818608E-02  0.7223770E-01
         52   -1    0    0    0    0  0.00000000000E+00  0.00000000000E+00  0.64930732323E+04  0.65000000000E+04  0.30000000000E+03 0. -1.
        -52   -1    0    0    0    0 -0.00000000000E+00 -0.00000000000E+00 -0.64930732323E+04  0.65000000000E+04  0.30000000000E+03 0.  1.
     100001    1    1    2    0    0  0.34198511770E+04  0.36730994554E+04 -0.41279908028E+04  0.65000000000E+04  0.15050000000E+03 0.  1.
     100001    1    1    2    0    0 -0.34198511770E+04 -0.36730994554E+04  0.41279908028E+04  0.65000000000E+04  0.15050000000E+03 0. -1.
</event>
<event>
 4    1  0.4826743E-004  0.6500000E+04  0.7818608E-02  0.7223770E-01
         52   -1    0    0    0    0  0.00000000000E+00  0.00000000000E+00  0.64930732323E+04  0.65000000000E+04  0.30000000000E+03 0. -1.
        -52   -1    0    0    0    0 -0.00000000000E+00 -0.00000000000E+00 -0.64930732323E+04  0.65000000000E+04  0.30000000000E+03 0.  1.
     100001    1    1    2    0    0 -0.45653839250E+03 -0.61521337846E+03  0.64529400234E+04  0.65000000000E+04  0.15050000000E+03 0. -1.
     100001    1    1    2    0    0  0.45653839250E+03  0.61521337846E+03 -0.64529400234E+04  0.65000000000E+04  0.15050000000E+03 0.  1.
</event>
<event>
 4    1  0.4826743E-004  0.6500000E+04  0.7818608E-02  0.7223770E-01
         52   -1    0    0    0    0  0.00000000000E+00  0.00000000000E+00  0.64930732323E+04  0.65000000000E+04  0.30000000000E+03 0.  1.
        -52   -1    0    0    0    0 -0.00000000000E+00 -0.00000000000E+00 -0.64930732323E+04  0.65000000000E+04  0.30000000000E+03 0. -1.
     100001    1    1    2    0    0  0.24198873885E+02 -0.20731545643E+03 -0.64949045001E+04  0.65000000000E+04  0.15050000000E+03 0. -1.
     100001    1    1    2    0    0 -0.24198873885E+02  0.20731545643E+03  0.64949045001E+04  0.65000000000E+04  0.15050000000E+03 0.  1.
</event>
<event>
 4    1  0.4826743E-004  0.6500000E+04  0.7818608E-02  0.7223770E-01
         52   -1    0    0    0    0  0.00000000000E+00  0.00000000000E+00  0.64930732323E+04  0.65000000000E+04  0.30000000000E+03 0.  1.
        -52   -1    0    0    0    0 -0.00000000000E+00 -0.00000000000E+00 -0.64930732323E+04  0.65000000000E+04  0.30000000000E+03 0. -1.
     100001    1    1    2    0    0  0.63919351667E+03  0.11171328816E+03 -0.64657792678E+04  0.65000000000E+04  0.15050000000E+03 0. -1.
     100001    1    1    2    0    0 -0.63919351667E+03 -0.11171328816E+03  0.64657792678E+04  0.65000000000E+04  0.15050000000E+03 0.  1.
</event>
<event>
 4    1  0.4826743E-004  0.6500000E+04  0.7818608E-02  0.7223770E-01
         52   -1    0    0    0    0  0.00000000000E+00  0.00000000000E+00  0.64930732323E+04  0.65000000000E+04  0.30000000000E+03 0.  1.
        -52   -1    0    0    0    0 -0.00000000000E+00 -0.00000000000E+00 -0.64930732323E+04  0.65000000000E+04  0.30000000000E+03 0.  1.
     100001    1    1    2    0    0 -0.91470014719E+03  0.11595565509E+04  0.63281989536E+04  0.65000000000E+04  0.15050000000E+03 0.  1.
     100001    1    1    2    0    0  0.91470014719E+03 -0.11595565509E+04 -0.63281989536E+04  0.65000000000E+04  0.15050000000E+03 0.  1.
</event>
<event>
 4    1  0.4826743E-004  0.6500000E+04  0.7818608E-02  0.7223770E-01
         52   -1    0    0    0    0  0.00000000000E+00  0.00000000000E+00  0.64930732323E+04  0.65000000000E+04  0.30000000000E+03 0.  1.
        -52   -1    0    0    0    0 -0.00000000000E+00 -0.00000000000E+00 -0.64930732323E+04  0.65000000000E+04  0.30000000000E+03 0. -1.
     100001    1    1    2    0    0  0.11703136295E+04 -0.26593795758E+04 -0.58125223467E+04  0.65000000000E+04  0.15050000000E+03 0. -1.
     100001    1    1    2    0    0 -0.11703136295E+04  0.26593795758E+04  0.58125223467E+04  0.65000000000E+04  0.15050000000E+03 0.  1.
</event>
<event>
 4    1  0.4826743E-004  0.6500000E+04  0.7818608E-02  0.7223770E-01
         52   -1    0    0    0    0  0.00000000000E+00  0.00000000000E+00  0.64930732323E+04  0.65000000000E+04  0.30000000000E+03 0. -1.
        -52   -1    0    0    0    0 -0.00000000000E+00 -0.00000000000E+00 -0.64930732323E+04  0.65000000000E+04  0.30000000000E+03 0.  1.
     100001    1    1    2    0    0  0.80222427192E+02 -0.40685353938E+03  0.64850122829E+04  0.65000000000E+04  0.15050000000E+03 0. -1.
     100001    1    1    2    0    0 -0.80222427192E+02  0.40685353938E+03 -0.64850122829E+04  0.65000000000E+04  0.15050000000E+03 0.  1.
</event>
<event>
 4    1  0.4826743E-004  0.6500000E+04  0.7818608E-02  0.7223770E-01
         52   -1    0    0    0    0  0.00000000000E+00  0.00000000000E+00  0.64930732323E+04  0.65000000000E+04  0.30000000000E+03 0.  1.
        -52   -1    0    0    0    0 -0.00000000000E+00 -0.00000000000E+00 -0.64930732323E+04  0.65000000000E+04  0.30000000000E+03 0. -1.
     100001    1    1    2    0    0  0.53984304518E+03  0.47786096549E+03  0.64581396806E+04  0.65000000000E+04  0.15050000000E+03 0.  1.
     100001    1    1    2    0    0 -0.53984304518E+03 -0.47786096549E+03 -0.64581396806E+04  0.65000000000E+04  0.15050000000E+03 0. -1.
</event>
<event>
 4    1  0.4826743E-004  0.6500000E+04  0.7818608E-02  0.7223770E-01
         52   -1    0    0    0    0  0.00000000000E+00  0.00000000000E+00  0.64930732323E+04  0.65000000000E+04  0.30000000000E+03 0.  1.
        -52   -1    0    0    0    0 -0.00000000000E+00 -0.00000000000E+00 -0.64930732323E+04  0.65000000000E+04  0.30000000000E+03 0. -1.
     100001    1    1    2    0    0  0.12340057977E+04  0.17760926231E+04 -0.61278115535E+04  0.65000000000E+04  0.15050000000E+03 0. -1.
     100001    1    1    2    0    0 -0.12340057977E+04 -0.17760926231E+04  0.61278115535E+04  0.65000000000E+04  0.15050000000E+03 0.  1.
</event>
<event>
 4    1  0.4826743E-004  0.6500000E+04  0.7818608E-02  0.7223770E-01
         52   -1    0    0    0    0  0.00000000000E+00  0.00000000000E+00  0.64930732323E+04  0.65000000000E+04  0.30000000000E+03 0.  1.
        -52   -1    0    0    0    0 -0.00000000000E+00 -0.00000000000E+00 -0.64930732323E+04  0.65000000000E+04  0.30000000000E+03 0. -1.
     100001    1    1    2    0    0 -0.38445366233E+02  0.36936851886E+04 -0.53462661205E+04  0.65000000000E+04  0.15050000000E+03 0. -1.
     100001    1    1    2    0    0  0.38445366233E+02 -0.36936851886E+04  0.53462661205E+04  0.65000000000E+04  0.15050000000E+03 0.  1.
</event>
<event>
 4    1  0.4826743E-004  0.6500000E+04  0.7818608E-02  0.7223770E-01
         52   -1    0    0    0    0  0.00000000000E+00  0.00000000000E+00  0.64930732323E+04  0.65000000000E+04  0.30000000000E+03 0. -1.
        -52   -1    0    0    0    0 -0.00000000000E+00 -0.00000000000E+00 -0.64930732323E+04  0.65000000000E+04  0.30000000000E+03 0.  1.
     100001    1    1    2    0    0  0.26572922515E+03  0.34329510452E+03 -0.64837401398E+04  0.65000000000E+04  0.15050000000E+03 0.  1.
     100001    1    1    2    0    0 -0.26572922515E+03 -0.34329510452E+03  0.64837401398E+04  0.65000000000E+04  0.15050000000E+03 0. -1.
</event>
<event>
 4    1  0.4826743E-004  0.6500000E+04  0.7818608E-02  0.7223770E-01
         52   -1    0    0    0    0  0.00000000000E+00  0.00000000000E+00  0.64930732323E+04  0.65000000000E+04  0.30000000000E+03 0. -1.
        -52   -1    0    0    0    0 -0.00000000000E+00 -0.00000000000E+00 -0.64930732323E+04  0.65000000000E+04  0.30000000000E+03 0.  1.
     100001    1    1    2    0    0 -0.69749258594E+03 -0.53561420705E+04  0.36128376607E+04  0.65000000000E+04  0.15050000000E+03 0. -1.
     100001    1    1    2    0    0  0.69749258594E+03  0.53561420705E+04 -0.36128376607E+04  0.65000000000E+04  0.15050000000E+03 0.  1.
</event>
<event>
 4    1  0.4826743E-004  0.6500000E+04  0.7818608E-02  0.7223770E-01
         52   -1    0    0    0    0  0.00000000000E+00  0.00000000000E+00  0.64930732323E+04  0.65000000000E+04  0.30000000000E+03 0. -1.
        -52   -1    0    0    0    0 -0.00000000000E+00 -0.00000000000E+00 -0.64930732323E+04  0.65000000000E+04  0.30000000000E+03 0.  1.
     100001    1    1    2    0    0  0.14727739013E+04 -0.21044554811E+04  0.59690496659E+04  0.65000000000E+04  0.15050000000E+03 0. -1.
     100001    1    1    2    0    0 -0.14727739013E+04  0.21044554811E+04 -0.59690496659E+04  0.65000000000E+04  0.15050000000E+03 0.  1.
</event>
<event>
 4    1  0.6719065E-004  0.6500000E+04  0.7818608E-02  0.7223770E-01
         52   -1    0    0    0    0  0.00000000000E+00  0.00000000000E+00  0.64930732323E+04  0.65000000000E+04  0.30000000000E+03 0.  1.
        -52   -1    0    0    0    0 -0.00000000000E+00 -0.00000000000E+00 -0.64930732323E+04  0.65000000000E+04  0.30000000000E+03 0.  1.
     100001    1    1    2    0    0  0.10262442472E+03 -0.35640705266E+02 -0.64973492839E+04  0.65000000000E+04  0.15050000000E+03 0.  1.
     100001    1    1    2    0    0 -0.10262442472E+03  0.35640705266E+02  0.64973492839E+04  0.65000000000E+04  0.15050000000E+03 0.  1.
</event>
<event>
 4    1  0.4826743E-004  0.6500000E+04  0.7818608E-02  0.7223770E-01
         52   -1    0    0    0    0  0.00000000000E+00  0.00000000000E+00  0.64930732323E+04  0.65000000000E+04  0.30000000000E+03 0. -1.
        -52   -1    0    0    0    0 -0.00000000000E+00 -0.00000000000E+00 -0.64930732323E+04  0.65000000000E+04  0.30000000000E+03 0.  1.
     100001    1    1    2    0    0 -0.37494232204E+03 -0.11810562398E+04 -0.63790182758E+04  0.65000000000E+04  0.15050000000E+03 0.  1.
     100001    1    1    2    0    0  0.37494232204E+03  0.11810562398E+04  0.63790182758E+04  0.65000000000E+04  0.15050000000E+03 0. -1.
</event>
<event>
 4    1  0.4826743E-004  0.6500000E+04  0.7818608E-02  0.7223770E-01
         52   -1    0    0    0    0  0.00000000000E+00  0.00000000000E+00  0.64930732323E+04  0.65000000000E+04  0.30000000000E+03 0.  1.
        -52   -1    0    0    0    0 -0.00000000000E+00 -0.00000000000E+00 -0.64930732323E+04  0.65000000000E+04  0.30000000000E+03 0. -1.
     100001    1    1    2    0    0  0.25760021395E+04 -0.10982916077E+04  0.58638995789E+04  0.65000000000E+04  0.15050000000E+03 0.  1.
     100001    1    1    2    0    0 -0.25760021395E+04  0.10982916077E+04 -0.58638995789E+04  0.65000000000E+04  0.15050000000E+03 0. -1.
</event>
<event>
 4    1  0.4826743E-004  0.6500000E+04  0.7818608E-02  0.7223770E-01
         52   -1    0    0    0    0  0.00000000000E+00  0.00000000000E+00  0.64930732323E+04  0.65000000000E+04  0.30000000000E+03 0.  1.
        -52   -1    0    0    0    0 -0.00000000000E+00 -0.00000000000E+00 -0.64930732323E+04  0.65000000000E+04  0.30000000000E+03 0. -1.
     100001    1    1    2    0    0 -0.64331856101E+04  0.40824011429E+03 -0.82146982024E+03  0.65000000000E+04  0.15050000000E+03 0.  1.
     100001    1    1    2    0    0  0.64331856101E+04 -0.40824011429E+03  0.82146982024E+03  0.65000000000E+04  0.15050000000E+03 0. -1.
</event>
<event>
 4    1  0.4826743E-004  0.6500000E+04  0.7818608E-02  0.7223770E-01
         52   -1    0    0    0    0  0.00000000000E+00  0.00000000000E+00  0.64930732323E+04  0.65000000000E+04  0.30000000000E+03 0. -1.
        -52   -1    0    0    0    0 -0.00000000000E+00 -0.00000000000E+00 -0.64930732323E+04  0.65000000000E+04  0.30000000000E+03 0.  1.
     100001    1    1    2    0    0 -0.18598771825E+04 -0.60812565804E+04  0.13366095240E+04  0.65000000000E+04  0.15050000000E+03 0. -1.
     100001    1    1    2    0    0  0.18598771825E+04  0.60812565804E+04 -0.13366095240E+04  0.65000000000E+04  0.15050000000E+03 0.  1.
</event>
<event>
 4    1  0.4826743E-004  0.6500000E+04  0.7818608E-02  0.7223770E-01
         52   -1    0    0    0    0  0.00000000000E+00  0.00000000000E+00  0.64930732323E+04  0.65000000000E+04  0.30000000000E+03 0.  1.
        -52   -1    0    0    0    0 -0.00000000000E+00 -0.00000000000E+00 -0.64930732323E+04  0.65000000000E+04  0.30000000000E+03 0. -1.
     100001    1    1    2    0    0  0.23746533796E+04  0.15339955895E+04 -0.58510878141E+04  0.65000000000E+04  0.15050000000E+03 0. -1.
     100001    1    1    2    0    0 -0.23746533796E+04 -0.15339955895E+04  0.58510878141E+04  0.65000000000E+04  0.15050000000E+03 0.  1.
</event>
<event>
 4    1  0.4826743E-004  0.6500000E+04  0.7818608E-02  0.7223770E-01
         52   -1    0    0    0    0  0.00000000000E+00  0.00000000000E+00  0.64930732323E+04  0.65000000000E+04  0.30000000000E+03 0.  1.
        -52   -1    0    0    0    0 -0.00000000000E+00 -0.00000000000E+00 -0.64930732323E+04  0.65000000000E+04  0.30000000000E+03 0. -1.
     100001    1    1    2    0    0  0.72865509550E+03  0.69471093616E+03 -0.64197965869E+04  0.65000000000E+04  0.15050000000E+03 0. -1.
     100001    1    1    2    0    0 -0.72865509550E+03 -0.69471093616E+03  0.64197965869E+04  0.65000000000E+04  0.15050000000E+03 0.  1.
</event>
<event>
 4    1  0.4826743E-004  0.6500000E+04  0.7818608E-02  0.7223770E-01
         52   -1    0    0    0    0  0.00000000000E+00  0.00000000000E+00  0.64930732323E+04  0.65000000000E+04  0.30000000000E+03 0. -1.
        -52   -1    0    0    0    0 -0.00000000000E+00 -0.00000000000E+00 -0.64930732323E+04  0.65000000000E+04  0.30000000000E+03 0.  1.
     100001    1    1    2    0    0 -0.53657037929E+03  0.41015848758E+03 -0.64630652165E+04  0.65000000000E+04  0.15050000000E+03 0.  1.
     100001    1    1    2    0    0  0.53657037929E+03 -0.41015848758E+03  0.64630652165E+04  0.65000000000E+04  0.15050000000E+03 0. -1.
</event>
<event>
 4    1  0.4826743E-004  0.6500000E+04  0.7818608E-02  0.7223770E-01
         52   -1    0    0    0    0  0.00000000000E+00  0.00000000000E+00  0.64930732323E+04  0.65000000000E+04  0.30000000000E+03 0. -1.
        -52   -1    0    0    0    0 -0.00000000000E+00 -0.00000000000E+00 -0.64930732323E+04  0.65000000000E+04  0.30000000000E+03 0.  1.
     100001    1    1    2    0    0 -0.37337891544E+03 -0.31573649904E+03 -0.64798339793E+04  0.65000000000E+04  0.15050000000E+03 0.  1.
     100001    1    1    2    0    0  0.37337891544E+03  0.31573649904E+03  0.64798339793E+04  0.65000000000E+04  0.15050000000E+03 0. -1.
</event>
<event>
 4    1  0.4826743E-004  0.6500000E+04  0.7818608E-02  0.7223770E-01
         52   -1    0    0    0    0  0.00000000000E+00  0.00000000000E+00  0.64930732323E+04  0.65000000000E+04  0.30000000000E+03 0. -1.
        -52   -1    0    0    0    0 -0.00000000000E+00 -0.00000000000E+00 -0.64930732323E+04  0.65000000000E+04  0.30000000000E+03 0. -1.
     100001    1    1    2    0    0 -0.56452216584E+03  0.68942091702E+03  0.64368752725E+04  0.65000000000E+04  0.15050000000E+03 0. -1.
     100001    1    1    2    0    0  0.56452216584E+03 -0.68942091702E+03 -0.64368752725E+04  0.65000000000E+04  0.15050000000E+03 0. -1.
</event>
<event>
 4    1  0.4826743E-004  0.6500000E+04  0.7818608E-02  0.7223770E-01
         52   -1    0    0    0    0  0.00000000000E+00  0.00000000000E+00  0.64930732323E+04  0.65000000000E+04  0.30000000000E+03 0. -1.
        -52   -1    0    0    0    0 -0.00000000000E+00 -0.00000000000E+00 -0.64930732323E+04  0.65000000000E+04  0.30000000000E+03 0.  1.
     100001    1    1    2    0    0 -0.14385464713E+04  0.22768076481E+04 -0.59138887996E+04  0.65000000000E+04  0.15050000000E+03 0.  1.
     100001    1    1    2    0    0  0.14385464713E+04 -0.22768076481E+04  0.59138887996E+04  0.65000000000E+04  0.15050000000E+03 0. -1.
</event>
<event>
 4    1  0.4826743E-004  0.6500000E+04  0.7818608E-02  0.7223770E-01
         52   -1    0    0    0    0  0.00000000000E+00  0.00000000000E+00  0.64930732323E+04  0.65000000000E+04  0.30000000000E+03 0. -1.
        -52   -1    0    0    0    0 -0.00000000000E+00 -0.00000000000E+00 -0.64930732323E+04  0.65000000000E+04  0.30000000000E+03 0. -1.
     100001    1    1    2    0    0  0.17711592018E+03 -0.37576302771E+03  0.64849658324E+04  0.65000000000E+04  0.15050000000E+03 0. -1.
     100001    1    1    2    0    0 -0.17711592018E+03  0.37576302771E+03 -0.64849658324E+04  0.65000000000E+04  0.15050000000E+03 0. -1.
</event>
<event>
 4    1  0.4826743E-004  0.6500000E+04  0.7818608E-02  0.7223770E-01
         52   -1    0    0    0    0  0.00000000000E+00  0.00000000000E+00  0.64930732323E+04  0.65000000000E+04  0.30000000000E+03 0. -1.
        -52   -1    0    0    0    0 -0.00000000000E+00 -0.00000000000E+00 -0.64930732323E+04  0.65000000000E+04  0.30000000000E+03 0.  1.
     100001    1    1    2    0    0  0.18642703567E+04  0.63333256986E+03  0.61927970775E+04  0.65000000000E+04  0.15050000000E+03 0. -1.
     100001    1    1    2    0    0 -0.18642703567E+04 -0.63333256986E+03 -0.61927970775E+04  0.65000000000E+04  0.15050000000E+03 0.  1.
</event>
<event>
 4    1  0.4826743E-004  0.6500000E+04  0.7818608E-02  0.7223770E-01
         52   -1    0    0    0    0  0.00000000000E+00  0.00000000000E+00  0.64930732323E+04  0.65000000000E+04  0.30000000000E+03 0.  1.
        -52   -1    0    0    0    0 -0.00000000000E+00 -0.00000000000E+00 -0.64930732323E+04  0.65000000000E+04  0.30000000000E+03 0. -1.
     100001    1    1    2    0    0 -0.54183553940E+03 -0.87373706198E+03  0.64164123578E+04  0.65000000000E+04  0.15050000000E+03 0.  1.
     100001    1    1    2    0    0  0.54183553940E+03  0.87373706198E+03 -0.64164123578E+04  0.65000000000E+04  0.15050000000E+03 0. -1.
</event>
<event>
 4    1  0.4826743E-004  0.6500000E+04  0.7818608E-02  0.7223770E-01
         52   -1    0    0    0    0  0.00000000000E+00  0.00000000000E+00  0.64930732323E+04  0.65000000000E+04  0.30000000000E+03 0. -1.
        -52   -1    0    0    0    0 -0.00000000000E+00 -0.00000000000E+00 -0.64930732323E+04  0.65000000000E+04  0.30000000000E+03 0. -1.
     100001    1    1    2    0    0 -0.23942717400E+03 -0.43854128205E+02 -0.64936970359E+04  0.65000000000E+04  0.15050000000E+03 0. -1.
     100001    1    1    2    0    0  0.23942717400E+03  0.43854128205E+02  0.64936970359E+04  0.65000000000E+04  0.15050000000E+03 0. -1.
</event>
<event>
 4    1  0.4826743E-004  0.6500000E+04  0.7818608E-02  0.7223770E-01
         52   -1    0    0    0    0  0.00000000000E+00  0.00000000000E+00  0.64930732323E+04  0.65000000000E+04  0.30000000000E+03 0. -1.
        -52   -1    0    0    0    0 -0.00000000000E+00 -0.00000000000E+00 -0.64930732323E+04  0.65000000000E+04  0.30000000000E+03 0.  1.
     100001    1    1    2    0    0  0.45623112648E+03 -0.35648872965E+03  0.64724121234E+04  0.65000000000E+04  0.15050000000E+03 0. -1.
     100001    1    1    2    0    0 -0.45623112648E+03  0.35648872965E+03 -0.64724121234E+04  0.65000000000E+04  0.15050000000E+03 0.  1.
</event>
<event>
 4    1  0.4826743E-004  0.6500000E+04  0.7818608E-02  0.7223770E-01
         52   -1    0    0    0    0  0.00000000000E+00  0.00000000000E+00  0.64930732323E+04  0.65000000000E+04  0.30000000000E+03 0.  1.
        -52   -1    0    0    0    0 -0.00000000000E+00 -0.00000000000E+00 -0.64930732323E+04  0.65000000000E+04  0.30000000000E+03 0. -1.
     100001    1    1    2    0    0  0.53692738166E+03  0.78394666749E+03 -0.64284124292E+04  0.65000000000E+04  0.15050000000E+03 0. -1.
     100001    1    1    2    0    0 -0.53692738166E+03 -0.78394666749E+03  0.64284124292E+04  0.65000000000E+04  0.15050000000E+03 0.  1.
</event>
<event>
 4    1  0.4826743E-004  0.6500000E+04  0.7818608E-02  0.7223770E-01
         52   -1    0    0    0    0  0.00000000000E+00  0.00000000000E+00  0.64930732323E+04  0.65000000000E+04  0.30000000000E+03 0.  1.
        -52   -1    0    0    0    0 -0.00000000000E+00 -0.00000000000E+00 -0.64930732323E+04  0.65000000000E+04  0.30000000000E+03 0. -1.
     100001    1    1    2    0    0 -0.76427090174E+02  0.66253845828E+03  0.64639424070E+04  0.65000000000E+04  0.15050000000E+03 0.  1.
     100001    1    1    2    0    0  0.76427090174E+02 -0.66253845828E+03 -0.64639424070E+04  0.65000000000E+04  0.15050000000E+03 0. -1.
</event>
<event>
 4    1  0.4826743E-004  0.6500000E+04  0.7818608E-02  0.7223770E-01
         52   -1    0    0    0    0  0.00000000000E+00  0.00000000000E+00  0.64930732323E+04  0.65000000000E+04  0.30000000000E+03 0.  1.
        -52   -1    0    0    0    0 -0.00000000000E+00 -0.00000000000E+00 -0.64930732323E+04  0.65000000000E+04  0.30000000000E+03 0. -1.
     100001    1    1    2    0    0 -0.87046170985E+03 -0.15986292257E+04  0.62381111533E+04  0.65000000000E+04  0.15050000000E+03 0.  1.
     100001    1    1    2    0    0  0.87046170985E+03  0.15986292257E+04 -0.62381111533E+04  0.65000000000E+04  0.15050000000E+03 0. -1.
</event>
<event>
 4    1  0.4826743E-004  0.6500000E+04  0.7818608E-02  0.7223770E-01
         52   -1    0    0    0    0  0.00000000000E+00  0.00000000000E+00  0.64930732323E+04  0.65000000000E+04  0.30000000000E+03 0.  1.
        -52   -1    0    0    0    0 -0.00000000000E+00 -0.00000000000E+00 -0.64930732323E+04  0.65000000000E+04  0.30000000000E+03 0. -1.
     100001    1    1    2    0    0 -0.81395755620E+03 -0.33294301065E+04 -0.55208439584E+04  0.65000000000E+04  0.15050000000E+03 0. -1.
     100001    1    1    2    0    0  0.81395755620E+03  0.33294301065E+04  0.55208439584E+04  0.65000000000E+04  0.15050000000E+03 0.  1.
</event>
<event>
 4    1  0.4826743E-004  0.6500000E+04  0.7818608E-02  0.7223770E-01
         52   -1    0    0    0    0  0.00000000000E+00  0.00000000000E+00  0.64930732323E+04  0.65000000000E+04  0.30000000000E+03 0.  1.
        -52   -1    0    0    0    0 -0.00000000000E+00 -0.00000000000E+00 -0.64930732323E+04  0.65000000000E+04  0.30000000000E+03 0. -1.
     100001    1    1    2    0    0 -0.24931644741E+02  0.11690626096E+04  0.63921843511E+04  0.65000000000E+04  0.15050000000E+03 0.  1.
     100001    1    1    2    0    0  0.24931644741E+02 -0.11690626096E+04 -0.63921843511E+04  0.65000000000E+04  0.15050000000E+03 0. -1.
</event>
<event>
 4    1  0.4826743E-004  0.6500000E+04  0.7818608E-02  0.7223770E-01
         52   -1    0    0    0    0  0.00000000000E+00  0.00000000000E+00  0.64930732323E+04  0.65000000000E+04  0.30000000000E+03 0.  1.
        -52   -1    0    0    0    0 -0.00000000000E+00 -0.00000000000E+00 -0.64930732323E+04  0.65000000000E+04  0.30000000000E+03 0. -1.
     100001    1    1    2    0    0 -0.30860505380E+03 -0.13380416848E+04  0.63515161277E+04  0.65000000000E+04  0.15050000000E+03 0.  1.
     100001    1    1    2    0    0  0.30860505380E+03  0.13380416848E+04 -0.63515161277E+04  0.65000000000E+04  0.15050000000E+03 0. -1.
</event>
<event>
 4    1  0.4826743E-004  0.6500000E+04  0.7818608E-02  0.7223770E-01
         52   -1    0    0    0    0  0.00000000000E+00  0.00000000000E+00  0.64930732323E+04  0.65000000000E+04  0.30000000000E+03 0.  1.
        -52   -1    0    0    0    0 -0.00000000000E+00 -0.00000000000E+00 -0.64930732323E+04  0.65000000000E+04  0.30000000000E+03 0. -1.
     100001    1    1    2    0    0 -0.36730565698E+03  0.10299039351E+03 -0.64870508926E+04  0.65000000000E+04  0.15050000000E+03 0. -1.
     100001    1    1    2    0    0  0.36730565698E+03 -0.10299039351E+03  0.64870508926E+04  0.65000000000E+04  0.15050000000E+03 0.  1.
</event>
<event>
 4    1  0.4826743E-004  0.6500000E+04  0.7818608E-02  0.7223770E-01
         52   -1    0    0    0    0  0.00000000000E+00  0.00000000000E+00  0.64930732323E+04  0.65000000000E+04  0.30000000000E+03 0.  1.
        -52   -1    0    0    0    0 -0.00000000000E+00 -0.00000000000E+00 -0.64930732323E+04  0.65000000000E+04  0.30000000000E+03 0. -1.
     100001    1    1    2    0    0  0.93967476889E+03  0.15051664156E+04 -0.62513066746E+04  0.65000000000E+04  0.15050000000E+03 0. -1.
     100001    1    1    2    0    0 -0.93967476889E+03 -0.15051664156E+04  0.62513066746E+04  0.65000000000E+04  0.15050000000E+03 0.  1.
</event>
<event>
 4    1  0.4826743E-004  0.6500000E+04  0.7818608E-02  0.7223770E-01
         52   -1    0    0    0    0  0.00000000000E+00  0.00000000000E+00  0.64930732323E+04  0.65000000000E+04  0.30000000000E+03 0. -1.
        -52   -1    0    0    0    0 -0.00000000000E+00 -0.00000000000E+00 -0.64930732323E+04  0.65000000000E+04  0.30000000000E+03 0.  1.
     100001    1    1    2    0    0 -0.17134242992E+04  0.55575599754E+03 -0.62436097085E+04  0.65000000000E+04  0.15050000000E+03 0.  1.
     100001    1    1    2    0    0  0.17134242992E+04 -0.55575599754E+03  0.62436097085E+04  0.65000000000E+04  0.15050000000E+03 0. -1.
</event>
<event>
 4    1  0.4826743E-004  0.6500000E+04  0.7818608E-02  0.7223770E-01
         52   -1    0    0    0    0  0.00000000000E+00  0.00000000000E+00  0.64930732323E+04  0.65000000000E+04  0.30000000000E+03 0. -1.
        -52   -1    0    0    0    0 -0.00000000000E+00 -0.00000000000E+00 -0.64930732323E+04  0.65000000000E+04  0.30000000000E+03 0. -1.
     100001    1    1    2    0    0 -0.26115206094E+03 -0.23479569881E+03 -0.64887610783E+04  0.65000000000E+04  0.15050000000E+03 0. -1.
     100001    1    1    2    0    0  0.26115206094E+03  0.23479569881E+03  0.64887610783E+04  0.65000000000E+04  0.15050000000E+03 0. -1.
</event>
<event>
 4    1  0.4826743E-004  0.6500000E+04  0.7818608E-02  0.7223770E-01
         52   -1    0    0    0    0  0.00000000000E+00  0.00000000000E+00  0.64930732323E+04  0.65000000000E+04  0.30000000000E+03 0.  1.
        -52   -1    0    0    0    0 -0.00000000000E+00 -0.00000000000E+00 -0.64930732323E+04  0.65000000000E+04  0.30000000000E+03 0. -1.
     100001    1    1    2    0    0 -0.77114349701E+03 -0.33570703702E+03  0.64436005651E+04  0.65000000000E+04  0.15050000000E+03 0.  1.
     100001    1    1    2    0    0  0.77114349701E+03  0.33570703702E+03 -0.64436005651E+04  0.65000000000E+04  0.15050000000E+03 0. -1.
</event>
<event>
 4    1  0.4826743E-004  0.6500000E+04  0.7818608E-02  0.7223770E-01
         52   -1    0    0    0    0  0.00000000000E+00  0.00000000000E+00  0.64930732323E+04  0.65000000000E+04  0.30000000000E+03 0. -1.
        -52   -1    0    0    0    0 -0.00000000000E+00 -0.00000000000E+00 -0.64930732323E+04  0.65000000000E+04  0.30000000000E+03 0.  1.
     100001    1    1    2    0    0 -0.64819214271E+03 -0.24591792004E+03  0.64611702557E+04  0.65000000000E+04  0.15050000000E+03 0. -1.
     100001    1    1    2    0    0  0.64819214271E+03  0.24591792004E+03 -0.64611702557E+04  0.65000000000E+04  0.15050000000E+03 0.  1.
</event>
<event>
 4    1  0.4826743E-004  0.6500000E+04  0.7818608E-02  0.7223770E-01
         52   -1    0    0    0    0  0.00000000000E+00  0.00000000000E+00  0.64930732323E+04  0.65000000000E+04  0.30000000000E+03 0.  1.
        -52   -1    0    0    0    0 -0.00000000000E+00 -0.00000000000E+00 -0.64930732323E+04  0.65000000000E+04  0.30000000000E+03 0. -1.
     100001    1    1    2    0    0 -0.83382567607E+03  0.40563328095E+03  0.64317607335E+04  0.65000000000E+04  0.15050000000E+03 0.  1.
     100001    1    1    2    0    0  0.83382567607E+03 -0.40563328095E+03 -0.64317607335E+04  0.65000000000E+04  0.15050000000E+03 0. -1.
</event>
<event>
 4    1  0.4826743E-004  0.6500000E+04  0.7818608E-02  0.7223770E-01
         52   -1    0    0    0    0  0.00000000000E+00  0.00000000000E+00  0.64930732323E+04  0.65000000000E+04  0.30000000000E+03 0. -1.
        -52   -1    0    0    0    0 -0.00000000000E+00 -0.00000000000E+00 -0.64930732323E+04  0.65000000000E+04  0.30000000000E+03 0.  1.
     100001    1    1    2    0    0  0.13654229352E+04  0.24927039089E+04 -0.58437485556E+04  0.65000000000E+04  0.15050000000E+03 0.  1.
     100001    1    1    2    0    0 -0.13654229352E+04 -0.24927039089E+04  0.58437485556E+04  0.65000000000E+04  0.15050000000E+03 0. -1.
</event>
<event>
 4    1  0.7796928E-004  0.6500000E+04  0.7818608E-02  0.7223770E-01
         52   -1    0    0    0    0  0.00000000000E+00  0.00000000000E+00  0.64930732323E+04  0.65000000000E+04  0.30000000000E+03 0.  1.
        -52   -1    0    0    0    0 -0.00000000000E+00 -0.00000000000E+00 -0.64930732323E+04  0.65000000000E+04  0.30000000000E+03 0.  1.
     100001    1    1    2    0    0 -0.78063216622E+02  0.76600009701E+02  0.64973370178E+04  0.65000000000E+04  0.15050000000E+03 0.  1.
     100001    1    1    2    0    0  0.78063216622E+02 -0.76600009701E+02 -0.64973370178E+04  0.65000000000E+04  0.15050000000E+03 0.  1.
</event>
<event>
 4    1  0.4826743E-004  0.6500000E+04  0.7818608E-02  0.7223770E-01
         52   -1    0    0    0    0  0.00000000000E+00  0.00000000000E+00  0.64930732323E+04  0.65000000000E+04  0.30000000000E+03 0. -1.
        -52   -1    0    0    0    0 -0.00000000000E+00 -0.00000000000E+00 -0.64930732323E+04  0.65000000000E+04  0.30000000000E+03 0.  1.
     100001    1    1    2    0    0 -0.51430904161E+03  0.20717331534E+03  0.64745590720E+04  0.65000000000E+04  0.15050000000E+03 0. -1.
     100001    1    1    2    0    0  0.51430904161E+03 -0.20717331534E+03 -0.64745590720E+04  0.65000000000E+04  0.15050000000E+03 0.  1.
</event>
<event>
 4    1  0.4826743E-004  0.6500000E+04  0.7818608E-02  0.7223770E-01
         52   -1    0    0    0    0  0.00000000000E+00  0.00000000000E+00  0.64930732323E+04  0.65000000000E+04  0.30000000000E+03 0. -1.
        -52   -1    0    0    0    0 -0.00000000000E+00 -0.00000000000E+00 -0.64930732323E+04  0.65000000000E+04  0.30000000000E+03 0.  1.
     100001    1    1    2    0    0  0.36772176275E+03  0.12213070906E+04  0.63718552593E+04  0.65000000000E+04  0.15050000000E+03 0. -1.
     100001    1    1    2    0    0 -0.36772176275E+03 -0.12213070906E+04 -0.63718552593E+04  0.65000000000E+04  0.15050000000E+03 0.  1.
</event>
<event>
 4    1  0.4826743E-004  0.6500000E+04  0.7818608E-02  0.7223770E-01
         52   -1    0    0    0    0  0.00000000000E+00  0.00000000000E+00  0.64930732323E+04  0.65000000000E+04  0.30000000000E+03 0.  1.
        -52   -1    0    0    0    0 -0.00000000000E+00 -0.00000000000E+00 -0.64930732323E+04  0.65000000000E+04  0.30000000000E+03 0.  1.
     100001    1    1    2    0    0 -0.10327019826E+03 -0.19215844813E+03 -0.64945946869E+04  0.65000000000E+04  0.15050000000E+03 0.  1.
     100001    1    1    2    0    0  0.10327019826E+03  0.19215844813E+03  0.64945946869E+04  0.65000000000E+04  0.15050000000E+03 0.  1.
</event>
<event>
 4    1  0.4826743E-004  0.6500000E+04  0.7818608E-02  0.7223770E-01
         52   -1    0    0    0    0  0.00000000000E+00  0.00000000000E+00  0.64930732323E+04  0.65000000000E+04  0.30000000000E+03 0.  1.
        -52   -1    0    0    0    0 -0.00000000000E+00 -0.00000000000E+00 -0.64930732323E+04  0.65000000000E+04  0.30000000000E+03 0. -1.
     100001    1    1    2    0    0  0.34717730575E+04  0.15257587236E+04 -0.52769500570E+04  0.65000000000E+04  0.15050000000E+03 0. -1.
     100001    1    1    2    0    0 -0.34717730575E+04 -0.15257587236E+04  0.52769500570E+04  0.65000000000E+04  0.15050000000E+03 0.  1.
</event>
<event>
 4    1  0.4826743E-004  0.6500000E+04  0.7818608E-02  0.7223770E-01
         52   -1    0    0    0    0  0.00000000000E+00  0.00000000000E+00  0.64930732323E+04  0.65000000000E+04  0.30000000000E+03 0.  1.
        -52   -1    0    0    0    0 -0.00000000000E+00 -0.00000000000E+00 -0.64930732323E+04  0.65000000000E+04  0.30000000000E+03 0. -1.
     100001    1    1    2    0    0  0.25890112380E+03 -0.36652960276E+03 -0.64827444812E+04  0.65000000000E+04  0.15050000000E+03 0. -1.
     100001    1    1    2    0    0 -0.25890112380E+03  0.36652960276E+03  0.64827444812E+04  0.65000000000E+04  0.15050000000E+03 0.  1.
</event>
<event>
 4    1  0.4826743E-004  0.6500000E+04  0.7818608E-02  0.7223770E-01
         52   -1    0    0    0    0  0.00000000000E+00  0.00000000000E+00  0.64930732323E+04  0.65000000000E+04  0.30000000000E+03 0. -1.
        -52   -1    0    0    0    0 -0.00000000000E+00 -0.00000000000E+00 -0.64930732323E+04  0.65000000000E+04  0.30000000000E+03 0. -1.
     100001    1    1    2    0    0 -0.82469240298E+01 -0.26987606151E+03 -0.64926457357E+04  0.65000000000E+04  0.15050000000E+03 0. -1.
     100001    1    1    2    0    0  0.82469240298E+01  0.26987606151E+03  0.64926457357E+04  0.65000000000E+04  0.15050000000E+03 0. -1.
</event>
<event>
 4    1  0.4826743E-004  0.6500000E+04  0.7818608E-02  0.7223770E-01
         52   -1    0    0    0    0  0.00000000000E+00  0.00000000000E+00  0.64930732323E+04  0.65000000000E+04  0.30000000000E+03 0.  1.
        -52   -1    0    0    0    0 -0.00000000000E+00 -0.00000000000E+00 -0.64930732323E+04  0.65000000000E+04  0.30000000000E+03 0. -1.
     100001    1    1    2    0    0  0.50120239621E+04  0.27414471973E+04 -0.30970038453E+04  0.65000000000E+04  0.15050000000E+03 0. -1.
     100001    1    1    2    0    0 -0.50120239621E+04 -0.27414471973E+04  0.30970038453E+04  0.65000000000E+04  0.15050000000E+03 0.  1.
</event>
<event>
 4    1  0.4826743E-004  0.6500000E+04  0.7818608E-02  0.7223770E-01
         52   -1    0    0    0    0  0.00000000000E+00  0.00000000000E+00  0.64930732323E+04  0.65000000000E+04  0.30000000000E+03 0. -1.
        -52   -1    0    0    0    0 -0.00000000000E+00 -0.00000000000E+00 -0.64930732323E+04  0.65000000000E+04  0.30000000000E+03 0.  1.
     100001    1    1    2    0    0 -0.38324463710E+03 -0.34897104505E+04 -0.54683081726E+04  0.65000000000E+04  0.15050000000E+03 0.  1.
     100001    1    1    2    0    0  0.38324463710E+03  0.34897104505E+04  0.54683081726E+04  0.65000000000E+04  0.15050000000E+03 0. -1.
</event>
<event>
 4    1  0.4826743E-004  0.6500000E+04  0.7818608E-02  0.7223770E-01
         52   -1    0    0    0    0  0.00000000000E+00  0.00000000000E+00  0.64930732323E+04  0.65000000000E+04  0.30000000000E+03 0. -1.
        -52   -1    0    0    0    0 -0.00000000000E+00 -0.00000000000E+00 -0.64930732323E+04  0.65000000000E+04  0.30000000000E+03 0.  1.
     100001    1    1    2    0    0 -0.83449146214E+03 -0.43269492702E+03 -0.64299104854E+04  0.65000000000E+04  0.15050000000E+03 0.  1.
     100001    1    1    2    0    0  0.83449146214E+03  0.43269492702E+03  0.64299104854E+04  0.65000000000E+04  0.15050000000E+03 0. -1.
</event>
<event>
 4    1  0.4826743E-004  0.6500000E+04  0.7818608E-02  0.7223770E-01
         52   -1    0    0    0    0  0.00000000000E+00  0.00000000000E+00  0.64930732323E+04  0.65000000000E+04  0.30000000000E+03 0.  1.
        -52   -1    0    0    0    0 -0.00000000000E+00 -0.00000000000E+00 -0.64930732323E+04  0.65000000000E+04  0.30000000000E+03 0.  1.
     100001    1    1    2    0    0 -0.40875285257E+03  0.15367981540E+03 -0.64835679506E+04  0.65000000000E+04  0.15050000000E+03 0.  1.
     100001    1    1    2    0    0  0.40875285257E+03 -0.15367981540E+03  0.64835679506E+04  0.65000000000E+04  0.15050000000E+03 0.  1.
</event>
<event>
 4    1  0.4826743E-004  0.6500000E+04  0.7818608E-02  0.7223770E-01
         52   -1    0    0    0    0  0.00000000000E+00  0.00000000000E+00  0.64930732323E+04  0.65000000000E+04  0.30000000000E+03 0.  1.
        -52   -1    0    0    0    0 -0.00000000000E+00 -0.00000000000E+00 -0.64930732323E+04  0.65000000000E+04  0.30000000000E+03 0. -1.
     100001    1    1    2    0    0  0.56825382218E+04 -0.27724281587E+04 -0.14999170684E+04  0.65000000000E+04  0.15050000000E+03 0.  1.
     100001    1    1    2    0    0 -0.56825382218E+04  0.27724281587E+04  0.14999170684E+04  0.65000000000E+04  0.15050000000E+03 0. -1.
</event>
<event>
 4    1  0.4826743E-004  0.6500000E+04  0.7818608E-02  0.7223770E-01
         52   -1    0    0    0    0  0.00000000000E+00  0.00000000000E+00  0.64930732323E+04  0.65000000000E+04  0.30000000000E+03 0. -1.
        -52   -1    0    0    0    0 -0.00000000000E+00 -0.00000000000E+00 -0.64930732323E+04  0.65000000000E+04  0.30000000000E+03 0.  1.
     100001    1    1    2    0    0  0.36427460429E+04 -0.29085154057E+03  0.53733747681E+04  0.65000000000E+04  0.15050000000E+03 0. -1.
     100001    1    1    2    0    0 -0.36427460429E+04  0.29085154057E+03 -0.53733747681E+04  0.65000000000E+04  0.15050000000E+03 0.  1.
</event>
<event>
 4    1  0.4826743E-004  0.6500000E+04  0.7818608E-02  0.7223770E-01
         52   -1    0    0    0    0  0.00000000000E+00  0.00000000000E+00  0.64930732323E+04  0.65000000000E+04  0.30000000000E+03 0. -1.
        -52   -1    0    0    0    0 -0.00000000000E+00 -0.00000000000E+00 -0.64930732323E+04  0.65000000000E+04  0.30000000000E+03 0.  1.
     100001    1    1    2    0    0 -0.14340969923E+04 -0.12593641224E+04  0.62116598083E+04  0.65000000000E+04  0.15050000000E+03 0. -1.
     100001    1    1    2    0    0  0.14340969923E+04  0.12593641224E+04 -0.62116598083E+04  0.65000000000E+04  0.15050000000E+03 0.  1.
</event>
<event>
 4    1  0.4826743E-004  0.6500000E+04  0.7818608E-02  0.7223770E-01
         52   -1    0    0    0    0  0.00000000000E+00  0.00000000000E+00  0.64930732323E+04  0.65000000000E+04  0.30000000000E+03 0.  1.
        -52   -1    0    0    0    0 -0.00000000000E+00 -0.00000000000E+00 -0.64930732323E+04  0.65000000000E+04  0.30000000000E+03 0. -1.
     100001    1    1    2    0    0  0.37652208713E+03  0.22290231314E+04  0.60923752960E+04  0.65000000000E+04  0.15050000000E+03 0.  1.
     100001    1    1    2    0    0 -0.37652208713E+03 -0.22290231314E+04 -0.60923752960E+04  0.65000000000E+04  0.15050000000E+03 0. -1.
</event>
<event>
 4    1  0.4826743E-004  0.6500000E+04  0.7818608E-02  0.7223770E-01
         52   -1    0    0    0    0  0.00000000000E+00  0.00000000000E+00  0.64930732323E+04  0.65000000000E+04  0.30000000000E+03 0. -1.
        -52   -1    0    0    0    0 -0.00000000000E+00 -0.00000000000E+00 -0.64930732323E+04  0.65000000000E+04  0.30000000000E+03 0. -1.
     100001    1    1    2    0    0  0.75919966027E+02 -0.25134696784E+02  0.64977653202E+04  0.65000000000E+04  0.15050000000E+03 0. -1.
     100001    1    1    2    0    0 -0.75919966027E+02  0.25134696784E+02 -0.64977653202E+04  0.65000000000E+04  0.15050000000E+03 0. -1.
</event>
<event>
 4    1  0.4826743E-004  0.6500000E+04  0.7818608E-02  0.7223770E-01
         52   -1    0    0    0    0  0.00000000000E+00  0.00000000000E+00  0.64930732323E+04  0.65000000000E+04  0.30000000000E+03 0. -1.
        -52   -1    0    0    0    0 -0.00000000000E+00 -0.00000000000E+00 -0.64930732323E+04  0.65000000000E+04  0.30000000000E+03 0.  1.
     100001    1    1    2    0    0 -0.43861842258E+03  0.65245730783E+02 -0.64831093330E+04  0.65000000000E+04  0.15050000000E+03 0.  1.
     100001    1    1    2    0    0  0.43861842258E+03 -0.65245730783E+02  0.64831093330E+04  0.65000000000E+04  0.15050000000E+03 0. -1.
</event>
<event>
 4    1  0.5918069E-004  0.6500000E+04  0.7818608E-02  0.7223770E-01
         52   -1    0    0    0    0  0.00000000000E+00  0.00000000000E+00  0.64930732323E+04  0.65000000000E+04  0.30000000000E+03 0.  1.
        -52   -1    0    0    0    0 -0.00000000000E+00 -0.00000000000E+00 -0.64930732323E+04  0.65000000000E+04  0.30000000000E+03 0. -1.
     100001    1    1    2    0    0  0.19912935504E+03  0.77692244093E+02  0.64947410391E+04  0.65000000000E+04  0.15050000000E+03 0.  1.
     100001    1    1    2    0    0 -0.19912935504E+03 -0.77692244093E+02 -0.64947410391E+04  0.65000000000E+04  0.15050000000E+03 0. -1.
</event>
<event>
 4    1  0.4826743E-004  0.6500000E+04  0.7818608E-02  0.7223770E-01
         52   -1    0    0    0    0  0.00000000000E+00  0.00000000000E+00  0.64930732323E+04  0.65000000000E+04  0.30000000000E+03 0. -1.
        -52   -1    0    0    0    0 -0.00000000000E+00 -0.00000000000E+00 -0.64930732323E+04  0.65000000000E+04  0.30000000000E+03 0.  1.
     100001    1    1    2    0    0 -0.23574489119E+04  0.12760731749E+04  0.59195795146E+04  0.65000000000E+04  0.15050000000E+03 0. -1.
     100001    1    1    2    0    0  0.23574489119E+04 -0.12760731749E+04 -0.59195795146E+04  0.65000000000E+04  0.15050000000E+03 0.  1.
</event>
<event>
 4    1  0.4826743E-004  0.6500000E+04  0.7818608E-02  0.7223770E-01
         52   -1    0    0    0    0  0.00000000000E+00  0.00000000000E+00  0.64930732323E+04  0.65000000000E+04  0.30000000000E+03 0.  1.
        -52   -1    0    0    0    0 -0.00000000000E+00 -0.00000000000E+00 -0.64930732323E+04  0.65000000000E+04  0.30000000000E+03 0. -1.
     100001    1    1    2    0    0 -0.41059644582E+03  0.35873597542E+04  0.54027409991E+04  0.65000000000E+04  0.15050000000E+03 0.  1.
     100001    1    1    2    0    0  0.41059644582E+03 -0.35873597542E+04 -0.54027409991E+04  0.65000000000E+04  0.15050000000E+03 0. -1.
</event>
<event>
 4    1  0.4826743E-004  0.6500000E+04  0.7818608E-02  0.7223770E-01
         52   -1    0    0    0    0  0.00000000000E+00  0.00000000000E+00  0.64930732323E+04  0.65000000000E+04  0.30000000000E+03 0. -1.
        -52   -1    0    0    0    0 -0.00000000000E+00 -0.00000000000E+00 -0.64930732323E+04  0.65000000000E+04  0.30000000000E+03 0.  1.
     100001    1    1    2    0    0  0.17738176898E+04 -0.37487633984E+04 -0.50027685871E+04  0.65000000000E+04  0.15050000000E+03 0.  1.
     100001    1    1    2    0    0 -0.17738176898E+04  0.37487633984E+04  0.50027685871E+04  0.65000000000E+04  0.15050000000E+03 0. -1.
</event>
<event>
 4    1  0.4826743E-004  0.6500000E+04  0.7818608E-02  0.7223770E-01
         52   -1    0    0    0    0  0.00000000000E+00  0.00000000000E+00  0.64930732323E+04  0.65000000000E+04  0.30000000000E+03 0.  1.
        -52   -1    0    0    0    0 -0.00000000000E+00 -0.00000000000E+00 -0.64930732323E+04  0.65000000000E+04  0.30000000000E+03 0. -1.
     100001    1    1    2    0    0 -0.82215124566E+03 -0.15909193275E+04  0.62466305135E+04  0.65000000000E+04  0.15050000000E+03 0.  1.
     100001    1    1    2    0    0  0.82215124566E+03  0.15909193275E+04 -0.62466305135E+04  0.65000000000E+04  0.15050000000E+03 0. -1.
</event>
<event>
 4    1  0.4826743E-004  0.6500000E+04  0.7818608E-02  0.7223770E-01
         52   -1    0    0    0    0  0.00000000000E+00  0.00000000000E+00  0.64930732323E+04  0.65000000000E+04  0.30000000000E+03 0. -1.
        -52   -1    0    0    0    0 -0.00000000000E+00 -0.00000000000E+00 -0.64930732323E+04  0.65000000000E+04  0.30000000000E+03 0.  1.
     100001    1    1    2    0    0  0.59043420866E+03 -0.57574741007E+03  0.64457157954E+04  0.65000000000E+04  0.15050000000E+03 0. -1.
     100001    1    1    2    0    0 -0.59043420866E+03  0.57574741007E+03 -0.64457157954E+04  0.65000000000E+04  0.15050000000E+03 0.  1.
</event>
<event>
 4    1  0.4826743E-004  0.6500000E+04  0.7818608E-02  0.7223770E-01
         52   -1    0    0    0    0  0.00000000000E+00  0.00000000000E+00  0.64930732323E+04  0.65000000000E+04  0.30000000000E+03 0.  1.
        -52   -1    0    0    0    0 -0.00000000000E+00 -0.00000000000E+00 -0.64930732323E+04  0.65000000000E+04  0.30000000000E+03 0. -1.
     100001    1    1    2    0    0 -0.61064970384E+04 -0.54010713768E+03 -0.21555342610E+04  0.65000000000E+04  0.15050000000E+03 0. -1.
     100001    1    1    2    0    0  0.61064970384E+04  0.54010713768E+03  0.21555342610E+04  0.65000000000E+04  0.15050000000E+03 0.  1.
</event>
<event>
 4    1  0.4826743E-004  0.6500000E+04  0.7818608E-02  0.7223770E-01
         52   -1    0    0    0    0  0.00000000000E+00  0.00000000000E+00  0.64930732323E+04  0.65000000000E+04  0.30000000000E+03 0. -1.
        -52   -1    0    0    0    0 -0.00000000000E+00 -0.00000000000E+00 -0.64930732323E+04  0.65000000000E+04  0.30000000000E+03 0. -1.
     100001    1    1    2    0    0  0.74879323979E+02 -0.35404756890E+03  0.64881733297E+04  0.65000000000E+04  0.15050000000E+03 0. -1.
     100001    1    1    2    0    0 -0.74879323979E+02  0.35404756890E+03 -0.64881733297E+04  0.65000000000E+04  0.15050000000E+03 0. -1.
</event>
<event>
 4    1  0.4826743E-004  0.6500000E+04  0.7818608E-02  0.7223770E-01
         52   -1    0    0    0    0  0.00000000000E+00  0.00000000000E+00  0.64930732323E+04  0.65000000000E+04  0.30000000000E+03 0. -1.
        -52   -1    0    0    0    0 -0.00000000000E+00 -0.00000000000E+00 -0.64930732323E+04  0.65000000000E+04  0.30000000000E+03 0.  1.
     100001    1    1    2    0    0 -0.47997153886E+03 -0.22842550238E+04  0.60645821009E+04  0.65000000000E+04  0.15050000000E+03 0. -1.
     100001    1    1    2    0    0  0.47997153886E+03  0.22842550238E+04 -0.60645821009E+04  0.65000000000E+04  0.15050000000E+03 0.  1.
</event>
<event>
 4    1  0.4826743E-004  0.6500000E+04  0.7818608E-02  0.7223770E-01
         52   -1    0    0    0    0  0.00000000000E+00  0.00000000000E+00  0.64930732323E+04  0.65000000000E+04  0.30000000000E+03 0. -1.
        -52   -1    0    0    0    0 -0.00000000000E+00 -0.00000000000E+00 -0.64930732323E+04  0.65000000000E+04  0.30000000000E+03 0.  1.
     100001    1    1    2    0    0  0.17080283751E+04 -0.38828284760E+04 -0.49227666861E+04  0.65000000000E+04  0.15050000000E+03 0.  1.
     100001    1    1    2    0    0 -0.17080283751E+04  0.38828284760E+04  0.49227666861E+04  0.65000000000E+04  0.15050000000E+03 0. -1.
</event>
<event>
 4    1  0.4826743E-004  0.6500000E+04  0.7818608E-02  0.7223770E-01
         52   -1    0    0    0    0  0.00000000000E+00  0.00000000000E+00  0.64930732323E+04  0.65000000000E+04  0.30000000000E+03 0.  1.
        -52   -1    0    0    0    0 -0.00000000000E+00 -0.00000000000E+00 -0.64930732323E+04  0.65000000000E+04  0.30000000000E+03 0.  1.
     100001    1    1    2    0    0 -0.43550977750E+03  0.35948159800E+03  0.64736739155E+04  0.65000000000E+04  0.15050000000E+03 0.  1.
     100001    1    1    2    0    0  0.43550977750E+03 -0.35948159800E+03 -0.64736739155E+04  0.65000000000E+04  0.15050000000E+03 0.  1.
</event>
<event>
 4    1  0.4826743E-004  0.6500000E+04  0.7818608E-02  0.7223770E-01
         52   -1    0    0    0    0  0.00000000000E+00  0.00000000000E+00  0.64930732323E+04  0.65000000000E+04  0.30000000000E+03 0. -1.
        -52   -1    0    0    0    0 -0.00000000000E+00 -0.00000000000E+00 -0.64930732323E+04  0.65000000000E+04  0.30000000000E+03 0.  1.
     100001    1    1    2    0    0  0.93698761235E+03  0.17320813055E+04  0.61926810281E+04  0.65000000000E+04  0.15050000000E+03 0. -1.
     100001    1    1    2    0    0 -0.93698761235E+03 -0.17320813055E+04 -0.61926810281E+04  0.65000000000E+04  0.15050000000E+03 0.  1.
</event>
<event>
 4    1  0.4826743E-004  0.6500000E+04  0.7818608E-02  0.7223770E-01
         52   -1    0    0    0    0  0.00000000000E+00  0.00000000000E+00  0.64930732323E+04  0.65000000000E+04  0.30000000000E+03 0.  1.
        -52   -1    0    0    0    0 -0.00000000000E+00 -0.00000000000E+00 -0.64930732323E+04  0.65000000000E+04  0.30000000000E+03 0. -1.
     100001    1    1    2    0    0 -0.24872918322E+04 -0.44490991149E+04 -0.40306632404E+04  0.65000000000E+04  0.15050000000E+03 0. -1.
     100001    1    1    2    0    0  0.24872918322E+04  0.44490991149E+04  0.40306632404E+04  0.65000000000E+04  0.15050000000E+03 0.  1.
</event>
<event>
 4    1  0.4826743E-004  0.6500000E+04  0.7818608E-02  0.7223770E-01
         52   -1    0    0    0    0  0.00000000000E+00  0.00000000000E+00  0.64930732323E+04  0.65000000000E+04  0.30000000000E+03 0. -1.
        -52   -1    0    0    0    0 -0.00000000000E+00 -0.00000000000E+00 -0.64930732323E+04  0.65000000000E+04  0.30000000000E+03 0.  1.
     100001    1    1    2    0    0 -0.36004287293E+03 -0.99396194238E+03  0.64116892109E+04  0.65000000000E+04  0.15050000000E+03 0. -1.
     100001    1    1    2    0    0  0.36004287293E+03  0.99396194238E+03 -0.64116892109E+04  0.65000000000E+04  0.15050000000E+03 0.  1.
</event>
<event>
 4    1  0.4826743E-004  0.6500000E+04  0.7818608E-02  0.7223770E-01
         52   -1    0    0    0    0  0.00000000000E+00  0.00000000000E+00  0.64930732323E+04  0.65000000000E+04  0.30000000000E+03 0.  1.
        -52   -1    0    0    0    0 -0.00000000000E+00 -0.00000000000E+00 -0.64930732323E+04  0.65000000000E+04  0.30000000000E+03 0.  1.
     100001    1    1    2    0    0  0.71961795989E+03  0.37311759064E+03  0.64475020749E+04  0.65000000000E+04  0.15050000000E+03 0.  1.
     100001    1    1    2    0    0 -0.71961795989E+03 -0.37311759064E+03 -0.64475020749E+04  0.65000000000E+04  0.15050000000E+03 0.  1.
</event>
<event>
 4    1  0.4826743E-004  0.6500000E+04  0.7818608E-02  0.7223770E-01
         52   -1    0    0    0    0  0.00000000000E+00  0.00000000000E+00  0.64930732323E+04  0.65000000000E+04  0.30000000000E+03 0.  1.
        -52   -1    0    0    0    0 -0.00000000000E+00 -0.00000000000E+00 -0.64930732323E+04  0.65000000000E+04  0.30000000000E+03 0. -1.
     100001    1    1    2    0    0 -0.61259893099E+03 -0.15879443861E+03  0.64673686014E+04  0.65000000000E+04  0.15050000000E+03 0.  1.
     100001    1    1    2    0    0  0.61259893099E+03  0.15879443861E+03 -0.64673686014E+04  0.65000000000E+04  0.15050000000E+03 0. -1.
</event>
<event>
 4    1  0.4826743E-004  0.6500000E+04  0.7818608E-02  0.7223770E-01
         52   -1    0    0    0    0  0.00000000000E+00  0.00000000000E+00  0.64930732323E+04  0.65000000000E+04  0.30000000000E+03 0.  1.
        -52   -1    0    0    0    0 -0.00000000000E+00 -0.00000000000E+00 -0.64930732323E+04  0.65000000000E+04  0.30000000000E+03 0. -1.
     100001    1    1    2    0    0  0.21501721535E+04  0.19192925677E+03  0.61292146822E+04  0.65000000000E+04  0.15050000000E+03 0.  1.
     100001    1    1    2    0    0 -0.21501721535E+04 -0.19192925677E+03 -0.61292146822E+04  0.65000000000E+04  0.15050000000E+03 0. -1.
</event>
<event>
 4    1  0.4826743E-004  0.6500000E+04  0.7818608E-02  0.7223770E-01
         52   -1    0    0    0    0  0.00000000000E+00  0.00000000000E+00  0.64930732323E+04  0.65000000000E+04  0.30000000000E+03 0. -1.
        -52   -1    0    0    0    0 -0.00000000000E+00 -0.00000000000E+00 -0.64930732323E+04  0.65000000000E+04  0.30000000000E+03 0.  1.
     100001    1    1    2    0    0  0.56290771220E+04 -0.24462639665E+04  0.21346271596E+04  0.65000000000E+04  0.15050000000E+03 0. -1.
     100001    1    1    2    0    0 -0.56290771220E+04  0.24462639665E+04 -0.21346271596E+04  0.65000000000E+04  0.15050000000E+03 0.  1.
</event>
<event>
 4    1  0.4826743E-004  0.6500000E+04  0.7818608E-02  0.7223770E-01
         52   -1    0    0    0    0  0.00000000000E+00  0.00000000000E+00  0.64930732323E+04  0.65000000000E+04  0.30000000000E+03 0.  1.
        -52   -1    0    0    0    0 -0.00000000000E+00 -0.00000000000E+00 -0.64930732323E+04  0.65000000000E+04  0.30000000000E+03 0. -1.
     100001    1    1    2    0    0  0.37665483462E+04  0.15142315806E+04  0.50742059503E+04  0.65000000000E+04  0.15050000000E+03 0.  1.
     100001    1    1    2    0    0 -0.37665483462E+04 -0.15142315806E+04 -0.50742059503E+04  0.65000000000E+04  0.15050000000E+03 0. -1.
</event>
<event>
 4    1  0.4826743E-004  0.6500000E+04  0.7818608E-02  0.7223770E-01
         52   -1    0    0    0    0  0.00000000000E+00  0.00000000000E+00  0.64930732323E+04  0.65000000000E+04  0.30000000000E+03 0. -1.
        -52   -1    0    0    0    0 -0.00000000000E+00 -0.00000000000E+00 -0.64930732323E+04  0.65000000000E+04  0.30000000000E+03 0.  1.
     100001    1    1    2    0    0 -0.24147371837E+04  0.98605610760E+03  0.59518137938E+04  0.65000000000E+04  0.15050000000E+03 0. -1.
     100001    1    1    2    0    0  0.24147371837E+04 -0.98605610760E+03 -0.59518137938E+04  0.65000000000E+04  0.15050000000E+03 0.  1.
</event>
<event>
 4    1  0.4826743E-004  0.6500000E+04  0.7818608E-02  0.7223770E-01
         52   -1    0    0    0    0  0.00000000000E+00  0.00000000000E+00  0.64930732323E+04  0.65000000000E+04  0.30000000000E+03 0.  1.
        -52   -1    0    0    0    0 -0.00000000000E+00 -0.00000000000E+00 -0.64930732323E+04  0.65000000000E+04  0.30000000000E+03 0. -1.
     100001    1    1    2    0    0 -0.20855273078E+04 -0.10850563608E+04  0.60581002214E+04  0.65000000000E+04  0.15050000000E+03 0.  1.
     100001    1    1    2    0    0  0.20855273078E+04  0.10850563608E+04 -0.60581002214E+04  0.65000000000E+04  0.15050000000E+03 0. -1.
</event>
<event>
 4    1  0.4826743E-004  0.6500000E+04  0.7818608E-02  0.7223770E-01
         52   -1    0    0    0    0  0.00000000000E+00  0.00000000000E+00  0.64930732323E+04  0.65000000000E+04  0.30000000000E+03 0.  1.
        -52   -1    0    0    0    0 -0.00000000000E+00 -0.00000000000E+00 -0.64930732323E+04  0.65000000000E+04  0.30000000000E+03 0. -1.
     100001    1    1    2    0    0 -0.16178299384E+04 -0.63733389440E+03  0.62612923225E+04  0.65000000000E+04  0.15050000000E+03 0.  1.
     100001    1    1    2    0    0  0.16178299384E+04  0.63733389440E+03 -0.62612923225E+04  0.65000000000E+04  0.15050000000E+03 0. -1.
</event>
<event>
 4    1  0.4826743E-004  0.6500000E+04  0.7818608E-02  0.7223770E-01
         52   -1    0    0    0    0  0.00000000000E+00  0.00000000000E+00  0.64930732323E+04  0.65000000000E+04  0.30000000000E+03 0.  1.
        -52   -1    0    0    0    0 -0.00000000000E+00 -0.00000000000E+00 -0.64930732323E+04  0.65000000000E+04  0.30000000000E+03 0. -1.
     100001    1    1    2    0    0 -0.41048958218E+04  0.48850341182E+04  0.12302933417E+04  0.65000000000E+04  0.15050000000E+03 0. -1.
     100001    1    1    2    0    0  0.41048958218E+04 -0.48850341182E+04 -0.12302933417E+04  0.65000000000E+04  0.15050000000E+03 0.  1.
</event>
<event>
 4    1  0.4826743E-004  0.6500000E+04  0.7818608E-02  0.7223770E-01
         52   -1    0    0    0    0  0.00000000000E+00  0.00000000000E+00  0.64930732323E+04  0.65000000000E+04  0.30000000000E+03 0.  1.
        -52   -1    0    0    0    0 -0.00000000000E+00 -0.00000000000E+00 -0.64930732323E+04  0.65000000000E+04  0.30000000000E+03 0. -1.
     100001    1    1    2    0    0  0.26521499377E+04 -0.15205476221E+04 -0.57342292758E+04  0.65000000000E+04  0.15050000000E+03 0. -1.
     100001    1    1    2    0    0 -0.26521499377E+04  0.15205476221E+04  0.57342292758E+04  0.65000000000E+04  0.15050000000E+03 0.  1.
</event>
<event>
 4    1  0.4826743E-004  0.6500000E+04  0.7818608E-02  0.7223770E-01
         52   -1    0    0    0    0  0.00000000000E+00  0.00000000000E+00  0.64930732323E+04  0.65000000000E+04  0.30000000000E+03 0.  1.
        -52   -1    0    0    0    0 -0.00000000000E+00 -0.00000000000E+00 -0.64930732323E+04  0.65000000000E+04  0.30000000000E+03 0. -1.
     100001    1    1    2    0    0 -0.46923755398E+04 -0.20481007234E+04 -0.40017802251E+04  0.65000000000E+04  0.15050000000E+03 0. -1.
     100001    1    1    2    0    0  0.46923755398E+04  0.20481007234E+04  0.40017802251E+04  0.65000000000E+04  0.15050000000E+03 0.  1.
</event>
<event>
 4    1  0.4826743E-004  0.6500000E+04  0.7818608E-02  0.7223770E-01
         52   -1    0    0    0    0  0.00000000000E+00  0.00000000000E+00  0.64930732323E+04  0.65000000000E+04  0.30000000000E+03 0.  1.
        -52   -1    0    0    0    0 -0.00000000000E+00 -0.00000000000E+00 -0.64930732323E+04  0.65000000000E+04  0.30000000000E+03 0. -1.
     100001    1    1    2    0    0 -0.28087963646E+04 -0.58225101515E+04  0.66059690270E+03  0.65000000000E+04  0.15050000000E+03 0. -1.
     100001    1    1    2    0    0  0.28087963646E+04  0.58225101515E+04 -0.66059690270E+03  0.65000000000E+04  0.15050000000E+03 0.  1.
</event>
<event>
 4    1  0.4826743E-004  0.6500000E+04  0.7818608E-02  0.7223770E-01
         52   -1    0    0    0    0  0.00000000000E+00  0.00000000000E+00  0.64930732323E+04  0.65000000000E+04  0.30000000000E+03 0. -1.
        -52   -1    0    0    0    0 -0.00000000000E+00 -0.00000000000E+00 -0.64930732323E+04  0.65000000000E+04  0.30000000000E+03 0.  1.
     100001    1    1    2    0    0 -0.23471579001E+04 -0.22459460500E+04 -0.56279593000E+04  0.65000000000E+04  0.15050000000E+03 0.  1.
     100001    1    1    2    0    0  0.23471579001E+04  0.22459460500E+04  0.56279593000E+04  0.65000000000E+04  0.15050000000E+03 0. -1.
</event>
<event>
 4    1  0.4826743E-004  0.6500000E+04  0.7818608E-02  0.7223770E-01
         52   -1    0    0    0    0  0.00000000000E+00  0.00000000000E+00  0.64930732323E+04  0.65000000000E+04  0.30000000000E+03 0. -1.
        -52   -1    0    0    0    0 -0.00000000000E+00 -0.00000000000E+00 -0.64930732323E+04  0.65000000000E+04  0.30000000000E+03 0.  1.
     100001    1    1    2    0    0  0.27433131670E+04 -0.19844020092E+03  0.58874616011E+04  0.65000000000E+04  0.15050000000E+03 0. -1.
     100001    1    1    2    0    0 -0.27433131670E+04  0.19844020092E+03 -0.58874616011E+04  0.65000000000E+04  0.15050000000E+03 0.  1.
</event>
<event>
 4    1  0.4826743E-004  0.6500000E+04  0.7818608E-02  0.7223770E-01
         52   -1    0    0    0    0  0.00000000000E+00  0.00000000000E+00  0.64930732323E+04  0.65000000000E+04  0.30000000000E+03 0. -1.
        -52   -1    0    0    0    0 -0.00000000000E+00 -0.00000000000E+00 -0.64930732323E+04  0.65000000000E+04  0.30000000000E+03 0.  1.
     100001    1    1    2    0    0  0.62753905861E+04  0.15199111232E+04  0.73259328363E+03  0.65000000000E+04  0.15050000000E+03 0.  1.
     100001    1    1    2    0    0 -0.62753905861E+04 -0.15199111232E+04 -0.73259328363E+03  0.65000000000E+04  0.15050000000E+03 0. -1.
</event>
<event>
 4    1  0.4826743E-004  0.6500000E+04  0.7818608E-02  0.7223770E-01
         52   -1    0    0    0    0  0.00000000000E+00  0.00000000000E+00  0.64930732323E+04  0.65000000000E+04  0.30000000000E+03 0. -1.
        -52   -1    0    0    0    0 -0.00000000000E+00 -0.00000000000E+00 -0.64930732323E+04  0.65000000000E+04  0.30000000000E+03 0.  1.
     100001    1    1    2    0    0  0.25548804566E+03 -0.54189403020E+03  0.64705816175E+04  0.65000000000E+04  0.15050000000E+03 0. -1.
     100001    1    1    2    0    0 -0.25548804566E+03  0.54189403020E+03 -0.64705816175E+04  0.65000000000E+04  0.15050000000E+03 0.  1.
</event>
<event>
 4    1  0.4826743E-004  0.6500000E+04  0.7818608E-02  0.7223770E-01
         52   -1    0    0    0    0  0.00000000000E+00  0.00000000000E+00  0.64930732323E+04  0.65000000000E+04  0.30000000000E+03 0. -1.
        -52   -1    0    0    0    0 -0.00000000000E+00 -0.00000000000E+00 -0.64930732323E+04  0.65000000000E+04  0.30000000000E+03 0.  1.
     100001    1    1    2    0    0  0.10636245844E+03  0.16472192019E+03 -0.64952985664E+04  0.65000000000E+04  0.15050000000E+03 0.  1.
     100001    1    1    2    0    0 -0.10636245844E+03 -0.16472192019E+03  0.64952985664E+04  0.65000000000E+04  0.15050000000E+03 0. -1.
</event>
<event>
 4    1  0.4826743E-004  0.6500000E+04  0.7818608E-02  0.7223770E-01
         52   -1    0    0    0    0  0.00000000000E+00  0.00000000000E+00  0.64930732323E+04  0.65000000000E+04  0.30000000000E+03 0.  1.
        -52   -1    0    0    0    0 -0.00000000000E+00 -0.00000000000E+00 -0.64930732323E+04  0.65000000000E+04  0.30000000000E+03 0. -1.
     100001    1    1    2    0    0 -0.14773011625E+04  0.28130816541E+04  0.56684656330E+04  0.65000000000E+04  0.15050000000E+03 0.  1.
     100001    1    1    2    0    0  0.14773011625E+04 -0.28130816541E+04 -0.56684656330E+04  0.65000000000E+04  0.15050000000E+03 0. -1.
</event>
<event>
 4    1  0.4826743E-004  0.6500000E+04  0.7818608E-02  0.7223770E-01
         52   -1    0    0    0    0  0.00000000000E+00  0.00000000000E+00  0.64930732323E+04  0.65000000000E+04  0.30000000000E+03 0.  1.
        -52   -1    0    0    0    0 -0.00000000000E+00 -0.00000000000E+00 -0.64930732323E+04  0.65000000000E+04  0.30000000000E+03 0. -1.
     100001    1    1    2    0    0 -0.56653316810E+03 -0.39361567850E+03 -0.64615367071E+04  0.65000000000E+04  0.15050000000E+03 0. -1.
     100001    1    1    2    0    0  0.56653316810E+03  0.39361567850E+03  0.64615367071E+04  0.65000000000E+04  0.15050000000E+03 0.  1.
</event>
<event>
 4    1  0.4826743E-004  0.6500000E+04  0.7818608E-02  0.7223770E-01
         52   -1    0    0    0    0  0.00000000000E+00  0.00000000000E+00  0.64930732323E+04  0.65000000000E+04  0.30000000000E+03 0. -1.
        -52   -1    0    0    0    0 -0.00000000000E+00 -0.00000000000E+00 -0.64930732323E+04  0.65000000000E+04  0.30000000000E+03 0.  1.
     100001    1    1    2    0    0  0.53166498598E+04  0.76440002777E+03  0.36573592407E+04  0.65000000000E+04  0.15050000000E+03 0. -1.
     100001    1    1    2    0    0 -0.53166498598E+04 -0.76440002777E+03 -0.36573592407E+04  0.65000000000E+04  0.15050000000E+03 0.  1.
</event>
<event>
 4    1  0.4826743E-004  0.6500000E+04  0.7818608E-02  0.7223770E-01
         52   -1    0    0    0    0  0.00000000000E+00  0.00000000000E+00  0.64930732323E+04  0.65000000000E+04  0.30000000000E+03 0.  1.
        -52   -1    0    0    0    0 -0.00000000000E+00 -0.00000000000E+00 -0.64930732323E+04  0.65000000000E+04  0.30000000000E+03 0. -1.
     100001    1    1    2    0    0  0.68844434506E+03  0.16168943784E+04 -0.62561207391E+04  0.65000000000E+04  0.15050000000E+03 0. -1.
     100001    1    1    2    0    0 -0.68844434506E+03 -0.16168943784E+04  0.62561207391E+04  0.65000000000E+04  0.15050000000E+03 0.  1.
</event>
<event>
 4    1  0.4826743E-004  0.6500000E+04  0.7818608E-02  0.7223770E-01
         52   -1    0    0    0    0  0.00000000000E+00  0.00000000000E+00  0.64930732323E+04  0.65000000000E+04  0.30000000000E+03 0.  1.
        -52   -1    0    0    0    0 -0.00000000000E+00 -0.00000000000E+00 -0.64930732323E+04  0.65000000000E+04  0.30000000000E+03 0. -1.
     100001    1    1    2    0    0  0.10246453116E+03  0.62574131006E+03  0.64672481461E+04  0.65000000000E+04  0.15050000000E+03 0.  1.
     100001    1    1    2    0    0 -0.10246453116E+03 -0.62574131006E+03 -0.64672481461E+04  0.65000000000E+04  0.15050000000E+03 0. -1.
</event>
<event>
 4    1  0.4826743E-004  0.6500000E+04  0.7818608E-02  0.7223770E-01
         52   -1    0    0    0    0  0.00000000000E+00  0.00000000000E+00  0.64930732323E+04  0.65000000000E+04  0.30000000000E+03 0. -1.
        -52   -1    0    0    0    0 -0.00000000000E+00 -0.00000000000E+00 -0.64930732323E+04  0.65000000000E+04  0.30000000000E+03 0. -1.
     100001    1    1    2    0    0  0.31464916846E+03 -0.10044067289E+03  0.64898580356E+04  0.65000000000E+04  0.15050000000E+03 0. -1.
     100001    1    1    2    0    0 -0.31464916846E+03  0.10044067289E+03 -0.64898580356E+04  0.65000000000E+04  0.15050000000E+03 0. -1.
</event>
<event>
 4    1  0.4826743E-004  0.6500000E+04  0.7818608E-02  0.7223770E-01
         52   -1    0    0    0    0  0.00000000000E+00  0.00000000000E+00  0.64930732323E+04  0.65000000000E+04  0.30000000000E+03 0. -1.
        -52   -1    0    0    0    0 -0.00000000000E+00 -0.00000000000E+00 -0.64930732323E+04  0.65000000000E+04  0.30000000000E+03 0.  1.
     100001    1    1    2    0    0 -0.58276896840E+03 -0.32448356005E+03  0.64639338254E+04  0.65000000000E+04  0.15050000000E+03 0. -1.
     100001    1    1    2    0    0  0.58276896840E+03  0.32448356005E+03 -0.64639338254E+04  0.65000000000E+04  0.15050000000E+03 0.  1.
</event>
<event>
 4    1  0.4826743E-004  0.6500000E+04  0.7818608E-02  0.7223770E-01
         52   -1    0    0    0    0  0.00000000000E+00  0.00000000000E+00  0.64930732323E+04  0.65000000000E+04  0.30000000000E+03 0.  1.
        -52   -1    0    0    0    0 -0.00000000000E+00 -0.00000000000E+00 -0.64930732323E+04  0.65000000000E+04  0.30000000000E+03 0. -1.
     100001    1    1    2    0    0 -0.45461783820E+04 -0.85801975399E+03  0.45632679047E+04  0.65000000000E+04  0.15050000000E+03 0.  1.
     100001    1    1    2    0    0  0.45461783820E+04  0.85801975399E+03 -0.45632679047E+04  0.65000000000E+04  0.15050000000E+03 0. -1.
</event>
<event>
 4    1  0.4826743E-004  0.6500000E+04  0.7818608E-02  0.7223770E-01
         52   -1    0    0    0    0  0.00000000000E+00  0.00000000000E+00  0.64930732323E+04  0.65000000000E+04  0.30000000000E+03 0.  1.
        -52   -1    0    0    0    0 -0.00000000000E+00 -0.00000000000E+00 -0.64930732323E+04  0.65000000000E+04  0.30000000000E+03 0. -1.
     100001    1    1    2    0    0  0.10334443691E+04 -0.68376718322E+02  0.64151903409E+04  0.65000000000E+04  0.15050000000E+03 0.  1.
     100001    1    1    2    0    0 -0.10334443691E+04  0.68376718322E+02 -0.64151903409E+04  0.65000000000E+04  0.15050000000E+03 0. -1.
</event>
<event>
 4    1  0.4826743E-004  0.6500000E+04  0.7818608E-02  0.7223770E-01
         52   -1    0    0    0    0  0.00000000000E+00  0.00000000000E+00  0.64930732323E+04  0.65000000000E+04  0.30000000000E+03 0.  1.
        -52   -1    0    0    0    0 -0.00000000000E+00 -0.00000000000E+00 -0.64930732323E+04  0.65000000000E+04  0.30000000000E+03 0. -1.
     100001    1    1    2    0    0  0.20331192864E+04  0.41250179553E+03  0.61582154871E+04  0.65000000000E+04  0.15050000000E+03 0.  1.
     100001    1    1    2    0    0 -0.20331192864E+04 -0.41250179553E+03 -0.61582154871E+04  0.65000000000E+04  0.15050000000E+03 0. -1.
</event>
<event>
 4    1  0.4826743E-004  0.6500000E+04  0.7818608E-02  0.7223770E-01
         52   -1    0    0    0    0  0.00000000000E+00  0.00000000000E+00  0.64930732323E+04  0.65000000000E+04  0.30000000000E+03 0.  1.
        -52   -1    0    0    0    0 -0.00000000000E+00 -0.00000000000E+00 -0.64930732323E+04  0.65000000000E+04  0.30000000000E+03 0. -1.
     100001    1    1    2    0    0  0.11907922370E+04 -0.19679643378E+03  0.63851887021E+04  0.65000000000E+04  0.15050000000E+03 0.  1.
     100001    1    1    2    0    0 -0.11907922370E+04  0.19679643378E+03 -0.63851887021E+04  0.65000000000E+04  0.15050000000E+03 0. -1.
</event>
<event>
 4    1  0.4826743E-004  0.6500000E+04  0.7818608E-02  0.7223770E-01
         52   -1    0    0    0    0  0.00000000000E+00  0.00000000000E+00  0.64930732323E+04  0.65000000000E+04  0.30000000000E+03 0. -1.
        -52   -1    0    0    0    0 -0.00000000000E+00 -0.00000000000E+00 -0.64930732323E+04  0.65000000000E+04  0.30000000000E+03 0.  1.
     100001    1    1    2    0    0 -0.88603520033E+02  0.19154075055E+03  0.64948295826E+04  0.65000000000E+04  0.15050000000E+03 0. -1.
     100001    1    1    2    0    0  0.88603520033E+02 -0.19154075055E+03 -0.64948295826E+04  0.65000000000E+04  0.15050000000E+03 0.  1.
</event>
<event>
 4    1  0.4826743E-004  0.6500000E+04  0.7818608E-02  0.7223770E-01
         52   -1    0    0    0    0  0.00000000000E+00  0.00000000000E+00  0.64930732323E+04  0.65000000000E+04  0.30000000000E+03 0.  1.
        -52   -1    0    0    0    0 -0.00000000000E+00 -0.00000000000E+00 -0.64930732323E+04  0.65000000000E+04  0.30000000000E+03 0. -1.
     100001    1    1    2    0    0  0.97978666898E+03 -0.62163684953E+04 -0.16199168386E+04  0.65000000000E+04  0.15050000000E+03 0. -1.
     100001    1    1    2    0    0 -0.97978666898E+03  0.62163684953E+04  0.16199168386E+04  0.65000000000E+04  0.15050000000E+03 0.  1.
</event>
<event>
 4    1  0.4826743E-004  0.6500000E+04  0.7818608E-02  0.7223770E-01
         52   -1    0    0    0    0  0.00000000000E+00  0.00000000000E+00  0.64930732323E+04  0.65000000000E+04  0.30000000000E+03 0.  1.
        -52   -1    0    0    0    0 -0.00000000000E+00 -0.00000000000E+00 -0.64930732323E+04  0.65000000000E+04  0.30000000000E+03 0. -1.
     100001    1    1    2    0    0  0.16243895474E+04 -0.36007840177E+03 -0.62816440438E+04  0.65000000000E+04  0.15050000000E+03 0. -1.
     100001    1    1    2    0    0 -0.16243895474E+04  0.36007840177E+03  0.62816440438E+04  0.65000000000E+04  0.15050000000E+03 0.  1.
</event>
<event>
 4    1  0.4826743E-004  0.6500000E+04  0.7818608E-02  0.7223770E-01
         52   -1    0    0    0    0  0.00000000000E+00  0.00000000000E+00  0.64930732323E+04  0.65000000000E+04  0.30000000000E+03 0. -1.
        -52   -1    0    0    0    0 -0.00000000000E+00 -0.00000000000E+00 -0.64930732323E+04  0.65000000000E+04  0.30000000000E+03 0.  1.
     100001    1    1    2    0    0 -0.37636416835E+04  0.24314230387E+04  0.47064352790E+04  0.65000000000E+04  0.15050000000E+03 0.  1.
     100001    1    1    2    0    0  0.37636416835E+04 -0.24314230387E+04 -0.47064352790E+04  0.65000000000E+04  0.15050000000E+03 0. -1.
</event>
<event>
 4    1  0.4826743E-004  0.6500000E+04  0.7818608E-02  0.7223770E-01
         52   -1    0    0    0    0  0.00000000000E+00  0.00000000000E+00  0.64930732323E+04  0.65000000000E+04  0.30000000000E+03 0.  1.
        -52   -1    0    0    0    0 -0.00000000000E+00 -0.00000000000E+00 -0.64930732323E+04  0.65000000000E+04  0.30000000000E+03 0. -1.
     100001    1    1    2    0    0 -0.39422914996E+04  0.27358379423E+04  0.43818806734E+04  0.65000000000E+04  0.15050000000E+03 0.  1.
     100001    1    1    2    0    0  0.39422914996E+04 -0.27358379423E+04 -0.43818806734E+04  0.65000000000E+04  0.15050000000E+03 0. -1.
</event>
<event>
 4    1  0.4826743E-004  0.6500000E+04  0.7818608E-02  0.7223770E-01
         52   -1    0    0    0    0  0.00000000000E+00  0.00000000000E+00  0.64930732323E+04  0.65000000000E+04  0.30000000000E+03 0.  1.
        -52   -1    0    0    0    0 -0.00000000000E+00 -0.00000000000E+00 -0.64930732323E+04  0.65000000000E+04  0.30000000000E+03 0. -1.
     100001    1    1    2    0    0  0.18335424964E+04  0.47584999867E+03  0.62160307627E+04  0.65000000000E+04  0.15050000000E+03 0.  1.
     100001    1    1    2    0    0 -0.18335424964E+04 -0.47584999867E+03 -0.62160307627E+04  0.65000000000E+04  0.15050000000E+03 0. -1.
</event>
<event>
 4    1  0.4826743E-004  0.6500000E+04  0.7818608E-02  0.7223770E-01
         52   -1    0    0    0    0  0.00000000000E+00  0.00000000000E+00  0.64930732323E+04  0.65000000000E+04  0.30000000000E+03 0. -1.
        -52   -1    0    0    0    0 -0.00000000000E+00 -0.00000000000E+00 -0.64930732323E+04  0.65000000000E+04  0.30000000000E+03 0.  1.
     100001    1    1    2    0    0 -0.47349583997E+03 -0.10549652568E+03  0.64801251471E+04  0.65000000000E+04  0.15050000000E+03 0. -1.
     100001    1    1    2    0    0  0.47349583997E+03  0.10549652568E+03 -0.64801251471E+04  0.65000000000E+04  0.15050000000E+03 0.  1.
</event>
<event>
 4    1  0.4826743E-004  0.6500000E+04  0.7818608E-02  0.7223770E-01
         52   -1    0    0    0    0  0.00000000000E+00  0.00000000000E+00  0.64930732323E+04  0.65000000000E+04  0.30000000000E+03 0.  1.
        -52   -1    0    0    0    0 -0.00000000000E+00 -0.00000000000E+00 -0.64930732323E+04  0.65000000000E+04  0.30000000000E+03 0. -1.
     100001    1    1    2    0    0  0.62928526042E+04 -0.14404837334E+04  0.74321091595E+03  0.65000000000E+04  0.15050000000E+03 0.  1.
     100001    1    1    2    0    0 -0.62928526042E+04  0.14404837334E+04 -0.74321091595E+03  0.65000000000E+04  0.15050000000E+03 0. -1.
</event>
<event>
 4    1  0.4826743E-004  0.6500000E+04  0.7818608E-02  0.7223770E-01
         52   -1    0    0    0    0  0.00000000000E+00  0.00000000000E+00  0.64930732323E+04  0.65000000000E+04  0.30000000000E+03 0.  1.
        -52   -1    0    0    0    0 -0.00000000000E+00 -0.00000000000E+00 -0.64930732323E+04  0.65000000000E+04  0.30000000000E+03 0. -1.
     100001    1    1    2    0    0  0.30311210605E+03  0.10219657520E+04  0.64102307917E+04  0.65000000000E+04  0.15050000000E+03 0.  1.
     100001    1    1    2    0    0 -0.30311210605E+03 -0.10219657520E+04 -0.64102307917E+04  0.65000000000E+04  0.15050000000E+03 0. -1.
</event>
<event>
 4    1  0.4826743E-004  0.6500000E+04  0.7818608E-02  0.7223770E-01
         52   -1    0    0    0    0  0.00000000000E+00  0.00000000000E+00  0.64930732323E+04  0.65000000000E+04  0.30000000000E+03 0.  1.
        -52   -1    0    0    0    0 -0.00000000000E+00 -0.00000000000E+00 -0.64930732323E+04  0.65000000000E+04  0.30000000000E+03 0. -1.
     100001    1    1    2    0    0  0.13954828158E+04  0.32443376050E+04  0.54547457288E+04  0.65000000000E+04  0.15050000000E+03 0.  1.
     100001    1    1    2    0    0 -0.13954828158E+04 -0.32443376050E+04 -0.54547457288E+04  0.65000000000E+04  0.15050000000E+03 0. -1.
</event>
<event>
 4    1  0.4826743E-004  0.6500000E+04  0.7818608E-02  0.7223770E-01
         52   -1    0    0    0    0  0.00000000000E+00  0.00000000000E+00  0.64930732323E+04  0.65000000000E+04  0.30000000000E+03 0.  1.
        -52   -1    0    0    0    0 -0.00000000000E+00 -0.00000000000E+00 -0.64930732323E+04  0.65000000000E+04  0.30000000000E+03 0. -1.
     100001    1    1    2    0    0  0.65880990796E+03  0.27128791385E+03 -0.64590805942E+04  0.65000000000E+04  0.15050000000E+03 0. -1.
     100001    1    1    2    0    0 -0.65880990796E+03 -0.27128791385E+03  0.64590805942E+04  0.65000000000E+04  0.15050000000E+03 0.  1.
</event>
<event>
 4    1  0.4826743E-004  0.6500000E+04  0.7818608E-02  0.7223770E-01
         52   -1    0    0    0    0  0.00000000000E+00  0.00000000000E+00  0.64930732323E+04  0.65000000000E+04  0.30000000000E+03 0.  1.
        -52   -1    0    0    0    0 -0.00000000000E+00 -0.00000000000E+00 -0.64930732323E+04  0.65000000000E+04  0.30000000000E+03 0. -1.
     100001    1    1    2    0    0  0.18032503656E+03 -0.31941843922E+03 -0.64878967695E+04  0.65000000000E+04  0.15050000000E+03 0. -1.
     100001    1    1    2    0    0 -0.18032503656E+03  0.31941843922E+03  0.64878967695E+04  0.65000000000E+04  0.15050000000E+03 0.  1.
</event>
<event>
 4    1  0.4826743E-004  0.6500000E+04  0.7818608E-02  0.7223770E-01
         52   -1    0    0    0    0  0.00000000000E+00  0.00000000000E+00  0.64930732323E+04  0.65000000000E+04  0.30000000000E+03 0. -1.
        -52   -1    0    0    0    0 -0.00000000000E+00 -0.00000000000E+00 -0.64930732323E+04  0.65000000000E+04  0.30000000000E+03 0.  1.
     100001    1    1    2    0    0  0.31346766431E+03  0.10716453729E+03  0.64898076655E+04  0.65000000000E+04  0.15050000000E+03 0. -1.
     100001    1    1    2    0    0 -0.31346766431E+03 -0.10716453729E+03 -0.64898076655E+04  0.65000000000E+04  0.15050000000E+03 0.  1.
</event>
<event>
 4    1  0.5854162E-004  0.6500000E+04  0.7818608E-02  0.7223770E-01
         52   -1    0    0    0    0  0.00000000000E+00  0.00000000000E+00  0.64930732323E+04  0.65000000000E+04  0.30000000000E+03 0. -1.
        -52   -1    0    0    0    0 -0.00000000000E+00 -0.00000000000E+00 -0.64930732323E+04  0.65000000000E+04  0.30000000000E+03 0.  1.
     100001    1    1    2    0    0  0.19466928546E+03 -0.46109158491E+02 -0.64951772543E+04  0.65000000000E+04  0.15050000000E+03 0.  1.
     100001    1    1    2    0    0 -0.19466928546E+03  0.46109158491E+02  0.64951772543E+04  0.65000000000E+04  0.15050000000E+03 0. -1.
</event>
<event>
 4    1  0.4826743E-004  0.6500000E+04  0.7818608E-02  0.7223770E-01
         52   -1    0    0    0    0  0.00000000000E+00  0.00000000000E+00  0.64930732323E+04  0.65000000000E+04  0.30000000000E+03 0. -1.
        -52   -1    0    0    0    0 -0.00000000000E+00 -0.00000000000E+00 -0.64930732323E+04  0.65000000000E+04  0.30000000000E+03 0.  1.
     100001    1    1    2    0    0 -0.35427789322E+04  0.54211572868E+04  0.53583659783E+03  0.65000000000E+04  0.15050000000E+03 0. -1.
     100001    1    1    2    0    0  0.35427789322E+04 -0.54211572868E+04 -0.53583659783E+03  0.65000000000E+04  0.15050000000E+03 0.  1.
</event>
<event>
 4    1  0.4826743E-004  0.6500000E+04  0.7818608E-02  0.7223770E-01
         52   -1    0    0    0    0  0.00000000000E+00  0.00000000000E+00  0.64930732323E+04  0.65000000000E+04  0.30000000000E+03 0.  1.
        -52   -1    0    0    0    0 -0.00000000000E+00 -0.00000000000E+00 -0.64930732323E+04  0.65000000000E+04  0.30000000000E+03 0. -1.
     100001    1    1    2    0    0 -0.16274691425E+03 -0.12139463939E+04 -0.63817863757E+04  0.65000000000E+04  0.15050000000E+03 0. -1.
     100001    1    1    2    0    0  0.16274691425E+03  0.12139463939E+04  0.63817863757E+04  0.65000000000E+04  0.15050000000E+03 0.  1.
</event>
<event>
 4    1  0.4826743E-004  0.6500000E+04  0.7818608E-02  0.7223770E-01
         52   -1    0    0    0    0  0.00000000000E+00  0.00000000000E+00  0.64930732323E+04  0.65000000000E+04  0.30000000000E+03 0.  1.
        -52   -1    0    0    0    0 -0.00000000000E+00 -0.00000000000E+00 -0.64930732323E+04  0.65000000000E+04  0.30000000000E+03 0.  1.
     100001    1    1    2    0    0 -0.53891733326E+03 -0.39788051727E+03 -0.64636374397E+04  0.65000000000E+04  0.15050000000E+03 0.  1.
     100001    1    1    2    0    0  0.53891733326E+03  0.39788051727E+03  0.64636374397E+04  0.65000000000E+04  0.15050000000E+03 0.  1.
</event>
<event>
 4    1  0.4826743E-004  0.6500000E+04  0.7818608E-02  0.7223770E-01
         52   -1    0    0    0    0  0.00000000000E+00  0.00000000000E+00  0.64930732323E+04  0.65000000000E+04  0.30000000000E+03 0. -1.
        -52   -1    0    0    0    0 -0.00000000000E+00 -0.00000000000E+00 -0.64930732323E+04  0.65000000000E+04  0.30000000000E+03 0.  1.
     100001    1    1    2    0    0  0.20981843581E+03 -0.59747005226E+03 -0.64673298594E+04  0.65000000000E+04  0.15050000000E+03 0.  1.
     100001    1    1    2    0    0 -0.20981843581E+03  0.59747005226E+03  0.64673298594E+04  0.65000000000E+04  0.15050000000E+03 0. -1.
</event>
<event>
 4    1  0.4826743E-004  0.6500000E+04  0.7818608E-02  0.7223770E-01
         52   -1    0    0    0    0  0.00000000000E+00  0.00000000000E+00  0.64930732323E+04  0.65000000000E+04  0.30000000000E+03 0.  1.
        -52   -1    0    0    0    0 -0.00000000000E+00 -0.00000000000E+00 -0.64930732323E+04  0.65000000000E+04  0.30000000000E+03 0. -1.
     100001    1    1    2    0    0  0.48944477709E+03  0.58816870400E+03 -0.64530497546E+04  0.65000000000E+04  0.15050000000E+03 0. -1.
     100001    1    1    2    0    0 -0.48944477709E+03 -0.58816870400E+03  0.64530497546E+04  0.65000000000E+04  0.15050000000E+03 0.  1.
</event>
<event>
 4    1  0.4826743E-004  0.6500000E+04  0.7818608E-02  0.7223770E-01
         52   -1    0    0    0    0  0.00000000000E+00  0.00000000000E+00  0.64930732323E+04  0.65000000000E+04  0.30000000000E+03 0. -1.
        -52   -1    0    0    0    0 -0.00000000000E+00 -0.00000000000E+00 -0.64930732323E+04  0.65000000000E+04  0.30000000000E+03 0.  1.
     100001    1    1    2    0    0  0.54850614845E+03 -0.94268586434E+01 -0.64750599912E+04  0.65000000000E+04  0.15050000000E+03 0.  1.
     100001    1    1    2    0    0 -0.54850614845E+03  0.94268586434E+01  0.64750599912E+04  0.65000000000E+04  0.15050000000E+03 0. -1.
</event>
<event>
 4    1  0.4826743E-004  0.6500000E+04  0.7818608E-02  0.7223770E-01
         52   -1    0    0    0    0  0.00000000000E+00  0.00000000000E+00  0.64930732323E+04  0.65000000000E+04  0.30000000000E+03 0. -1.
        -52   -1    0    0    0    0 -0.00000000000E+00 -0.00000000000E+00 -0.64930732323E+04  0.65000000000E+04  0.30000000000E+03 0.  1.
     100001    1    1    2    0    0  0.29855163273E+04  0.24868880649E+03 -0.57664717017E+04  0.65000000000E+04  0.15050000000E+03 0.  1.
     100001    1    1    2    0    0 -0.29855163273E+04 -0.24868880649E+03  0.57664717017E+04  0.65000000000E+04  0.15050000000E+03 0. -1.
</event>
<event>
 4    1  0.4826743E-004  0.6500000E+04  0.7818608E-02  0.7223770E-01
         52   -1    0    0    0    0  0.00000000000E+00  0.00000000000E+00  0.64930732323E+04  0.65000000000E+04  0.30000000000E+03 0.  1.
        -52   -1    0    0    0    0 -0.00000000000E+00 -0.00000000000E+00 -0.64930732323E+04  0.65000000000E+04  0.30000000000E+03 0. -1.
     100001    1    1    2    0    0  0.13273326478E+04  0.36981863376E+03  0.63504938367E+04  0.65000000000E+04  0.15050000000E+03 0.  1.
     100001    1    1    2    0    0 -0.13273326478E+04 -0.36981863376E+03 -0.63504938367E+04  0.65000000000E+04  0.15050000000E+03 0. -1.
</event>
<event>
 4    1  0.4826743E-004  0.6500000E+04  0.7818608E-02  0.7223770E-01
         52   -1    0    0    0    0  0.00000000000E+00  0.00000000000E+00  0.64930732323E+04  0.65000000000E+04  0.30000000000E+03 0. -1.
        -52   -1    0    0    0    0 -0.00000000000E+00 -0.00000000000E+00 -0.64930732323E+04  0.65000000000E+04  0.30000000000E+03 0.  1.
     100001    1    1    2    0    0 -0.28157315473E+03 -0.42866383937E+03 -0.64779868494E+04  0.65000000000E+04  0.15050000000E+03 0.  1.
     100001    1    1    2    0    0  0.28157315473E+03  0.42866383937E+03  0.64779868494E+04  0.65000000000E+04  0.15050000000E+03 0. -1.
</event>
<event>
 4    1  0.4826743E-004  0.6500000E+04  0.7818608E-02  0.7223770E-01
         52   -1    0    0    0    0  0.00000000000E+00  0.00000000000E+00  0.64930732323E+04  0.65000000000E+04  0.30000000000E+03 0.  1.
        -52   -1    0    0    0    0 -0.00000000000E+00 -0.00000000000E+00 -0.64930732323E+04  0.65000000000E+04  0.30000000000E+03 0.  1.
     100001    1    1    2    0    0  0.42550602380E+02  0.24926971297E+03 -0.64933353376E+04  0.65000000000E+04  0.15050000000E+03 0.  1.
     100001    1    1    2    0    0 -0.42550602380E+02 -0.24926971297E+03  0.64933353376E+04  0.65000000000E+04  0.15050000000E+03 0.  1.
</event>
<event>
 4    1  0.4826743E-004  0.6500000E+04  0.7818608E-02  0.7223770E-01
         52   -1    0    0    0    0  0.00000000000E+00  0.00000000000E+00  0.64930732323E+04  0.65000000000E+04  0.30000000000E+03 0. -1.
        -52   -1    0    0    0    0 -0.00000000000E+00 -0.00000000000E+00 -0.64930732323E+04  0.65000000000E+04  0.30000000000E+03 0. -1.
     100001    1    1    2    0    0 -0.86689061551E+02 -0.21009576902E+03  0.64942816789E+04  0.65000000000E+04  0.15050000000E+03 0. -1.
     100001    1    1    2    0    0  0.86689061551E+02  0.21009576902E+03 -0.64942816789E+04  0.65000000000E+04  0.15050000000E+03 0. -1.
</event>
<event>
 4    1  0.4826743E-004  0.6500000E+04  0.7818608E-02  0.7223770E-01
         52   -1    0    0    0    0  0.00000000000E+00  0.00000000000E+00  0.64930732323E+04  0.65000000000E+04  0.30000000000E+03 0.  1.
        -52   -1    0    0    0    0 -0.00000000000E+00 -0.00000000000E+00 -0.64930732323E+04  0.65000000000E+04  0.30000000000E+03 0. -1.
     100001    1    1    2    0    0 -0.18974958288E+04  0.36199524866E+03 -0.62044998807E+04  0.65000000000E+04  0.15050000000E+03 0. -1.
     100001    1    1    2    0    0  0.18974958288E+04 -0.36199524866E+03  0.62044998807E+04  0.65000000000E+04  0.15050000000E+03 0.  1.
</event>
<event>
 4    1  0.4826743E-004  0.6500000E+04  0.7818608E-02  0.7223770E-01
         52   -1    0    0    0    0  0.00000000000E+00  0.00000000000E+00  0.64930732323E+04  0.65000000000E+04  0.30000000000E+03 0.  1.
        -52   -1    0    0    0    0 -0.00000000000E+00 -0.00000000000E+00 -0.64930732323E+04  0.65000000000E+04  0.30000000000E+03 0. -1.
     100001    1    1    2    0    0 -0.10200070688E+04 -0.41956068157E+03 -0.64039756530E+04  0.65000000000E+04  0.15050000000E+03 0. -1.
     100001    1    1    2    0    0  0.10200070688E+04  0.41956068157E+03  0.64039756530E+04  0.65000000000E+04  0.15050000000E+03 0.  1.
</event>
<event>
 4    1  0.4826743E-004  0.6500000E+04  0.7818608E-02  0.7223770E-01
         52   -1    0    0    0    0  0.00000000000E+00  0.00000000000E+00  0.64930732323E+04  0.65000000000E+04  0.30000000000E+03 0.  1.
        -52   -1    0    0    0    0 -0.00000000000E+00 -0.00000000000E+00 -0.64930732323E+04  0.65000000000E+04  0.30000000000E+03 0. -1.
     100001    1    1    2    0    0  0.10192923569E+04  0.62681156016E+04  0.13780855001E+04  0.65000000000E+04  0.15050000000E+03 0. -1.
     100001    1    1    2    0    0 -0.10192923569E+04 -0.62681156016E+04 -0.13780855001E+04  0.65000000000E+04  0.15050000000E+03 0.  1.
</event>
<event>
 4    1  0.4826743E-004  0.6500000E+04  0.7818608E-02  0.7223770E-01
         52   -1    0    0    0    0  0.00000000000E+00  0.00000000000E+00  0.64930732323E+04  0.65000000000E+04  0.30000000000E+03 0.  1.
        -52   -1    0    0    0    0 -0.00000000000E+00 -0.00000000000E+00 -0.64930732323E+04  0.65000000000E+04  0.30000000000E+03 0. -1.
     100001    1    1    2    0    0 -0.17556248408E+04 -0.12432180913E+04 -0.61318463733E+04  0.65000000000E+04  0.15050000000E+03 0. -1.
     100001    1    1    2    0    0  0.17556248408E+04  0.12432180913E+04  0.61318463733E+04  0.65000000000E+04  0.15050000000E+03 0.  1.
</event>
<event>
 4    1  0.4826743E-004  0.6500000E+04  0.7818608E-02  0.7223770E-01
         52   -1    0    0    0    0  0.00000000000E+00  0.00000000000E+00  0.64930732323E+04  0.65000000000E+04  0.30000000000E+03 0. -1.
        -52   -1    0    0    0    0 -0.00000000000E+00 -0.00000000000E+00 -0.64930732323E+04  0.65000000000E+04  0.30000000000E+03 0.  1.
     100001    1    1    2    0    0 -0.14217699108E+04  0.37010491272E+04  0.51486071348E+04  0.65000000000E+04  0.15050000000E+03 0. -1.
     100001    1    1    2    0    0  0.14217699108E+04 -0.37010491272E+04 -0.51486071348E+04  0.65000000000E+04  0.15050000000E+03 0.  1.
</event>
<event>
 4    1  0.4826743E-004  0.6500000E+04  0.7818608E-02  0.7223770E-01
         52   -1    0    0    0    0  0.00000000000E+00  0.00000000000E+00  0.64930732323E+04  0.65000000000E+04  0.30000000000E+03 0. -1.
        -52   -1    0    0    0    0 -0.00000000000E+00 -0.00000000000E+00 -0.64930732323E+04  0.65000000000E+04  0.30000000000E+03 0. -1.
     100001    1    1    2    0    0 -0.20790430160E+03  0.31754636670E+03  0.64871634677E+04  0.65000000000E+04  0.15050000000E+03 0. -1.
     100001    1    1    2    0    0  0.20790430160E+03 -0.31754636670E+03 -0.64871634677E+04  0.65000000000E+04  0.15050000000E+03 0. -1.
</event>
<event>
 4    1  0.4826743E-004  0.6500000E+04  0.7818608E-02  0.7223770E-01
         52   -1    0    0    0    0  0.00000000000E+00  0.00000000000E+00  0.64930732323E+04  0.65000000000E+04  0.30000000000E+03 0. -1.
        -52   -1    0    0    0    0 -0.00000000000E+00 -0.00000000000E+00 -0.64930732323E+04  0.65000000000E+04  0.30000000000E+03 0.  1.
     100001    1    1    2    0    0 -0.65145484131E+03  0.20669638387E+03  0.64622157922E+04  0.65000000000E+04  0.15050000000E+03 0. -1.
     100001    1    1    2    0    0  0.65145484131E+03 -0.20669638387E+03 -0.64622157922E+04  0.65000000000E+04  0.15050000000E+03 0.  1.
</event>
<event>
 4    1  0.4826743E-004  0.6500000E+04  0.7818608E-02  0.7223770E-01
         52   -1    0    0    0    0  0.00000000000E+00  0.00000000000E+00  0.64930732323E+04  0.65000000000E+04  0.30000000000E+03 0. -1.
        -52   -1    0    0    0    0 -0.00000000000E+00 -0.00000000000E+00 -0.64930732323E+04  0.65000000000E+04  0.30000000000E+03 0.  1.
     100001    1    1    2    0    0  0.17996403219E+04 -0.56161500233E+03  0.62187806724E+04  0.65000000000E+04  0.15050000000E+03 0. -1.
     100001    1    1    2    0    0 -0.17996403219E+04  0.56161500233E+03 -0.62187806724E+04  0.65000000000E+04  0.15050000000E+03 0.  1.
</event>
<event>
 4    1  0.4826743E-004  0.6500000E+04  0.7818608E-02  0.7223770E-01
         52   -1    0    0    0    0  0.00000000000E+00  0.00000000000E+00  0.64930732323E+04  0.65000000000E+04  0.30000000000E+03 0. -1.
        -52   -1    0    0    0    0 -0.00000000000E+00 -0.00000000000E+00 -0.64930732323E+04  0.65000000000E+04  0.30000000000E+03 0.  1.
     100001    1    1    2    0    0  0.25821352409E+04  0.28589366806E+04  0.52332024998E+04  0.65000000000E+04  0.15050000000E+03 0. -1.
     100001    1    1    2    0    0 -0.25821352409E+04 -0.28589366806E+04 -0.52332024998E+04  0.65000000000E+04  0.15050000000E+03 0.  1.
</event>
<event>
 4    1  0.4826743E-004  0.6500000E+04  0.7818608E-02  0.7223770E-01
         52   -1    0    0    0    0  0.00000000000E+00  0.00000000000E+00  0.64930732323E+04  0.65000000000E+04  0.30000000000E+03 0.  1.
        -52   -1    0    0    0    0 -0.00000000000E+00 -0.00000000000E+00 -0.64930732323E+04  0.65000000000E+04  0.30000000000E+03 0. -1.
     100001    1    1    2    0    0  0.15318434019E+04  0.94410187003E+03  0.62441554434E+04  0.65000000000E+04  0.15050000000E+03 0.  1.
     100001    1    1    2    0    0 -0.15318434019E+04 -0.94410187003E+03 -0.62441554434E+04  0.65000000000E+04  0.15050000000E+03 0. -1.
</event>
<event>
 4    1  0.4826743E-004  0.6500000E+04  0.7818608E-02  0.7223770E-01
         52   -1    0    0    0    0  0.00000000000E+00  0.00000000000E+00  0.64930732323E+04  0.65000000000E+04  0.30000000000E+03 0. -1.
        -52   -1    0    0    0    0 -0.00000000000E+00 -0.00000000000E+00 -0.64930732323E+04  0.65000000000E+04  0.30000000000E+03 0.  1.
     100001    1    1    2    0    0 -0.28966010964E+04  0.13855632037E+03 -0.58153120281E+04  0.65000000000E+04  0.15050000000E+03 0.  1.
     100001    1    1    2    0    0  0.28966010964E+04 -0.13855632037E+03  0.58153120281E+04  0.65000000000E+04  0.15050000000E+03 0. -1.
</event>
<event>
 4    1  0.4826743E-004  0.6500000E+04  0.7818608E-02  0.7223770E-01
         52   -1    0    0    0    0  0.00000000000E+00  0.00000000000E+00  0.64930732323E+04  0.65000000000E+04  0.30000000000E+03 0. -1.
        -52   -1    0    0    0    0 -0.00000000000E+00 -0.00000000000E+00 -0.64930732323E+04  0.65000000000E+04  0.30000000000E+03 0. -1.
     100001    1    1    2    0    0  0.79531047265E+03 -0.27032053884E+03 -0.64437378755E+04  0.65000000000E+04  0.15050000000E+03 0. -1.
     100001    1    1    2    0    0 -0.79531047265E+03  0.27032053884E+03  0.64437378755E+04  0.65000000000E+04  0.15050000000E+03 0. -1.
</event>
<event>
 4    1  0.4826743E-004  0.6500000E+04  0.7818608E-02  0.7223770E-01
         52   -1    0    0    0    0  0.00000000000E+00  0.00000000000E+00  0.64930732323E+04  0.65000000000E+04  0.30000000000E+03 0. -1.
        -52   -1    0    0    0    0 -0.00000000000E+00 -0.00000000000E+00 -0.64930732323E+04  0.65000000000E+04  0.30000000000E+03 0.  1.
     100001    1    1    2    0    0 -0.18876393285E+04  0.23705114885E+04 -0.57484643861E+04  0.65000000000E+04  0.15050000000E+03 0.  1.
     100001    1    1    2    0    0  0.18876393285E+04 -0.23705114885E+04  0.57484643861E+04  0.65000000000E+04  0.15050000000E+03 0. -1.
</event>
<event>
 4    1  0.4826743E-004  0.6500000E+04  0.7818608E-02  0.7223770E-01
         52   -1    0    0    0    0  0.00000000000E+00  0.00000000000E+00  0.64930732323E+04  0.65000000000E+04  0.30000000000E+03 0.  1.
        -52   -1    0    0    0    0 -0.00000000000E+00 -0.00000000000E+00 -0.64930732323E+04  0.65000000000E+04  0.30000000000E+03 0. -1.
     100001    1    1    2    0    0 -0.29214994613E+04  0.36471198090E+04 -0.45156071293E+04  0.65000000000E+04  0.15050000000E+03 0. -1.
     100001    1    1    2    0    0  0.29214994613E+04 -0.36471198090E+04  0.45156071293E+04  0.65000000000E+04  0.15050000000E+03 0.  1.
</event>
<event>
 4    1  0.4826743E-004  0.6500000E+04  0.7818608E-02  0.7223770E-01
         52   -1    0    0    0    0  0.00000000000E+00  0.00000000000E+00  0.64930732323E+04  0.65000000000E+04  0.30000000000E+03 0. -1.
        -52   -1    0    0    0    0 -0.00000000000E+00 -0.00000000000E+00 -0.64930732323E+04  0.65000000000E+04  0.30000000000E+03 0.  1.
     100001    1    1    2    0    0  0.83710340861E+03 -0.31430162222E+03 -0.64364448357E+04  0.65000000000E+04  0.15050000000E+03 0.  1.
     100001    1    1    2    0    0 -0.83710340861E+03  0.31430162222E+03  0.64364448357E+04  0.65000000000E+04  0.15050000000E+03 0. -1.
</event>
<event>
 4    1  0.4826743E-004  0.6500000E+04  0.7818608E-02  0.7223770E-01
         52   -1    0    0    0    0  0.00000000000E+00  0.00000000000E+00  0.64930732323E+04  0.65000000000E+04  0.30000000000E+03 0.  1.
        -52   -1    0    0    0    0 -0.00000000000E+00 -0.00000000000E+00 -0.64930732323E+04  0.65000000000E+04  0.30000000000E+03 0. -1.
     100001    1    1    2    0    0  0.41748743256E+04 -0.15803951697E+04  0.47223008399E+04  0.65000000000E+04  0.15050000000E+03 0.  1.
     100001    1    1    2    0    0 -0.41748743256E+04  0.15803951697E+04 -0.47223008399E+04  0.65000000000E+04  0.15050000000E+03 0. -1.
</event>
<event>
 4    1  0.6678276E-004  0.6500000E+04  0.7818608E-02  0.7223770E-01
         52   -1    0    0    0    0  0.00000000000E+00  0.00000000000E+00  0.64930732323E+04  0.65000000000E+04  0.30000000000E+03 0.  1.
        -52   -1    0    0    0    0 -0.00000000000E+00 -0.00000000000E+00 -0.64930732323E+04  0.65000000000E+04  0.30000000000E+03 0. -1.
     100001    1    1    2    0    0 -0.80858068088E+02 -0.52340702301E+02  0.64975435492E+04  0.65000000000E+04  0.15050000000E+03 0.  1.
     100001    1    1    2    0    0  0.80858068088E+02  0.52340702301E+02 -0.64975435492E+04  0.65000000000E+04  0.15050000000E+03 0. -1.
</event>
<event>
 4    1  0.4826743E-004  0.6500000E+04  0.7818608E-02  0.7223770E-01
         52   -1    0    0    0    0  0.00000000000E+00  0.00000000000E+00  0.64930732323E+04  0.65000000000E+04  0.30000000000E+03 0. -1.
        -52   -1    0    0    0    0 -0.00000000000E+00 -0.00000000000E+00 -0.64930732323E+04  0.65000000000E+04  0.30000000000E+03 0.  1.
     100001    1    1    2    0    0  0.18695097195E+04 -0.84235204415E+03  0.61662570651E+04  0.65000000000E+04  0.15050000000E+03 0. -1.
     100001    1    1    2    0    0 -0.18695097195E+04  0.84235204415E+03 -0.61662570651E+04  0.65000000000E+04  0.15050000000E+03 0.  1.
</event>
<event>
 4    1  0.4826743E-004  0.6500000E+04  0.7818608E-02  0.7223770E-01
         52   -1    0    0    0    0  0.00000000000E+00  0.00000000000E+00  0.64930732323E+04  0.65000000000E+04  0.30000000000E+03 0.  1.
        -52   -1    0    0    0    0 -0.00000000000E+00 -0.00000000000E+00 -0.64930732323E+04  0.65000000000E+04  0.30000000000E+03 0. -1.
     100001    1    1    2    0    0 -0.19431348198E+04 -0.14664277027E+04 -0.60250449471E+04  0.65000000000E+04  0.15050000000E+03 0. -1.
     100001    1    1    2    0    0  0.19431348198E+04  0.14664277027E+04  0.60250449471E+04  0.65000000000E+04  0.15050000000E+03 0.  1.
</event>
<event>
 4    1  0.4826743E-004  0.6500000E+04  0.7818608E-02  0.7223770E-01
         52   -1    0    0    0    0  0.00000000000E+00  0.00000000000E+00  0.64930732323E+04  0.65000000000E+04  0.30000000000E+03 0.  1.
        -52   -1    0    0    0    0 -0.00000000000E+00 -0.00000000000E+00 -0.64930732323E+04  0.65000000000E+04  0.30000000000E+03 0. -1.
     100001    1    1    2    0    0  0.25986305740E+04  0.83514645289E+03  0.58972026667E+04  0.65000000000E+04  0.15050000000E+03 0.  1.
     100001    1    1    2    0    0 -0.25986305740E+04 -0.83514645289E+03 -0.58972026667E+04  0.65000000000E+04  0.15050000000E+03 0. -1.
</event>
<event>
 4    1  0.4826743E-004  0.6500000E+04  0.7818608E-02  0.7223770E-01
         52   -1    0    0    0    0  0.00000000000E+00  0.00000000000E+00  0.64930732323E+04  0.65000000000E+04  0.30000000000E+03 0. -1.
        -52   -1    0    0    0    0 -0.00000000000E+00 -0.00000000000E+00 -0.64930732323E+04  0.65000000000E+04  0.30000000000E+03 0.  1.
     100001    1    1    2    0    0  0.24402146447E+04 -0.37796812703E+04  0.46889990118E+04  0.65000000000E+04  0.15050000000E+03 0. -1.
     100001    1    1    2    0    0 -0.24402146447E+04  0.37796812703E+04 -0.46889990118E+04  0.65000000000E+04  0.15050000000E+03 0.  1.
</event>
<event>
 4    1  0.4826743E-004  0.6500000E+04  0.7818608E-02  0.7223770E-01
         52   -1    0    0    0    0  0.00000000000E+00  0.00000000000E+00  0.64930732323E+04  0.65000000000E+04  0.30000000000E+03 0.  1.
        -52   -1    0    0    0    0 -0.00000000000E+00 -0.00000000000E+00 -0.64930732323E+04  0.65000000000E+04  0.30000000000E+03 0. -1.
     100001    1    1    2    0    0 -0.68570764806E+03  0.52666453844E+03 -0.64404797364E+04  0.65000000000E+04  0.15050000000E+03 0. -1.
     100001    1    1    2    0    0  0.68570764806E+03 -0.52666453844E+03  0.64404797364E+04  0.65000000000E+04  0.15050000000E+03 0.  1.
</event>
<event>
 4    1  0.4826743E-004  0.6500000E+04  0.7818608E-02  0.7223770E-01
         52   -1    0    0    0    0  0.00000000000E+00  0.00000000000E+00  0.64930732323E+04  0.65000000000E+04  0.30000000000E+03 0.  1.
        -52   -1    0    0    0    0 -0.00000000000E+00 -0.00000000000E+00 -0.64930732323E+04  0.65000000000E+04  0.30000000000E+03 0. -1.
     100001    1    1    2    0    0  0.25860765179E+03 -0.56059551636E+03 -0.64688642357E+04  0.65000000000E+04  0.15050000000E+03 0. -1.
     100001    1    1    2    0    0 -0.25860765179E+03  0.56059551636E+03  0.64688642357E+04  0.65000000000E+04  0.15050000000E+03 0.  1.
</event>
<event>
 4    1  0.4826743E-004  0.6500000E+04  0.7818608E-02  0.7223770E-01
         52   -1    0    0    0    0  0.00000000000E+00  0.00000000000E+00  0.64930732323E+04  0.65000000000E+04  0.30000000000E+03 0.  1.
        -52   -1    0    0    0    0 -0.00000000000E+00 -0.00000000000E+00 -0.64930732323E+04  0.65000000000E+04  0.30000000000E+03 0. -1.
     100001    1    1    2    0    0  0.10058949168E+04 -0.26954145785E+03  0.64142710084E+04  0.65000000000E+04  0.15050000000E+03 0.  1.
     100001    1    1    2    0    0 -0.10058949168E+04  0.26954145785E+03 -0.64142710084E+04  0.65000000000E+04  0.15050000000E+03 0. -1.
</event>
<event>
 4    1  0.4826743E-004  0.6500000E+04  0.7818608E-02  0.7223770E-01
         52   -1    0    0    0    0  0.00000000000E+00  0.00000000000E+00  0.64930732323E+04  0.65000000000E+04  0.30000000000E+03 0. -1.
        -52   -1    0    0    0    0 -0.00000000000E+00 -0.00000000000E+00 -0.64930732323E+04  0.65000000000E+04  0.30000000000E+03 0.  1.
     100001    1    1    2    0    0  0.10214409444E+03 -0.11056563035E+04  0.64026900966E+04  0.65000000000E+04  0.15050000000E+03 0. -1.
     100001    1    1    2    0    0 -0.10214409444E+03  0.11056563035E+04 -0.64026900966E+04  0.65000000000E+04  0.15050000000E+03 0.  1.
</event>
<event>
 4    1  0.4826743E-004  0.6500000E+04  0.7818608E-02  0.7223770E-01
         52   -1    0    0    0    0  0.00000000000E+00  0.00000000000E+00  0.64930732323E+04  0.65000000000E+04  0.30000000000E+03 0.  1.
        -52   -1    0    0    0    0 -0.00000000000E+00 -0.00000000000E+00 -0.64930732323E+04  0.65000000000E+04  0.30000000000E+03 0.  1.
     100001    1    1    2    0    0  0.97463177443E+03 -0.10839811344E+04  0.63326477523E+04  0.65000000000E+04  0.15050000000E+03 0.  1.
     100001    1    1    2    0    0 -0.97463177443E+03  0.10839811344E+04 -0.63326477523E+04  0.65000000000E+04  0.15050000000E+03 0.  1.
</event>
<event>
 4    1  0.4826743E-004  0.6500000E+04  0.7818608E-02  0.7223770E-01
         52   -1    0    0    0    0  0.00000000000E+00  0.00000000000E+00  0.64930732323E+04  0.65000000000E+04  0.30000000000E+03 0. -1.
        -52   -1    0    0    0    0 -0.00000000000E+00 -0.00000000000E+00 -0.64930732323E+04  0.65000000000E+04  0.30000000000E+03 0.  1.
     100001    1    1    2    0    0  0.37755991801E+04 -0.11062136407E+04  0.51718944269E+04  0.65000000000E+04  0.15050000000E+03 0.  1.
     100001    1    1    2    0    0 -0.37755991801E+04  0.11062136407E+04 -0.51718944269E+04  0.65000000000E+04  0.15050000000E+03 0. -1.
</event>
<event>
 4    1  0.4826743E-004  0.6500000E+04  0.7818608E-02  0.7223770E-01
         52   -1    0    0    0    0  0.00000000000E+00  0.00000000000E+00  0.64930732323E+04  0.65000000000E+04  0.30000000000E+03 0.  1.
        -52   -1    0    0    0    0 -0.00000000000E+00 -0.00000000000E+00 -0.64930732323E+04  0.65000000000E+04  0.30000000000E+03 0. -1.
     100001    1    1    2    0    0 -0.59546884408E+03 -0.21961712646E+03 -0.64671891053E+04  0.65000000000E+04  0.15050000000E+03 0. -1.
     100001    1    1    2    0    0  0.59546884408E+03  0.21961712646E+03  0.64671891053E+04  0.65000000000E+04  0.15050000000E+03 0.  1.
</event>
<event>
 4    1  0.4826743E-004  0.6500000E+04  0.7818608E-02  0.7223770E-01
         52   -1    0    0    0    0  0.00000000000E+00  0.00000000000E+00  0.64930732323E+04  0.65000000000E+04  0.30000000000E+03 0. -1.
        -52   -1    0    0    0    0 -0.00000000000E+00 -0.00000000000E+00 -0.64930732323E+04  0.65000000000E+04  0.30000000000E+03 0.  1.
     100001    1    1    2    0    0  0.58231281268E+03 -0.50238204448E+03  0.64525865992E+04  0.65000000000E+04  0.15050000000E+03 0. -1.
     100001    1    1    2    0    0 -0.58231281268E+03  0.50238204448E+03 -0.64525865992E+04  0.65000000000E+04  0.15050000000E+03 0.  1.
</event>
<event>
 4    1  0.4826743E-004  0.6500000E+04  0.7818608E-02  0.7223770E-01
         52   -1    0    0    0    0  0.00000000000E+00  0.00000000000E+00  0.64930732323E+04  0.65000000000E+04  0.30000000000E+03 0. -1.
        -52   -1    0    0    0    0 -0.00000000000E+00 -0.00000000000E+00 -0.64930732323E+04  0.65000000000E+04  0.30000000000E+03 0.  1.
     100001    1    1    2    0    0  0.31563829980E+04 -0.36292696101E+04  0.43695535490E+04  0.65000000000E+04  0.15050000000E+03 0. -1.
     100001    1    1    2    0    0 -0.31563829980E+04  0.36292696101E+04 -0.43695535490E+04  0.65000000000E+04  0.15050000000E+03 0.  1.
</event>
<event>
 4    1  0.5659762E-004  0.6500000E+04  0.7818608E-02  0.7223770E-01
         52   -1    0    0    0    0  0.00000000000E+00  0.00000000000E+00  0.64930732323E+04  0.65000000000E+04  0.30000000000E+03 0.  1.
        -52   -1    0    0    0    0 -0.00000000000E+00 -0.00000000000E+00 -0.64930732323E+04  0.65000000000E+04  0.30000000000E+03 0.  1.
     100001    1    1    2    0    0  0.51425189558E+02  0.73060886265E+02  0.64976432117E+04  0.65000000000E+04  0.15050000000E+03 0.  1.
     100001    1    1    2    0    0 -0.51425189558E+02 -0.73060886265E+02 -0.64976432117E+04  0.65000000000E+04  0.15050000000E+03 0.  1.
</event>
<event>
 4    1  0.4826743E-004  0.6500000E+04  0.7818608E-02  0.7223770E-01
         52   -1    0    0    0    0  0.00000000000E+00  0.00000000000E+00  0.64930732323E+04  0.65000000000E+04  0.30000000000E+03 0. -1.
        -52   -1    0    0    0    0 -0.00000000000E+00 -0.00000000000E+00 -0.64930732323E+04  0.65000000000E+04  0.30000000000E+03 0.  1.
     100001    1    1    2    0    0  0.57186376076E+03  0.93530066537E+02 -0.64723700231E+04  0.65000000000E+04  0.15050000000E+03 0.  1.
     100001    1    1    2    0    0 -0.57186376076E+03 -0.93530066537E+02  0.64723700231E+04  0.65000000000E+04  0.15050000000E+03 0. -1.
</event>
<event>
 4    1  0.4826743E-004  0.6500000E+04  0.7818608E-02  0.7223770E-01
         52   -1    0    0    0    0  0.00000000000E+00  0.00000000000E+00  0.64930732323E+04  0.65000000000E+04  0.30000000000E+03 0.  1.
        -52   -1    0    0    0    0 -0.00000000000E+00 -0.00000000000E+00 -0.64930732323E+04  0.65000000000E+04  0.30000000000E+03 0. -1.
     100001    1    1    2    0    0 -0.54144057235E+03  0.69192022660E+03 -0.64385897724E+04  0.65000000000E+04  0.15050000000E+03 0. -1.
     100001    1    1    2    0    0  0.54144057235E+03 -0.69192022660E+03  0.64385897724E+04  0.65000000000E+04  0.15050000000E+03 0.  1.
</event>
<event>
 4    1  0.4826743E-004  0.6500000E+04  0.7818608E-02  0.7223770E-01
         52   -1    0    0    0    0  0.00000000000E+00  0.00000000000E+00  0.64930732323E+04  0.65000000000E+04  0.30000000000E+03 0. -1.
        -52   -1    0    0    0    0 -0.00000000000E+00 -0.00000000000E+00 -0.64930732323E+04  0.65000000000E+04  0.30000000000E+03 0.  1.
     100001    1    1    2    0    0 -0.17963783421E+03 -0.27964590551E+03 -0.64897517800E+04  0.65000000000E+04  0.15050000000E+03 0.  1.
     100001    1    1    2    0    0  0.17963783421E+03  0.27964590551E+03  0.64897517800E+04  0.65000000000E+04  0.15050000000E+03 0. -1.
</event>
<event>
 4    1  0.4826743E-004  0.6500000E+04  0.7818608E-02  0.7223770E-01
         52   -1    0    0    0    0  0.00000000000E+00  0.00000000000E+00  0.64930732323E+04  0.65000000000E+04  0.30000000000E+03 0.  1.
        -52   -1    0    0    0    0 -0.00000000000E+00 -0.00000000000E+00 -0.64930732323E+04  0.65000000000E+04  0.30000000000E+03 0. -1.
     100001    1    1    2    0    0  0.16983941179E+04  0.14372431672E+04  0.61055007370E+04  0.65000000000E+04  0.15050000000E+03 0.  1.
     100001    1    1    2    0    0 -0.16983941179E+04 -0.14372431672E+04 -0.61055007370E+04  0.65000000000E+04  0.15050000000E+03 0. -1.
</event>
<event>
 4    1  0.4826743E-004  0.6500000E+04  0.7818608E-02  0.7223770E-01
         52   -1    0    0    0    0  0.00000000000E+00  0.00000000000E+00  0.64930732323E+04  0.65000000000E+04  0.30000000000E+03 0. -1.
        -52   -1    0    0    0    0 -0.00000000000E+00 -0.00000000000E+00 -0.64930732323E+04  0.65000000000E+04  0.30000000000E+03 0.  1.
     100001    1    1    2    0    0 -0.16013956018E+04 -0.87769806299E+03  0.62363874147E+04  0.65000000000E+04  0.15050000000E+03 0. -1.
     100001    1    1    2    0    0  0.16013956018E+04  0.87769806299E+03 -0.62363874147E+04  0.65000000000E+04  0.15050000000E+03 0.  1.
</event>
<event>
 4    1  0.4826743E-004  0.6500000E+04  0.7818608E-02  0.7223770E-01
         52   -1    0    0    0    0  0.00000000000E+00  0.00000000000E+00  0.64930732323E+04  0.65000000000E+04  0.30000000000E+03 0.  1.
        -52   -1    0    0    0    0 -0.00000000000E+00 -0.00000000000E+00 -0.64930732323E+04  0.65000000000E+04  0.30000000000E+03 0. -1.
     100001    1    1    2    0    0  0.82728804614E+03  0.11834665568E+03 -0.64442950202E+04  0.65000000000E+04  0.15050000000E+03 0. -1.
     100001    1    1    2    0    0 -0.82728804614E+03 -0.11834665568E+03  0.64442950202E+04  0.65000000000E+04  0.15050000000E+03 0.  1.
</event>
<event>
 4    1  0.4952431E-004  0.6500000E+04  0.7818608E-02  0.7223770E-01
         52   -1    0    0    0    0  0.00000000000E+00  0.00000000000E+00  0.64930732323E+04  0.65000000000E+04  0.30000000000E+03 0. -1.
        -52   -1    0    0    0    0 -0.00000000000E+00 -0.00000000000E+00 -0.64930732323E+04  0.65000000000E+04  0.30000000000E+03 0. -1.
     100001    1    1    2    0    0  0.74013137638E+02  0.22180717428E+03 -0.64940490746E+04  0.65000000000E+04  0.15050000000E+03 0. -1.
     100001    1    1    2    0    0 -0.74013137638E+02 -0.22180717428E+03  0.64940490746E+04  0.65000000000E+04  0.15050000000E+03 0. -1.
</event>
<event>
 4    1  0.5373565E-004  0.6500000E+04  0.7818608E-02  0.7223770E-01
         52   -1    0    0    0    0  0.00000000000E+00  0.00000000000E+00  0.64930732323E+04  0.65000000000E+04  0.30000000000E+03 0.  1.
        -52   -1    0    0    0    0 -0.00000000000E+00 -0.00000000000E+00 -0.64930732323E+04  0.65000000000E+04  0.30000000000E+03 0.  1.
     100001    1    1    2    0    0  0.38726572140E+02  0.21849907171E+03  0.64944675038E+04  0.65000000000E+04  0.15050000000E+03 0.  1.
     100001    1    1    2    0    0 -0.38726572140E+02 -0.21849907171E+03 -0.64944675038E+04  0.65000000000E+04  0.15050000000E+03 0.  1.
</event>
<event>
 4    1  0.4826743E-004  0.6500000E+04  0.7818608E-02  0.7223770E-01
         52   -1    0    0    0    0  0.00000000000E+00  0.00000000000E+00  0.64930732323E+04  0.65000000000E+04  0.30000000000E+03 0.  1.
        -52   -1    0    0    0    0 -0.00000000000E+00 -0.00000000000E+00 -0.64930732323E+04  0.65000000000E+04  0.30000000000E+03 0. -1.
     100001    1    1    2    0    0 -0.48013229688E+03 -0.86767674622E+03 -0.64221460425E+04  0.65000000000E+04  0.15050000000E+03 0. -1.
     100001    1    1    2    0    0  0.48013229688E+03  0.86767674622E+03  0.64221460425E+04  0.65000000000E+04  0.15050000000E+03 0.  1.
</event>
<event>
 4    1  0.4826743E-004  0.6500000E+04  0.7818608E-02  0.7223770E-01
         52   -1    0    0    0    0  0.00000000000E+00  0.00000000000E+00  0.64930732323E+04  0.65000000000E+04  0.30000000000E+03 0. -1.
        -52   -1    0    0    0    0 -0.00000000000E+00 -0.00000000000E+00 -0.64930732323E+04  0.65000000000E+04  0.30000000000E+03 0.  1.
     100001    1    1    2    0    0 -0.32247777129E+03  0.24615623686E+04 -0.60053366719E+04  0.65000000000E+04  0.15050000000E+03 0.  1.
     100001    1    1    2    0    0  0.32247777129E+03 -0.24615623686E+04  0.60053366719E+04  0.65000000000E+04  0.15050000000E+03 0. -1.
</event>
<event>
 4    1  0.4826743E-004  0.6500000E+04  0.7818608E-02  0.7223770E-01
         52   -1    0    0    0    0  0.00000000000E+00  0.00000000000E+00  0.64930732323E+04  0.65000000000E+04  0.30000000000E+03 0. -1.
        -52   -1    0    0    0    0 -0.00000000000E+00 -0.00000000000E+00 -0.64930732323E+04  0.65000000000E+04  0.30000000000E+03 0.  1.
     100001    1    1    2    0    0  0.48462994679E+04 -0.17205522354E+04  0.39724590901E+04  0.65000000000E+04  0.15050000000E+03 0. -1.
     100001    1    1    2    0    0 -0.48462994679E+04  0.17205522354E+04 -0.39724590901E+04  0.65000000000E+04  0.15050000000E+03 0.  1.
</event>
<event>
 4    1  0.4826743E-004  0.6500000E+04  0.7818608E-02  0.7223770E-01
         52   -1    0    0    0    0  0.00000000000E+00  0.00000000000E+00  0.64930732323E+04  0.65000000000E+04  0.30000000000E+03 0.  1.
        -52   -1    0    0    0    0 -0.00000000000E+00 -0.00000000000E+00 -0.64930732323E+04  0.65000000000E+04  0.30000000000E+03 0. -1.
     100001    1    1    2    0    0  0.15465906519E+04 -0.12370476703E+04 -0.61891130355E+04  0.65000000000E+04  0.15050000000E+03 0. -1.
     100001    1    1    2    0    0 -0.15465906519E+04  0.12370476703E+04  0.61891130355E+04  0.65000000000E+04  0.15050000000E+03 0.  1.
</event>
<event>
 4    1  0.4826743E-004  0.6500000E+04  0.7818608E-02  0.7223770E-01
         52   -1    0    0    0    0  0.00000000000E+00  0.00000000000E+00  0.64930732323E+04  0.65000000000E+04  0.30000000000E+03 0.  1.
        -52   -1    0    0    0    0 -0.00000000000E+00 -0.00000000000E+00 -0.64930732323E+04  0.65000000000E+04  0.30000000000E+03 0. -1.
     100001    1    1    2    0    0 -0.54325059109E+04 -0.23405059946E+04 -0.26902157846E+04  0.65000000000E+04  0.15050000000E+03 0. -1.
     100001    1    1    2    0    0  0.54325059109E+04  0.23405059946E+04  0.26902157846E+04  0.65000000000E+04  0.15050000000E+03 0.  1.
</event>
<event>
 4    1  0.4826743E-004  0.6500000E+04  0.7818608E-02  0.7223770E-01
         52   -1    0    0    0    0  0.00000000000E+00  0.00000000000E+00  0.64930732323E+04  0.65000000000E+04  0.30000000000E+03 0.  1.
        -52   -1    0    0    0    0 -0.00000000000E+00 -0.00000000000E+00 -0.64930732323E+04  0.65000000000E+04  0.30000000000E+03 0. -1.
     100001    1    1    2    0    0 -0.27768440609E+04 -0.58742032606E+04  0.10110818239E+03  0.65000000000E+04  0.15050000000E+03 0. -1.
     100001    1    1    2    0    0  0.27768440609E+04  0.58742032606E+04 -0.10110818239E+03  0.65000000000E+04  0.15050000000E+03 0.  1.
</event>
<event>
 4    1  0.4826743E-004  0.6500000E+04  0.7818608E-02  0.7223770E-01
         52   -1    0    0    0    0  0.00000000000E+00  0.00000000000E+00  0.64930732323E+04  0.65000000000E+04  0.30000000000E+03 0.  1.
        -52   -1    0    0    0    0 -0.00000000000E+00 -0.00000000000E+00 -0.64930732323E+04  0.65000000000E+04  0.30000000000E+03 0. -1.
     100001    1    1    2    0    0 -0.63297909689E+04  0.13597735265E+04 -0.55866984543E+03  0.65000000000E+04  0.15050000000E+03 0.  1.
     100001    1    1    2    0    0  0.63297909689E+04 -0.13597735265E+04  0.55866984543E+03  0.65000000000E+04  0.15050000000E+03 0. -1.
</event>
<event>
 4    1  0.4826743E-004  0.6500000E+04  0.7818608E-02  0.7223770E-01
         52   -1    0    0    0    0  0.00000000000E+00  0.00000000000E+00  0.64930732323E+04  0.65000000000E+04  0.30000000000E+03 0. -1.
        -52   -1    0    0    0    0 -0.00000000000E+00 -0.00000000000E+00 -0.64930732323E+04  0.65000000000E+04  0.30000000000E+03 0.  1.
     100001    1    1    2    0    0 -0.11549280120E+04 -0.47190167905E+02 -0.63946277550E+04  0.65000000000E+04  0.15050000000E+03 0.  1.
     100001    1    1    2    0    0  0.11549280120E+04  0.47190167905E+02  0.63946277550E+04  0.65000000000E+04  0.15050000000E+03 0. -1.
</event>
<event>
 4    1  0.4826743E-004  0.6500000E+04  0.7818608E-02  0.7223770E-01
         52   -1    0    0    0    0  0.00000000000E+00  0.00000000000E+00  0.64930732323E+04  0.65000000000E+04  0.30000000000E+03 0. -1.
        -52   -1    0    0    0    0 -0.00000000000E+00 -0.00000000000E+00 -0.64930732323E+04  0.65000000000E+04  0.30000000000E+03 0.  1.
     100001    1    1    2    0    0 -0.10870988347E+04  0.11477201325E+04 -0.63030392963E+04  0.65000000000E+04  0.15050000000E+03 0.  1.
     100001    1    1    2    0    0  0.10870988347E+04 -0.11477201325E+04  0.63030392963E+04  0.65000000000E+04  0.15050000000E+03 0. -1.
</event>
<event>
 4    1  0.4826743E-004  0.6500000E+04  0.7818608E-02  0.7223770E-01
         52   -1    0    0    0    0  0.00000000000E+00  0.00000000000E+00  0.64930732323E+04  0.65000000000E+04  0.30000000000E+03 0. -1.
        -52   -1    0    0    0    0 -0.00000000000E+00 -0.00000000000E+00 -0.64930732323E+04  0.65000000000E+04  0.30000000000E+03 0.  1.
     100001    1    1    2    0    0  0.14048998257E+03  0.90703731778E+02 -0.64961053831E+04  0.65000000000E+04  0.15050000000E+03 0.  1.
     100001    1    1    2    0    0 -0.14048998257E+03 -0.90703731778E+02  0.64961053831E+04  0.65000000000E+04  0.15050000000E+03 0. -1.
</event>
<event>
 4    1  0.4826743E-004  0.6500000E+04  0.7818608E-02  0.7223770E-01
         52   -1    0    0    0    0  0.00000000000E+00  0.00000000000E+00  0.64930732323E+04  0.65000000000E+04  0.30000000000E+03 0. -1.
        -52   -1    0    0    0    0 -0.00000000000E+00 -0.00000000000E+00 -0.64930732323E+04  0.65000000000E+04  0.30000000000E+03 0. -1.
     100001    1    1    2    0    0  0.18143164806E+03  0.27371007833E+03  0.64899549382E+04  0.65000000000E+04  0.15050000000E+03 0. -1.
     100001    1    1    2    0    0 -0.18143164806E+03 -0.27371007833E+03 -0.64899549382E+04  0.65000000000E+04  0.15050000000E+03 0. -1.
</event>
<event>
 4    1  0.4826743E-004  0.6500000E+04  0.7818608E-02  0.7223770E-01
         52   -1    0    0    0    0  0.00000000000E+00  0.00000000000E+00  0.64930732323E+04  0.65000000000E+04  0.30000000000E+03 0. -1.
        -52   -1    0    0    0    0 -0.00000000000E+00 -0.00000000000E+00 -0.64930732323E+04  0.65000000000E+04  0.30000000000E+03 0.  1.
     100001    1    1    2    0    0 -0.33035192595E+04 -0.51286558870E+04  0.22385260877E+04  0.65000000000E+04  0.15050000000E+03 0. -1.
     100001    1    1    2    0    0  0.33035192595E+04  0.51286558870E+04 -0.22385260877E+04  0.65000000000E+04  0.15050000000E+03 0.  1.
</event>
<event>
 4    1  0.4826743E-004  0.6500000E+04  0.7818608E-02  0.7223770E-01
         52   -1    0    0    0    0  0.00000000000E+00  0.00000000000E+00  0.64930732323E+04  0.65000000000E+04  0.30000000000E+03 0. -1.
        -52   -1    0    0    0    0 -0.00000000000E+00 -0.00000000000E+00 -0.64930732323E+04  0.65000000000E+04  0.30000000000E+03 0.  1.
     100001    1    1    2    0    0  0.34312057777E+04 -0.17318513671E+04 -0.52397392591E+04  0.65000000000E+04  0.15050000000E+03 0.  1.
     100001    1    1    2    0    0 -0.34312057777E+04  0.17318513671E+04  0.52397392591E+04  0.65000000000E+04  0.15050000000E+03 0. -1.
</event>
<event>
 4    1  0.4826743E-004  0.6500000E+04  0.7818608E-02  0.7223770E-01
         52   -1    0    0    0    0  0.00000000000E+00  0.00000000000E+00  0.64930732323E+04  0.65000000000E+04  0.30000000000E+03 0. -1.
        -52   -1    0    0    0    0 -0.00000000000E+00 -0.00000000000E+00 -0.64930732323E+04  0.65000000000E+04  0.30000000000E+03 0.  1.
     100001    1    1    2    0    0  0.43905994384E+04  0.88660528401E+02 -0.47897939029E+04  0.65000000000E+04  0.15050000000E+03 0.  1.
     100001    1    1    2    0    0 -0.43905994384E+04 -0.88660528401E+02  0.47897939029E+04  0.65000000000E+04  0.15050000000E+03 0. -1.
</event>
<event>
 4    1  0.4826743E-004  0.6500000E+04  0.7818608E-02  0.7223770E-01
         52   -1    0    0    0    0  0.00000000000E+00  0.00000000000E+00  0.64930732323E+04  0.65000000000E+04  0.30000000000E+03 0. -1.
        -52   -1    0    0    0    0 -0.00000000000E+00 -0.00000000000E+00 -0.64930732323E+04  0.65000000000E+04  0.30000000000E+03 0.  1.
     100001    1    1    2    0    0  0.32969152858E+03 -0.10103648242E+03  0.64891020084E+04  0.65000000000E+04  0.15050000000E+03 0. -1.
     100001    1    1    2    0    0 -0.32969152858E+03  0.10103648242E+03 -0.64891020084E+04  0.65000000000E+04  0.15050000000E+03 0.  1.
</event>
<event>
 4    1  0.4826743E-004  0.6500000E+04  0.7818608E-02  0.7223770E-01
         52   -1    0    0    0    0  0.00000000000E+00  0.00000000000E+00  0.64930732323E+04  0.65000000000E+04  0.30000000000E+03 0.  1.
        -52   -1    0    0    0    0 -0.00000000000E+00 -0.00000000000E+00 -0.64930732323E+04  0.65000000000E+04  0.30000000000E+03 0. -1.
     100001    1    1    2    0    0  0.72791258645E+03 -0.24877314251E+03  0.64525657641E+04  0.65000000000E+04  0.15050000000E+03 0.  1.
     100001    1    1    2    0    0 -0.72791258645E+03  0.24877314251E+03 -0.64525657641E+04  0.65000000000E+04  0.15050000000E+03 0. -1.
</event>
<event>
 4    1  0.4826743E-004  0.6500000E+04  0.7818608E-02  0.7223770E-01
         52   -1    0    0    0    0  0.00000000000E+00  0.00000000000E+00  0.64930732323E+04  0.65000000000E+04  0.30000000000E+03 0.  1.
        -52   -1    0    0    0    0 -0.00000000000E+00 -0.00000000000E+00 -0.64930732323E+04  0.65000000000E+04  0.30000000000E+03 0. -1.
     100001    1    1    2    0    0 -0.22431931538E+03  0.34977416176E+03  0.64849586452E+04  0.65000000000E+04  0.15050000000E+03 0.  1.
     100001    1    1    2    0    0  0.22431931538E+03 -0.34977416176E+03 -0.64849586452E+04  0.65000000000E+04  0.15050000000E+03 0. -1.
</event>
<event>
 4    1  0.4826743E-004  0.6500000E+04  0.7818608E-02  0.7223770E-01
         52   -1    0    0    0    0  0.00000000000E+00  0.00000000000E+00  0.64930732323E+04  0.65000000000E+04  0.30000000000E+03 0.  1.
        -52   -1    0    0    0    0 -0.00000000000E+00 -0.00000000000E+00 -0.64930732323E+04  0.65000000000E+04  0.30000000000E+03 0.  1.
     100001    1    1    2    0    0  0.32895987732E+03  0.57977114951E+03  0.64639771475E+04  0.65000000000E+04  0.15050000000E+03 0.  1.
     100001    1    1    2    0    0 -0.32895987732E+03 -0.57977114951E+03 -0.64639771475E+04  0.65000000000E+04  0.15050000000E+03 0.  1.
</event>
<event>
 4    1  0.4826743E-004  0.6500000E+04  0.7818608E-02  0.7223770E-01
         52   -1    0    0    0    0  0.00000000000E+00  0.00000000000E+00  0.64930732323E+04  0.65000000000E+04  0.30000000000E+03 0. -1.
        -52   -1    0    0    0    0 -0.00000000000E+00 -0.00000000000E+00 -0.64930732323E+04  0.65000000000E+04  0.30000000000E+03 0.  1.
     100001    1    1    2    0    0  0.22963042050E+04 -0.25514759067E+02  0.60789543299E+04  0.65000000000E+04  0.15050000000E+03 0. -1.
     100001    1    1    2    0    0 -0.22963042050E+04  0.25514759067E+02 -0.60789543299E+04  0.65000000000E+04  0.15050000000E+03 0.  1.
</event>
<event>
 4    1  0.4826743E-004  0.6500000E+04  0.7818608E-02  0.7223770E-01
         52   -1    0    0    0    0  0.00000000000E+00  0.00000000000E+00  0.64930732323E+04  0.65000000000E+04  0.30000000000E+03 0. -1.
        -52   -1    0    0    0    0 -0.00000000000E+00 -0.00000000000E+00 -0.64930732323E+04  0.65000000000E+04  0.30000000000E+03 0.  1.
     100001    1    1    2    0    0 -0.14954281120E+04 -0.38699073264E+03  0.63119951430E+04  0.65000000000E+04  0.15050000000E+03 0. -1.
     100001    1    1    2    0    0  0.14954281120E+04  0.38699073264E+03 -0.63119951430E+04  0.65000000000E+04  0.15050000000E+03 0.  1.
</event>
<event>
 4    1  0.4826743E-004  0.6500000E+04  0.7818608E-02  0.7223770E-01
         52   -1    0    0    0    0  0.00000000000E+00  0.00000000000E+00  0.64930732323E+04  0.65000000000E+04  0.30000000000E+03 0.  1.
        -52   -1    0    0    0    0 -0.00000000000E+00 -0.00000000000E+00 -0.64930732323E+04  0.65000000000E+04  0.30000000000E+03 0. -1.
     100001    1    1    2    0    0 -0.18162855150E+04  0.13462857168E+03 -0.62378146675E+04  0.65000000000E+04  0.15050000000E+03 0. -1.
     100001    1    1    2    0    0  0.18162855150E+04 -0.13462857168E+03  0.62378146675E+04  0.65000000000E+04  0.15050000000E+03 0.  1.
</event>
<event>
 4    1  0.4826743E-004  0.6500000E+04  0.7818608E-02  0.7223770E-01
         52   -1    0    0    0    0  0.00000000000E+00  0.00000000000E+00  0.64930732323E+04  0.65000000000E+04  0.30000000000E+03 0.  1.
        -52   -1    0    0    0    0 -0.00000000000E+00 -0.00000000000E+00 -0.64930732323E+04  0.65000000000E+04  0.30000000000E+03 0. -1.
     100001    1    1    2    0    0 -0.20257982476E+03  0.55676840828E+03 -0.64711915521E+04  0.65000000000E+04  0.15050000000E+03 0. -1.
     100001    1    1    2    0    0  0.20257982476E+03 -0.55676840828E+03  0.64711915521E+04  0.65000000000E+04  0.15050000000E+03 0.  1.
</event>
<event>
 4    1  0.4826743E-004  0.6500000E+04  0.7818608E-02  0.7223770E-01
         52   -1    0    0    0    0  0.00000000000E+00  0.00000000000E+00  0.64930732323E+04  0.65000000000E+04  0.30000000000E+03 0. -1.
        -52   -1    0    0    0    0 -0.00000000000E+00 -0.00000000000E+00 -0.64930732323E+04  0.65000000000E+04  0.30000000000E+03 0.  1.
     100001    1    1    2    0    0  0.63091615315E+03 -0.22491758218E+03  0.64636449964E+04  0.65000000000E+04  0.15050000000E+03 0. -1.
     100001    1    1    2    0    0 -0.63091615315E+03  0.22491758218E+03 -0.64636449964E+04  0.65000000000E+04  0.15050000000E+03 0.  1.
</event>
<event>
 4    1  0.4826743E-004  0.6500000E+04  0.7818608E-02  0.7223770E-01
         52   -1    0    0    0    0  0.00000000000E+00  0.00000000000E+00  0.64930732323E+04  0.65000000000E+04  0.30000000000E+03 0. -1.
        -52   -1    0    0    0    0 -0.00000000000E+00 -0.00000000000E+00 -0.64930732323E+04  0.65000000000E+04  0.30000000000E+03 0.  1.
     100001    1    1    2    0    0  0.39424026778E+04 -0.12742908412E+04 -0.50060956571E+04  0.65000000000E+04  0.15050000000E+03 0.  1.
     100001    1    1    2    0    0 -0.39424026778E+04  0.12742908412E+04  0.50060956571E+04  0.65000000000E+04  0.15050000000E+03 0. -1.
</event>
<event>
 4    1  0.4826743E-004  0.6500000E+04  0.7818608E-02  0.7223770E-01
         52   -1    0    0    0    0  0.00000000000E+00  0.00000000000E+00  0.64930732323E+04  0.65000000000E+04  0.30000000000E+03 0.  1.
        -52   -1    0    0    0    0 -0.00000000000E+00 -0.00000000000E+00 -0.64930732323E+04  0.65000000000E+04  0.30000000000E+03 0. -1.
     100001    1    1    2    0    0 -0.13039565980E+04  0.14239733314E+03 -0.63644929052E+04  0.65000000000E+04  0.15050000000E+03 0. -1.
     100001    1    1    2    0    0  0.13039565980E+04 -0.14239733314E+03  0.63644929052E+04  0.65000000000E+04  0.15050000000E+03 0.  1.
</event>
<event>
 4    1  0.4826743E-004  0.6500000E+04  0.7818608E-02  0.7223770E-01
         52   -1    0    0    0    0  0.00000000000E+00  0.00000000000E+00  0.64930732323E+04  0.65000000000E+04  0.30000000000E+03 0. -1.
        -52   -1    0    0    0    0 -0.00000000000E+00 -0.00000000000E+00 -0.64930732323E+04  0.65000000000E+04  0.30000000000E+03 0.  1.
     100001    1    1    2    0    0  0.99166666975E+03  0.57143899890E+02  0.64218908073E+04  0.65000000000E+04  0.15050000000E+03 0. -1.
     100001    1    1    2    0    0 -0.99166666975E+03 -0.57143899890E+02 -0.64218908073E+04  0.65000000000E+04  0.15050000000E+03 0.  1.
</event>
<event>
 4    1  0.4826743E-004  0.6500000E+04  0.7818608E-02  0.7223770E-01
         52   -1    0    0    0    0  0.00000000000E+00  0.00000000000E+00  0.64930732323E+04  0.65000000000E+04  0.30000000000E+03 0. -1.
        -52   -1    0    0    0    0 -0.00000000000E+00 -0.00000000000E+00 -0.64930732323E+04  0.65000000000E+04  0.30000000000E+03 0.  1.
     100001    1    1    2    0    0 -0.24164079819E+04  0.14690516416E+04  0.58506588936E+04  0.65000000000E+04  0.15050000000E+03 0. -1.
     100001    1    1    2    0    0  0.24164079819E+04 -0.14690516416E+04 -0.58506588936E+04  0.65000000000E+04  0.15050000000E+03 0.  1.
</event>
<event>
 4    1  0.4826743E-004  0.6500000E+04  0.7818608E-02  0.7223770E-01
         52   -1    0    0    0    0  0.00000000000E+00  0.00000000000E+00  0.64930732323E+04  0.65000000000E+04  0.30000000000E+03 0. -1.
        -52   -1    0    0    0    0 -0.00000000000E+00 -0.00000000000E+00 -0.64930732323E+04  0.65000000000E+04  0.30000000000E+03 0.  1.
     100001    1    1    2    0    0  0.47261292657E+03  0.42233521855E+03 -0.64672729751E+04  0.65000000000E+04  0.15050000000E+03 0.  1.
     100001    1    1    2    0    0 -0.47261292657E+03 -0.42233521855E+03  0.64672729751E+04  0.65000000000E+04  0.15050000000E+03 0. -1.
</event>
<event>
 4    1  0.4826743E-004  0.6500000E+04  0.7818608E-02  0.7223770E-01
         52   -1    0    0    0    0  0.00000000000E+00  0.00000000000E+00  0.64930732323E+04  0.65000000000E+04  0.30000000000E+03 0. -1.
        -52   -1    0    0    0    0 -0.00000000000E+00 -0.00000000000E+00 -0.64930732323E+04  0.65000000000E+04  0.30000000000E+03 0.  1.
     100001    1    1    2    0    0  0.85872173002E+03 -0.10558263721E+04  0.63541464739E+04  0.65000000000E+04  0.15050000000E+03 0. -1.
     100001    1    1    2    0    0 -0.85872173002E+03  0.10558263721E+04 -0.63541464739E+04  0.65000000000E+04  0.15050000000E+03 0.  1.
</event>
<event>
 4    1  0.4826743E-004  0.6500000E+04  0.7818608E-02  0.7223770E-01
         52   -1    0    0    0    0  0.00000000000E+00  0.00000000000E+00  0.64930732323E+04  0.65000000000E+04  0.30000000000E+03 0. -1.
        -52   -1    0    0    0    0 -0.00000000000E+00 -0.00000000000E+00 -0.64930732323E+04  0.65000000000E+04  0.30000000000E+03 0.  1.
     100001    1    1    2    0    0  0.19401019996E+04 -0.49915682925E+04  0.36807064488E+04  0.65000000000E+04  0.15050000000E+03 0. -1.
     100001    1    1    2    0    0 -0.19401019996E+04  0.49915682925E+04 -0.36807064488E+04  0.65000000000E+04  0.15050000000E+03 0.  1.
</event>
<event>
 4    1  0.4826743E-004  0.6500000E+04  0.7818608E-02  0.7223770E-01
         52   -1    0    0    0    0  0.00000000000E+00  0.00000000000E+00  0.64930732323E+04  0.65000000000E+04  0.30000000000E+03 0. -1.
        -52   -1    0    0    0    0 -0.00000000000E+00 -0.00000000000E+00 -0.64930732323E+04  0.65000000000E+04  0.30000000000E+03 0.  1.
     100001    1    1    2    0    0  0.13908285100E+04  0.56976618081E+03  0.63220496918E+04  0.65000000000E+04  0.15050000000E+03 0. -1.
     100001    1    1    2    0    0 -0.13908285100E+04 -0.56976618081E+03 -0.63220496918E+04  0.65000000000E+04  0.15050000000E+03 0.  1.
</event>
<event>
 4    1  0.4826743E-004  0.6500000E+04  0.7818608E-02  0.7223770E-01
         52   -1    0    0    0    0  0.00000000000E+00  0.00000000000E+00  0.64930732323E+04  0.65000000000E+04  0.30000000000E+03 0.  1.
        -52   -1    0    0    0    0 -0.00000000000E+00 -0.00000000000E+00 -0.64930732323E+04  0.65000000000E+04  0.30000000000E+03 0. -1.
     100001    1    1    2    0    0  0.72308264197E+03  0.14481131734E+04  0.62934465502E+04  0.65000000000E+04  0.15050000000E+03 0.  1.
     100001    1    1    2    0    0 -0.72308264197E+03 -0.14481131734E+04 -0.62934465502E+04  0.65000000000E+04  0.15050000000E+03 0. -1.
</event>
<event>
 4    1  0.4826743E-004  0.6500000E+04  0.7818608E-02  0.7223770E-01
         52   -1    0    0    0    0  0.00000000000E+00  0.00000000000E+00  0.64930732323E+04  0.65000000000E+04  0.30000000000E+03 0. -1.
        -52   -1    0    0    0    0 -0.00000000000E+00 -0.00000000000E+00 -0.64930732323E+04  0.65000000000E+04  0.30000000000E+03 0.  1.
     100001    1    1    2    0    0  0.59538784994E+04 -0.12197939525E+04  0.23001702716E+04  0.65000000000E+04  0.15050000000E+03 0. -1.
     100001    1    1    2    0    0 -0.59538784994E+04  0.12197939525E+04 -0.23001702716E+04  0.65000000000E+04  0.15050000000E+03 0.  1.
</event>
<event>
 4    1  0.4826743E-004  0.6500000E+04  0.7818608E-02  0.7223770E-01
         52   -1    0    0    0    0  0.00000000000E+00  0.00000000000E+00  0.64930732323E+04  0.65000000000E+04  0.30000000000E+03 0. -1.
        -52   -1    0    0    0    0 -0.00000000000E+00 -0.00000000000E+00 -0.64930732323E+04  0.65000000000E+04  0.30000000000E+03 0.  1.
     100001    1    1    2    0    0 -0.15276015644E+04 -0.27078894747E+04  0.57062349937E+04  0.65000000000E+04  0.15050000000E+03 0. -1.
     100001    1    1    2    0    0  0.15276015644E+04  0.27078894747E+04 -0.57062349937E+04  0.65000000000E+04  0.15050000000E+03 0.  1.
</event>
<event>
 4    1  0.4826743E-004  0.6500000E+04  0.7818608E-02  0.7223770E-01
         52   -1    0    0    0    0  0.00000000000E+00  0.00000000000E+00  0.64930732323E+04  0.65000000000E+04  0.30000000000E+03 0.  1.
        -52   -1    0    0    0    0 -0.00000000000E+00 -0.00000000000E+00 -0.64930732323E+04  0.65000000000E+04  0.30000000000E+03 0. -1.
     100001    1    1    2    0    0 -0.23143876690E+04  0.28316830844E+03  0.60655399741E+04  0.65000000000E+04  0.15050000000E+03 0.  1.
     100001    1    1    2    0    0  0.23143876690E+04 -0.28316830844E+03 -0.60655399741E+04  0.65000000000E+04  0.15050000000E+03 0. -1.
</event>
<event>
 4    1  0.4826743E-004  0.6500000E+04  0.7818608E-02  0.7223770E-01
         52   -1    0    0    0    0  0.00000000000E+00  0.00000000000E+00  0.64930732323E+04  0.65000000000E+04  0.30000000000E+03 0. -1.
        -52   -1    0    0    0    0 -0.00000000000E+00 -0.00000000000E+00 -0.64930732323E+04  0.65000000000E+04  0.30000000000E+03 0.  1.
     100001    1    1    2    0    0  0.32766386850E+02  0.11636497855E+04  0.63931365769E+04  0.65000000000E+04  0.15050000000E+03 0. -1.
     100001    1    1    2    0    0 -0.32766386850E+02 -0.11636497855E+04 -0.63931365769E+04  0.65000000000E+04  0.15050000000E+03 0.  1.
</event>
<event>
 4    1  0.4826743E-004  0.6500000E+04  0.7818608E-02  0.7223770E-01
         52   -1    0    0    0    0  0.00000000000E+00  0.00000000000E+00  0.64930732323E+04  0.65000000000E+04  0.30000000000E+03 0. -1.
        -52   -1    0    0    0    0 -0.00000000000E+00 -0.00000000000E+00 -0.64930732323E+04  0.65000000000E+04  0.30000000000E+03 0.  1.
     100001    1    1    2    0    0 -0.22093273992E+04  0.37338316056E+04  0.48378428802E+04  0.65000000000E+04  0.15050000000E+03 0. -1.
     100001    1    1    2    0    0  0.22093273992E+04 -0.37338316056E+04 -0.48378428802E+04  0.65000000000E+04  0.15050000000E+03 0.  1.
</event>
<event>
 4    1  0.4826743E-004  0.6500000E+04  0.7818608E-02  0.7223770E-01
         52   -1    0    0    0    0  0.00000000000E+00  0.00000000000E+00  0.64930732323E+04  0.65000000000E+04  0.30000000000E+03 0.  1.
        -52   -1    0    0    0    0 -0.00000000000E+00 -0.00000000000E+00 -0.64930732323E+04  0.65000000000E+04  0.30000000000E+03 0. -1.
     100001    1    1    2    0    0 -0.91512428087E+03 -0.17243697549E+04  0.61981002129E+04  0.65000000000E+04  0.15050000000E+03 0.  1.
     100001    1    1    2    0    0  0.91512428087E+03  0.17243697549E+04 -0.61981002129E+04  0.65000000000E+04  0.15050000000E+03 0. -1.
</event>
<event>
 4    1  0.4826743E-004  0.6500000E+04  0.7818608E-02  0.7223770E-01
         52   -1    0    0    0    0  0.00000000000E+00  0.00000000000E+00  0.64930732323E+04  0.65000000000E+04  0.30000000000E+03 0.  1.
        -52   -1    0    0    0    0 -0.00000000000E+00 -0.00000000000E+00 -0.64930732323E+04  0.65000000000E+04  0.30000000000E+03 0. -1.
     100001    1    1    2    0    0 -0.21711598825E+03 -0.73315887284E+02  0.64942155168E+04  0.65000000000E+04  0.15050000000E+03 0.  1.
     100001    1    1    2    0    0  0.21711598825E+03  0.73315887284E+02 -0.64942155168E+04  0.65000000000E+04  0.15050000000E+03 0. -1.
</event>
<event>
 4    1  0.4826743E-004  0.6500000E+04  0.7818608E-02  0.7223770E-01
         52   -1    0    0    0    0  0.00000000000E+00  0.00000000000E+00  0.64930732323E+04  0.65000000000E+04  0.30000000000E+03 0.  1.
        -52   -1    0    0    0    0 -0.00000000000E+00 -0.00000000000E+00 -0.64930732323E+04  0.65000000000E+04  0.30000000000E+03 0. -1.
     100001    1    1    2    0    0  0.58960379581E+03  0.61283261956E+03  0.64423717135E+04  0.65000000000E+04  0.15050000000E+03 0.  1.
     100001    1    1    2    0    0 -0.58960379581E+03 -0.61283261956E+03 -0.64423717135E+04  0.65000000000E+04  0.15050000000E+03 0. -1.
</event>
<event>
 4    1  0.4826743E-004  0.6500000E+04  0.7818608E-02  0.7223770E-01
         52   -1    0    0    0    0  0.00000000000E+00  0.00000000000E+00  0.64930732323E+04  0.65000000000E+04  0.30000000000E+03 0.  1.
        -52   -1    0    0    0    0 -0.00000000000E+00 -0.00000000000E+00 -0.64930732323E+04  0.65000000000E+04  0.30000000000E+03 0. -1.
     100001    1    1    2    0    0 -0.17843496128E+03 -0.21012034310E+04  0.61465807451E+04  0.65000000000E+04  0.15050000000E+03 0.  1.
     100001    1    1    2    0    0  0.17843496128E+03  0.21012034310E+04 -0.61465807451E+04  0.65000000000E+04  0.15050000000E+03 0. -1.
</event>
<event>
 4    1  0.4826743E-004  0.6500000E+04  0.7818608E-02  0.7223770E-01
         52   -1    0    0    0    0  0.00000000000E+00  0.00000000000E+00  0.64930732323E+04  0.65000000000E+04  0.30000000000E+03 0.  1.
        -52   -1    0    0    0    0 -0.00000000000E+00 -0.00000000000E+00 -0.64930732323E+04  0.65000000000E+04  0.30000000000E+03 0.  1.
     100001    1    1    2    0    0  0.36090415567E+03 -0.27068867159E+03  0.64825786215E+04  0.65000000000E+04  0.15050000000E+03 0.  1.
     100001    1    1    2    0    0 -0.36090415567E+03  0.27068867159E+03 -0.64825786215E+04  0.65000000000E+04  0.15050000000E+03 0.  1.
</event>
<event>
 4    1  0.4826743E-004  0.6500000E+04  0.7818608E-02  0.7223770E-01
         52   -1    0    0    0    0  0.00000000000E+00  0.00000000000E+00  0.64930732323E+04  0.65000000000E+04  0.30000000000E+03 0. -1.
        -52   -1    0    0    0    0 -0.00000000000E+00 -0.00000000000E+00 -0.64930732323E+04  0.65000000000E+04  0.30000000000E+03 0.  1.
     100001    1    1    2    0    0 -0.45327599948E+03  0.21150395321E+04 -0.61276829549E+04  0.65000000000E+04  0.15050000000E+03 0.  1.
     100001    1    1    2    0    0  0.45327599948E+03 -0.21150395321E+04  0.61276829549E+04  0.65000000000E+04  0.15050000000E+03 0. -1.
</event>
<event>
 4    1  0.6249342E-004  0.6500000E+04  0.7818608E-02  0.7223770E-01
         52   -1    0    0    0    0  0.00000000000E+00  0.00000000000E+00  0.64930732323E+04  0.65000000000E+04  0.30000000000E+03 0. -1.
        -52   -1    0    0    0    0 -0.00000000000E+00 -0.00000000000E+00 -0.64930732323E+04  0.65000000000E+04  0.30000000000E+03 0. -1.
     100001    1    1    2    0    0 -0.13532080663E+03  0.54860201268E+02 -0.64966166878E+04  0.65000000000E+04  0.15050000000E+03 0. -1.
     100001    1    1    2    0    0  0.13532080663E+03 -0.54860201268E+02  0.64966166878E+04  0.65000000000E+04  0.15050000000E+03 0. -1.
</event>
<event>
 4    1  0.4826743E-004  0.6500000E+04  0.7818608E-02  0.7223770E-01
         52   -1    0    0    0    0  0.00000000000E+00  0.00000000000E+00  0.64930732323E+04  0.65000000000E+04  0.30000000000E+03 0. -1.
        -52   -1    0    0    0    0 -0.00000000000E+00 -0.00000000000E+00 -0.64930732323E+04  0.65000000000E+04  0.30000000000E+03 0.  1.
     100001    1    1    2    0    0  0.62375128236E+03 -0.28108996527E+03 -0.64621414809E+04  0.65000000000E+04  0.15050000000E+03 0.  1.
     100001    1    1    2    0    0 -0.62375128236E+03  0.28108996527E+03  0.64621414809E+04  0.65000000000E+04  0.15050000000E+03 0. -1.
</event>
<event>
 4    1  0.4826743E-004  0.6500000E+04  0.7818608E-02  0.7223770E-01
         52   -1    0    0    0    0  0.00000000000E+00  0.00000000000E+00  0.64930732323E+04  0.65000000000E+04  0.30000000000E+03 0. -1.
        -52   -1    0    0    0    0 -0.00000000000E+00 -0.00000000000E+00 -0.64930732323E+04  0.65000000000E+04  0.30000000000E+03 0.  1.
     100001    1    1    2    0    0  0.56148104876E+04 -0.29902431386E+04  0.13265364340E+04  0.65000000000E+04  0.15050000000E+03 0. -1.
     100001    1    1    2    0    0 -0.56148104876E+04  0.29902431386E+04 -0.13265364340E+04  0.65000000000E+04  0.15050000000E+03 0.  1.
</event>
<event>
 4    1  0.4826743E-004  0.6500000E+04  0.7818608E-02  0.7223770E-01
         52   -1    0    0    0    0  0.00000000000E+00  0.00000000000E+00  0.64930732323E+04  0.65000000000E+04  0.30000000000E+03 0.  1.
        -52   -1    0    0    0    0 -0.00000000000E+00 -0.00000000000E+00 -0.64930732323E+04  0.65000000000E+04  0.30000000000E+03 0. -1.
     100001    1    1    2    0    0 -0.13469726803E+04 -0.23114385932E+04  0.59220153646E+04  0.65000000000E+04  0.15050000000E+03 0.  1.
     100001    1    1    2    0    0  0.13469726803E+04  0.23114385932E+04 -0.59220153646E+04  0.65000000000E+04  0.15050000000E+03 0. -1.
</event>
<event>
 4    1  0.4826743E-004  0.6500000E+04  0.7818608E-02  0.7223770E-01
         52   -1    0    0    0    0  0.00000000000E+00  0.00000000000E+00  0.64930732323E+04  0.65000000000E+04  0.30000000000E+03 0. -1.
        -52   -1    0    0    0    0 -0.00000000000E+00 -0.00000000000E+00 -0.64930732323E+04  0.65000000000E+04  0.30000000000E+03 0.  1.
     100001    1    1    2    0    0 -0.10438157353E+03  0.94260991657E+03 -0.64286811075E+04  0.65000000000E+04  0.15050000000E+03 0.  1.
     100001    1    1    2    0    0  0.10438157353E+03 -0.94260991657E+03  0.64286811075E+04  0.65000000000E+04  0.15050000000E+03 0. -1.
</event>
<event>
 4    1  0.4826743E-004  0.6500000E+04  0.7818608E-02  0.7223770E-01
         52   -1    0    0    0    0  0.00000000000E+00  0.00000000000E+00  0.64930732323E+04  0.65000000000E+04  0.30000000000E+03 0.  1.
        -52   -1    0    0    0    0 -0.00000000000E+00 -0.00000000000E+00 -0.64930732323E+04  0.65000000000E+04  0.30000000000E+03 0. -1.
     100001    1    1    2    0    0 -0.37205583479E+04 -0.17737608477E+04 -0.50238001339E+04  0.65000000000E+04  0.15050000000E+03 0. -1.
     100001    1    1    2    0    0  0.37205583479E+04  0.17737608477E+04  0.50238001339E+04  0.65000000000E+04  0.15050000000E+03 0.  1.
</event>
<event>
 4    1  0.4826743E-004  0.6500000E+04  0.7818608E-02  0.7223770E-01
         52   -1    0    0    0    0  0.00000000000E+00  0.00000000000E+00  0.64930732323E+04  0.65000000000E+04  0.30000000000E+03 0.  1.
        -52   -1    0    0    0    0 -0.00000000000E+00 -0.00000000000E+00 -0.64930732323E+04  0.65000000000E+04  0.30000000000E+03 0. -1.
     100001    1    1    2    0    0  0.49564687741E+04  0.87924362216E+03  0.41094644047E+04  0.65000000000E+04  0.15050000000E+03 0.  1.
     100001    1    1    2    0    0 -0.49564687741E+04 -0.87924362216E+03 -0.41094644047E+04  0.65000000000E+04  0.15050000000E+03 0. -1.
</event>
<event>
 4    1  0.4826743E-004  0.6500000E+04  0.7818608E-02  0.7223770E-01
         52   -1    0    0    0    0  0.00000000000E+00  0.00000000000E+00  0.64930732323E+04  0.65000000000E+04  0.30000000000E+03 0.  1.
        -52   -1    0    0    0    0 -0.00000000000E+00 -0.00000000000E+00 -0.64930732323E+04  0.65000000000E+04  0.30000000000E+03 0. -1.
     100001    1    1    2    0    0 -0.95780201395E+03  0.15238359245E+03 -0.64254761919E+04  0.65000000000E+04  0.15050000000E+03 0. -1.
     100001    1    1    2    0    0  0.95780201395E+03 -0.15238359245E+03  0.64254761919E+04  0.65000000000E+04  0.15050000000E+03 0.  1.
</event>
<event>
 4    1  0.4826743E-004  0.6500000E+04  0.7818608E-02  0.7223770E-01
         52   -1    0    0    0    0  0.00000000000E+00  0.00000000000E+00  0.64930732323E+04  0.65000000000E+04  0.30000000000E+03 0.  1.
        -52   -1    0    0    0    0 -0.00000000000E+00 -0.00000000000E+00 -0.64930732323E+04  0.65000000000E+04  0.30000000000E+03 0. -1.
     100001    1    1    2    0    0 -0.17116749260E+04 -0.30269509438E+03 -0.62614610418E+04  0.65000000000E+04  0.15050000000E+03 0. -1.
     100001    1    1    2    0    0  0.17116749260E+04  0.30269509438E+03  0.62614610418E+04  0.65000000000E+04  0.15050000000E+03 0.  1.
</event>
<event>
 4    1  0.4826743E-004  0.6500000E+04  0.7818608E-02  0.7223770E-01
         52   -1    0    0    0    0  0.00000000000E+00  0.00000000000E+00  0.64930732323E+04  0.65000000000E+04  0.30000000000E+03 0. -1.
        -52   -1    0    0    0    0 -0.00000000000E+00 -0.00000000000E+00 -0.64930732323E+04  0.65000000000E+04  0.30000000000E+03 0. -1.
     100001    1    1    2    0    0  0.16756639419E+03 -0.82285351629E+02  0.64955754460E+04  0.65000000000E+04  0.15050000000E+03 0. -1.
     100001    1    1    2    0    0 -0.16756639419E+03  0.82285351629E+02 -0.64955754460E+04  0.65000000000E+04  0.15050000000E+03 0. -1.
</event>
<event>
 4    1  0.4826743E-004  0.6500000E+04  0.7818608E-02  0.7223770E-01
         52   -1    0    0    0    0  0.00000000000E+00  0.00000000000E+00  0.64930732323E+04  0.65000000000E+04  0.30000000000E+03 0. -1.
        -52   -1    0    0    0    0 -0.00000000000E+00 -0.00000000000E+00 -0.64930732323E+04  0.65000000000E+04  0.30000000000E+03 0. -1.
     100001    1    1    2    0    0 -0.26859732899E+03 -0.61513417555E+03  0.64634986788E+04  0.65000000000E+04  0.15050000000E+03 0. -1.
     100001    1    1    2    0    0  0.26859732899E+03  0.61513417555E+03 -0.64634986788E+04  0.65000000000E+04  0.15050000000E+03 0. -1.
</event>
<event>
 4    1  0.4826743E-004  0.6500000E+04  0.7818608E-02  0.7223770E-01
         52   -1    0    0    0    0  0.00000000000E+00  0.00000000000E+00  0.64930732323E+04  0.65000000000E+04  0.30000000000E+03 0.  1.
        -52   -1    0    0    0    0 -0.00000000000E+00 -0.00000000000E+00 -0.64930732323E+04  0.65000000000E+04  0.30000000000E+03 0. -1.
     100001    1    1    2    0    0  0.90466123219E+03  0.18949103848E+04  0.61496546601E+04  0.65000000000E+04  0.15050000000E+03 0.  1.
     100001    1    1    2    0    0 -0.90466123219E+03 -0.18949103848E+04 -0.61496546601E+04  0.65000000000E+04  0.15050000000E+03 0. -1.
</event>
<event>
 4    1  0.4826743E-004  0.6500000E+04  0.7818608E-02  0.7223770E-01
         52   -1    0    0    0    0  0.00000000000E+00  0.00000000000E+00  0.64930732323E+04  0.65000000000E+04  0.30000000000E+03 0.  1.
        -52   -1    0    0    0    0 -0.00000000000E+00 -0.00000000000E+00 -0.64930732323E+04  0.65000000000E+04  0.30000000000E+03 0. -1.
     100001    1    1    2    0    0  0.48816323179E+02 -0.12353552546E+04  0.63795661382E+04  0.65000000000E+04  0.15050000000E+03 0.  1.
     100001    1    1    2    0    0 -0.48816323179E+02  0.12353552546E+04 -0.63795661382E+04  0.65000000000E+04  0.15050000000E+03 0. -1.
</event>
<event>
 4    1  0.4826743E-004  0.6500000E+04  0.7818608E-02  0.7223770E-01
         52   -1    0    0    0    0  0.00000000000E+00  0.00000000000E+00  0.64930732323E+04  0.65000000000E+04  0.30000000000E+03 0. -1.
        -52   -1    0    0    0    0 -0.00000000000E+00 -0.00000000000E+00 -0.64930732323E+04  0.65000000000E+04  0.30000000000E+03 0.  1.
     100001    1    1    2    0    0 -0.12283159102E+04  0.36989112447E+03 -0.63703822751E+04  0.65000000000E+04  0.15050000000E+03 0.  1.
     100001    1    1    2    0    0  0.12283159102E+04 -0.36989112447E+03  0.63703822751E+04  0.65000000000E+04  0.15050000000E+03 0. -1.
</event>
<event>
 4    1  0.4826743E-004  0.6500000E+04  0.7818608E-02  0.7223770E-01
         52   -1    0    0    0    0  0.00000000000E+00  0.00000000000E+00  0.64930732323E+04  0.65000000000E+04  0.30000000000E+03 0.  1.
        -52   -1    0    0    0    0 -0.00000000000E+00 -0.00000000000E+00 -0.64930732323E+04  0.65000000000E+04  0.30000000000E+03 0. -1.
     100001    1    1    2    0    0 -0.57796788737E+03 -0.51410677032E+03  0.64520537118E+04  0.65000000000E+04  0.15050000000E+03 0.  1.
     100001    1    1    2    0    0  0.57796788737E+03  0.51410677032E+03 -0.64520537118E+04  0.65000000000E+04  0.15050000000E+03 0. -1.
</event>
<event>
 4    1  0.4826743E-004  0.6500000E+04  0.7818608E-02  0.7223770E-01
         52   -1    0    0    0    0  0.00000000000E+00  0.00000000000E+00  0.64930732323E+04  0.65000000000E+04  0.30000000000E+03 0.  1.
        -52   -1    0    0    0    0 -0.00000000000E+00 -0.00000000000E+00 -0.64930732323E+04  0.65000000000E+04  0.30000000000E+03 0. -1.
     100001    1    1    2    0    0  0.56785017791E+03  0.48472032476E+04 -0.42906312591E+04  0.65000000000E+04  0.15050000000E+03 0. -1.
     100001    1    1    2    0    0 -0.56785017791E+03 -0.48472032476E+04  0.42906312591E+04  0.65000000000E+04  0.15050000000E+03 0.  1.
</event>
<event>
 4    1  0.4826743E-004  0.6500000E+04  0.7818608E-02  0.7223770E-01
         52   -1    0    0    0    0  0.00000000000E+00  0.00000000000E+00  0.64930732323E+04  0.65000000000E+04  0.30000000000E+03 0. -1.
        -52   -1    0    0    0    0 -0.00000000000E+00 -0.00000000000E+00 -0.64930732323E+04  0.65000000000E+04  0.30000000000E+03 0.  1.
     100001    1    1    2    0    0  0.26324546658E+02 -0.14478338645E+04  0.63348586305E+04  0.65000000000E+04  0.15050000000E+03 0. -1.
     100001    1    1    2    0    0 -0.26324546658E+02  0.14478338645E+04 -0.63348586305E+04  0.65000000000E+04  0.15050000000E+03 0.  1.
</event>
<event>
 4    1  0.4826743E-004  0.6500000E+04  0.7818608E-02  0.7223770E-01
         52   -1    0    0    0    0  0.00000000000E+00  0.00000000000E+00  0.64930732323E+04  0.65000000000E+04  0.30000000000E+03 0.  1.
        -52   -1    0    0    0    0 -0.00000000000E+00 -0.00000000000E+00 -0.64930732323E+04  0.65000000000E+04  0.30000000000E+03 0.  1.
     100001    1    1    2    0    0 -0.11729881539E+03 -0.31405676186E+03 -0.64896039238E+04  0.65000000000E+04  0.15050000000E+03 0.  1.
     100001    1    1    2    0    0  0.11729881539E+03  0.31405676186E+03  0.64896039238E+04  0.65000000000E+04  0.15050000000E+03 0.  1.
</event>
<event>
 4    1  0.4826743E-004  0.6500000E+04  0.7818608E-02  0.7223770E-01
         52   -1    0    0    0    0  0.00000000000E+00  0.00000000000E+00  0.64930732323E+04  0.65000000000E+04  0.30000000000E+03 0.  1.
        -52   -1    0    0    0    0 -0.00000000000E+00 -0.00000000000E+00 -0.64930732323E+04  0.65000000000E+04  0.30000000000E+03 0.  1.
     100001    1    1    2    0    0 -0.56036703738E+03  0.48516525981E+03 -0.64558464359E+04  0.65000000000E+04  0.15050000000E+03 0.  1.
     100001    1    1    2    0    0  0.56036703738E+03 -0.48516525981E+03  0.64558464359E+04  0.65000000000E+04  0.15050000000E+03 0.  1.
</event>
<event>
 4    1  0.4826743E-004  0.6500000E+04  0.7818608E-02  0.7223770E-01
         52   -1    0    0    0    0  0.00000000000E+00  0.00000000000E+00  0.64930732323E+04  0.65000000000E+04  0.30000000000E+03 0.  1.
        -52   -1    0    0    0    0 -0.00000000000E+00 -0.00000000000E+00 -0.64930732323E+04  0.65000000000E+04  0.30000000000E+03 0. -1.
     100001    1    1    2    0    0 -0.20283012324E+04  0.55105476792E+04 -0.27833807027E+04  0.65000000000E+04  0.15050000000E+03 0. -1.
     100001    1    1    2    0    0  0.20283012324E+04 -0.55105476792E+04  0.27833807027E+04  0.65000000000E+04  0.15050000000E+03 0.  1.
</event>
<event>
 4    1  0.4826743E-004  0.6500000E+04  0.7818608E-02  0.7223770E-01
         52   -1    0    0    0    0  0.00000000000E+00  0.00000000000E+00  0.64930732323E+04  0.65000000000E+04  0.30000000000E+03 0. -1.
        -52   -1    0    0    0    0 -0.00000000000E+00 -0.00000000000E+00 -0.64930732323E+04  0.65000000000E+04  0.30000000000E+03 0.  1.
     100001    1    1    2    0    0 -0.21837783507E+03  0.56076000546E+03  0.64703329966E+04  0.65000000000E+04  0.15050000000E+03 0. -1.
     100001    1    1    2    0    0  0.21837783507E+03 -0.56076000546E+03 -0.64703329966E+04  0.65000000000E+04  0.15050000000E+03 0.  1.
</event>
<event>
 4    1  0.4826743E-004  0.6500000E+04  0.7818608E-02  0.7223770E-01
         52   -1    0    0    0    0  0.00000000000E+00  0.00000000000E+00  0.64930732323E+04  0.65000000000E+04  0.30000000000E+03 0.  1.
        -52   -1    0    0    0    0 -0.00000000000E+00 -0.00000000000E+00 -0.64930732323E+04  0.65000000000E+04  0.30000000000E+03 0. -1.
     100001    1    1    2    0    0  0.46331903210E+04 -0.17164151012E+04 -0.42207601685E+04  0.65000000000E+04  0.15050000000E+03 0. -1.
     100001    1    1    2    0    0 -0.46331903210E+04  0.17164151012E+04  0.42207601685E+04  0.65000000000E+04  0.15050000000E+03 0.  1.
</event>
<event>
 4    1  0.4826743E-004  0.6500000E+04  0.7818608E-02  0.7223770E-01
         52   -1    0    0    0    0  0.00000000000E+00  0.00000000000E+00  0.64930732323E+04  0.65000000000E+04  0.30000000000E+03 0.  1.
        -52   -1    0    0    0    0 -0.00000000000E+00 -0.00000000000E+00 -0.64930732323E+04  0.65000000000E+04  0.30000000000E+03 0. -1.
     100001    1    1    2    0    0 -0.66677911277E+03  0.53800086165E+03  0.64415301317E+04  0.65000000000E+04  0.15050000000E+03 0.  1.
     100001    1    1    2    0    0  0.66677911277E+03 -0.53800086165E+03 -0.64415301317E+04  0.65000000000E+04  0.15050000000E+03 0. -1.
</event>
<event>
 4    1  0.4826743E-004  0.6500000E+04  0.7818608E-02  0.7223770E-01
         52   -1    0    0    0    0  0.00000000000E+00  0.00000000000E+00  0.64930732323E+04  0.65000000000E+04  0.30000000000E+03 0. -1.
        -52   -1    0    0    0    0 -0.00000000000E+00 -0.00000000000E+00 -0.64930732323E+04  0.65000000000E+04  0.30000000000E+03 0.  1.
     100001    1    1    2    0    0 -0.34968852255E+03  0.56614149215E+03  0.64640971139E+04  0.65000000000E+04  0.15050000000E+03 0. -1.
     100001    1    1    2    0    0  0.34968852255E+03 -0.56614149215E+03 -0.64640971139E+04  0.65000000000E+04  0.15050000000E+03 0.  1.
</event>
<event>
 4    1  0.4826743E-004  0.6500000E+04  0.7818608E-02  0.7223770E-01
         52   -1    0    0    0    0  0.00000000000E+00  0.00000000000E+00  0.64930732323E+04  0.65000000000E+04  0.30000000000E+03 0.  1.
        -52   -1    0    0    0    0 -0.00000000000E+00 -0.00000000000E+00 -0.64930732323E+04  0.65000000000E+04  0.30000000000E+03 0. -1.
     100001    1    1    2    0    0  0.17088931921E+04  0.16228754390E+03 -0.62674314165E+04  0.65000000000E+04  0.15050000000E+03 0. -1.
     100001    1    1    2    0    0 -0.17088931921E+04 -0.16228754390E+03  0.62674314165E+04  0.65000000000E+04  0.15050000000E+03 0.  1.
</event>
<event>
 4    1  0.4826743E-004  0.6500000E+04  0.7818608E-02  0.7223770E-01
         52   -1    0    0    0    0  0.00000000000E+00  0.00000000000E+00  0.64930732323E+04  0.65000000000E+04  0.30000000000E+03 0. -1.
        -52   -1    0    0    0    0 -0.00000000000E+00 -0.00000000000E+00 -0.64930732323E+04  0.65000000000E+04  0.30000000000E+03 0.  1.
     100001    1    1    2    0    0  0.82076413460E+03  0.20942422066E+04 -0.60965437393E+04  0.65000000000E+04  0.15050000000E+03 0.  1.
     100001    1    1    2    0    0 -0.82076413460E+03 -0.20942422066E+04  0.60965437393E+04  0.65000000000E+04  0.15050000000E+03 0. -1.
</event>
<event>
 4    1  0.4826743E-004  0.6500000E+04  0.7818608E-02  0.7223770E-01
         52   -1    0    0    0    0  0.00000000000E+00  0.00000000000E+00  0.64930732323E+04  0.65000000000E+04  0.30000000000E+03 0. -1.
        -52   -1    0    0    0    0 -0.00000000000E+00 -0.00000000000E+00 -0.64930732323E+04  0.65000000000E+04  0.30000000000E+03 0.  1.
     100001    1    1    2    0    0 -0.22573178862E+04  0.21897774565E+04  0.56865402840E+04  0.65000000000E+04  0.15050000000E+03 0. -1.
     100001    1    1    2    0    0  0.22573178862E+04 -0.21897774565E+04 -0.56865402840E+04  0.65000000000E+04  0.15050000000E+03 0.  1.
</event>
<event>
 4    1  0.4826743E-004  0.6500000E+04  0.7818608E-02  0.7223770E-01
         52   -1    0    0    0    0  0.00000000000E+00  0.00000000000E+00  0.64930732323E+04  0.65000000000E+04  0.30000000000E+03 0. -1.
        -52   -1    0    0    0    0 -0.00000000000E+00 -0.00000000000E+00 -0.64930732323E+04  0.65000000000E+04  0.30000000000E+03 0.  1.
     100001    1    1    2    0    0 -0.15708900756E+04  0.15565229655E+04 -0.61103919987E+04  0.65000000000E+04  0.15050000000E+03 0.  1.
     100001    1    1    2    0    0  0.15708900756E+04 -0.15565229655E+04  0.61103919987E+04  0.65000000000E+04  0.15050000000E+03 0. -1.
</event>
<event>
 4    1  0.4826743E-004  0.6500000E+04  0.7818608E-02  0.7223770E-01
         52   -1    0    0    0    0  0.00000000000E+00  0.00000000000E+00  0.64930732323E+04  0.65000000000E+04  0.30000000000E+03 0.  1.
        -52   -1    0    0    0    0 -0.00000000000E+00 -0.00000000000E+00 -0.64930732323E+04  0.65000000000E+04  0.30000000000E+03 0. -1.
     100001    1    1    2    0    0 -0.14127645705E+03  0.45210680378E+04 -0.46655476110E+04  0.65000000000E+04  0.15050000000E+03 0. -1.
     100001    1    1    2    0    0  0.14127645705E+03 -0.45210680378E+04  0.46655476110E+04  0.65000000000E+04  0.15050000000E+03 0.  1.
</event>
<event>
 4    1  0.4826743E-004  0.6500000E+04  0.7818608E-02  0.7223770E-01
         52   -1    0    0    0    0  0.00000000000E+00  0.00000000000E+00  0.64930732323E+04  0.65000000000E+04  0.30000000000E+03 0. -1.
        -52   -1    0    0    0    0 -0.00000000000E+00 -0.00000000000E+00 -0.64930732323E+04  0.65000000000E+04  0.30000000000E+03 0.  1.
     100001    1    1    2    0    0  0.19062556032E+03  0.45403115284E+03 -0.64795730845E+04  0.65000000000E+04  0.15050000000E+03 0.  1.
     100001    1    1    2    0    0 -0.19062556032E+03 -0.45403115284E+03  0.64795730845E+04  0.65000000000E+04  0.15050000000E+03 0. -1.
</event>
<event>
 4    1  0.4826743E-004  0.6500000E+04  0.7818608E-02  0.7223770E-01
         52   -1    0    0    0    0  0.00000000000E+00  0.00000000000E+00  0.64930732323E+04  0.65000000000E+04  0.30000000000E+03 0. -1.
        -52   -1    0    0    0    0 -0.00000000000E+00 -0.00000000000E+00 -0.64930732323E+04  0.65000000000E+04  0.30000000000E+03 0.  1.
     100001    1    1    2    0    0  0.35114261039E+03  0.55729929792E+03 -0.64647866252E+04  0.65000000000E+04  0.15050000000E+03 0.  1.
     100001    1    1    2    0    0 -0.35114261039E+03 -0.55729929792E+03  0.64647866252E+04  0.65000000000E+04  0.15050000000E+03 0. -1.
</event>
<event>
 4    1  0.4826743E-004  0.6500000E+04  0.7818608E-02  0.7223770E-01
         52   -1    0    0    0    0  0.00000000000E+00  0.00000000000E+00  0.64930732323E+04  0.65000000000E+04  0.30000000000E+03 0.  1.
        -52   -1    0    0    0    0 -0.00000000000E+00 -0.00000000000E+00 -0.64930732323E+04  0.65000000000E+04  0.30000000000E+03 0. -1.
     100001    1    1    2    0    0 -0.17157564949E+04 -0.87765119660E+03  0.62059050732E+04  0.65000000000E+04  0.15050000000E+03 0.  1.
     100001    1    1    2    0    0  0.17157564949E+04  0.87765119660E+03 -0.62059050732E+04  0.65000000000E+04  0.15050000000E+03 0. -1.
</event>
<event>
 4    1  0.4826743E-004  0.6500000E+04  0.7818608E-02  0.7223770E-01
         52   -1    0    0    0    0  0.00000000000E+00  0.00000000000E+00  0.64930732323E+04  0.65000000000E+04  0.30000000000E+03 0.  1.
        -52   -1    0    0    0    0 -0.00000000000E+00 -0.00000000000E+00 -0.64930732323E+04  0.65000000000E+04  0.30000000000E+03 0. -1.
     100001    1    1    2    0    0 -0.10018125228E+04 -0.41197808482E+03 -0.64073391885E+04  0.65000000000E+04  0.15050000000E+03 0. -1.
     100001    1    1    2    0    0  0.10018125228E+04  0.41197808482E+03  0.64073391885E+04  0.65000000000E+04  0.15050000000E+03 0.  1.
</event>
<event>
 4    1  0.4826743E-004  0.6500000E+04  0.7818608E-02  0.7223770E-01
         52   -1    0    0    0    0  0.00000000000E+00  0.00000000000E+00  0.64930732323E+04  0.65000000000E+04  0.30000000000E+03 0.  1.
        -52   -1    0    0    0    0 -0.00000000000E+00 -0.00000000000E+00 -0.64930732323E+04  0.65000000000E+04  0.30000000000E+03 0. -1.
     100001    1    1    2    0    0  0.20121832181E+03  0.57134383940E+03  0.64699634585E+04  0.65000000000E+04  0.15050000000E+03 0.  1.
     100001    1    1    2    0    0 -0.20121832181E+03 -0.57134383940E+03 -0.64699634585E+04  0.65000000000E+04  0.15050000000E+03 0. -1.
</event>
<event>
 4    1  0.4826743E-004  0.6500000E+04  0.7818608E-02  0.7223770E-01
         52   -1    0    0    0    0  0.00000000000E+00  0.00000000000E+00  0.64930732323E+04  0.65000000000E+04  0.30000000000E+03 0. -1.
        -52   -1    0    0    0    0 -0.00000000000E+00 -0.00000000000E+00 -0.64930732323E+04  0.65000000000E+04  0.30000000000E+03 0.  1.
     100001    1    1    2    0    0  0.21056847464E+04 -0.61476064955E+04  0.19387506388E+02  0.65000000000E+04  0.15050000000E+03 0. -1.
     100001    1    1    2    0    0 -0.21056847464E+04  0.61476064955E+04 -0.19387506388E+02  0.65000000000E+04  0.15050000000E+03 0.  1.
</event>
<event>
 4    1  0.4826743E-004  0.6500000E+04  0.7818608E-02  0.7223770E-01
         52   -1    0    0    0    0  0.00000000000E+00  0.00000000000E+00  0.64930732323E+04  0.65000000000E+04  0.30000000000E+03 0. -1.
        -52   -1    0    0    0    0 -0.00000000000E+00 -0.00000000000E+00 -0.64930732323E+04  0.65000000000E+04  0.30000000000E+03 0.  1.
     100001    1    1    2    0    0 -0.41620483812E+04 -0.49155045554E+04  0.86169483489E+03  0.65000000000E+04  0.15050000000E+03 0.  1.
     100001    1    1    2    0    0  0.41620483812E+04  0.49155045554E+04 -0.86169483489E+03  0.65000000000E+04  0.15050000000E+03 0. -1.
</event>
<event>
 4    1  0.4826743E-004  0.6500000E+04  0.7818608E-02  0.7223770E-01
         52   -1    0    0    0    0  0.00000000000E+00  0.00000000000E+00  0.64930732323E+04  0.65000000000E+04  0.30000000000E+03 0. -1.
        -52   -1    0    0    0    0 -0.00000000000E+00 -0.00000000000E+00 -0.64930732323E+04  0.65000000000E+04  0.30000000000E+03 0.  1.
     100001    1    1    2    0    0  0.59696370129E+03  0.25088171408E+04 -0.59646308053E+04  0.65000000000E+04  0.15050000000E+03 0.  1.
     100001    1    1    2    0    0 -0.59696370129E+03 -0.25088171408E+04  0.59646308053E+04  0.65000000000E+04  0.15050000000E+03 0. -1.
</event>
<event>
 4    1  0.4826743E-004  0.6500000E+04  0.7818608E-02  0.7223770E-01
         52   -1    0    0    0    0  0.00000000000E+00  0.00000000000E+00  0.64930732323E+04  0.65000000000E+04  0.30000000000E+03 0.  1.
        -52   -1    0    0    0    0 -0.00000000000E+00 -0.00000000000E+00 -0.64930732323E+04  0.65000000000E+04  0.30000000000E+03 0. -1.
     100001    1    1    2    0    0 -0.36780593597E+03  0.12109510500E+04 -0.63738266448E+04  0.65000000000E+04  0.15050000000E+03 0. -1.
     100001    1    1    2    0    0  0.36780593597E+03 -0.12109510500E+04  0.63738266448E+04  0.65000000000E+04  0.15050000000E+03 0.  1.
</event>
<event>
 4    1  0.4826743E-004  0.6500000E+04  0.7818608E-02  0.7223770E-01
         52   -1    0    0    0    0  0.00000000000E+00  0.00000000000E+00  0.64930732323E+04  0.65000000000E+04  0.30000000000E+03 0. -1.
        -52   -1    0    0    0    0 -0.00000000000E+00 -0.00000000000E+00 -0.64930732323E+04  0.65000000000E+04  0.30000000000E+03 0. -1.
     100001    1    1    2    0    0  0.12572981161E+04 -0.63399008014E+03  0.63438637892E+04  0.65000000000E+04  0.15050000000E+03 0. -1.
     100001    1    1    2    0    0 -0.12572981161E+04  0.63399008014E+03 -0.63438637892E+04  0.65000000000E+04  0.15050000000E+03 0. -1.
</event>
<event>
 4    1  0.4826743E-004  0.6500000E+04  0.7818608E-02  0.7223770E-01
         52   -1    0    0    0    0  0.00000000000E+00  0.00000000000E+00  0.64930732323E+04  0.65000000000E+04  0.30000000000E+03 0.  1.
        -52   -1    0    0    0    0 -0.00000000000E+00 -0.00000000000E+00 -0.64930732323E+04  0.65000000000E+04  0.30000000000E+03 0. -1.
     100001    1    1    2    0    0  0.10846143763E+04 -0.13673424072E+04 -0.62594996722E+04  0.65000000000E+04  0.15050000000E+03 0. -1.
     100001    1    1    2    0    0 -0.10846143763E+04  0.13673424072E+04  0.62594996722E+04  0.65000000000E+04  0.15050000000E+03 0.  1.
</event>
<event>
 4    1  0.4826743E-004  0.6500000E+04  0.7818608E-02  0.7223770E-01
         52   -1    0    0    0    0  0.00000000000E+00  0.00000000000E+00  0.64930732323E+04  0.65000000000E+04  0.30000000000E+03 0. -1.
        -52   -1    0    0    0    0 -0.00000000000E+00 -0.00000000000E+00 -0.64930732323E+04  0.65000000000E+04  0.30000000000E+03 0.  1.
     100001    1    1    2    0    0 -0.20718417732E+04 -0.26380020417E+04  0.55655877178E+04  0.65000000000E+04  0.15050000000E+03 0. -1.
     100001    1    1    2    0    0  0.20718417732E+04  0.26380020417E+04 -0.55655877178E+04  0.65000000000E+04  0.15050000000E+03 0.  1.
</event>
<event>
 4    1  0.4826743E-004  0.6500000E+04  0.7818608E-02  0.7223770E-01
         52   -1    0    0    0    0  0.00000000000E+00  0.00000000000E+00  0.64930732323E+04  0.65000000000E+04  0.30000000000E+03 0. -1.
        -52   -1    0    0    0    0 -0.00000000000E+00 -0.00000000000E+00 -0.64930732323E+04  0.65000000000E+04  0.30000000000E+03 0.  1.
     100001    1    1    2    0    0  0.50444801137E+03 -0.10264363259E+04  0.63968203369E+04  0.65000000000E+04  0.15050000000E+03 0. -1.
     100001    1    1    2    0    0 -0.50444801137E+03  0.10264363259E+04 -0.63968203369E+04  0.65000000000E+04  0.15050000000E+03 0.  1.
</event>
<event>
 4    1  0.4826743E-004  0.6500000E+04  0.7818608E-02  0.7223770E-01
         52   -1    0    0    0    0  0.00000000000E+00  0.00000000000E+00  0.64930732323E+04  0.65000000000E+04  0.30000000000E+03 0. -1.
        -52   -1    0    0    0    0 -0.00000000000E+00 -0.00000000000E+00 -0.64930732323E+04  0.65000000000E+04  0.30000000000E+03 0.  1.
     100001    1    1    2    0    0  0.97865740399E+02  0.16232059227E+04 -0.62915001851E+04  0.65000000000E+04  0.15050000000E+03 0.  1.
     100001    1    1    2    0    0 -0.97865740399E+02 -0.16232059227E+04  0.62915001851E+04  0.65000000000E+04  0.15050000000E+03 0. -1.
</event>
<event>
 4    1  0.4826743E-004  0.6500000E+04  0.7818608E-02  0.7223770E-01
         52   -1    0    0    0    0  0.00000000000E+00  0.00000000000E+00  0.64930732323E+04  0.65000000000E+04  0.30000000000E+03 0.  1.
        -52   -1    0    0    0    0 -0.00000000000E+00 -0.00000000000E+00 -0.64930732323E+04  0.65000000000E+04  0.30000000000E+03 0.  1.
     100001    1    1    2    0    0 -0.12484969815E+03  0.11982948902E+03 -0.64959528321E+04  0.65000000000E+04  0.15050000000E+03 0.  1.
     100001    1    1    2    0    0  0.12484969815E+03 -0.11982948902E+03  0.64959528321E+04  0.65000000000E+04  0.15050000000E+03 0.  1.
</event>
<event>
 4    1  0.4826743E-004  0.6500000E+04  0.7818608E-02  0.7223770E-01
         52   -1    0    0    0    0  0.00000000000E+00  0.00000000000E+00  0.64930732323E+04  0.65000000000E+04  0.30000000000E+03 0. -1.
        -52   -1    0    0    0    0 -0.00000000000E+00 -0.00000000000E+00 -0.64930732323E+04  0.65000000000E+04  0.30000000000E+03 0.  1.
     100001    1    1    2    0    0 -0.22119520954E+04  0.21334760684E+03 -0.61064802035E+04  0.65000000000E+04  0.15050000000E+03 0.  1.
     100001    1    1    2    0    0  0.22119520954E+04 -0.21334760684E+03  0.61064802035E+04  0.65000000000E+04  0.15050000000E+03 0. -1.
</event>
<event>
 4    1  0.4826743E-004  0.6500000E+04  0.7818608E-02  0.7223770E-01
         52   -1    0    0    0    0  0.00000000000E+00  0.00000000000E+00  0.64930732323E+04  0.65000000000E+04  0.30000000000E+03 0.  1.
        -52   -1    0    0    0    0 -0.00000000000E+00 -0.00000000000E+00 -0.64930732323E+04  0.65000000000E+04  0.30000000000E+03 0. -1.
     100001    1    1    2    0    0 -0.18634731082E+03 -0.11693210684E+04  0.63894688878E+04  0.65000000000E+04  0.15050000000E+03 0.  1.
     100001    1    1    2    0    0  0.18634731082E+03  0.11693210684E+04 -0.63894688878E+04  0.65000000000E+04  0.15050000000E+03 0. -1.
</event>
<event>
 4    1  0.4826743E-004  0.6500000E+04  0.7818608E-02  0.7223770E-01
         52   -1    0    0    0    0  0.00000000000E+00  0.00000000000E+00  0.64930732323E+04  0.65000000000E+04  0.30000000000E+03 0.  1.
        -52   -1    0    0    0    0 -0.00000000000E+00 -0.00000000000E+00 -0.64930732323E+04  0.65000000000E+04  0.30000000000E+03 0. -1.
     100001    1    1    2    0    0 -0.27043370218E+04  0.11082048541E+04  0.58039463319E+04  0.65000000000E+04  0.15050000000E+03 0.  1.
     100001    1    1    2    0    0  0.27043370218E+04 -0.11082048541E+04 -0.58039463319E+04  0.65000000000E+04  0.15050000000E+03 0. -1.
</event>
<event>
 4    1  0.4826743E-004  0.6500000E+04  0.7818608E-02  0.7223770E-01
         52   -1    0    0    0    0  0.00000000000E+00  0.00000000000E+00  0.64930732323E+04  0.65000000000E+04  0.30000000000E+03 0. -1.
        -52   -1    0    0    0    0 -0.00000000000E+00 -0.00000000000E+00 -0.64930732323E+04  0.65000000000E+04  0.30000000000E+03 0. -1.
     100001    1    1    2    0    0 -0.21580864260E+03  0.18083561555E+03  0.64921548703E+04  0.65000000000E+04  0.15050000000E+03 0. -1.
     100001    1    1    2    0    0  0.21580864260E+03 -0.18083561555E+03 -0.64921548703E+04  0.65000000000E+04  0.15050000000E+03 0. -1.
</event>
<event>
 4    1  0.4826743E-004  0.6500000E+04  0.7818608E-02  0.7223770E-01
         52   -1    0    0    0    0  0.00000000000E+00  0.00000000000E+00  0.64930732323E+04  0.65000000000E+04  0.30000000000E+03 0. -1.
        -52   -1    0    0    0    0 -0.00000000000E+00 -0.00000000000E+00 -0.64930732323E+04  0.65000000000E+04  0.30000000000E+03 0.  1.
     100001    1    1    2    0    0  0.35755463053E+03 -0.62331173667E+03 -0.64584043629E+04  0.65000000000E+04  0.15050000000E+03 0.  1.
     100001    1    1    2    0    0 -0.35755463053E+03  0.62331173667E+03  0.64584043629E+04  0.65000000000E+04  0.15050000000E+03 0. -1.
</event>
<event>
 4    1  0.4826743E-004  0.6500000E+04  0.7818608E-02  0.7223770E-01
         52   -1    0    0    0    0  0.00000000000E+00  0.00000000000E+00  0.64930732323E+04  0.65000000000E+04  0.30000000000E+03 0.  1.
        -52   -1    0    0    0    0 -0.00000000000E+00 -0.00000000000E+00 -0.64930732323E+04  0.65000000000E+04  0.30000000000E+03 0. -1.
     100001    1    1    2    0    0  0.99512053434E+03  0.40868049795E+03 -0.64085930689E+04  0.65000000000E+04  0.15050000000E+03 0. -1.
     100001    1    1    2    0    0 -0.99512053434E+03 -0.40868049795E+03  0.64085930689E+04  0.65000000000E+04  0.15050000000E+03 0.  1.
</event>
<event>
 4    1  0.4826743E-004  0.6500000E+04  0.7818608E-02  0.7223770E-01
         52   -1    0    0    0    0  0.00000000000E+00  0.00000000000E+00  0.64930732323E+04  0.65000000000E+04  0.30000000000E+03 0.  1.
        -52   -1    0    0    0    0 -0.00000000000E+00 -0.00000000000E+00 -0.64930732323E+04  0.65000000000E+04  0.30000000000E+03 0. -1.
     100001    1    1    2    0    0  0.20711032567E+04 -0.10260233037E+04  0.60733151763E+04  0.65000000000E+04  0.15050000000E+03 0.  1.
     100001    1    1    2    0    0 -0.20711032567E+04  0.10260233037E+04 -0.60733151763E+04  0.65000000000E+04  0.15050000000E+03 0. -1.
</event>
<event>
 4    1  0.4826743E-004  0.6500000E+04  0.7818608E-02  0.7223770E-01
         52   -1    0    0    0    0  0.00000000000E+00  0.00000000000E+00  0.64930732323E+04  0.65000000000E+04  0.30000000000E+03 0. -1.
        -52   -1    0    0    0    0 -0.00000000000E+00 -0.00000000000E+00 -0.64930732323E+04  0.65000000000E+04  0.30000000000E+03 0.  1.
     100001    1    1    2    0    0  0.23988502765E+04 -0.18048224339E+04  0.57632875239E+04  0.65000000000E+04  0.15050000000E+03 0. -1.
     100001    1    1    2    0    0 -0.23988502765E+04  0.18048224339E+04 -0.57632875239E+04  0.65000000000E+04  0.15050000000E+03 0.  1.
</event>
<event>
 4    1  0.4826743E-004  0.6500000E+04  0.7818608E-02  0.7223770E-01
         52   -1    0    0    0    0  0.00000000000E+00  0.00000000000E+00  0.64930732323E+04  0.65000000000E+04  0.30000000000E+03 0. -1.
        -52   -1    0    0    0    0 -0.00000000000E+00 -0.00000000000E+00 -0.64930732323E+04  0.65000000000E+04  0.30000000000E+03 0.  1.
     100001    1    1    2    0    0 -0.34215823549E+04 -0.45040488556E+04 -0.31990104478E+04  0.65000000000E+04  0.15050000000E+03 0.  1.
     100001    1    1    2    0    0  0.34215823549E+04  0.45040488556E+04  0.31990104478E+04  0.65000000000E+04  0.15050000000E+03 0. -1.
</event>
<event>
 4    1  0.4826743E-004  0.6500000E+04  0.7818608E-02  0.7223770E-01
         52   -1    0    0    0    0  0.00000000000E+00  0.00000000000E+00  0.64930732323E+04  0.65000000000E+04  0.30000000000E+03 0.  1.
        -52   -1    0    0    0    0 -0.00000000000E+00 -0.00000000000E+00 -0.64930732323E+04  0.65000000000E+04  0.30000000000E+03 0. -1.
     100001    1    1    2    0    0  0.17431505588E+03 -0.42608118447E+03  0.64819301782E+04  0.65000000000E+04  0.15050000000E+03 0.  1.
     100001    1    1    2    0    0 -0.17431505588E+03  0.42608118447E+03 -0.64819301782E+04  0.65000000000E+04  0.15050000000E+03 0. -1.
</event>
<event>
 4    1  0.4826743E-004  0.6500000E+04  0.7818608E-02  0.7223770E-01
         52   -1    0    0    0    0  0.00000000000E+00  0.00000000000E+00  0.64930732323E+04  0.65000000000E+04  0.30000000000E+03 0. -1.
        -52   -1    0    0    0    0 -0.00000000000E+00 -0.00000000000E+00 -0.64930732323E+04  0.65000000000E+04  0.30000000000E+03 0.  1.
     100001    1    1    2    0    0 -0.76001691306E+03 -0.17098836262E+04 -0.62230235438E+04  0.65000000000E+04  0.15050000000E+03 0.  1.
     100001    1    1    2    0    0  0.76001691306E+03  0.17098836262E+04  0.62230235438E+04  0.65000000000E+04  0.15050000000E+03 0. -1.
</event>
<event>
 4    1  0.4826743E-004  0.6500000E+04  0.7818608E-02  0.7223770E-01
         52   -1    0    0    0    0  0.00000000000E+00  0.00000000000E+00  0.64930732323E+04  0.65000000000E+04  0.30000000000E+03 0. -1.
        -52   -1    0    0    0    0 -0.00000000000E+00 -0.00000000000E+00 -0.64930732323E+04  0.65000000000E+04  0.30000000000E+03 0.  1.
     100001    1    1    2    0    0 -0.24546589223E+03 -0.20050254823E+03 -0.64905234746E+04  0.65000000000E+04  0.15050000000E+03 0.  1.
     100001    1    1    2    0    0  0.24546589223E+03  0.20050254823E+03  0.64905234746E+04  0.65000000000E+04  0.15050000000E+03 0. -1.
</event>
<event>
 4    1  0.4826743E-004  0.6500000E+04  0.7818608E-02  0.7223770E-01
         52   -1    0    0    0    0  0.00000000000E+00  0.00000000000E+00  0.64930732323E+04  0.65000000000E+04  0.30000000000E+03 0. -1.
        -52   -1    0    0    0    0 -0.00000000000E+00 -0.00000000000E+00 -0.64930732323E+04  0.65000000000E+04  0.30000000000E+03 0. -1.
     100001    1    1    2    0    0  0.13102184147E+03 -0.45218432867E+03  0.64811814016E+04  0.65000000000E+04  0.15050000000E+03 0. -1.
     100001    1    1    2    0    0 -0.13102184147E+03  0.45218432867E+03 -0.64811814016E+04  0.65000000000E+04  0.15050000000E+03 0. -1.
</event>
<event>
 4    1  0.4826743E-004  0.6500000E+04  0.7818608E-02  0.7223770E-01
         52   -1    0    0    0    0  0.00000000000E+00  0.00000000000E+00  0.64930732323E+04  0.65000000000E+04  0.30000000000E+03 0.  1.
        -52   -1    0    0    0    0 -0.00000000000E+00 -0.00000000000E+00 -0.64930732323E+04  0.65000000000E+04  0.30000000000E+03 0. -1.
     100001    1    1    2    0    0  0.25064595976E+03 -0.48149153227E+04  0.43567323521E+04  0.65000000000E+04  0.15050000000E+03 0.  1.
     100001    1    1    2    0    0 -0.25064595976E+03  0.48149153227E+04 -0.43567323521E+04  0.65000000000E+04  0.15050000000E+03 0. -1.
</event>
<event>
 4    1  0.4826743E-004  0.6500000E+04  0.7818608E-02  0.7223770E-01
         52   -1    0    0    0    0  0.00000000000E+00  0.00000000000E+00  0.64930732323E+04  0.65000000000E+04  0.30000000000E+03 0.  1.
        -52   -1    0    0    0    0 -0.00000000000E+00 -0.00000000000E+00 -0.64930732323E+04  0.65000000000E+04  0.30000000000E+03 0. -1.
     100001    1    1    2    0    0  0.11910326251E+04 -0.45471540745E+03  0.63719718246E+04  0.65000000000E+04  0.15050000000E+03 0.  1.
     100001    1    1    2    0    0 -0.11910326251E+04  0.45471540745E+03 -0.63719718246E+04  0.65000000000E+04  0.15050000000E+03 0. -1.
</event>
<event>
 4    1  0.4826743E-004  0.6500000E+04  0.7818608E-02  0.7223770E-01
         52   -1    0    0    0    0  0.00000000000E+00  0.00000000000E+00  0.64930732323E+04  0.65000000000E+04  0.30000000000E+03 0. -1.
        -52   -1    0    0    0    0 -0.00000000000E+00 -0.00000000000E+00 -0.64930732323E+04  0.65000000000E+04  0.30000000000E+03 0.  1.
     100001    1    1    2    0    0  0.19671770012E+03  0.24845954077E+03  0.64905253834E+04  0.65000000000E+04  0.15050000000E+03 0. -1.
     100001    1    1    2    0    0 -0.19671770012E+03 -0.24845954077E+03 -0.64905253834E+04  0.65000000000E+04  0.15050000000E+03 0.  1.
</event>
<event>
 4    1  0.4826743E-004  0.6500000E+04  0.7818608E-02  0.7223770E-01
         52   -1    0    0    0    0  0.00000000000E+00  0.00000000000E+00  0.64930732323E+04  0.65000000000E+04  0.30000000000E+03 0.  1.
        -52   -1    0    0    0    0 -0.00000000000E+00 -0.00000000000E+00 -0.64930732323E+04  0.65000000000E+04  0.30000000000E+03 0. -1.
     100001    1    1    2    0    0 -0.42164509811E+03  0.34837378871E+03 -0.64751989054E+04  0.65000000000E+04  0.15050000000E+03 0. -1.
     100001    1    1    2    0    0  0.42164509811E+03 -0.34837378871E+03  0.64751989054E+04  0.65000000000E+04  0.15050000000E+03 0.  1.
</event>
<event>
 4    1  0.4826743E-004  0.6500000E+04  0.7818608E-02  0.7223770E-01
         52   -1    0    0    0    0  0.00000000000E+00  0.00000000000E+00  0.64930732323E+04  0.65000000000E+04  0.30000000000E+03 0.  1.
        -52   -1    0    0    0    0 -0.00000000000E+00 -0.00000000000E+00 -0.64930732323E+04  0.65000000000E+04  0.30000000000E+03 0.  1.
     100001    1    1    2    0    0  0.40035749578E+03 -0.16697285087E+03  0.64837630812E+04  0.65000000000E+04  0.15050000000E+03 0.  1.
     100001    1    1    2    0    0 -0.40035749578E+03  0.16697285087E+03 -0.64837630812E+04  0.65000000000E+04  0.15050000000E+03 0.  1.
</event>
<event>
 4    1  0.4826743E-004  0.6500000E+04  0.7818608E-02  0.7223770E-01
         52   -1    0    0    0    0  0.00000000000E+00  0.00000000000E+00  0.64930732323E+04  0.65000000000E+04  0.30000000000E+03 0. -1.
        -52   -1    0    0    0    0 -0.00000000000E+00 -0.00000000000E+00 -0.64930732323E+04  0.65000000000E+04  0.30000000000E+03 0.  1.
     100001    1    1    2    0    0 -0.47423913480E+04  0.24761460394E+04  0.36886006621E+04  0.65000000000E+04  0.15050000000E+03 0. -1.
     100001    1    1    2    0    0  0.47423913480E+04 -0.24761460394E+04 -0.36886006621E+04  0.65000000000E+04  0.15050000000E+03 0.  1.
</event>
<event>
 4    1  0.5200828E-004  0.6500000E+04  0.7818608E-02  0.7223770E-01
         52   -1    0    0    0    0  0.00000000000E+00  0.00000000000E+00  0.64930732323E+04  0.65000000000E+04  0.30000000000E+03 0. -1.
        -52   -1    0    0    0    0 -0.00000000000E+00 -0.00000000000E+00 -0.64930732323E+04  0.65000000000E+04  0.30000000000E+03 0. -1.
     100001    1    1    2    0    0  0.23890688650E+02  0.21488919109E+03 -0.64946594692E+04  0.65000000000E+04  0.15050000000E+03 0. -1.
     100001    1    1    2    0    0 -0.23890688650E+02 -0.21488919109E+03  0.64946594692E+04  0.65000000000E+04  0.15050000000E+03 0. -1.
</event>
<event>
 4    1  0.4826743E-004  0.6500000E+04  0.7818608E-02  0.7223770E-01
         52   -1    0    0    0    0  0.00000000000E+00  0.00000000000E+00  0.64930732323E+04  0.65000000000E+04  0.30000000000E+03 0. -1.
        -52   -1    0    0    0    0 -0.00000000000E+00 -0.00000000000E+00 -0.64930732323E+04  0.65000000000E+04  0.30000000000E+03 0.  1.
     100001    1    1    2    0    0  0.36580367817E+04 -0.46190523024E+04 -0.27405241252E+04  0.65000000000E+04  0.15050000000E+03 0. -1.
     100001    1    1    2    0    0 -0.36580367817E+04  0.46190523024E+04  0.27405241252E+04  0.65000000000E+04  0.15050000000E+03 0.  1.
</event>
<event>
 4    1  0.5577700E-004  0.6500000E+04  0.7818608E-02  0.7223770E-01
         52   -1    0    0    0    0  0.00000000000E+00  0.00000000000E+00  0.64930732323E+04  0.65000000000E+04  0.30000000000E+03 0. -1.
        -52   -1    0    0    0    0 -0.00000000000E+00 -0.00000000000E+00 -0.64930732323E+04  0.65000000000E+04  0.30000000000E+03 0. -1.
     100001    1    1    2    0    0 -0.89912750912E+02 -0.19611902904E+03  0.64946749552E+04  0.65000000000E+04  0.15050000000E+03 0. -1.
     100001    1    1    2    0    0  0.89912750912E+02  0.19611902904E+03 -0.64946749552E+04  0.65000000000E+04  0.15050000000E+03 0. -1.
</event>
<event>
 4    1  0.4826743E-004  0.6500000E+04  0.7818608E-02  0.7223770E-01
         52   -1    0    0    0    0  0.00000000000E+00  0.00000000000E+00  0.64930732323E+04  0.65000000000E+04  0.30000000000E+03 0. -1.
        -52   -1    0    0    0    0 -0.00000000000E+00 -0.00000000000E+00 -0.64930732323E+04  0.65000000000E+04  0.30000000000E+03 0.  1.
     100001    1    1    2    0    0  0.13031558645E+04 -0.56439842714E+03 -0.63411819843E+04  0.65000000000E+04  0.15050000000E+03 0.  1.
     100001    1    1    2    0    0 -0.13031558645E+04  0.56439842714E+03  0.63411819843E+04  0.65000000000E+04  0.15050000000E+03 0. -1.
</event>
<event>
 4    1  0.4826743E-004  0.6500000E+04  0.7818608E-02  0.7223770E-01
         52   -1    0    0    0    0  0.00000000000E+00  0.00000000000E+00  0.64930732323E+04  0.65000000000E+04  0.30000000000E+03 0.  1.
        -52   -1    0    0    0    0 -0.00000000000E+00 -0.00000000000E+00 -0.64930732323E+04  0.65000000000E+04  0.30000000000E+03 0. -1.
     100001    1    1    2    0    0  0.18225774116E+04 -0.14296473108E+04  0.60713812181E+04  0.65000000000E+04  0.15050000000E+03 0.  1.
     100001    1    1    2    0    0 -0.18225774116E+04  0.14296473108E+04 -0.60713812181E+04  0.65000000000E+04  0.15050000000E+03 0. -1.
</event>
<event>
 4    1  0.4826743E-004  0.6500000E+04  0.7818608E-02  0.7223770E-01
         52   -1    0    0    0    0  0.00000000000E+00  0.00000000000E+00  0.64930732323E+04  0.65000000000E+04  0.30000000000E+03 0.  1.
        -52   -1    0    0    0    0 -0.00000000000E+00 -0.00000000000E+00 -0.64930732323E+04  0.65000000000E+04  0.30000000000E+03 0. -1.
     100001    1    1    2    0    0 -0.18808316023E+04  0.48431503291E+03  0.62012306184E+04  0.65000000000E+04  0.15050000000E+03 0.  1.
     100001    1    1    2    0    0  0.18808316023E+04 -0.48431503291E+03 -0.62012306184E+04  0.65000000000E+04  0.15050000000E+03 0. -1.
</event>
<event>
 4    1  0.4826743E-004  0.6500000E+04  0.7818608E-02  0.7223770E-01
         52   -1    0    0    0    0  0.00000000000E+00  0.00000000000E+00  0.64930732323E+04  0.65000000000E+04  0.30000000000E+03 0. -1.
        -52   -1    0    0    0    0 -0.00000000000E+00 -0.00000000000E+00 -0.64930732323E+04  0.65000000000E+04  0.30000000000E+03 0.  1.
     100001    1    1    2    0    0 -0.13642178427E+03  0.16495035323E+04  0.62839380124E+04  0.65000000000E+04  0.15050000000E+03 0. -1.
     100001    1    1    2    0    0  0.13642178427E+03 -0.16495035323E+04 -0.62839380124E+04  0.65000000000E+04  0.15050000000E+03 0.  1.
</event>
<event>
 4    1  0.4826743E-004  0.6500000E+04  0.7818608E-02  0.7223770E-01
         52   -1    0    0    0    0  0.00000000000E+00  0.00000000000E+00  0.64930732323E+04  0.65000000000E+04  0.30000000000E+03 0.  1.
        -52   -1    0    0    0    0 -0.00000000000E+00 -0.00000000000E+00 -0.64930732323E+04  0.65000000000E+04  0.30000000000E+03 0. -1.
     100001    1    1    2    0    0  0.91523788421E+03 -0.72937525150E+03 -0.63920029027E+04  0.65000000000E+04  0.15050000000E+03 0. -1.
     100001    1    1    2    0    0 -0.91523788421E+03  0.72937525150E+03  0.63920029027E+04  0.65000000000E+04  0.15050000000E+03 0.  1.
</event>
<event>
 4    1  0.4826743E-004  0.6500000E+04  0.7818608E-02  0.7223770E-01
         52   -1    0    0    0    0  0.00000000000E+00  0.00000000000E+00  0.64930732323E+04  0.65000000000E+04  0.30000000000E+03 0. -1.
        -52   -1    0    0    0    0 -0.00000000000E+00 -0.00000000000E+00 -0.64930732323E+04  0.65000000000E+04  0.30000000000E+03 0.  1.
     100001    1    1    2    0    0  0.78676794600E+02 -0.21614093158E+04  0.61277621920E+04  0.65000000000E+04  0.15050000000E+03 0. -1.
     100001    1    1    2    0    0 -0.78676794600E+02  0.21614093158E+04 -0.61277621920E+04  0.65000000000E+04  0.15050000000E+03 0.  1.
</event>
<event>
 4    1  0.4826743E-004  0.6500000E+04  0.7818608E-02  0.7223770E-01
         52   -1    0    0    0    0  0.00000000000E+00  0.00000000000E+00  0.64930732323E+04  0.65000000000E+04  0.30000000000E+03 0. -1.
        -52   -1    0    0    0    0 -0.00000000000E+00 -0.00000000000E+00 -0.64930732323E+04  0.65000000000E+04  0.30000000000E+03 0.  1.
     100001    1    1    2    0    0  0.28117806473E+04  0.20610902720E+04  0.54838988168E+04  0.65000000000E+04  0.15050000000E+03 0. -1.
     100001    1    1    2    0    0 -0.28117806473E+04 -0.20610902720E+04 -0.54838988168E+04  0.65000000000E+04  0.15050000000E+03 0.  1.
</event>
<event>
 4    1  0.4826743E-004  0.6500000E+04  0.7818608E-02  0.7223770E-01
         52   -1    0    0    0    0  0.00000000000E+00  0.00000000000E+00  0.64930732323E+04  0.65000000000E+04  0.30000000000E+03 0. -1.
        -52   -1    0    0    0    0 -0.00000000000E+00 -0.00000000000E+00 -0.64930732323E+04  0.65000000000E+04  0.30000000000E+03 0.  1.
     100001    1    1    2    0    0  0.27939601958E+04 -0.33823034794E+03  0.58571952679E+04  0.65000000000E+04  0.15050000000E+03 0. -1.
     100001    1    1    2    0    0 -0.27939601958E+04  0.33823034794E+03 -0.58571952679E+04  0.65000000000E+04  0.15050000000E+03 0.  1.
</event>
<event>
 4    1  0.4826743E-004  0.6500000E+04  0.7818608E-02  0.7223770E-01
         52   -1    0    0    0    0  0.00000000000E+00  0.00000000000E+00  0.64930732323E+04  0.65000000000E+04  0.30000000000E+03 0. -1.
        -52   -1    0    0    0    0 -0.00000000000E+00 -0.00000000000E+00 -0.64930732323E+04  0.65000000000E+04  0.30000000000E+03 0.  1.
     100001    1    1    2    0    0 -0.48333984029E+04 -0.41412465252E+03 -0.43236686276E+04  0.65000000000E+04  0.15050000000E+03 0.  1.
     100001    1    1    2    0    0  0.48333984029E+04  0.41412465252E+03  0.43236686276E+04  0.65000000000E+04  0.15050000000E+03 0. -1.
</event>
<event>
 4    1  0.4826743E-004  0.6500000E+04  0.7818608E-02  0.7223770E-01
         52   -1    0    0    0    0  0.00000000000E+00  0.00000000000E+00  0.64930732323E+04  0.65000000000E+04  0.30000000000E+03 0. -1.
        -52   -1    0    0    0    0 -0.00000000000E+00 -0.00000000000E+00 -0.64930732323E+04  0.65000000000E+04  0.30000000000E+03 0.  1.
     100001    1    1    2    0    0 -0.22229348561E+04 -0.11513770014E+04 -0.59966858661E+04  0.65000000000E+04  0.15050000000E+03 0.  1.
     100001    1    1    2    0    0  0.22229348561E+04  0.11513770014E+04  0.59966858661E+04  0.65000000000E+04  0.15050000000E+03 0. -1.
</event>
<event>
 4    1  0.4826743E-004  0.6500000E+04  0.7818608E-02  0.7223770E-01
         52   -1    0    0    0    0  0.00000000000E+00  0.00000000000E+00  0.64930732323E+04  0.65000000000E+04  0.30000000000E+03 0.  1.
        -52   -1    0    0    0    0 -0.00000000000E+00 -0.00000000000E+00 -0.64930732323E+04  0.65000000000E+04  0.30000000000E+03 0. -1.
     100001    1    1    2    0    0 -0.10473870202E+04  0.27613324366E+04 -0.57883826199E+04  0.65000000000E+04  0.15050000000E+03 0. -1.
     100001    1    1    2    0    0  0.10473870202E+04 -0.27613324366E+04  0.57883826199E+04  0.65000000000E+04  0.15050000000E+03 0.  1.
</event>
<event>
 4    1  0.4826743E-004  0.6500000E+04  0.7818608E-02  0.7223770E-01
         52   -1    0    0    0    0  0.00000000000E+00  0.00000000000E+00  0.64930732323E+04  0.65000000000E+04  0.30000000000E+03 0.  1.
        -52   -1    0    0    0    0 -0.00000000000E+00 -0.00000000000E+00 -0.64930732323E+04  0.65000000000E+04  0.30000000000E+03 0. -1.
     100001    1    1    2    0    0 -0.82984538813E+01 -0.37951129924E+03 -0.64871605545E+04  0.65000000000E+04  0.15050000000E+03 0. -1.
     100001    1    1    2    0    0  0.82984538813E+01  0.37951129924E+03  0.64871605545E+04  0.65000000000E+04  0.15050000000E+03 0.  1.
</event>
<event>
 4    1  0.4826743E-004  0.6500000E+04  0.7818608E-02  0.7223770E-01
         52   -1    0    0    0    0  0.00000000000E+00  0.00000000000E+00  0.64930732323E+04  0.65000000000E+04  0.30000000000E+03 0.  1.
        -52   -1    0    0    0    0 -0.00000000000E+00 -0.00000000000E+00 -0.64930732323E+04  0.65000000000E+04  0.30000000000E+03 0. -1.
     100001    1    1    2    0    0  0.22274562292E+04 -0.56998777392E+03  0.60779027991E+04  0.65000000000E+04  0.15050000000E+03 0.  1.
     100001    1    1    2    0    0 -0.22274562292E+04  0.56998777392E+03 -0.60779027991E+04  0.65000000000E+04  0.15050000000E+03 0. -1.
</event>
<event>
 4    1  0.4826743E-004  0.6500000E+04  0.7818608E-02  0.7223770E-01
         52   -1    0    0    0    0  0.00000000000E+00  0.00000000000E+00  0.64930732323E+04  0.65000000000E+04  0.30000000000E+03 0. -1.
        -52   -1    0    0    0    0 -0.00000000000E+00 -0.00000000000E+00 -0.64930732323E+04  0.65000000000E+04  0.30000000000E+03 0. -1.
     100001    1    1    2    0    0 -0.23695232753E+03  0.23235929002E+03  0.64897775389E+04  0.65000000000E+04  0.15050000000E+03 0. -1.
     100001    1    1    2    0    0  0.23695232753E+03 -0.23235929002E+03 -0.64897775389E+04  0.65000000000E+04  0.15050000000E+03 0. -1.
</event>
<event>
 4    1  0.4826743E-004  0.6500000E+04  0.7818608E-02  0.7223770E-01
         52   -1    0    0    0    0  0.00000000000E+00  0.00000000000E+00  0.64930732323E+04  0.65000000000E+04  0.30000000000E+03 0.  1.
        -52   -1    0    0    0    0 -0.00000000000E+00 -0.00000000000E+00 -0.64930732323E+04  0.65000000000E+04  0.30000000000E+03 0.  1.
     100001    1    1    2    0    0 -0.28618613483E+02  0.52788734128E+02  0.64979799995E+04  0.65000000000E+04  0.15050000000E+03 0.  1.
     100001    1    1    2    0    0  0.28618613483E+02 -0.52788734128E+02 -0.64979799995E+04  0.65000000000E+04  0.15050000000E+03 0.  1.
</event>
<event>
 4    1  0.4826743E-004  0.6500000E+04  0.7818608E-02  0.7223770E-01
         52   -1    0    0    0    0  0.00000000000E+00  0.00000000000E+00  0.64930732323E+04  0.65000000000E+04  0.30000000000E+03 0.  1.
        -52   -1    0    0    0    0 -0.00000000000E+00 -0.00000000000E+00 -0.64930732323E+04  0.65000000000E+04  0.30000000000E+03 0. -1.
     100001    1    1    2    0    0  0.86686996925E+03 -0.56449653902E+03 -0.64153900789E+04  0.65000000000E+04  0.15050000000E+03 0. -1.
     100001    1    1    2    0    0 -0.86686996925E+03  0.56449653902E+03  0.64153900789E+04  0.65000000000E+04  0.15050000000E+03 0.  1.
</event>
<event>
 4    1  0.4826743E-004  0.6500000E+04  0.7818608E-02  0.7223770E-01
         52   -1    0    0    0    0  0.00000000000E+00  0.00000000000E+00  0.64930732323E+04  0.65000000000E+04  0.30000000000E+03 0.  1.
        -52   -1    0    0    0    0 -0.00000000000E+00 -0.00000000000E+00 -0.64930732323E+04  0.65000000000E+04  0.30000000000E+03 0. -1.
     100001    1    1    2    0    0  0.64856048432E+03 -0.42059929834E+03 -0.64521171160E+04  0.65000000000E+04  0.15050000000E+03 0. -1.
     100001    1    1    2    0    0 -0.64856048432E+03  0.42059929834E+03  0.64521171160E+04  0.65000000000E+04  0.15050000000E+03 0.  1.
</event>
<event>
 4    1  0.4826743E-004  0.6500000E+04  0.7818608E-02  0.7223770E-01
         52   -1    0    0    0    0  0.00000000000E+00  0.00000000000E+00  0.64930732323E+04  0.65000000000E+04  0.30000000000E+03 0. -1.
        -52   -1    0    0    0    0 -0.00000000000E+00 -0.00000000000E+00 -0.64930732323E+04  0.65000000000E+04  0.30000000000E+03 0.  1.
     100001    1    1    2    0    0 -0.48170906966E+03 -0.13967514734E+04  0.63280637990E+04  0.65000000000E+04  0.15050000000E+03 0. -1.
     100001    1    1    2    0    0  0.48170906966E+03  0.13967514734E+04 -0.63280637990E+04  0.65000000000E+04  0.15050000000E+03 0.  1.
</event>
<event>
 4    1  0.4826743E-004  0.6500000E+04  0.7818608E-02  0.7223770E-01
         52   -1    0    0    0    0  0.00000000000E+00  0.00000000000E+00  0.64930732323E+04  0.65000000000E+04  0.30000000000E+03 0. -1.
        -52   -1    0    0    0    0 -0.00000000000E+00 -0.00000000000E+00 -0.64930732323E+04  0.65000000000E+04  0.30000000000E+03 0.  1.
     100001    1    1    2    0    0 -0.13605247455E+04  0.22615103209E+04  0.59381725501E+04  0.65000000000E+04  0.15050000000E+03 0. -1.
     100001    1    1    2    0    0  0.13605247455E+04 -0.22615103209E+04 -0.59381725501E+04  0.65000000000E+04  0.15050000000E+03 0.  1.
</event>
<event>
 4    1  0.4826743E-004  0.6500000E+04  0.7818608E-02  0.7223770E-01
         52   -1    0    0    0    0  0.00000000000E+00  0.00000000000E+00  0.64930732323E+04  0.65000000000E+04  0.30000000000E+03 0. -1.
        -52   -1    0    0    0    0 -0.00000000000E+00 -0.00000000000E+00 -0.64930732323E+04  0.65000000000E+04  0.30000000000E+03 0.  1.
     100001    1    1    2    0    0  0.62622943103E+03  0.60673356858E+03 -0.64394922802E+04  0.65000000000E+04  0.15050000000E+03 0.  1.
     100001    1    1    2    0    0 -0.62622943103E+03 -0.60673356858E+03  0.64394922802E+04  0.65000000000E+04  0.15050000000E+03 0. -1.
</event>
<event>
 4    1  0.4826743E-004  0.6500000E+04  0.7818608E-02  0.7223770E-01
         52   -1    0    0    0    0  0.00000000000E+00  0.00000000000E+00  0.64930732323E+04  0.65000000000E+04  0.30000000000E+03 0. -1.
        -52   -1    0    0    0    0 -0.00000000000E+00 -0.00000000000E+00 -0.64930732323E+04  0.65000000000E+04  0.30000000000E+03 0.  1.
     100001    1    1    2    0    0 -0.60037895307E+03 -0.36115485521E+02  0.64703624732E+04  0.65000000000E+04  0.15050000000E+03 0. -1.
     100001    1    1    2    0    0  0.60037895307E+03  0.36115485521E+02 -0.64703624732E+04  0.65000000000E+04  0.15050000000E+03 0.  1.
</event>
<event>
 4    1  0.4826743E-004  0.6500000E+04  0.7818608E-02  0.7223770E-01
         52   -1    0    0    0    0  0.00000000000E+00  0.00000000000E+00  0.64930732323E+04  0.65000000000E+04  0.30000000000E+03 0. -1.
        -52   -1    0    0    0    0 -0.00000000000E+00 -0.00000000000E+00 -0.64930732323E+04  0.65000000000E+04  0.30000000000E+03 0.  1.
     100001    1    1    2    0    0  0.26092733957E+03  0.24111975764E+03  0.64885381972E+04  0.65000000000E+04  0.15050000000E+03 0. -1.
     100001    1    1    2    0    0 -0.26092733957E+03 -0.24111975764E+03 -0.64885381972E+04  0.65000000000E+04  0.15050000000E+03 0.  1.
</event>
<event>
 4    1  0.4826743E-004  0.6500000E+04  0.7818608E-02  0.7223770E-01
         52   -1    0    0    0    0  0.00000000000E+00  0.00000000000E+00  0.64930732323E+04  0.65000000000E+04  0.30000000000E+03 0.  1.
        -52   -1    0    0    0    0 -0.00000000000E+00 -0.00000000000E+00 -0.64930732323E+04  0.65000000000E+04  0.30000000000E+03 0. -1.
     100001    1    1    2    0    0  0.13300070094E+04 -0.50743421335E+03 -0.63404212497E+04  0.65000000000E+04  0.15050000000E+03 0. -1.
     100001    1    1    2    0    0 -0.13300070094E+04  0.50743421335E+03  0.63404212497E+04  0.65000000000E+04  0.15050000000E+03 0.  1.
</event>
<event>
 4    1  0.4826743E-004  0.6500000E+04  0.7818608E-02  0.7223770E-01
         52   -1    0    0    0    0  0.00000000000E+00  0.00000000000E+00  0.64930732323E+04  0.65000000000E+04  0.30000000000E+03 0.  1.
        -52   -1    0    0    0    0 -0.00000000000E+00 -0.00000000000E+00 -0.64930732323E+04  0.65000000000E+04  0.30000000000E+03 0.  1.
     100001    1    1    2    0    0  0.33808777631E+03  0.36704336288E+03  0.64790682644E+04  0.65000000000E+04  0.15050000000E+03 0.  1.
     100001    1    1    2    0    0 -0.33808777631E+03 -0.36704336288E+03 -0.64790682644E+04  0.65000000000E+04  0.15050000000E+03 0.  1.
</event>
<event>
 4    1  0.4826743E-004  0.6500000E+04  0.7818608E-02  0.7223770E-01
         52   -1    0    0    0    0  0.00000000000E+00  0.00000000000E+00  0.64930732323E+04  0.65000000000E+04  0.30000000000E+03 0.  1.
        -52   -1    0    0    0    0 -0.00000000000E+00 -0.00000000000E+00 -0.64930732323E+04  0.65000000000E+04  0.30000000000E+03 0. -1.
     100001    1    1    2    0    0 -0.43709900514E+03 -0.14945122097E+03 -0.64818175339E+04  0.65000000000E+04  0.15050000000E+03 0. -1.
     100001    1    1    2    0    0  0.43709900514E+03  0.14945122097E+03  0.64818175339E+04  0.65000000000E+04  0.15050000000E+03 0.  1.
</event>
<event>
 4    1  0.4826743E-004  0.6500000E+04  0.7818608E-02  0.7223770E-01
         52   -1    0    0    0    0  0.00000000000E+00  0.00000000000E+00  0.64930732323E+04  0.65000000000E+04  0.30000000000E+03 0.  1.
        -52   -1    0    0    0    0 -0.00000000000E+00 -0.00000000000E+00 -0.64930732323E+04  0.65000000000E+04  0.30000000000E+03 0. -1.
     100001    1    1    2    0    0  0.21469862024E+04 -0.33984454698E+03  0.61239126121E+04  0.65000000000E+04  0.15050000000E+03 0.  1.
     100001    1    1    2    0    0 -0.21469862024E+04  0.33984454698E+03 -0.61239126121E+04  0.65000000000E+04  0.15050000000E+03 0. -1.
</event>
<event>
 4    1  0.4826743E-004  0.6500000E+04  0.7818608E-02  0.7223770E-01
         52   -1    0    0    0    0  0.00000000000E+00  0.00000000000E+00  0.64930732323E+04  0.65000000000E+04  0.30000000000E+03 0.  1.
        -52   -1    0    0    0    0 -0.00000000000E+00 -0.00000000000E+00 -0.64930732323E+04  0.65000000000E+04  0.30000000000E+03 0. -1.
     100001    1    1    2    0    0 -0.72752416684E+03  0.17041263300E+04 -0.62284839077E+04  0.65000000000E+04  0.15050000000E+03 0. -1.
     100001    1    1    2    0    0  0.72752416684E+03 -0.17041263300E+04  0.62284839077E+04  0.65000000000E+04  0.15050000000E+03 0.  1.
</event>
<event>
 4    1  0.6057843E-004  0.6500000E+04  0.7818608E-02  0.7223770E-01
         52   -1    0    0    0    0  0.00000000000E+00  0.00000000000E+00  0.64930732323E+04  0.65000000000E+04  0.30000000000E+03 0.  1.
        -52   -1    0    0    0    0 -0.00000000000E+00 -0.00000000000E+00 -0.64930732323E+04  0.65000000000E+04  0.30000000000E+03 0.  1.
     100001    1    1    2    0    0  0.18875765027E+02 -0.19668233686E+03 -0.64952528445E+04  0.65000000000E+04  0.15050000000E+03 0.  1.
     100001    1    1    2    0    0 -0.18875765027E+02  0.19668233686E+03  0.64952528445E+04  0.65000000000E+04  0.15050000000E+03 0.  1.
</event>
<event>
 4    1  0.4826743E-004  0.6500000E+04  0.7818608E-02  0.7223770E-01
         52   -1    0    0    0    0  0.00000000000E+00  0.00000000000E+00  0.64930732323E+04  0.65000000000E+04  0.30000000000E+03 0.  1.
        -52   -1    0    0    0    0 -0.00000000000E+00 -0.00000000000E+00 -0.64930732323E+04  0.65000000000E+04  0.30000000000E+03 0. -1.
     100001    1    1    2    0    0  0.32944722200E+04 -0.43120373776E+04  0.35749316351E+04  0.65000000000E+04  0.15050000000E+03 0. -1.
     100001    1    1    2    0    0 -0.32944722200E+04  0.43120373776E+04 -0.35749316351E+04  0.65000000000E+04  0.15050000000E+03 0.  1.
</event>
<event>
 4    1  0.4826743E-004  0.6500000E+04  0.7818608E-02  0.7223770E-01
         52   -1    0    0    0    0  0.00000000000E+00  0.00000000000E+00  0.64930732323E+04  0.65000000000E+04  0.30000000000E+03 0.  1.
        -52   -1    0    0    0    0 -0.00000000000E+00 -0.00000000000E+00 -0.64930732323E+04  0.65000000000E+04  0.30000000000E+03 0. -1.
     100001    1    1    2    0    0 -0.11653130651E+04  0.96468751415E+03 -0.63197130639E+04  0.65000000000E+04  0.15050000000E+03 0. -1.
     100001    1    1    2    0    0  0.11653130651E+04 -0.96468751415E+03  0.63197130639E+04  0.65000000000E+04  0.15050000000E+03 0.  1.
</event>
<event>
 4    1  0.4826743E-004  0.6500000E+04  0.7818608E-02  0.7223770E-01
         52   -1    0    0    0    0  0.00000000000E+00  0.00000000000E+00  0.64930732323E+04  0.65000000000E+04  0.30000000000E+03 0.  1.
        -52   -1    0    0    0    0 -0.00000000000E+00 -0.00000000000E+00 -0.64930732323E+04  0.65000000000E+04  0.30000000000E+03 0. -1.
     100001    1    1    2    0    0  0.18308563325E+04  0.27954975308E+04 -0.55731955282E+04  0.65000000000E+04  0.15050000000E+03 0. -1.
     100001    1    1    2    0    0 -0.18308563325E+04 -0.27954975308E+04  0.55731955282E+04  0.65000000000E+04  0.15050000000E+03 0.  1.
</event>
<event>
 4    1  0.4826743E-004  0.6500000E+04  0.7818608E-02  0.7223770E-01
         52   -1    0    0    0    0  0.00000000000E+00  0.00000000000E+00  0.64930732323E+04  0.65000000000E+04  0.30000000000E+03 0.  1.
        -52   -1    0    0    0    0 -0.00000000000E+00 -0.00000000000E+00 -0.64930732323E+04  0.65000000000E+04  0.30000000000E+03 0. -1.
     100001    1    1    2    0    0  0.14117980591E+03 -0.62020288608E+03  0.64670523728E+04  0.65000000000E+04  0.15050000000E+03 0.  1.
     100001    1    1    2    0    0 -0.14117980591E+03  0.62020288608E+03 -0.64670523728E+04  0.65000000000E+04  0.15050000000E+03 0. -1.
</event>
<event>
 4    1  0.4826743E-004  0.6500000E+04  0.7818608E-02  0.7223770E-01
         52   -1    0    0    0    0  0.00000000000E+00  0.00000000000E+00  0.64930732323E+04  0.65000000000E+04  0.30000000000E+03 0.  1.
        -52   -1    0    0    0    0 -0.00000000000E+00 -0.00000000000E+00 -0.64930732323E+04  0.65000000000E+04  0.30000000000E+03 0. -1.
     100001    1    1    2    0    0  0.50405232006E+03 -0.18683865721E+03 -0.64759842746E+04  0.65000000000E+04  0.15050000000E+03 0. -1.
     100001    1    1    2    0    0 -0.50405232006E+03  0.18683865721E+03  0.64759842746E+04  0.65000000000E+04  0.15050000000E+03 0.  1.
</event>
<event>
 4    1  0.4826743E-004  0.6500000E+04  0.7818608E-02  0.7223770E-01
         52   -1    0    0    0    0  0.00000000000E+00  0.00000000000E+00  0.64930732323E+04  0.65000000000E+04  0.30000000000E+03 0.  1.
        -52   -1    0    0    0    0 -0.00000000000E+00 -0.00000000000E+00 -0.64930732323E+04  0.65000000000E+04  0.30000000000E+03 0. -1.
     100001    1    1    2    0    0  0.12926772925E+04 -0.22932566221E+04 -0.59411538637E+04  0.65000000000E+04  0.15050000000E+03 0. -1.
     100001    1    1    2    0    0 -0.12926772925E+04  0.22932566221E+04  0.59411538637E+04  0.65000000000E+04  0.15050000000E+03 0.  1.
</event>
<event>
 4    1  0.4826743E-004  0.6500000E+04  0.7818608E-02  0.7223770E-01
         52   -1    0    0    0    0  0.00000000000E+00  0.00000000000E+00  0.64930732323E+04  0.65000000000E+04  0.30000000000E+03 0.  1.
        -52   -1    0    0    0    0 -0.00000000000E+00 -0.00000000000E+00 -0.64930732323E+04  0.65000000000E+04  0.30000000000E+03 0. -1.
     100001    1    1    2    0    0  0.21785263741E+04 -0.21562490157E+04 -0.57299182167E+04  0.65000000000E+04  0.15050000000E+03 0.  1.
     100001    1    1    2    0    0 -0.21785263741E+04  0.21562490157E+04  0.57299182167E+04  0.65000000000E+04  0.15050000000E+03 0. -1.
</event>
<event>
 4    1  0.4826743E-004  0.6500000E+04  0.7818608E-02  0.7223770E-01
         52   -1    0    0    0    0  0.00000000000E+00  0.00000000000E+00  0.64930732323E+04  0.65000000000E+04  0.30000000000E+03 0.  1.
        -52   -1    0    0    0    0 -0.00000000000E+00 -0.00000000000E+00 -0.64930732323E+04  0.65000000000E+04  0.30000000000E+03 0. -1.
     100001    1    1    2    0    0 -0.58058739997E+04 -0.28760624507E+04 -0.49743505008E+03  0.65000000000E+04  0.15050000000E+03 0.  1.
     100001    1    1    2    0    0  0.58058739997E+04  0.28760624507E+04  0.49743505008E+03  0.65000000000E+04  0.15050000000E+03 0. -1.
</event>
<event>
 4    1  0.4826743E-004  0.6500000E+04  0.7818608E-02  0.7223770E-01
         52   -1    0    0    0    0  0.00000000000E+00  0.00000000000E+00  0.64930732323E+04  0.65000000000E+04  0.30000000000E+03 0. -1.
        -52   -1    0    0    0    0 -0.00000000000E+00 -0.00000000000E+00 -0.64930732323E+04  0.65000000000E+04  0.30000000000E+03 0.  1.
     100001    1    1    2    0    0 -0.35856181995E+04  0.46901441832E+04  0.27153709541E+04  0.65000000000E+04  0.15050000000E+03 0. -1.
     100001    1    1    2    0    0  0.35856181995E+04 -0.46901441832E+04 -0.27153709541E+04  0.65000000000E+04  0.15050000000E+03 0.  1.
</event>
<event>
 4    1  0.4826743E-004  0.6500000E+04  0.7818608E-02  0.7223770E-01
         52   -1    0    0    0    0  0.00000000000E+00  0.00000000000E+00  0.64930732323E+04  0.65000000000E+04  0.30000000000E+03 0.  1.
        -52   -1    0    0    0    0 -0.00000000000E+00 -0.00000000000E+00 -0.64930732323E+04  0.65000000000E+04  0.30000000000E+03 0.  1.
     100001    1    1    2    0    0 -0.10396210889E+03 -0.41496310867E+03 -0.64841612602E+04  0.65000000000E+04  0.15050000000E+03 0.  1.
     100001    1    1    2    0    0  0.10396210889E+03  0.41496310867E+03  0.64841612602E+04  0.65000000000E+04  0.15050000000E+03 0.  1.
</event>
<event>
 4    1  0.4826743E-004  0.6500000E+04  0.7818608E-02  0.7223770E-01
         52   -1    0    0    0    0  0.00000000000E+00  0.00000000000E+00  0.64930732323E+04  0.65000000000E+04  0.30000000000E+03 0. -1.
        -52   -1    0    0    0    0 -0.00000000000E+00 -0.00000000000E+00 -0.64930732323E+04  0.65000000000E+04  0.30000000000E+03 0. -1.
     100001    1    1    2    0    0 -0.50794512249E+03 -0.41004575864E+03  0.64653850603E+04  0.65000000000E+04  0.15050000000E+03 0. -1.
     100001    1    1    2    0    0  0.50794512249E+03  0.41004575864E+03 -0.64653850603E+04  0.65000000000E+04  0.15050000000E+03 0. -1.
</event>
<event>
 4    1  0.4826743E-004  0.6500000E+04  0.7818608E-02  0.7223770E-01
         52   -1    0    0    0    0  0.00000000000E+00  0.00000000000E+00  0.64930732323E+04  0.65000000000E+04  0.30000000000E+03 0.  1.
        -52   -1    0    0    0    0 -0.00000000000E+00 -0.00000000000E+00 -0.64930732323E+04  0.65000000000E+04  0.30000000000E+03 0. -1.
     100001    1    1    2    0    0 -0.96359473708E+03 -0.45218142666E+03  0.64104888183E+04  0.65000000000E+04  0.15050000000E+03 0.  1.
     100001    1    1    2    0    0  0.96359473708E+03  0.45218142666E+03 -0.64104888183E+04  0.65000000000E+04  0.15050000000E+03 0. -1.
</event>
<event>
 4    1  0.4826743E-004  0.6500000E+04  0.7818608E-02  0.7223770E-01
         52   -1    0    0    0    0  0.00000000000E+00  0.00000000000E+00  0.64930732323E+04  0.65000000000E+04  0.30000000000E+03 0.  1.
        -52   -1    0    0    0    0 -0.00000000000E+00 -0.00000000000E+00 -0.64930732323E+04  0.65000000000E+04  0.30000000000E+03 0. -1.
     100001    1    1    2    0    0 -0.33620212756E+03 -0.20476512889E+03 -0.64863232360E+04  0.65000000000E+04  0.15050000000E+03 0. -1.
     100001    1    1    2    0    0  0.33620212756E+03  0.20476512889E+03  0.64863232360E+04  0.65000000000E+04  0.15050000000E+03 0.  1.
</event>
<event>
 4    1  0.4826743E-004  0.6500000E+04  0.7818608E-02  0.7223770E-01
         52   -1    0    0    0    0  0.00000000000E+00  0.00000000000E+00  0.64930732323E+04  0.65000000000E+04  0.30000000000E+03 0. -1.
        -52   -1    0    0    0    0 -0.00000000000E+00 -0.00000000000E+00 -0.64930732323E+04  0.65000000000E+04  0.30000000000E+03 0.  1.
     100001    1    1    2    0    0 -0.14610536818E+03 -0.95413539497E+03 -0.64261674908E+04  0.65000000000E+04  0.15050000000E+03 0.  1.
     100001    1    1    2    0    0  0.14610536818E+03  0.95413539497E+03  0.64261674908E+04  0.65000000000E+04  0.15050000000E+03 0. -1.
</event>
<event>
 4    1  0.4826743E-004  0.6500000E+04  0.7818608E-02  0.7223770E-01
         52   -1    0    0    0    0  0.00000000000E+00  0.00000000000E+00  0.64930732323E+04  0.65000000000E+04  0.30000000000E+03 0. -1.
        -52   -1    0    0    0    0 -0.00000000000E+00 -0.00000000000E+00 -0.64930732323E+04  0.65000000000E+04  0.30000000000E+03 0.  1.
     100001    1    1    2    0    0  0.63609085326E+03  0.33217366863E+03 -0.64585136704E+04  0.65000000000E+04  0.15050000000E+03 0.  1.
     100001    1    1    2    0    0 -0.63609085326E+03 -0.33217366863E+03  0.64585136704E+04  0.65000000000E+04  0.15050000000E+03 0. -1.
</event>
<event>
 4    1  0.4826743E-004  0.6500000E+04  0.7818608E-02  0.7223770E-01
         52   -1    0    0    0    0  0.00000000000E+00  0.00000000000E+00  0.64930732323E+04  0.65000000000E+04  0.30000000000E+03 0.  1.
        -52   -1    0    0    0    0 -0.00000000000E+00 -0.00000000000E+00 -0.64930732323E+04  0.65000000000E+04  0.30000000000E+03 0. -1.
     100001    1    1    2    0    0 -0.68512839429E+03  0.24028361024E+02 -0.64619943881E+04  0.65000000000E+04  0.15050000000E+03 0. -1.
     100001    1    1    2    0    0  0.68512839429E+03 -0.24028361024E+02  0.64619943881E+04  0.65000000000E+04  0.15050000000E+03 0.  1.
</event>
<event>
 4    1  0.4826743E-004  0.6500000E+04  0.7818608E-02  0.7223770E-01
         52   -1    0    0    0    0  0.00000000000E+00  0.00000000000E+00  0.64930732323E+04  0.65000000000E+04  0.30000000000E+03 0. -1.
        -52   -1    0    0    0    0 -0.00000000000E+00 -0.00000000000E+00 -0.64930732323E+04  0.65000000000E+04  0.30000000000E+03 0.  1.
     100001    1    1    2    0    0 -0.24087799600E+04  0.37998492130E+04 -0.46889524217E+04  0.65000000000E+04  0.15050000000E+03 0.  1.
     100001    1    1    2    0    0  0.24087799600E+04 -0.37998492130E+04  0.46889524217E+04  0.65000000000E+04  0.15050000000E+03 0. -1.
</event>
<event>
 4    1  0.4826743E-004  0.6500000E+04  0.7818608E-02  0.7223770E-01
         52   -1    0    0    0    0  0.00000000000E+00  0.00000000000E+00  0.64930732323E+04  0.65000000000E+04  0.30000000000E+03 0.  1.
        -52   -1    0    0    0    0 -0.00000000000E+00 -0.00000000000E+00 -0.64930732323E+04  0.65000000000E+04  0.30000000000E+03 0.  1.
     100001    1    1    2    0    0  0.11699666898E+03  0.74533731924E+02 -0.64967766048E+04  0.65000000000E+04  0.15050000000E+03 0.  1.
     100001    1    1    2    0    0 -0.11699666898E+03 -0.74533731924E+02  0.64967766048E+04  0.65000000000E+04  0.15050000000E+03 0.  1.
</event>
<event>
 4    1  0.4826743E-004  0.6500000E+04  0.7818608E-02  0.7223770E-01
         52   -1    0    0    0    0  0.00000000000E+00  0.00000000000E+00  0.64930732323E+04  0.65000000000E+04  0.30000000000E+03 0. -1.
        -52   -1    0    0    0    0 -0.00000000000E+00 -0.00000000000E+00 -0.64930732323E+04  0.65000000000E+04  0.30000000000E+03 0.  1.
     100001    1    1    2    0    0 -0.16929016298E+03 -0.77899564775E+03  0.64491748597E+04  0.65000000000E+04  0.15050000000E+03 0. -1.
     100001    1    1    2    0    0  0.16929016298E+03  0.77899564775E+03 -0.64491748597E+04  0.65000000000E+04  0.15050000000E+03 0.  1.
</event>
<event>
 4    1  0.4826743E-004  0.6500000E+04  0.7818608E-02  0.7223770E-01
         52   -1    0    0    0    0  0.00000000000E+00  0.00000000000E+00  0.64930732323E+04  0.65000000000E+04  0.30000000000E+03 0.  1.
        -52   -1    0    0    0    0 -0.00000000000E+00 -0.00000000000E+00 -0.64930732323E+04  0.65000000000E+04  0.30000000000E+03 0. -1.
     100001    1    1    2    0    0 -0.31954382888E+03 -0.14004196979E+04 -0.63375126162E+04  0.65000000000E+04  0.15050000000E+03 0. -1.
     100001    1    1    2    0    0  0.31954382888E+03  0.14004196979E+04  0.63375126162E+04  0.65000000000E+04  0.15050000000E+03 0.  1.
</event>
<event>
 4    1  0.4826743E-004  0.6500000E+04  0.7818608E-02  0.7223770E-01
         52   -1    0    0    0    0  0.00000000000E+00  0.00000000000E+00  0.64930732323E+04  0.65000000000E+04  0.30000000000E+03 0. -1.
        -52   -1    0    0    0    0 -0.00000000000E+00 -0.00000000000E+00 -0.64930732323E+04  0.65000000000E+04  0.30000000000E+03 0.  1.
     100001    1    1    2    0    0 -0.73861437395E+03  0.13949077858E+04  0.63036521815E+04  0.65000000000E+04  0.15050000000E+03 0. -1.
     100001    1    1    2    0    0  0.73861437395E+03 -0.13949077858E+04 -0.63036521815E+04  0.65000000000E+04  0.15050000000E+03 0.  1.
</event>
<event>
 4    1  0.4826743E-004  0.6500000E+04  0.7818608E-02  0.7223770E-01
         52   -1    0    0    0    0  0.00000000000E+00  0.00000000000E+00  0.64930732323E+04  0.65000000000E+04  0.30000000000E+03 0.  1.
        -52   -1    0    0    0    0 -0.00000000000E+00 -0.00000000000E+00 -0.64930732323E+04  0.65000000000E+04  0.30000000000E+03 0. -1.
     100001    1    1    2    0    0 -0.79682687624E+03 -0.79363001451E+03 -0.64002006281E+04  0.65000000000E+04  0.15050000000E+03 0. -1.
     100001    1    1    2    0    0  0.79682687624E+03  0.79363001451E+03  0.64002006281E+04  0.65000000000E+04  0.15050000000E+03 0.  1.
</event>
<event>
 4    1  0.4826743E-004  0.6500000E+04  0.7818608E-02  0.7223770E-01
         52   -1    0    0    0    0  0.00000000000E+00  0.00000000000E+00  0.64930732323E+04  0.65000000000E+04  0.30000000000E+03 0.  1.
        -52   -1    0    0    0    0 -0.00000000000E+00 -0.00000000000E+00 -0.64930732323E+04  0.65000000000E+04  0.30000000000E+03 0. -1.
     100001    1    1    2    0    0 -0.10802585182E+04  0.94093121681E+03 -0.63383783201E+04  0.65000000000E+04  0.15050000000E+03 0. -1.
     100001    1    1    2    0    0  0.10802585182E+04 -0.94093121681E+03  0.63383783201E+04  0.65000000000E+04  0.15050000000E+03 0.  1.
</event>
<event>
 4    1  0.4826743E-004  0.6500000E+04  0.7818608E-02  0.7223770E-01
         52   -1    0    0    0    0  0.00000000000E+00  0.00000000000E+00  0.64930732323E+04  0.65000000000E+04  0.30000000000E+03 0.  1.
        -52   -1    0    0    0    0 -0.00000000000E+00 -0.00000000000E+00 -0.64930732323E+04  0.65000000000E+04  0.30000000000E+03 0. -1.
     100001    1    1    2    0    0  0.23083986100E+02 -0.12017487385E+03 -0.64971051153E+04  0.65000000000E+04  0.15050000000E+03 0. -1.
     100001    1    1    2    0    0 -0.23083986100E+02  0.12017487385E+03  0.64971051153E+04  0.65000000000E+04  0.15050000000E+03 0.  1.
</event>
<event>
 4    1  0.4826743E-004  0.6500000E+04  0.7818608E-02  0.7223770E-01
         52   -1    0    0    0    0  0.00000000000E+00  0.00000000000E+00  0.64930732323E+04  0.65000000000E+04  0.30000000000E+03 0. -1.
        -52   -1    0    0    0    0 -0.00000000000E+00 -0.00000000000E+00 -0.64930732323E+04  0.65000000000E+04  0.30000000000E+03 0.  1.
     100001    1    1    2    0    0  0.11206025507E+04  0.54873175054E+03  0.63773421689E+04  0.65000000000E+04  0.15050000000E+03 0. -1.
     100001    1    1    2    0    0 -0.11206025507E+04 -0.54873175054E+03 -0.63773421689E+04  0.65000000000E+04  0.15050000000E+03 0.  1.
</event>
<event>
 4    1  0.4826743E-004  0.6500000E+04  0.7818608E-02  0.7223770E-01
         52   -1    0    0    0    0  0.00000000000E+00  0.00000000000E+00  0.64930732323E+04  0.65000000000E+04  0.30000000000E+03 0. -1.
        -52   -1    0    0    0    0 -0.00000000000E+00 -0.00000000000E+00 -0.64930732323E+04  0.65000000000E+04  0.30000000000E+03 0.  1.
     100001    1    1    2    0    0  0.32418970727E+04 -0.12480580941E+04 -0.54917942527E+04  0.65000000000E+04  0.15050000000E+03 0.  1.
     100001    1    1    2    0    0 -0.32418970727E+04  0.12480580941E+04  0.54917942527E+04  0.65000000000E+04  0.15050000000E+03 0. -1.
</event>
<event>
 4    1  0.4826743E-004  0.6500000E+04  0.7818608E-02  0.7223770E-01
         52   -1    0    0    0    0  0.00000000000E+00  0.00000000000E+00  0.64930732323E+04  0.65000000000E+04  0.30000000000E+03 0. -1.
        -52   -1    0    0    0    0 -0.00000000000E+00 -0.00000000000E+00 -0.64930732323E+04  0.65000000000E+04  0.30000000000E+03 0.  1.
     100001    1    1    2    0    0  0.25813187535E+03  0.16136497897E+04  0.62894238243E+04  0.65000000000E+04  0.15050000000E+03 0. -1.
     100001    1    1    2    0    0 -0.25813187535E+03 -0.16136497897E+04 -0.62894238243E+04  0.65000000000E+04  0.15050000000E+03 0.  1.
</event>
<event>
 4    1  0.4826743E-004  0.6500000E+04  0.7818608E-02  0.7223770E-01
         52   -1    0    0    0    0  0.00000000000E+00  0.00000000000E+00  0.64930732323E+04  0.65000000000E+04  0.30000000000E+03 0. -1.
        -52   -1    0    0    0    0 -0.00000000000E+00 -0.00000000000E+00 -0.64930732323E+04  0.65000000000E+04  0.30000000000E+03 0.  1.
     100001    1    1    2    0    0  0.36556303315E+03 -0.14088980327E+04  0.63331445390E+04  0.65000000000E+04  0.15050000000E+03 0. -1.
     100001    1    1    2    0    0 -0.36556303315E+03  0.14088980327E+04 -0.63331445390E+04  0.65000000000E+04  0.15050000000E+03 0.  1.
</event>
<event>
 4    1  0.4826743E-004  0.6500000E+04  0.7818608E-02  0.7223770E-01
         52   -1    0    0    0    0  0.00000000000E+00  0.00000000000E+00  0.64930732323E+04  0.65000000000E+04  0.30000000000E+03 0. -1.
        -52   -1    0    0    0    0 -0.00000000000E+00 -0.00000000000E+00 -0.64930732323E+04  0.65000000000E+04  0.30000000000E+03 0.  1.
     100001    1    1    2    0    0  0.34947185064E+04  0.28238277078E+03 -0.54712477811E+04  0.65000000000E+04  0.15050000000E+03 0.  1.
     100001    1    1    2    0    0 -0.34947185064E+04 -0.28238277078E+03  0.54712477811E+04  0.65000000000E+04  0.15050000000E+03 0. -1.
</event>
<event>
 4    1  0.4826743E-004  0.6500000E+04  0.7818608E-02  0.7223770E-01
         52   -1    0    0    0    0  0.00000000000E+00  0.00000000000E+00  0.64930732323E+04  0.65000000000E+04  0.30000000000E+03 0. -1.
        -52   -1    0    0    0    0 -0.00000000000E+00 -0.00000000000E+00 -0.64930732323E+04  0.65000000000E+04  0.30000000000E+03 0.  1.
     100001    1    1    2    0    0  0.27720377154E+04  0.11554774997E+04  0.57626407490E+04  0.65000000000E+04  0.15050000000E+03 0. -1.
     100001    1    1    2    0    0 -0.27720377154E+04 -0.11554774997E+04 -0.57626407490E+04  0.65000000000E+04  0.15050000000E+03 0.  1.
</event>
<event>
 4    1  0.4826743E-004  0.6500000E+04  0.7818608E-02  0.7223770E-01
         52   -1    0    0    0    0  0.00000000000E+00  0.00000000000E+00  0.64930732323E+04  0.65000000000E+04  0.30000000000E+03 0.  1.
        -52   -1    0    0    0    0 -0.00000000000E+00 -0.00000000000E+00 -0.64930732323E+04  0.65000000000E+04  0.30000000000E+03 0. -1.
     100001    1    1    2    0    0  0.39538189026E+04 -0.51523070305E+04 -0.21999567905E+03  0.65000000000E+04  0.15050000000E+03 0.  1.
     100001    1    1    2    0    0 -0.39538189026E+04  0.51523070305E+04  0.21999567905E+03  0.65000000000E+04  0.15050000000E+03 0. -1.
</event>
<event>
 4    1  0.4826743E-004  0.6500000E+04  0.7818608E-02  0.7223770E-01
         52   -1    0    0    0    0  0.00000000000E+00  0.00000000000E+00  0.64930732323E+04  0.65000000000E+04  0.30000000000E+03 0.  1.
        -52   -1    0    0    0    0 -0.00000000000E+00 -0.00000000000E+00 -0.64930732323E+04  0.65000000000E+04  0.30000000000E+03 0. -1.
     100001    1    1    2    0    0 -0.16024888099E+04 -0.18332867333E+04  0.60248185962E+04  0.65000000000E+04  0.15050000000E+03 0.  1.
     100001    1    1    2    0    0  0.16024888099E+04  0.18332867333E+04 -0.60248185962E+04  0.65000000000E+04  0.15050000000E+03 0. -1.
</event>
<event>
 4    1  0.6428985E-004  0.6500000E+04  0.7818608E-02  0.7223770E-01
         52   -1    0    0    0    0  0.00000000000E+00  0.00000000000E+00  0.64930732323E+04  0.65000000000E+04  0.30000000000E+03 0. -1.
        -52   -1    0    0    0    0 -0.00000000000E+00 -0.00000000000E+00 -0.64930732323E+04  0.65000000000E+04  0.30000000000E+03 0.  1.
     100001    1    1    2    0    0  0.17165205408E+02  0.13712541424E+03 -0.64967878006E+04  0.65000000000E+04  0.15050000000E+03 0.  1.
     100001    1    1    2    0    0 -0.17165205408E+02 -0.13712541424E+03  0.64967878006E+04  0.65000000000E+04  0.15050000000E+03 0. -1.
</event>
<event>
 4    1  0.4826743E-004  0.6500000E+04  0.7818608E-02  0.7223770E-01
         52   -1    0    0    0    0  0.00000000000E+00  0.00000000000E+00  0.64930732323E+04  0.65000000000E+04  0.30000000000E+03 0. -1.
        -52   -1    0    0    0    0 -0.00000000000E+00 -0.00000000000E+00 -0.64930732323E+04  0.65000000000E+04  0.30000000000E+03 0.  1.
     100001    1    1    2    0    0 -0.40650996192E+03  0.27352861287E+04 -0.58805024611E+04  0.65000000000E+04  0.15050000000E+03 0.  1.
     100001    1    1    2    0    0  0.40650996192E+03 -0.27352861287E+04  0.58805024611E+04  0.65000000000E+04  0.15050000000E+03 0. -1.
</event>
<event>
 4    1  0.4826743E-004  0.6500000E+04  0.7818608E-02  0.7223770E-01
         52   -1    0    0    0    0  0.00000000000E+00  0.00000000000E+00  0.64930732323E+04  0.65000000000E+04  0.30000000000E+03 0. -1.
        -52   -1    0    0    0    0 -0.00000000000E+00 -0.00000000000E+00 -0.64930732323E+04  0.65000000000E+04  0.30000000000E+03 0.  1.
     100001    1    1    2    0    0 -0.19057426732E+03  0.43453939468E+03  0.64809109478E+04  0.65000000000E+04  0.15050000000E+03 0. -1.
     100001    1    1    2    0    0  0.19057426732E+03 -0.43453939468E+03 -0.64809109478E+04  0.65000000000E+04  0.15050000000E+03 0.  1.
</event>
<event>
 4    1  0.4826743E-004  0.6500000E+04  0.7818608E-02  0.7223770E-01
         52   -1    0    0    0    0  0.00000000000E+00  0.00000000000E+00  0.64930732323E+04  0.65000000000E+04  0.30000000000E+03 0. -1.
        -52   -1    0    0    0    0 -0.00000000000E+00 -0.00000000000E+00 -0.64930732323E+04  0.65000000000E+04  0.30000000000E+03 0.  1.
     100001    1    1    2    0    0 -0.15392738121E+04 -0.39968074578E+03 -0.63006540282E+04  0.65000000000E+04  0.15050000000E+03 0.  1.
     100001    1    1    2    0    0  0.15392738121E+04  0.39968074578E+03  0.63006540282E+04  0.65000000000E+04  0.15050000000E+03 0. -1.
</event>
<event>
 4    1  0.4826743E-004  0.6500000E+04  0.7818608E-02  0.7223770E-01
         52   -1    0    0    0    0  0.00000000000E+00  0.00000000000E+00  0.64930732323E+04  0.65000000000E+04  0.30000000000E+03 0. -1.
        -52   -1    0    0    0    0 -0.00000000000E+00 -0.00000000000E+00 -0.64930732323E+04  0.65000000000E+04  0.30000000000E+03 0.  1.
     100001    1    1    2    0    0 -0.17674467850E+04 -0.11029933503E+04 -0.61552325124E+04  0.65000000000E+04  0.15050000000E+03 0.  1.
     100001    1    1    2    0    0  0.17674467850E+04  0.11029933503E+04  0.61552325124E+04  0.65000000000E+04  0.15050000000E+03 0. -1.
</event>
<event>
 4    1  0.4826743E-004  0.6500000E+04  0.7818608E-02  0.7223770E-01
         52   -1    0    0    0    0  0.00000000000E+00  0.00000000000E+00  0.64930732323E+04  0.65000000000E+04  0.30000000000E+03 0. -1.
        -52   -1    0    0    0    0 -0.00000000000E+00 -0.00000000000E+00 -0.64930732323E+04  0.65000000000E+04  0.30000000000E+03 0.  1.
     100001    1    1    2    0    0 -0.14424932968E+04  0.22163629120E+04 -0.59358485730E+04  0.65000000000E+04  0.15050000000E+03 0.  1.
     100001    1    1    2    0    0  0.14424932968E+04 -0.22163629120E+04  0.59358485730E+04  0.65000000000E+04  0.15050000000E+03 0. -1.
</event>
<event>
 4    1  0.4826743E-004  0.6500000E+04  0.7818608E-02  0.7223770E-01
         52   -1    0    0    0    0  0.00000000000E+00  0.00000000000E+00  0.64930732323E+04  0.65000000000E+04  0.30000000000E+03 0. -1.
        -52   -1    0    0    0    0 -0.00000000000E+00 -0.00000000000E+00 -0.64930732323E+04  0.65000000000E+04  0.30000000000E+03 0. -1.
     100001    1    1    2    0    0  0.14835659286E+03  0.31982797964E+03 -0.64886863181E+04  0.65000000000E+04  0.15050000000E+03 0. -1.
     100001    1    1    2    0    0 -0.14835659286E+03 -0.31982797964E+03  0.64886863181E+04  0.65000000000E+04  0.15050000000E+03 0. -1.
</event>
<event>
 4    1  0.4826743E-004  0.6500000E+04  0.7818608E-02  0.7223770E-01
         52   -1    0    0    0    0  0.00000000000E+00  0.00000000000E+00  0.64930732323E+04  0.65000000000E+04  0.30000000000E+03 0.  1.
        -52   -1    0    0    0    0 -0.00000000000E+00 -0.00000000000E+00 -0.64930732323E+04  0.65000000000E+04  0.30000000000E+03 0. -1.
     100001    1    1    2    0    0  0.46280142738E+04 -0.57944023648E+03  0.45247190679E+04  0.65000000000E+04  0.15050000000E+03 0.  1.
     100001    1    1    2    0    0 -0.46280142738E+04  0.57944023648E+03 -0.45247190679E+04  0.65000000000E+04  0.15050000000E+03 0. -1.
</event>
<event>
 4    1  0.4826743E-004  0.6500000E+04  0.7818608E-02  0.7223770E-01
         52   -1    0    0    0    0  0.00000000000E+00  0.00000000000E+00  0.64930732323E+04  0.65000000000E+04  0.30000000000E+03 0.  1.
        -52   -1    0    0    0    0 -0.00000000000E+00 -0.00000000000E+00 -0.64930732323E+04  0.65000000000E+04  0.30000000000E+03 0. -1.
     100001    1    1    2    0    0  0.32749473591E+04  0.16538546435E+04 -0.53634722301E+04  0.65000000000E+04  0.15050000000E+03 0. -1.
     100001    1    1    2    0    0 -0.32749473591E+04 -0.16538546435E+04  0.53634722301E+04  0.65000000000E+04  0.15050000000E+03 0.  1.
</event>
<event>
 4    1  0.4826743E-004  0.6500000E+04  0.7818608E-02  0.7223770E-01
         52   -1    0    0    0    0  0.00000000000E+00  0.00000000000E+00  0.64930732323E+04  0.65000000000E+04  0.30000000000E+03 0.  1.
        -52   -1    0    0    0    0 -0.00000000000E+00 -0.00000000000E+00 -0.64930732323E+04  0.65000000000E+04  0.30000000000E+03 0. -1.
     100001    1    1    2    0    0  0.48993208570E+04  0.27138771684E+04 -0.32952808082E+04  0.65000000000E+04  0.15050000000E+03 0. -1.
     100001    1    1    2    0    0 -0.48993208570E+04 -0.27138771684E+04  0.32952808082E+04  0.65000000000E+04  0.15050000000E+03 0.  1.
</event>
<event>
 4    1  0.4826743E-004  0.6500000E+04  0.7818608E-02  0.7223770E-01
         52   -1    0    0    0    0  0.00000000000E+00  0.00000000000E+00  0.64930732323E+04  0.65000000000E+04  0.30000000000E+03 0.  1.
        -52   -1    0    0    0    0 -0.00000000000E+00 -0.00000000000E+00 -0.64930732323E+04  0.65000000000E+04  0.30000000000E+03 0. -1.
     100001    1    1    2    0    0 -0.27059825114E+04  0.11970074830E+04  0.57855147985E+04  0.65000000000E+04  0.15050000000E+03 0.  1.
     100001    1    1    2    0    0  0.27059825114E+04 -0.11970074830E+04 -0.57855147985E+04  0.65000000000E+04  0.15050000000E+03 0. -1.
</event>
<event>
 4    1  0.4826743E-004  0.6500000E+04  0.7818608E-02  0.7223770E-01
         52   -1    0    0    0    0  0.00000000000E+00  0.00000000000E+00  0.64930732323E+04  0.65000000000E+04  0.30000000000E+03 0. -1.
        -52   -1    0    0    0    0 -0.00000000000E+00 -0.00000000000E+00 -0.64930732323E+04  0.65000000000E+04  0.30000000000E+03 0.  1.
     100001    1    1    2    0    0  0.23502369775E+04  0.21276688596E+04 -0.56724563571E+04  0.65000000000E+04  0.15050000000E+03 0.  1.
     100001    1    1    2    0    0 -0.23502369775E+04 -0.21276688596E+04  0.56724563571E+04  0.65000000000E+04  0.15050000000E+03 0. -1.
</event>
<event>
 4    1  0.4826743E-004  0.6500000E+04  0.7818608E-02  0.7223770E-01
         52   -1    0    0    0    0  0.00000000000E+00  0.00000000000E+00  0.64930732323E+04  0.65000000000E+04  0.30000000000E+03 0.  1.
        -52   -1    0    0    0    0 -0.00000000000E+00 -0.00000000000E+00 -0.64930732323E+04  0.65000000000E+04  0.30000000000E+03 0. -1.
     100001    1    1    2    0    0 -0.56487841490E+04  0.26831565436E+04  0.17661422225E+04  0.65000000000E+04  0.15050000000E+03 0.  1.
     100001    1    1    2    0    0  0.56487841490E+04 -0.26831565436E+04 -0.17661422225E+04  0.65000000000E+04  0.15050000000E+03 0. -1.
</event>
<event>
 4    1  0.4826743E-004  0.6500000E+04  0.7818608E-02  0.7223770E-01
         52   -1    0    0    0    0  0.00000000000E+00  0.00000000000E+00  0.64930732323E+04  0.65000000000E+04  0.30000000000E+03 0. -1.
        -52   -1    0    0    0    0 -0.00000000000E+00 -0.00000000000E+00 -0.64930732323E+04  0.65000000000E+04  0.30000000000E+03 0. -1.
     100001    1    1    2    0    0 -0.67332598221E+03  0.56702779845E+03  0.64383585911E+04  0.65000000000E+04  0.15050000000E+03 0. -1.
     100001    1    1    2    0    0  0.67332598221E+03 -0.56702779845E+03 -0.64383585911E+04  0.65000000000E+04  0.15050000000E+03 0. -1.
</event>
<event>
 4    1  0.4826743E-004  0.6500000E+04  0.7818608E-02  0.7223770E-01
         52   -1    0    0    0    0  0.00000000000E+00  0.00000000000E+00  0.64930732323E+04  0.65000000000E+04  0.30000000000E+03 0. -1.
        -52   -1    0    0    0    0 -0.00000000000E+00 -0.00000000000E+00 -0.64930732323E+04  0.65000000000E+04  0.30000000000E+03 0.  1.
     100001    1    1    2    0    0 -0.16805884251E+04  0.89685838689E+03 -0.62127785515E+04  0.65000000000E+04  0.15050000000E+03 0.  1.
     100001    1    1    2    0    0  0.16805884251E+04 -0.89685838689E+03  0.62127785515E+04  0.65000000000E+04  0.15050000000E+03 0. -1.
</event>
<event>
 4    1  0.4826743E-004  0.6500000E+04  0.7818608E-02  0.7223770E-01
         52   -1    0    0    0    0  0.00000000000E+00  0.00000000000E+00  0.64930732323E+04  0.65000000000E+04  0.30000000000E+03 0.  1.
        -52   -1    0    0    0    0 -0.00000000000E+00 -0.00000000000E+00 -0.64930732323E+04  0.65000000000E+04  0.30000000000E+03 0.  1.
     100001    1    1    2    0    0  0.24273121801E+03  0.28924773114E+03  0.64872773223E+04  0.65000000000E+04  0.15050000000E+03 0.  1.
     100001    1    1    2    0    0 -0.24273121801E+03 -0.28924773114E+03 -0.64872773223E+04  0.65000000000E+04  0.15050000000E+03 0.  1.
</event>
<event>
 4    1  0.4826743E-004  0.6500000E+04  0.7818608E-02  0.7223770E-01
         52   -1    0    0    0    0  0.00000000000E+00  0.00000000000E+00  0.64930732323E+04  0.65000000000E+04  0.30000000000E+03 0. -1.
        -52   -1    0    0    0    0 -0.00000000000E+00 -0.00000000000E+00 -0.64930732323E+04  0.65000000000E+04  0.30000000000E+03 0. -1.
     100001    1    1    2    0    0  0.26411468543E+03  0.28070931892E+02  0.64928272121E+04  0.65000000000E+04  0.15050000000E+03 0. -1.
     100001    1    1    2    0    0 -0.26411468543E+03 -0.28070931892E+02 -0.64928272121E+04  0.65000000000E+04  0.15050000000E+03 0. -1.
</event>
<event>
 4    1  0.4826743E-004  0.6500000E+04  0.7818608E-02  0.7223770E-01
         52   -1    0    0    0    0  0.00000000000E+00  0.00000000000E+00  0.64930732323E+04  0.65000000000E+04  0.30000000000E+03 0.  1.
        -52   -1    0    0    0    0 -0.00000000000E+00 -0.00000000000E+00 -0.64930732323E+04  0.65000000000E+04  0.30000000000E+03 0. -1.
     100001    1    1    2    0    0 -0.32620934905E+04 -0.54149029282E+04  0.15049658094E+04  0.65000000000E+04  0.15050000000E+03 0.  1.
     100001    1    1    2    0    0  0.32620934905E+04  0.54149029282E+04 -0.15049658094E+04  0.65000000000E+04  0.15050000000E+03 0. -1.
</event>
<event>
 4    1  0.4826743E-004  0.6500000E+04  0.7818608E-02  0.7223770E-01
         52   -1    0    0    0    0  0.00000000000E+00  0.00000000000E+00  0.64930732323E+04  0.65000000000E+04  0.30000000000E+03 0.  1.
        -52   -1    0    0    0    0 -0.00000000000E+00 -0.00000000000E+00 -0.64930732323E+04  0.65000000000E+04  0.30000000000E+03 0.  1.
     100001    1    1    2    0    0 -0.37268539590E+00 -0.17493548101E+03  0.64959023383E+04  0.65000000000E+04  0.15050000000E+03 0.  1.
     100001    1    1    2    0    0  0.37268539590E+00  0.17493548101E+03 -0.64959023383E+04  0.65000000000E+04  0.15050000000E+03 0.  1.
</event>
<event>
 4    1  0.8178599E-004  0.6500000E+04  0.7818608E-02  0.7223770E-01
         52   -1    0    0    0    0  0.00000000000E+00  0.00000000000E+00  0.64930732323E+04  0.65000000000E+04  0.30000000000E+03 0.  1.
        -52   -1    0    0    0    0 -0.00000000000E+00 -0.00000000000E+00 -0.64930732323E+04  0.65000000000E+04  0.30000000000E+03 0.  1.
     100001    1    1    2    0    0  0.17866943466E+02 -0.59903239491E+02 -0.64979567653E+04  0.65000000000E+04  0.15050000000E+03 0.  1.
     100001    1    1    2    0    0 -0.17866943466E+02  0.59903239491E+02  0.64979567653E+04  0.65000000000E+04  0.15050000000E+03 0.  1.
</event>
<event>
 4    1  0.4826743E-004  0.6500000E+04  0.7818608E-02  0.7223770E-01
         52   -1    0    0    0    0  0.00000000000E+00  0.00000000000E+00  0.64930732323E+04  0.65000000000E+04  0.30000000000E+03 0.  1.
        -52   -1    0    0    0    0 -0.00000000000E+00 -0.00000000000E+00 -0.64930732323E+04  0.65000000000E+04  0.30000000000E+03 0. -1.
     100001    1    1    2    0    0 -0.19866004188E+03  0.67928200437E+03 -0.64596021469E+04  0.65000000000E+04  0.15050000000E+03 0. -1.
     100001    1    1    2    0    0  0.19866004188E+03 -0.67928200437E+03  0.64596021469E+04  0.65000000000E+04  0.15050000000E+03 0.  1.
</event>
<event>
 4    1  0.4826743E-004  0.6500000E+04  0.7818608E-02  0.7223770E-01
         52   -1    0    0    0    0  0.00000000000E+00  0.00000000000E+00  0.64930732323E+04  0.65000000000E+04  0.30000000000E+03 0. -1.
        -52   -1    0    0    0    0 -0.00000000000E+00 -0.00000000000E+00 -0.64930732323E+04  0.65000000000E+04  0.30000000000E+03 0.  1.
     100001    1    1    2    0    0  0.12457245520E+04 -0.12784205245E+04  0.62482926510E+04  0.65000000000E+04  0.15050000000E+03 0. -1.
     100001    1    1    2    0    0 -0.12457245520E+04  0.12784205245E+04 -0.62482926510E+04  0.65000000000E+04  0.15050000000E+03 0.  1.
</event>
<event>
 4    1  0.4826743E-004  0.6500000E+04  0.7818608E-02  0.7223770E-01
         52   -1    0    0    0    0  0.00000000000E+00  0.00000000000E+00  0.64930732323E+04  0.65000000000E+04  0.30000000000E+03 0. -1.
        -52   -1    0    0    0    0 -0.00000000000E+00 -0.00000000000E+00 -0.64930732323E+04  0.65000000000E+04  0.30000000000E+03 0.  1.
     100001    1    1    2    0    0  0.49694869607E+04 -0.29644227016E+04 -0.29569827771E+04  0.65000000000E+04  0.15050000000E+03 0.  1.
     100001    1    1    2    0    0 -0.49694869607E+04  0.29644227016E+04  0.29569827771E+04  0.65000000000E+04  0.15050000000E+03 0. -1.
</event>
<event>
 4    1  0.4826743E-004  0.6500000E+04  0.7818608E-02  0.7223770E-01
         52   -1    0    0    0    0  0.00000000000E+00  0.00000000000E+00  0.64930732323E+04  0.65000000000E+04  0.30000000000E+03 0. -1.
        -52   -1    0    0    0    0 -0.00000000000E+00 -0.00000000000E+00 -0.64930732323E+04  0.65000000000E+04  0.30000000000E+03 0.  1.
     100001    1    1    2    0    0 -0.61835178150E+04 -0.53150467652E+03  0.19258660286E+04  0.65000000000E+04  0.15050000000E+03 0. -1.
     100001    1    1    2    0    0  0.61835178150E+04  0.53150467652E+03 -0.19258660286E+04  0.65000000000E+04  0.15050000000E+03 0.  1.
</event>
<event>
 4    1  0.6054238E-004  0.6500000E+04  0.7818608E-02  0.7223770E-01
         52   -1    0    0    0    0  0.00000000000E+00  0.00000000000E+00  0.64930732323E+04  0.65000000000E+04  0.30000000000E+03 0. -1.
        -52   -1    0    0    0    0 -0.00000000000E+00 -0.00000000000E+00 -0.64930732323E+04  0.65000000000E+04  0.30000000000E+03 0.  1.
     100001    1    1    2    0    0 -0.10584190856E+03  0.29672479537E+02 -0.64973276648E+04  0.65000000000E+04  0.15050000000E+03 0.  1.
     100001    1    1    2    0    0  0.10584190856E+03 -0.29672479537E+02  0.64973276648E+04  0.65000000000E+04  0.15050000000E+03 0. -1.
</event>
<event>
 4    1  0.4826743E-004  0.6500000E+04  0.7818608E-02  0.7223770E-01
         52   -1    0    0    0    0  0.00000000000E+00  0.00000000000E+00  0.64930732323E+04  0.65000000000E+04  0.30000000000E+03 0.  1.
        -52   -1    0    0    0    0 -0.00000000000E+00 -0.00000000000E+00 -0.64930732323E+04  0.65000000000E+04  0.30000000000E+03 0. -1.
     100001    1    1    2    0    0  0.14097340429E+04 -0.15566188331E+03  0.63415904201E+04  0.65000000000E+04  0.15050000000E+03 0.  1.
     100001    1    1    2    0    0 -0.14097340429E+04  0.15566188331E+03 -0.63415904201E+04  0.65000000000E+04  0.15050000000E+03 0. -1.
</event>
<event>
 4    1  0.4826743E-004  0.6500000E+04  0.7818608E-02  0.7223770E-01
         52   -1    0    0    0    0  0.00000000000E+00  0.00000000000E+00  0.64930732323E+04  0.65000000000E+04  0.30000000000E+03 0.  1.
        -52   -1    0    0    0    0 -0.00000000000E+00 -0.00000000000E+00 -0.64930732323E+04  0.65000000000E+04  0.30000000000E+03 0. -1.
     100001    1    1    2    0    0  0.33850593967E+04  0.28854594529E+04  0.47373881387E+04  0.65000000000E+04  0.15050000000E+03 0.  1.
     100001    1    1    2    0    0 -0.33850593967E+04 -0.28854594529E+04 -0.47373881387E+04  0.65000000000E+04  0.15050000000E+03 0. -1.
</event>
<event>
 4    1  0.4826743E-004  0.6500000E+04  0.7818608E-02  0.7223770E-01
         52   -1    0    0    0    0  0.00000000000E+00  0.00000000000E+00  0.64930732323E+04  0.65000000000E+04  0.30000000000E+03 0.  1.
        -52   -1    0    0    0    0 -0.00000000000E+00 -0.00000000000E+00 -0.64930732323E+04  0.65000000000E+04  0.30000000000E+03 0. -1.
     100001    1    1    2    0    0  0.32236808074E+04 -0.14146327670E+04  0.54620551019E+04  0.65000000000E+04  0.15050000000E+03 0.  1.
     100001    1    1    2    0    0 -0.32236808074E+04  0.14146327670E+04 -0.54620551019E+04  0.65000000000E+04  0.15050000000E+03 0. -1.
</event>
<event>
 4    1  0.4826743E-004  0.6500000E+04  0.7818608E-02  0.7223770E-01
         52   -1    0    0    0    0  0.00000000000E+00  0.00000000000E+00  0.64930732323E+04  0.65000000000E+04  0.30000000000E+03 0. -1.
        -52   -1    0    0    0    0 -0.00000000000E+00 -0.00000000000E+00 -0.64930732323E+04  0.65000000000E+04  0.30000000000E+03 0.  1.
     100001    1    1    2    0    0  0.93112929430E+02  0.72498398119E+03 -0.64570177295E+04  0.65000000000E+04  0.15050000000E+03 0.  1.
     100001    1    1    2    0    0 -0.93112929430E+02 -0.72498398119E+03  0.64570177295E+04  0.65000000000E+04  0.15050000000E+03 0. -1.
</event>
<event>
 4    1  0.4826743E-004  0.6500000E+04  0.7818608E-02  0.7223770E-01
         52   -1    0    0    0    0  0.00000000000E+00  0.00000000000E+00  0.64930732323E+04  0.65000000000E+04  0.30000000000E+03 0.  1.
        -52   -1    0    0    0    0 -0.00000000000E+00 -0.00000000000E+00 -0.64930732323E+04  0.65000000000E+04  0.30000000000E+03 0. -1.
     100001    1    1    2    0    0 -0.35556779262E+03  0.64885089734E+04  0.13137629212E+02  0.65000000000E+04  0.15050000000E+03 0. -1.
     100001    1    1    2    0    0  0.35556779262E+03 -0.64885089734E+04 -0.13137629212E+02  0.65000000000E+04  0.15050000000E+03 0.  1.
</event>
<event>
 4    1  0.4826743E-004  0.6500000E+04  0.7818608E-02  0.7223770E-01
         52   -1    0    0    0    0  0.00000000000E+00  0.00000000000E+00  0.64930732323E+04  0.65000000000E+04  0.30000000000E+03 0.  1.
        -52   -1    0    0    0    0 -0.00000000000E+00 -0.00000000000E+00 -0.64930732323E+04  0.65000000000E+04  0.30000000000E+03 0. -1.
     100001    1    1    2    0    0  0.44259801080E+04  0.47567259426E+04 -0.10774108321E+03  0.65000000000E+04  0.15050000000E+03 0.  1.
     100001    1    1    2    0    0 -0.44259801080E+04 -0.47567259426E+04  0.10774108321E+03  0.65000000000E+04  0.15050000000E+03 0. -1.
</event>
<event>
 4    1  0.4826743E-004  0.6500000E+04  0.7818608E-02  0.7223770E-01
         52   -1    0    0    0    0  0.00000000000E+00  0.00000000000E+00  0.64930732323E+04  0.65000000000E+04  0.30000000000E+03 0.  1.
        -52   -1    0    0    0    0 -0.00000000000E+00 -0.00000000000E+00 -0.64930732323E+04  0.65000000000E+04  0.30000000000E+03 0. -1.
     100001    1    1    2    0    0  0.63621973836E+03  0.15725017363E+04 -0.62729428886E+04  0.65000000000E+04  0.15050000000E+03 0. -1.
     100001    1    1    2    0    0 -0.63621973836E+03 -0.15725017363E+04  0.62729428886E+04  0.65000000000E+04  0.15050000000E+03 0.  1.
</event>
<event>
 4    1  0.4826743E-004  0.6500000E+04  0.7818608E-02  0.7223770E-01
         52   -1    0    0    0    0  0.00000000000E+00  0.00000000000E+00  0.64930732323E+04  0.65000000000E+04  0.30000000000E+03 0.  1.
        -52   -1    0    0    0    0 -0.00000000000E+00 -0.00000000000E+00 -0.64930732323E+04  0.65000000000E+04  0.30000000000E+03 0. -1.
     100001    1    1    2    0    0  0.23410156638E+02 -0.86248100314E+03 -0.64407242010E+04  0.65000000000E+04  0.15050000000E+03 0. -1.
     100001    1    1    2    0    0 -0.23410156638E+02  0.86248100314E+03  0.64407242010E+04  0.65000000000E+04  0.15050000000E+03 0.  1.
</event>
<event>
 4    1  0.4826743E-004  0.6500000E+04  0.7818608E-02  0.7223770E-01
         52   -1    0    0    0    0  0.00000000000E+00  0.00000000000E+00  0.64930732323E+04  0.65000000000E+04  0.30000000000E+03 0. -1.
        -52   -1    0    0    0    0 -0.00000000000E+00 -0.00000000000E+00 -0.64930732323E+04  0.65000000000E+04  0.30000000000E+03 0.  1.
     100001    1    1    2    0    0 -0.23643202771E+04  0.44168784915E+04  0.41386620747E+04  0.65000000000E+04  0.15050000000E+03 0. -1.
     100001    1    1    2    0    0  0.23643202771E+04 -0.44168784915E+04 -0.41386620747E+04  0.65000000000E+04  0.15050000000E+03 0.  1.
</event>
<event>
 4    1  0.4826743E-004  0.6500000E+04  0.7818608E-02  0.7223770E-01
         52   -1    0    0    0    0  0.00000000000E+00  0.00000000000E+00  0.64930732323E+04  0.65000000000E+04  0.30000000000E+03 0.  1.
        -52   -1    0    0    0    0 -0.00000000000E+00 -0.00000000000E+00 -0.64930732323E+04  0.65000000000E+04  0.30000000000E+03 0. -1.
     100001    1    1    2    0    0  0.65393864340E+03 -0.36972798161E+04  0.53037567782E+04  0.65000000000E+04  0.15050000000E+03 0.  1.
     100001    1    1    2    0    0 -0.65393864340E+03  0.36972798161E+04 -0.53037567782E+04  0.65000000000E+04  0.15050000000E+03 0. -1.
</event>
<event>
 4    1  0.4826743E-004  0.6500000E+04  0.7818608E-02  0.7223770E-01
         52   -1    0    0    0    0  0.00000000000E+00  0.00000000000E+00  0.64930732323E+04  0.65000000000E+04  0.30000000000E+03 0.  1.
        -52   -1    0    0    0    0 -0.00000000000E+00 -0.00000000000E+00 -0.64930732323E+04  0.65000000000E+04  0.30000000000E+03 0. -1.
     100001    1    1    2    0    0  0.24259591244E+02  0.83618262346E+03  0.64441880670E+04  0.65000000000E+04  0.15050000000E+03 0.  1.
     100001    1    1    2    0    0 -0.24259591244E+02 -0.83618262346E+03 -0.64441880670E+04  0.65000000000E+04  0.15050000000E+03 0. -1.
</event>
<event>
 4    1  0.4826743E-004  0.6500000E+04  0.7818608E-02  0.7223770E-01
         52   -1    0    0    0    0  0.00000000000E+00  0.00000000000E+00  0.64930732323E+04  0.65000000000E+04  0.30000000000E+03 0.  1.
        -52   -1    0    0    0    0 -0.00000000000E+00 -0.00000000000E+00 -0.64930732323E+04  0.65000000000E+04  0.30000000000E+03 0. -1.
     100001    1    1    2    0    0  0.64818111217E+03  0.10400362056E+03  0.64650130891E+04  0.65000000000E+04  0.15050000000E+03 0.  1.
     100001    1    1    2    0    0 -0.64818111217E+03 -0.10400362056E+03 -0.64650130891E+04  0.65000000000E+04  0.15050000000E+03 0. -1.
</event>
<event>
 4    1  0.4826743E-004  0.6500000E+04  0.7818608E-02  0.7223770E-01
         52   -1    0    0    0    0  0.00000000000E+00  0.00000000000E+00  0.64930732323E+04  0.65000000000E+04  0.30000000000E+03 0. -1.
        -52   -1    0    0    0    0 -0.00000000000E+00 -0.00000000000E+00 -0.64930732323E+04  0.65000000000E+04  0.30000000000E+03 0. -1.
     100001    1    1    2    0    0  0.29021290547E+04 -0.66741735605E+03 -0.57757727425E+04  0.65000000000E+04  0.15050000000E+03 0. -1.
     100001    1    1    2    0    0 -0.29021290547E+04  0.66741735605E+03  0.57757727425E+04  0.65000000000E+04  0.15050000000E+03 0. -1.
</event>
<event>
 4    1  0.4826743E-004  0.6500000E+04  0.7818608E-02  0.7223770E-01
         52   -1    0    0    0    0  0.00000000000E+00  0.00000000000E+00  0.64930732323E+04  0.65000000000E+04  0.30000000000E+03 0. -1.
        -52   -1    0    0    0    0 -0.00000000000E+00 -0.00000000000E+00 -0.64930732323E+04  0.65000000000E+04  0.30000000000E+03 0.  1.
     100001    1    1    2    0    0  0.27055538548E+04  0.22408387778E+03  0.59039914045E+04  0.65000000000E+04  0.15050000000E+03 0. -1.
     100001    1    1    2    0    0 -0.27055538548E+04 -0.22408387778E+03 -0.59039914045E+04  0.65000000000E+04  0.15050000000E+03 0.  1.
</event>
<event>
 4    1  0.4826743E-004  0.6500000E+04  0.7818608E-02  0.7223770E-01
         52   -1    0    0    0    0  0.00000000000E+00  0.00000000000E+00  0.64930732323E+04  0.65000000000E+04  0.30000000000E+03 0. -1.
        -52   -1    0    0    0    0 -0.00000000000E+00 -0.00000000000E+00 -0.64930732323E+04  0.65000000000E+04  0.30000000000E+03 0.  1.
     100001    1    1    2    0    0 -0.71908154694E+03  0.73440197771E+03  0.64164573726E+04  0.65000000000E+04  0.15050000000E+03 0. -1.
     100001    1    1    2    0    0  0.71908154694E+03 -0.73440197771E+03 -0.64164573726E+04  0.65000000000E+04  0.15050000000E+03 0.  1.
</event>
<event>
 4    1  0.4826743E-004  0.6500000E+04  0.7818608E-02  0.7223770E-01
         52   -1    0    0    0    0  0.00000000000E+00  0.00000000000E+00  0.64930732323E+04  0.65000000000E+04  0.30000000000E+03 0.  1.
        -52   -1    0    0    0    0 -0.00000000000E+00 -0.00000000000E+00 -0.64930732323E+04  0.65000000000E+04  0.30000000000E+03 0. -1.
     100001    1    1    2    0    0 -0.42931666239E+04 -0.36382895089E+04  0.32494491131E+04  0.65000000000E+04  0.15050000000E+03 0.  1.
     100001    1    1    2    0    0  0.42931666239E+04  0.36382895089E+04 -0.32494491131E+04  0.65000000000E+04  0.15050000000E+03 0. -1.
</event>
<event>
 4    1  0.4826743E-004  0.6500000E+04  0.7818608E-02  0.7223770E-01
         52   -1    0    0    0    0  0.00000000000E+00  0.00000000000E+00  0.64930732323E+04  0.65000000000E+04  0.30000000000E+03 0. -1.
        -52   -1    0    0    0    0 -0.00000000000E+00 -0.00000000000E+00 -0.64930732323E+04  0.65000000000E+04  0.30000000000E+03 0.  1.
     100001    1    1    2    0    0 -0.19669325212E+04 -0.12926328437E+04 -0.60570311654E+04  0.65000000000E+04  0.15050000000E+03 0.  1.
     100001    1    1    2    0    0  0.19669325212E+04  0.12926328437E+04  0.60570311654E+04  0.65000000000E+04  0.15050000000E+03 0. -1.
</event>
<event>
 4    1  0.4826743E-004  0.6500000E+04  0.7818608E-02  0.7223770E-01
         52   -1    0    0    0    0  0.00000000000E+00  0.00000000000E+00  0.64930732323E+04  0.65000000000E+04  0.30000000000E+03 0. -1.
        -52   -1    0    0    0    0 -0.00000000000E+00 -0.00000000000E+00 -0.64930732323E+04  0.65000000000E+04  0.30000000000E+03 0.  1.
     100001    1    1    2    0    0 -0.18794187991E+04 -0.30746619831E+04  0.54075492062E+04  0.65000000000E+04  0.15050000000E+03 0. -1.
     100001    1    1    2    0    0  0.18794187991E+04  0.30746619831E+04 -0.54075492062E+04  0.65000000000E+04  0.15050000000E+03 0.  1.
</event>
<event>
 4    1  0.4826743E-004  0.6500000E+04  0.7818608E-02  0.7223770E-01
         52   -1    0    0    0    0  0.00000000000E+00  0.00000000000E+00  0.64930732323E+04  0.65000000000E+04  0.30000000000E+03 0.  1.
        -52   -1    0    0    0    0 -0.00000000000E+00 -0.00000000000E+00 -0.64930732323E+04  0.65000000000E+04  0.30000000000E+03 0. -1.
     100001    1    1    2    0    0 -0.35353688442E+04  0.46126074957E+04 -0.29072958184E+04  0.65000000000E+04  0.15050000000E+03 0.  1.
     100001    1    1    2    0    0  0.35353688442E+04 -0.46126074957E+04  0.29072958184E+04  0.65000000000E+04  0.15050000000E+03 0. -1.
</event>
<event>
 4    1  0.4826743E-004  0.6500000E+04  0.7818608E-02  0.7223770E-01
         52   -1    0    0    0    0  0.00000000000E+00  0.00000000000E+00  0.64930732323E+04  0.65000000000E+04  0.30000000000E+03 0. -1.
        -52   -1    0    0    0    0 -0.00000000000E+00 -0.00000000000E+00 -0.64930732323E+04  0.65000000000E+04  0.30000000000E+03 0.  1.
     100001    1    1    2    0    0  0.16711085698E+03 -0.11546492557E+02 -0.64960980896E+04  0.65000000000E+04  0.15050000000E+03 0.  1.
     100001    1    1    2    0    0 -0.16711085698E+03  0.11546492557E+02  0.64960980896E+04  0.65000000000E+04  0.15050000000E+03 0. -1.
</event>
<event>
 4    1  0.4826743E-004  0.6500000E+04  0.7818608E-02  0.7223770E-01
         52   -1    0    0    0    0  0.00000000000E+00  0.00000000000E+00  0.64930732323E+04  0.65000000000E+04  0.30000000000E+03 0. -1.
        -52   -1    0    0    0    0 -0.00000000000E+00 -0.00000000000E+00 -0.64930732323E+04  0.65000000000E+04  0.30000000000E+03 0.  1.
     100001    1    1    2    0    0 -0.24005405937E+04 -0.57087753200E+03  0.60115599849E+04  0.65000000000E+04  0.15050000000E+03 0. -1.
     100001    1    1    2    0    0  0.24005405937E+04  0.57087753200E+03 -0.60115599849E+04  0.65000000000E+04  0.15050000000E+03 0.  1.
</event>
<event>
 4    1  0.4826743E-004  0.6500000E+04  0.7818608E-02  0.7223770E-01
         52   -1    0    0    0    0  0.00000000000E+00  0.00000000000E+00  0.64930732323E+04  0.65000000000E+04  0.30000000000E+03 0.  1.
        -52   -1    0    0    0    0 -0.00000000000E+00 -0.00000000000E+00 -0.64930732323E+04  0.65000000000E+04  0.30000000000E+03 0. -1.
     100001    1    1    2    0    0 -0.45981838273E+04  0.51098205149E+03  0.45632173500E+04  0.65000000000E+04  0.15050000000E+03 0.  1.
     100001    1    1    2    0    0  0.45981838273E+04 -0.51098205149E+03 -0.45632173500E+04  0.65000000000E+04  0.15050000000E+03 0. -1.
</event>
<event>
 4    1  0.4826743E-004  0.6500000E+04  0.7818608E-02  0.7223770E-01
         52   -1    0    0    0    0  0.00000000000E+00  0.00000000000E+00  0.64930732323E+04  0.65000000000E+04  0.30000000000E+03 0. -1.
        -52   -1    0    0    0    0 -0.00000000000E+00 -0.00000000000E+00 -0.64930732323E+04  0.65000000000E+04  0.30000000000E+03 0.  1.
     100001    1    1    2    0    0  0.30286272828E+03 -0.49955779524E+04  0.41448552254E+04  0.65000000000E+04  0.15050000000E+03 0. -1.
     100001    1    1    2    0    0 -0.30286272828E+03  0.49955779524E+04 -0.41448552254E+04  0.65000000000E+04  0.15050000000E+03 0.  1.
</event>
<event>
 4    1  0.4826743E-004  0.6500000E+04  0.7818608E-02  0.7223770E-01
         52   -1    0    0    0    0  0.00000000000E+00  0.00000000000E+00  0.64930732323E+04  0.65000000000E+04  0.30000000000E+03 0. -1.
        -52   -1    0    0    0    0 -0.00000000000E+00 -0.00000000000E+00 -0.64930732323E+04  0.65000000000E+04  0.30000000000E+03 0.  1.
     100001    1    1    2    0    0 -0.29316923161E+04 -0.57633307997E+04 -0.64540530466E+03  0.65000000000E+04  0.15050000000E+03 0. -1.
     100001    1    1    2    0    0  0.29316923161E+04  0.57633307997E+04  0.64540530466E+03  0.65000000000E+04  0.15050000000E+03 0.  1.
</event>
<event>
 4    1  0.4826743E-004  0.6500000E+04  0.7818608E-02  0.7223770E-01
         52   -1    0    0    0    0  0.00000000000E+00  0.00000000000E+00  0.64930732323E+04  0.65000000000E+04  0.30000000000E+03 0.  1.
        -52   -1    0    0    0    0 -0.00000000000E+00 -0.00000000000E+00 -0.64930732323E+04  0.65000000000E+04  0.30000000000E+03 0. -1.
     100001    1    1    2    0    0  0.11824757024E+04 -0.37465823894E+04 -0.51761203003E+04  0.65000000000E+04  0.15050000000E+03 0. -1.
     100001    1    1    2    0    0 -0.11824757024E+04  0.37465823894E+04  0.51761203003E+04  0.65000000000E+04  0.15050000000E+03 0.  1.
</event>
<event>
 4    1  0.4826743E-004  0.6500000E+04  0.7818608E-02  0.7223770E-01
         52   -1    0    0    0    0  0.00000000000E+00  0.00000000000E+00  0.64930732323E+04  0.65000000000E+04  0.30000000000E+03 0. -1.
        -52   -1    0    0    0    0 -0.00000000000E+00 -0.00000000000E+00 -0.64930732323E+04  0.65000000000E+04  0.30000000000E+03 0.  1.
     100001    1    1    2    0    0 -0.18353634505E+04 -0.21599280420E+04 -0.58475209797E+04  0.65000000000E+04  0.15050000000E+03 0.  1.
     100001    1    1    2    0    0  0.18353634505E+04  0.21599280420E+04  0.58475209797E+04  0.65000000000E+04  0.15050000000E+03 0. -1.
</event>
<event>
 4    1  0.4826743E-004  0.6500000E+04  0.7818608E-02  0.7223770E-01
         52   -1    0    0    0    0  0.00000000000E+00  0.00000000000E+00  0.64930732323E+04  0.65000000000E+04  0.30000000000E+03 0.  1.
        -52   -1    0    0    0    0 -0.00000000000E+00 -0.00000000000E+00 -0.64930732323E+04  0.65000000000E+04  0.30000000000E+03 0. -1.
     100001    1    1    2    0    0 -0.49060083773E+03 -0.59831818816E+03 -0.64520288215E+04  0.65000000000E+04  0.15050000000E+03 0. -1.
     100001    1    1    2    0    0  0.49060083773E+03  0.59831818816E+03  0.64520288215E+04  0.65000000000E+04  0.15050000000E+03 0.  1.
</event>
<event>
 4    1  0.4826743E-004  0.6500000E+04  0.7818608E-02  0.7223770E-01
         52   -1    0    0    0    0  0.00000000000E+00  0.00000000000E+00  0.64930732323E+04  0.65000000000E+04  0.30000000000E+03 0. -1.
        -52   -1    0    0    0    0 -0.00000000000E+00 -0.00000000000E+00 -0.64930732323E+04  0.65000000000E+04  0.30000000000E+03 0. -1.
     100001    1    1    2    0    0 -0.49835999693E+03 -0.25792427188E+03 -0.64739834826E+04  0.65000000000E+04  0.15050000000E+03 0. -1.
     100001    1    1    2    0    0  0.49835999693E+03  0.25792427188E+03  0.64739834826E+04  0.65000000000E+04  0.15050000000E+03 0. -1.
</event>
<event>
 4    1  0.4826743E-004  0.6500000E+04  0.7818608E-02  0.7223770E-01
         52   -1    0    0    0    0  0.00000000000E+00  0.00000000000E+00  0.64930732323E+04  0.65000000000E+04  0.30000000000E+03 0. -1.
        -52   -1    0    0    0    0 -0.00000000000E+00 -0.00000000000E+00 -0.64930732323E+04  0.65000000000E+04  0.30000000000E+03 0.  1.
     100001    1    1    2    0    0 -0.57024084474E+04  0.12838494428E+04  0.28392989025E+04  0.65000000000E+04  0.15050000000E+03 0. -1.
     100001    1    1    2    0    0  0.57024084474E+04 -0.12838494428E+04 -0.28392989025E+04  0.65000000000E+04  0.15050000000E+03 0.  1.
</event>
<event>
 4    1  0.4826743E-004  0.6500000E+04  0.7818608E-02  0.7223770E-01
         52   -1    0    0    0    0  0.00000000000E+00  0.00000000000E+00  0.64930732323E+04  0.65000000000E+04  0.30000000000E+03 0. -1.
        -52   -1    0    0    0    0 -0.00000000000E+00 -0.00000000000E+00 -0.64930732323E+04  0.65000000000E+04  0.30000000000E+03 0.  1.
     100001    1    1    2    0    0  0.27339286971E+03  0.16848219289E+02  0.64924819774E+04  0.65000000000E+04  0.15050000000E+03 0. -1.
     100001    1    1    2    0    0 -0.27339286971E+03 -0.16848219289E+02 -0.64924819774E+04  0.65000000000E+04  0.15050000000E+03 0.  1.
</event>
<event>
 4    1  0.4826743E-004  0.6500000E+04  0.7818608E-02  0.7223770E-01
         52   -1    0    0    0    0  0.00000000000E+00  0.00000000000E+00  0.64930732323E+04  0.65000000000E+04  0.30000000000E+03 0.  1.
        -52   -1    0    0    0    0 -0.00000000000E+00 -0.00000000000E+00 -0.64930732323E+04  0.65000000000E+04  0.30000000000E+03 0. -1.
     100001    1    1    2    0    0  0.60404439506E+03  0.11639766347E+03  0.64690750268E+04  0.65000000000E+04  0.15050000000E+03 0.  1.
     100001    1    1    2    0    0 -0.60404439506E+03 -0.11639766347E+03 -0.64690750268E+04  0.65000000000E+04  0.15050000000E+03 0. -1.
</event>
<event>
 4    1  0.4826743E-004  0.6500000E+04  0.7818608E-02  0.7223770E-01
         52   -1    0    0    0    0  0.00000000000E+00  0.00000000000E+00  0.64930732323E+04  0.65000000000E+04  0.30000000000E+03 0.  1.
        -52   -1    0    0    0    0 -0.00000000000E+00 -0.00000000000E+00 -0.64930732323E+04  0.65000000000E+04  0.30000000000E+03 0. -1.
     100001    1    1    2    0    0 -0.20697977756E+03 -0.24681179962E+03  0.64902691051E+04  0.65000000000E+04  0.15050000000E+03 0.  1.
     100001    1    1    2    0    0  0.20697977756E+03  0.24681179962E+03 -0.64902691051E+04  0.65000000000E+04  0.15050000000E+03 0. -1.
</event>
<event>
 4    1  0.4826743E-004  0.6500000E+04  0.7818608E-02  0.7223770E-01
         52   -1    0    0    0    0  0.00000000000E+00  0.00000000000E+00  0.64930732323E+04  0.65000000000E+04  0.30000000000E+03 0.  1.
        -52   -1    0    0    0    0 -0.00000000000E+00 -0.00000000000E+00 -0.64930732323E+04  0.65000000000E+04  0.30000000000E+03 0. -1.
     100001    1    1    2    0    0 -0.32622644233E+03 -0.12750026870E+03  0.64888111191E+04  0.65000000000E+04  0.15050000000E+03 0.  1.
     100001    1    1    2    0    0  0.32622644233E+03  0.12750026870E+03 -0.64888111191E+04  0.65000000000E+04  0.15050000000E+03 0. -1.
</event>
<event>
 4    1  0.4826743E-004  0.6500000E+04  0.7818608E-02  0.7223770E-01
         52   -1    0    0    0    0  0.00000000000E+00  0.00000000000E+00  0.64930732323E+04  0.65000000000E+04  0.30000000000E+03 0.  1.
        -52   -1    0    0    0    0 -0.00000000000E+00 -0.00000000000E+00 -0.64930732323E+04  0.65000000000E+04  0.30000000000E+03 0. -1.
     100001    1    1    2    0    0 -0.14453874648E+04  0.25779076479E+04 -0.57872788930E+04  0.65000000000E+04  0.15050000000E+03 0. -1.
     100001    1    1    2    0    0  0.14453874648E+04 -0.25779076479E+04  0.57872788930E+04  0.65000000000E+04  0.15050000000E+03 0.  1.
</event>
<event>
 4    1  0.4826743E-004  0.6500000E+04  0.7818608E-02  0.7223770E-01
         52   -1    0    0    0    0  0.00000000000E+00  0.00000000000E+00  0.64930732323E+04  0.65000000000E+04  0.30000000000E+03 0. -1.
        -52   -1    0    0    0    0 -0.00000000000E+00 -0.00000000000E+00 -0.64930732323E+04  0.65000000000E+04  0.30000000000E+03 0.  1.
     100001    1    1    2    0    0  0.17497615792E+04 -0.30188272059E+04  0.54820038733E+04  0.65000000000E+04  0.15050000000E+03 0. -1.
     100001    1    1    2    0    0 -0.17497615792E+04  0.30188272059E+04 -0.54820038733E+04  0.65000000000E+04  0.15050000000E+03 0.  1.
</event>
<event>
 4    1  0.4826743E-004  0.6500000E+04  0.7818608E-02  0.7223770E-01
         52   -1    0    0    0    0  0.00000000000E+00  0.00000000000E+00  0.64930732323E+04  0.65000000000E+04  0.30000000000E+03 0.  1.
        -52   -1    0    0    0    0 -0.00000000000E+00 -0.00000000000E+00 -0.64930732323E+04  0.65000000000E+04  0.30000000000E+03 0. -1.
     100001    1    1    2    0    0  0.50054449551E+04 -0.23529535477E+04  0.34112285402E+04  0.65000000000E+04  0.15050000000E+03 0.  1.
     100001    1    1    2    0    0 -0.50054449551E+04  0.23529535477E+04 -0.34112285402E+04  0.65000000000E+04  0.15050000000E+03 0. -1.
</event>
<event>
 4    1  0.4826743E-004  0.6500000E+04  0.7818608E-02  0.7223770E-01
         52   -1    0    0    0    0  0.00000000000E+00  0.00000000000E+00  0.64930732323E+04  0.65000000000E+04  0.30000000000E+03 0.  1.
        -52   -1    0    0    0    0 -0.00000000000E+00 -0.00000000000E+00 -0.64930732323E+04  0.65000000000E+04  0.30000000000E+03 0. -1.
     100001    1    1    2    0    0  0.54432367105E+03  0.64085486573E+04  0.92820557961E+03  0.65000000000E+04  0.15050000000E+03 0.  1.
     100001    1    1    2    0    0 -0.54432367105E+03 -0.64085486573E+04 -0.92820557961E+03  0.65000000000E+04  0.15050000000E+03 0. -1.
</event>
<event>
 4    1  0.4826743E-004  0.6500000E+04  0.7818608E-02  0.7223770E-01
         52   -1    0    0    0    0  0.00000000000E+00  0.00000000000E+00  0.64930732323E+04  0.65000000000E+04  0.30000000000E+03 0. -1.
        -52   -1    0    0    0    0 -0.00000000000E+00 -0.00000000000E+00 -0.64930732323E+04  0.65000000000E+04  0.30000000000E+03 0.  1.
     100001    1    1    2    0    0 -0.10351745149E+04 -0.56891776920E+03 -0.63899996906E+04  0.65000000000E+04  0.15050000000E+03 0.  1.
     100001    1    1    2    0    0  0.10351745149E+04  0.56891776920E+03  0.63899996906E+04  0.65000000000E+04  0.15050000000E+03 0. -1.
</event>
<event>
 4    1  0.4826743E-004  0.6500000E+04  0.7818608E-02  0.7223770E-01
         52   -1    0    0    0    0  0.00000000000E+00  0.00000000000E+00  0.64930732323E+04  0.65000000000E+04  0.30000000000E+03 0. -1.
        -52   -1    0    0    0    0 -0.00000000000E+00 -0.00000000000E+00 -0.64930732323E+04  0.65000000000E+04  0.30000000000E+03 0.  1.
     100001    1    1    2    0    0  0.69807274829E+03 -0.10367720188E+03  0.64598216094E+04  0.65000000000E+04  0.15050000000E+03 0. -1.
     100001    1    1    2    0    0 -0.69807274829E+03  0.10367720188E+03 -0.64598216094E+04  0.65000000000E+04  0.15050000000E+03 0.  1.
</event>
<event>
 4    1  0.4826743E-004  0.6500000E+04  0.7818608E-02  0.7223770E-01
         52   -1    0    0    0    0  0.00000000000E+00  0.00000000000E+00  0.64930732323E+04  0.65000000000E+04  0.30000000000E+03 0. -1.
        -52   -1    0    0    0    0 -0.00000000000E+00 -0.00000000000E+00 -0.64930732323E+04  0.65000000000E+04  0.30000000000E+03 0.  1.
     100001    1    1    2    0    0  0.17248464106E+04 -0.37827286570E+04 -0.49943186239E+04  0.65000000000E+04  0.15050000000E+03 0.  1.
     100001    1    1    2    0    0 -0.17248464106E+04  0.37827286570E+04  0.49943186239E+04  0.65000000000E+04  0.15050000000E+03 0. -1.
</event>
<event>
 4    1  0.4826743E-004  0.6500000E+04  0.7818608E-02  0.7223770E-01
         52   -1    0    0    0    0  0.00000000000E+00  0.00000000000E+00  0.64930732323E+04  0.65000000000E+04  0.30000000000E+03 0. -1.
        -52   -1    0    0    0    0 -0.00000000000E+00 -0.00000000000E+00 -0.64930732323E+04  0.65000000000E+04  0.30000000000E+03 0.  1.
     100001    1    1    2    0    0  0.55075039758E+04  0.29530903008E+04 -0.17815744111E+04  0.65000000000E+04  0.15050000000E+03 0.  1.
     100001    1    1    2    0    0 -0.55075039758E+04 -0.29530903008E+04  0.17815744111E+04  0.65000000000E+04  0.15050000000E+03 0. -1.
</event>
<event>
 4    1  0.4826743E-004  0.6500000E+04  0.7818608E-02  0.7223770E-01
         52   -1    0    0    0    0  0.00000000000E+00  0.00000000000E+00  0.64930732323E+04  0.65000000000E+04  0.30000000000E+03 0.  1.
        -52   -1    0    0    0    0 -0.00000000000E+00 -0.00000000000E+00 -0.64930732323E+04  0.65000000000E+04  0.30000000000E+03 0. -1.
     100001    1    1    2    0    0 -0.46019685141E+03  0.22749122079E+03 -0.64779484679E+04  0.65000000000E+04  0.15050000000E+03 0. -1.
     100001    1    1    2    0    0  0.46019685141E+03 -0.22749122079E+03  0.64779484679E+04  0.65000000000E+04  0.15050000000E+03 0.  1.
</event>
<event>
 4    1  0.4826743E-004  0.6500000E+04  0.7818608E-02  0.7223770E-01
         52   -1    0    0    0    0  0.00000000000E+00  0.00000000000E+00  0.64930732323E+04  0.65000000000E+04  0.30000000000E+03 0.  1.
        -52   -1    0    0    0    0 -0.00000000000E+00 -0.00000000000E+00 -0.64930732323E+04  0.65000000000E+04  0.30000000000E+03 0. -1.
     100001    1    1    2    0    0  0.20345208403E+04  0.20481503726E+04  0.58217827812E+04  0.65000000000E+04  0.15050000000E+03 0.  1.
     100001    1    1    2    0    0 -0.20345208403E+04 -0.20481503726E+04 -0.58217827812E+04  0.65000000000E+04  0.15050000000E+03 0. -1.
</event>
<event>
 4    1  0.4826743E-004  0.6500000E+04  0.7818608E-02  0.7223770E-01
         52   -1    0    0    0    0  0.00000000000E+00  0.00000000000E+00  0.64930732323E+04  0.65000000000E+04  0.30000000000E+03 0.  1.
        -52   -1    0    0    0    0 -0.00000000000E+00 -0.00000000000E+00 -0.64930732323E+04  0.65000000000E+04  0.30000000000E+03 0. -1.
     100001    1    1    2    0    0 -0.30720596933E+03 -0.28065114525E+04  0.58529025030E+04  0.65000000000E+04  0.15050000000E+03 0.  1.
     100001    1    1    2    0    0  0.30720596933E+03  0.28065114525E+04 -0.58529025030E+04  0.65000000000E+04  0.15050000000E+03 0. -1.
</event>
<event>
 4    1  0.4826743E-004  0.6500000E+04  0.7818608E-02  0.7223770E-01
         52   -1    0    0    0    0  0.00000000000E+00  0.00000000000E+00  0.64930732323E+04  0.65000000000E+04  0.30000000000E+03 0.  1.
        -52   -1    0    0    0    0 -0.00000000000E+00 -0.00000000000E+00 -0.64930732323E+04  0.65000000000E+04  0.30000000000E+03 0. -1.
     100001    1    1    2    0    0  0.14984777688E+04 -0.54695501641E+02  0.63228887803E+04  0.65000000000E+04  0.15050000000E+03 0.  1.
     100001    1    1    2    0    0 -0.14984777688E+04  0.54695501641E+02 -0.63228887803E+04  0.65000000000E+04  0.15050000000E+03 0. -1.
</event>
<event>
 4    1  0.4826743E-004  0.6500000E+04  0.7818608E-02  0.7223770E-01
         52   -1    0    0    0    0  0.00000000000E+00  0.00000000000E+00  0.64930732323E+04  0.65000000000E+04  0.30000000000E+03 0.  1.
        -52   -1    0    0    0    0 -0.00000000000E+00 -0.00000000000E+00 -0.64930732323E+04  0.65000000000E+04  0.30000000000E+03 0. -1.
     100001    1    1    2    0    0  0.23025203128E+03  0.34335313217E+03 -0.64850938604E+04  0.65000000000E+04  0.15050000000E+03 0. -1.
     100001    1    1    2    0    0 -0.23025203128E+03 -0.34335313217E+03  0.64850938604E+04  0.65000000000E+04  0.15050000000E+03 0.  1.
</event>
<event>
 4    1  0.4826743E-004  0.6500000E+04  0.7818608E-02  0.7223770E-01
         52   -1    0    0    0    0  0.00000000000E+00  0.00000000000E+00  0.64930732323E+04  0.65000000000E+04  0.30000000000E+03 0. -1.
        -52   -1    0    0    0    0 -0.00000000000E+00 -0.00000000000E+00 -0.64930732323E+04  0.65000000000E+04  0.30000000000E+03 0.  1.
     100001    1    1    2    0    0  0.77991215249E+03 -0.76445318865E+03  0.64058331314E+04  0.65000000000E+04  0.15050000000E+03 0. -1.
     100001    1    1    2    0    0 -0.77991215249E+03  0.76445318865E+03 -0.64058331314E+04  0.65000000000E+04  0.15050000000E+03 0.  1.
</event>
<event>
 4    1  0.4826743E-004  0.6500000E+04  0.7818608E-02  0.7223770E-01
         52   -1    0    0    0    0  0.00000000000E+00  0.00000000000E+00  0.64930732323E+04  0.65000000000E+04  0.30000000000E+03 0. -1.
        -52   -1    0    0    0    0 -0.00000000000E+00 -0.00000000000E+00 -0.64930732323E+04  0.65000000000E+04  0.30000000000E+03 0.  1.
     100001    1    1    2    0    0  0.77057815419E+03  0.87476472624E+03 -0.63928355002E+04  0.65000000000E+04  0.15050000000E+03 0.  1.
     100001    1    1    2    0    0 -0.77057815419E+03 -0.87476472624E+03  0.63928355002E+04  0.65000000000E+04  0.15050000000E+03 0. -1.
</event>
<event>
 4    1  0.4826743E-004  0.6500000E+04  0.7818608E-02  0.7223770E-01
         52   -1    0    0    0    0  0.00000000000E+00  0.00000000000E+00  0.64930732323E+04  0.65000000000E+04  0.30000000000E+03 0.  1.
        -52   -1    0    0    0    0 -0.00000000000E+00 -0.00000000000E+00 -0.64930732323E+04  0.65000000000E+04  0.30000000000E+03 0. -1.
     100001    1    1    2    0    0 -0.18174487009E+04 -0.27376203212E+03  0.62329194058E+04  0.65000000000E+04  0.15050000000E+03 0.  1.
     100001    1    1    2    0    0  0.18174487009E+04  0.27376203212E+03 -0.62329194058E+04  0.65000000000E+04  0.15050000000E+03 0. -1.
</event>
<event>
 4    1  0.4826743E-004  0.6500000E+04  0.7818608E-02  0.7223770E-01
         52   -1    0    0    0    0  0.00000000000E+00  0.00000000000E+00  0.64930732323E+04  0.65000000000E+04  0.30000000000E+03 0. -1.
        -52   -1    0    0    0    0 -0.00000000000E+00 -0.00000000000E+00 -0.64930732323E+04  0.65000000000E+04  0.30000000000E+03 0.  1.
     100001    1    1    2    0    0  0.90488999945E+03 -0.13332351685E+04 -0.62953163403E+04  0.65000000000E+04  0.15050000000E+03 0.  1.
     100001    1    1    2    0    0 -0.90488999945E+03  0.13332351685E+04  0.62953163403E+04  0.65000000000E+04  0.15050000000E+03 0. -1.
</event>
<event>
 4    1  0.4826743E-004  0.6500000E+04  0.7818608E-02  0.7223770E-01
         52   -1    0    0    0    0  0.00000000000E+00  0.00000000000E+00  0.64930732323E+04  0.65000000000E+04  0.30000000000E+03 0.  1.
        -52   -1    0    0    0    0 -0.00000000000E+00 -0.00000000000E+00 -0.64930732323E+04  0.65000000000E+04  0.30000000000E+03 0. -1.
     100001    1    1    2    0    0 -0.92290938535E+02 -0.70341189723E+02 -0.64972212714E+04  0.65000000000E+04  0.15050000000E+03 0. -1.
     100001    1    1    2    0    0  0.92290938535E+02  0.70341189723E+02  0.64972212714E+04  0.65000000000E+04  0.15050000000E+03 0.  1.
</event>
<event>
 4    1  0.4826743E-004  0.6500000E+04  0.7818608E-02  0.7223770E-01
         52   -1    0    0    0    0  0.00000000000E+00  0.00000000000E+00  0.64930732323E+04  0.65000000000E+04  0.30000000000E+03 0. -1.
        -52   -1    0    0    0    0 -0.00000000000E+00 -0.00000000000E+00 -0.64930732323E+04  0.65000000000E+04  0.30000000000E+03 0.  1.
     100001    1    1    2    0    0  0.27251123384E+04  0.42146094596E+04 -0.41277329851E+04  0.65000000000E+04  0.15050000000E+03 0.  1.
     100001    1    1    2    0    0 -0.27251123384E+04 -0.42146094596E+04  0.41277329851E+04  0.65000000000E+04  0.15050000000E+03 0. -1.
</event>
<event>
 4    1  0.4826743E-004  0.6500000E+04  0.7818608E-02  0.7223770E-01
         52   -1    0    0    0    0  0.00000000000E+00  0.00000000000E+00  0.64930732323E+04  0.65000000000E+04  0.30000000000E+03 0.  1.
        -52   -1    0    0    0    0 -0.00000000000E+00 -0.00000000000E+00 -0.64930732323E+04  0.65000000000E+04  0.30000000000E+03 0. -1.
     100001    1    1    2    0    0  0.73425607449E+03  0.11781320899E+04 -0.63482456274E+04  0.65000000000E+04  0.15050000000E+03 0. -1.
     100001    1    1    2    0    0 -0.73425607449E+03 -0.11781320899E+04  0.63482456274E+04  0.65000000000E+04  0.15050000000E+03 0.  1.
</event>
<event>
 4    1  0.4826743E-004  0.6500000E+04  0.7818608E-02  0.7223770E-01
         52   -1    0    0    0    0  0.00000000000E+00  0.00000000000E+00  0.64930732323E+04  0.65000000000E+04  0.30000000000E+03 0. -1.
        -52   -1    0    0    0    0 -0.00000000000E+00 -0.00000000000E+00 -0.64930732323E+04  0.65000000000E+04  0.30000000000E+03 0. -1.
     100001    1    1    2    0    0 -0.31507442674E+02  0.17263888363E+02  0.64981581228E+04  0.65000000000E+04  0.15050000000E+03 0. -1.
     100001    1    1    2    0    0  0.31507442674E+02 -0.17263888363E+02 -0.64981581228E+04  0.65000000000E+04  0.15050000000E+03 0. -1.
</event>
<event>
 4    1  0.4826743E-004  0.6500000E+04  0.7818608E-02  0.7223770E-01
         52   -1    0    0    0    0  0.00000000000E+00  0.00000000000E+00  0.64930732323E+04  0.65000000000E+04  0.30000000000E+03 0. -1.
        -52   -1    0    0    0    0 -0.00000000000E+00 -0.00000000000E+00 -0.64930732323E+04  0.65000000000E+04  0.30000000000E+03 0.  1.
     100001    1    1    2    0    0  0.19011675742E+03 -0.31366614035E+02 -0.64954000265E+04  0.65000000000E+04  0.15050000000E+03 0.  1.
     100001    1    1    2    0    0 -0.19011675742E+03  0.31366614035E+02  0.64954000265E+04  0.65000000000E+04  0.15050000000E+03 0. -1.
</event>
<event>
 4    1  0.4826743E-004  0.6500000E+04  0.7818608E-02  0.7223770E-01
         52   -1    0    0    0    0  0.00000000000E+00  0.00000000000E+00  0.64930732323E+04  0.65000000000E+04  0.30000000000E+03 0.  1.
        -52   -1    0    0    0    0 -0.00000000000E+00 -0.00000000000E+00 -0.64930732323E+04  0.65000000000E+04  0.30000000000E+03 0. -1.
     100001    1    1    2    0    0  0.14043669210E+04  0.97659732338E+03  0.62690797546E+04  0.65000000000E+04  0.15050000000E+03 0.  1.
     100001    1    1    2    0    0 -0.14043669210E+04 -0.97659732338E+03 -0.62690797546E+04  0.65000000000E+04  0.15050000000E+03 0. -1.
</event>
<event>
 4    1  0.4826743E-004  0.6500000E+04  0.7818608E-02  0.7223770E-01
         52   -1    0    0    0    0  0.00000000000E+00  0.00000000000E+00  0.64930732323E+04  0.65000000000E+04  0.30000000000E+03 0.  1.
        -52   -1    0    0    0    0 -0.00000000000E+00 -0.00000000000E+00 -0.64930732323E+04  0.65000000000E+04  0.30000000000E+03 0. -1.
     100001    1    1    2    0    0 -0.16645979610E+04 -0.10586008704E+04  0.61915932986E+04  0.65000000000E+04  0.15050000000E+03 0.  1.
     100001    1    1    2    0    0  0.16645979610E+04  0.10586008704E+04 -0.61915932986E+04  0.65000000000E+04  0.15050000000E+03 0. -1.
</event>
<event>
 4    1  0.6205505E-004  0.6500000E+04  0.7818608E-02  0.7223770E-01
         52   -1    0    0    0    0  0.00000000000E+00  0.00000000000E+00  0.64930732323E+04  0.65000000000E+04  0.30000000000E+03 0.  1.
        -52   -1    0    0    0    0 -0.00000000000E+00 -0.00000000000E+00 -0.64930732323E+04  0.65000000000E+04  0.30000000000E+03 0.  1.
     100001    1    1    2    0    0  0.13256620261E+03 -0.40934551005E+02  0.64967761478E+04  0.65000000000E+04  0.15050000000E+03 0.  1.
     100001    1    1    2    0    0 -0.13256620261E+03  0.40934551005E+02 -0.64967761478E+04  0.65000000000E+04  0.15050000000E+03 0.  1.
</event>
<event>
 4    1  0.4826743E-004  0.6500000E+04  0.7818608E-02  0.7223770E-01
         52   -1    0    0    0    0  0.00000000000E+00  0.00000000000E+00  0.64930732323E+04  0.65000000000E+04  0.30000000000E+03 0. -1.
        -52   -1    0    0    0    0 -0.00000000000E+00 -0.00000000000E+00 -0.64930732323E+04  0.65000000000E+04  0.30000000000E+03 0.  1.
     100001    1    1    2    0    0  0.64656524303E+03 -0.12487195679E+04  0.63442889733E+04  0.65000000000E+04  0.15050000000E+03 0. -1.
     100001    1    1    2    0    0 -0.64656524303E+03  0.12487195679E+04 -0.63442889733E+04  0.65000000000E+04  0.15050000000E+03 0.  1.
</event>
<event>
 4    1  0.4826743E-004  0.6500000E+04  0.7818608E-02  0.7223770E-01
         52   -1    0    0    0    0  0.00000000000E+00  0.00000000000E+00  0.64930732323E+04  0.65000000000E+04  0.30000000000E+03 0.  1.
        -52   -1    0    0    0    0 -0.00000000000E+00 -0.00000000000E+00 -0.64930732323E+04  0.65000000000E+04  0.30000000000E+03 0. -1.
     100001    1    1    2    0    0  0.50273630664E+04 -0.20087467845E+03 -0.41124955577E+04  0.65000000000E+04  0.15050000000E+03 0. -1.
     100001    1    1    2    0    0 -0.50273630664E+04  0.20087467845E+03  0.41124955577E+04  0.65000000000E+04  0.15050000000E+03 0.  1.
</event>
<event>
 4    1  0.4826743E-004  0.6500000E+04  0.7818608E-02  0.7223770E-01
         52   -1    0    0    0    0  0.00000000000E+00  0.00000000000E+00  0.64930732323E+04  0.65000000000E+04  0.30000000000E+03 0. -1.
        -52   -1    0    0    0    0 -0.00000000000E+00 -0.00000000000E+00 -0.64930732323E+04  0.65000000000E+04  0.30000000000E+03 0.  1.
     100001    1    1    2    0    0 -0.50956452059E+03 -0.78427631005E+03  0.64305990715E+04  0.65000000000E+04  0.15050000000E+03 0. -1.
     100001    1    1    2    0    0  0.50956452059E+03  0.78427631005E+03 -0.64305990715E+04  0.65000000000E+04  0.15050000000E+03 0.  1.
</event>
<event>
 4    1  0.4826743E-004  0.6500000E+04  0.7818608E-02  0.7223770E-01
         52   -1    0    0    0    0  0.00000000000E+00  0.00000000000E+00  0.64930732323E+04  0.65000000000E+04  0.30000000000E+03 0. -1.
        -52   -1    0    0    0    0 -0.00000000000E+00 -0.00000000000E+00 -0.64930732323E+04  0.65000000000E+04  0.30000000000E+03 0.  1.
     100001    1    1    2    0    0 -0.13930488474E+03  0.56758850316E+03  0.64719229901E+04  0.65000000000E+04  0.15050000000E+03 0. -1.
     100001    1    1    2    0    0  0.13930488474E+03 -0.56758850316E+03 -0.64719229901E+04  0.65000000000E+04  0.15050000000E+03 0.  1.
</event>
<event>
 4    1  0.4826743E-004  0.6500000E+04  0.7818608E-02  0.7223770E-01
         52   -1    0    0    0    0  0.00000000000E+00  0.00000000000E+00  0.64930732323E+04  0.65000000000E+04  0.30000000000E+03 0. -1.
        -52   -1    0    0    0    0 -0.00000000000E+00 -0.00000000000E+00 -0.64930732323E+04  0.65000000000E+04  0.30000000000E+03 0.  1.
     100001    1    1    2    0    0  0.32197851771E+03  0.31291045889E+03  0.64827283322E+04  0.65000000000E+04  0.15050000000E+03 0. -1.
     100001    1    1    2    0    0 -0.32197851771E+03 -0.31291045889E+03 -0.64827283322E+04  0.65000000000E+04  0.15050000000E+03 0.  1.
</event>
<event>
 4    1  0.4826743E-004  0.6500000E+04  0.7818608E-02  0.7223770E-01
         52   -1    0    0    0    0  0.00000000000E+00  0.00000000000E+00  0.64930732323E+04  0.65000000000E+04  0.30000000000E+03 0. -1.
        -52   -1    0    0    0    0 -0.00000000000E+00 -0.00000000000E+00 -0.64930732323E+04  0.65000000000E+04  0.30000000000E+03 0.  1.
     100001    1    1    2    0    0  0.78163217852E+03  0.27041763524E+04  0.58569472545E+04  0.65000000000E+04  0.15050000000E+03 0. -1.
     100001    1    1    2    0    0 -0.78163217852E+03 -0.27041763524E+04 -0.58569472545E+04  0.65000000000E+04  0.15050000000E+03 0.  1.
</event>
<event>
 4    1  0.4826743E-004  0.6500000E+04  0.7818608E-02  0.7223770E-01
         52   -1    0    0    0    0  0.00000000000E+00  0.00000000000E+00  0.64930732323E+04  0.65000000000E+04  0.30000000000E+03 0. -1.
        -52   -1    0    0    0    0 -0.00000000000E+00 -0.00000000000E+00 -0.64930732323E+04  0.65000000000E+04  0.30000000000E+03 0.  1.
     100001    1    1    2    0    0 -0.57486287013E+03  0.21486931220E+04  0.61057350334E+04  0.65000000000E+04  0.15050000000E+03 0. -1.
     100001    1    1    2    0    0  0.57486287013E+03 -0.21486931220E+04 -0.61057350334E+04  0.65000000000E+04  0.15050000000E+03 0.  1.
</event>
<event>
 4    1  0.4826743E-004  0.6500000E+04  0.7818608E-02  0.7223770E-01
         52   -1    0    0    0    0  0.00000000000E+00  0.00000000000E+00  0.64930732323E+04  0.65000000000E+04  0.30000000000E+03 0.  1.
        -52   -1    0    0    0    0 -0.00000000000E+00 -0.00000000000E+00 -0.64930732323E+04  0.65000000000E+04  0.30000000000E+03 0. -1.
     100001    1    1    2    0    0 -0.68512616039E+02 -0.16399620558E+04  0.62875416680E+04  0.65000000000E+04  0.15050000000E+03 0.  1.
     100001    1    1    2    0    0  0.68512616039E+02  0.16399620558E+04 -0.62875416680E+04  0.65000000000E+04  0.15050000000E+03 0. -1.
</event>
<event>
 4    1  0.4826743E-004  0.6500000E+04  0.7818608E-02  0.7223770E-01
         52   -1    0    0    0    0  0.00000000000E+00  0.00000000000E+00  0.64930732323E+04  0.65000000000E+04  0.30000000000E+03 0.  1.
        -52   -1    0    0    0    0 -0.00000000000E+00 -0.00000000000E+00 -0.64930732323E+04  0.65000000000E+04  0.30000000000E+03 0. -1.
     100001    1    1    2    0    0  0.30254079711E+03  0.23076610099E+04 -0.60671673357E+04  0.65000000000E+04  0.15050000000E+03 0. -1.
     100001    1    1    2    0    0 -0.30254079711E+03 -0.23076610099E+04  0.60671673357E+04  0.65000000000E+04  0.15050000000E+03 0.  1.
</event>
<event>
 4    1  0.4826743E-004  0.6500000E+04  0.7818608E-02  0.7223770E-01
         52   -1    0    0    0    0  0.00000000000E+00  0.00000000000E+00  0.64930732323E+04  0.65000000000E+04  0.30000000000E+03 0. -1.
        -52   -1    0    0    0    0 -0.00000000000E+00 -0.00000000000E+00 -0.64930732323E+04  0.65000000000E+04  0.30000000000E+03 0.  1.
     100001    1    1    2    0    0  0.18310417316E+03  0.37965182160E+03 -0.64845730088E+04  0.65000000000E+04  0.15050000000E+03 0.  1.
     100001    1    1    2    0    0 -0.18310417316E+03 -0.37965182160E+03  0.64845730088E+04  0.65000000000E+04  0.15050000000E+03 0. -1.
</event>
<event>
 4    1  0.4826743E-004  0.6500000E+04  0.7818608E-02  0.7223770E-01
         52   -1    0    0    0    0  0.00000000000E+00  0.00000000000E+00  0.64930732323E+04  0.65000000000E+04  0.30000000000E+03 0.  1.
        -52   -1    0    0    0    0 -0.00000000000E+00 -0.00000000000E+00 -0.64930732323E+04  0.65000000000E+04  0.30000000000E+03 0. -1.
     100001    1    1    2    0    0  0.25722263242E+04  0.26080061384E+02 -0.59674384218E+04  0.65000000000E+04  0.15050000000E+03 0. -1.
     100001    1    1    2    0    0 -0.25722263242E+04 -0.26080061384E+02  0.59674384218E+04  0.65000000000E+04  0.15050000000E+03 0.  1.
</event>
<event>
 4    1  0.4826743E-004  0.6500000E+04  0.7818608E-02  0.7223770E-01
         52   -1    0    0    0    0  0.00000000000E+00  0.00000000000E+00  0.64930732323E+04  0.65000000000E+04  0.30000000000E+03 0. -1.
        -52   -1    0    0    0    0 -0.00000000000E+00 -0.00000000000E+00 -0.64930732323E+04  0.65000000000E+04  0.30000000000E+03 0.  1.
     100001    1    1    2    0    0  0.14257445632E+04 -0.16364705865E+04 -0.61250768330E+04  0.65000000000E+04  0.15050000000E+03 0.  1.
     100001    1    1    2    0    0 -0.14257445632E+04  0.16364705865E+04  0.61250768330E+04  0.65000000000E+04  0.15050000000E+03 0. -1.
</event>
<event>
 4    1  0.4826743E-004  0.6500000E+04  0.7818608E-02  0.7223770E-01
         52   -1    0    0    0    0  0.00000000000E+00  0.00000000000E+00  0.64930732323E+04  0.65000000000E+04  0.30000000000E+03 0.  1.
        -52   -1    0    0    0    0 -0.00000000000E+00 -0.00000000000E+00 -0.64930732323E+04  0.65000000000E+04  0.30000000000E+03 0. -1.
     100001    1    1    2    0    0  0.13089439509E+04 -0.62803073534E+04  0.10352560218E+04  0.65000000000E+04  0.15050000000E+03 0.  1.
     100001    1    1    2    0    0 -0.13089439509E+04  0.62803073534E+04 -0.10352560218E+04  0.65000000000E+04  0.15050000000E+03 0. -1.
</event>
<event>
 4    1  0.4826743E-004  0.6500000E+04  0.7818608E-02  0.7223770E-01
         52   -1    0    0    0    0  0.00000000000E+00  0.00000000000E+00  0.64930732323E+04  0.65000000000E+04  0.30000000000E+03 0.  1.
        -52   -1    0    0    0    0 -0.00000000000E+00 -0.00000000000E+00 -0.64930732323E+04  0.65000000000E+04  0.30000000000E+03 0. -1.
     100001    1    1    2    0    0  0.40617366763E+02 -0.70091950720E+03  0.64602176298E+04  0.65000000000E+04  0.15050000000E+03 0.  1.
     100001    1    1    2    0    0 -0.40617366763E+02  0.70091950720E+03 -0.64602176298E+04  0.65000000000E+04  0.15050000000E+03 0. -1.
</event>
<event>
 4    1  0.4826743E-004  0.6500000E+04  0.7818608E-02  0.7223770E-01
         52   -1    0    0    0    0  0.00000000000E+00  0.00000000000E+00  0.64930732323E+04  0.65000000000E+04  0.30000000000E+03 0. -1.
        -52   -1    0    0    0    0 -0.00000000000E+00 -0.00000000000E+00 -0.64930732323E+04  0.65000000000E+04  0.30000000000E+03 0.  1.
     100001    1    1    2    0    0  0.12332302830E+04  0.58651108250E+04  0.25113677208E+04  0.65000000000E+04  0.15050000000E+03 0. -1.
     100001    1    1    2    0    0 -0.12332302830E+04 -0.58651108250E+04 -0.25113677208E+04  0.65000000000E+04  0.15050000000E+03 0.  1.
</event>
<event>
 4    1  0.4826743E-004  0.6500000E+04  0.7818608E-02  0.7223770E-01
         52   -1    0    0    0    0  0.00000000000E+00  0.00000000000E+00  0.64930732323E+04  0.65000000000E+04  0.30000000000E+03 0. -1.
        -52   -1    0    0    0    0 -0.00000000000E+00 -0.00000000000E+00 -0.64930732323E+04  0.65000000000E+04  0.30000000000E+03 0.  1.
     100001    1    1    2    0    0  0.55048340220E+03  0.16403214905E+04  0.62636780873E+04  0.65000000000E+04  0.15050000000E+03 0. -1.
     100001    1    1    2    0    0 -0.55048340220E+03 -0.16403214905E+04 -0.62636780873E+04  0.65000000000E+04  0.15050000000E+03 0.  1.
</event>
<event>
 4    1  0.5484151E-004  0.6500000E+04  0.7818608E-02  0.7223770E-01
         52   -1    0    0    0    0  0.00000000000E+00  0.00000000000E+00  0.64930732323E+04  0.65000000000E+04  0.30000000000E+03 0.  1.
        -52   -1    0    0    0    0 -0.00000000000E+00 -0.00000000000E+00 -0.64930732323E+04  0.65000000000E+04  0.30000000000E+03 0.  1.
     100001    1    1    2    0    0 -0.13834798803E+03 -0.10784124237E+03 -0.64958894580E+04  0.65000000000E+04  0.15050000000E+03 0.  1.
     100001    1    1    2    0    0  0.13834798803E+03  0.10784124237E+03  0.64958894580E+04  0.65000000000E+04  0.15050000000E+03 0.  1.
</event>
<event>
 4    1  0.4826743E-004  0.6500000E+04  0.7818608E-02  0.7223770E-01
         52   -1    0    0    0    0  0.00000000000E+00  0.00000000000E+00  0.64930732323E+04  0.65000000000E+04  0.30000000000E+03 0.  1.
        -52   -1    0    0    0    0 -0.00000000000E+00 -0.00000000000E+00 -0.64930732323E+04  0.65000000000E+04  0.30000000000E+03 0.  1.
     100001    1    1    2    0    0  0.78337535895E+03  0.49414469964E+03 -0.64319121428E+04  0.65000000000E+04  0.15050000000E+03 0.  1.
     100001    1    1    2    0    0 -0.78337535895E+03 -0.49414469964E+03  0.64319121428E+04  0.65000000000E+04  0.15050000000E+03 0.  1.
</event>
<event>
 4    1  0.4826743E-004  0.6500000E+04  0.7818608E-02  0.7223770E-01
         52   -1    0    0    0    0  0.00000000000E+00  0.00000000000E+00  0.64930732323E+04  0.65000000000E+04  0.30000000000E+03 0. -1.
        -52   -1    0    0    0    0 -0.00000000000E+00 -0.00000000000E+00 -0.64930732323E+04  0.65000000000E+04  0.30000000000E+03 0.  1.
     100001    1    1    2    0    0  0.66552316663E+03 -0.58000850876E+03 -0.64380135752E+04  0.65000000000E+04  0.15050000000E+03 0.  1.
     100001    1    1    2    0    0 -0.66552316663E+03  0.58000850876E+03  0.64380135752E+04  0.65000000000E+04  0.15050000000E+03 0. -1.
</event>
<event>
 4    1  0.4826743E-004  0.6500000E+04  0.7818608E-02  0.7223770E-01
         52   -1    0    0    0    0  0.00000000000E+00  0.00000000000E+00  0.64930732323E+04  0.65000000000E+04  0.30000000000E+03 0. -1.
        -52   -1    0    0    0    0 -0.00000000000E+00 -0.00000000000E+00 -0.64930732323E+04  0.65000000000E+04  0.30000000000E+03 0.  1.
     100001    1    1    2    0    0  0.50665080725E+03  0.13689377323E+03 -0.64770297826E+04  0.65000000000E+04  0.15050000000E+03 0.  1.
     100001    1    1    2    0    0 -0.50665080725E+03 -0.13689377323E+03  0.64770297826E+04  0.65000000000E+04  0.15050000000E+03 0. -1.
</event>
<event>
 4    1  0.4826743E-004  0.6500000E+04  0.7818608E-02  0.7223770E-01
         52   -1    0    0    0    0  0.00000000000E+00  0.00000000000E+00  0.64930732323E+04  0.65000000000E+04  0.30000000000E+03 0.  1.
        -52   -1    0    0    0    0 -0.00000000000E+00 -0.00000000000E+00 -0.64930732323E+04  0.65000000000E+04  0.30000000000E+03 0. -1.
     100001    1    1    2    0    0  0.38530235243E+03  0.45610816991E+03 -0.64707694430E+04  0.65000000000E+04  0.15050000000E+03 0. -1.
     100001    1    1    2    0    0 -0.38530235243E+03 -0.45610816991E+03  0.64707694430E+04  0.65000000000E+04  0.15050000000E+03 0.  1.
</event>
<event>
 4    1  0.7037004E-004  0.6500000E+04  0.7818608E-02  0.7223770E-01
         52   -1    0    0    0    0  0.00000000000E+00  0.00000000000E+00  0.64930732323E+04  0.65000000000E+04  0.30000000000E+03 0. -1.
        -52   -1    0    0    0    0 -0.00000000000E+00 -0.00000000000E+00 -0.64930732323E+04  0.65000000000E+04  0.30000000000E+03 0. -1.
     100001    1    1    2    0    0 -0.97651648378E+02  0.68388617616E+02  0.64971637583E+04  0.65000000000E+04  0.15050000000E+03 0. -1.
     100001    1    1    2    0    0  0.97651648378E+02 -0.68388617616E+02 -0.64971637583E+04  0.65000000000E+04  0.15050000000E+03 0. -1.
</event>
<event>
 4    1  0.4826743E-004  0.6500000E+04  0.7818608E-02  0.7223770E-01
         52   -1    0    0    0    0  0.00000000000E+00  0.00000000000E+00  0.64930732323E+04  0.65000000000E+04  0.30000000000E+03 0.  1.
        -52   -1    0    0    0    0 -0.00000000000E+00 -0.00000000000E+00 -0.64930732323E+04  0.65000000000E+04  0.30000000000E+03 0. -1.
     100001    1    1    2    0    0  0.56193002139E+04  0.32587468340E+04 -0.17715509663E+03  0.65000000000E+04  0.15050000000E+03 0. -1.
     100001    1    1    2    0    0 -0.56193002139E+04 -0.32587468340E+04  0.17715509663E+03  0.65000000000E+04  0.15050000000E+03 0.  1.
</event>
<event>
 4    1  0.4826743E-004  0.6500000E+04  0.7818608E-02  0.7223770E-01
         52   -1    0    0    0    0  0.00000000000E+00  0.00000000000E+00  0.64930732323E+04  0.65000000000E+04  0.30000000000E+03 0.  1.
        -52   -1    0    0    0    0 -0.00000000000E+00 -0.00000000000E+00 -0.64930732323E+04  0.65000000000E+04  0.30000000000E+03 0.  1.
     100001    1    1    2    0    0 -0.17440580784E+03  0.50127214511E+03 -0.64765468114E+04  0.65000000000E+04  0.15050000000E+03 0.  1.
     100001    1    1    2    0    0  0.17440580784E+03 -0.50127214511E+03  0.64765468114E+04  0.65000000000E+04  0.15050000000E+03 0.  1.
</event>
<event>
 4    1  0.4826743E-004  0.6500000E+04  0.7818608E-02  0.7223770E-01
         52   -1    0    0    0    0  0.00000000000E+00  0.00000000000E+00  0.64930732323E+04  0.65000000000E+04  0.30000000000E+03 0. -1.
        -52   -1    0    0    0    0 -0.00000000000E+00 -0.00000000000E+00 -0.64930732323E+04  0.65000000000E+04  0.30000000000E+03 0.  1.
     100001    1    1    2    0    0 -0.88630790826E+03 -0.71018949320E+03 -0.63982371733E+04  0.65000000000E+04  0.15050000000E+03 0.  1.
     100001    1    1    2    0    0  0.88630790826E+03  0.71018949320E+03  0.63982371733E+04  0.65000000000E+04  0.15050000000E+03 0. -1.
</event>
<event>
 4    1  0.4826743E-004  0.6500000E+04  0.7818608E-02  0.7223770E-01
         52   -1    0    0    0    0  0.00000000000E+00  0.00000000000E+00  0.64930732323E+04  0.65000000000E+04  0.30000000000E+03 0.  1.
        -52   -1    0    0    0    0 -0.00000000000E+00 -0.00000000000E+00 -0.64930732323E+04  0.65000000000E+04  0.30000000000E+03 0. -1.
     100001    1    1    2    0    0  0.19738449295E+04 -0.16950921609E+04 -0.59546577156E+04  0.65000000000E+04  0.15050000000E+03 0. -1.
     100001    1    1    2    0    0 -0.19738449295E+04  0.16950921609E+04  0.59546577156E+04  0.65000000000E+04  0.15050000000E+03 0.  1.
</event>
<event>
 4    1  0.4826743E-004  0.6500000E+04  0.7818608E-02  0.7223770E-01
         52   -1    0    0    0    0  0.00000000000E+00  0.00000000000E+00  0.64930732323E+04  0.65000000000E+04  0.30000000000E+03 0.  1.
        -52   -1    0    0    0    0 -0.00000000000E+00 -0.00000000000E+00 -0.64930732323E+04  0.65000000000E+04  0.30000000000E+03 0. -1.
     100001    1    1    2    0    0 -0.64544746967E+03 -0.23588888454E+04  0.60204975483E+04  0.65000000000E+04  0.15050000000E+03 0.  1.
     100001    1    1    2    0    0  0.64544746967E+03  0.23588888454E+04 -0.60204975483E+04  0.65000000000E+04  0.15050000000E+03 0. -1.
</event>
<event>
 4    1  0.4826743E-004  0.6500000E+04  0.7818608E-02  0.7223770E-01
         52   -1    0    0    0    0  0.00000000000E+00  0.00000000000E+00  0.64930732323E+04  0.65000000000E+04  0.30000000000E+03 0. -1.
        -52   -1    0    0    0    0 -0.00000000000E+00 -0.00000000000E+00 -0.64930732323E+04  0.65000000000E+04  0.30000000000E+03 0.  1.
     100001    1    1    2    0    0  0.25941919263E+03  0.13998977808E+04  0.63403736196E+04  0.65000000000E+04  0.15050000000E+03 0. -1.
     100001    1    1    2    0    0 -0.25941919263E+03 -0.13998977808E+04 -0.63403736196E+04  0.65000000000E+04  0.15050000000E+03 0.  1.
</event>
<event>
 4    1  0.4826743E-004  0.6500000E+04  0.7818608E-02  0.7223770E-01
         52   -1    0    0    0    0  0.00000000000E+00  0.00000000000E+00  0.64930732323E+04  0.65000000000E+04  0.30000000000E+03 0. -1.
        -52   -1    0    0    0    0 -0.00000000000E+00 -0.00000000000E+00 -0.64930732323E+04  0.65000000000E+04  0.30000000000E+03 0.  1.
     100001    1    1    2    0    0 -0.41069833714E+04 -0.46579669315E+04 -0.19139961867E+04  0.65000000000E+04  0.15050000000E+03 0.  1.
     100001    1    1    2    0    0  0.41069833714E+04  0.46579669315E+04  0.19139961867E+04  0.65000000000E+04  0.15050000000E+03 0. -1.
</event>
<event>
 4    1  0.4826743E-004  0.6500000E+04  0.7818608E-02  0.7223770E-01
         52   -1    0    0    0    0  0.00000000000E+00  0.00000000000E+00  0.64930732323E+04  0.65000000000E+04  0.30000000000E+03 0.  1.
        -52   -1    0    0    0    0 -0.00000000000E+00 -0.00000000000E+00 -0.64930732323E+04  0.65000000000E+04  0.30000000000E+03 0. -1.
     100001    1    1    2    0    0 -0.69361364200E+03  0.57823158538E+03 -0.64352076967E+04  0.65000000000E+04  0.15050000000E+03 0. -1.
     100001    1    1    2    0    0  0.69361364200E+03 -0.57823158538E+03  0.64352076967E+04  0.65000000000E+04  0.15050000000E+03 0.  1.
</event>
<event>
 4    1  0.4826743E-004  0.6500000E+04  0.7818608E-02  0.7223770E-01
         52   -1    0    0    0    0  0.00000000000E+00  0.00000000000E+00  0.64930732323E+04  0.65000000000E+04  0.30000000000E+03 0.  1.
        -52   -1    0    0    0    0 -0.00000000000E+00 -0.00000000000E+00 -0.64930732323E+04  0.65000000000E+04  0.30000000000E+03 0. -1.
     100001    1    1    2    0    0 -0.30222515951E+04  0.12837470553E+04  0.56076143362E+04  0.65000000000E+04  0.15050000000E+03 0.  1.
     100001    1    1    2    0    0  0.30222515951E+04 -0.12837470553E+04 -0.56076143362E+04  0.65000000000E+04  0.15050000000E+03 0. -1.
</event>
<event>
 4    1  0.4826743E-004  0.6500000E+04  0.7818608E-02  0.7223770E-01
         52   -1    0    0    0    0  0.00000000000E+00  0.00000000000E+00  0.64930732323E+04  0.65000000000E+04  0.30000000000E+03 0.  1.
        -52   -1    0    0    0    0 -0.00000000000E+00 -0.00000000000E+00 -0.64930732323E+04  0.65000000000E+04  0.30000000000E+03 0. -1.
     100001    1    1    2    0    0  0.19897059300E+04  0.43632791796E+04  0.43852268885E+04  0.65000000000E+04  0.15050000000E+03 0.  1.
     100001    1    1    2    0    0 -0.19897059300E+04 -0.43632791796E+04 -0.43852268885E+04  0.65000000000E+04  0.15050000000E+03 0. -1.
</event>
<event>
 4    1  0.4826743E-004  0.6500000E+04  0.7818608E-02  0.7223770E-01
         52   -1    0    0    0    0  0.00000000000E+00  0.00000000000E+00  0.64930732323E+04  0.65000000000E+04  0.30000000000E+03 0. -1.
        -52   -1    0    0    0    0 -0.00000000000E+00 -0.00000000000E+00 -0.64930732323E+04  0.65000000000E+04  0.30000000000E+03 0.  1.
     100001    1    1    2    0    0  0.36898441887E+03  0.38891067821E+02  0.64876565672E+04  0.65000000000E+04  0.15050000000E+03 0. -1.
     100001    1    1    2    0    0 -0.36898441887E+03 -0.38891067821E+02 -0.64876565672E+04  0.65000000000E+04  0.15050000000E+03 0.  1.
</event>
<event>
 4    1  0.4826743E-004  0.6500000E+04  0.7818608E-02  0.7223770E-01
         52   -1    0    0    0    0  0.00000000000E+00  0.00000000000E+00  0.64930732323E+04  0.65000000000E+04  0.30000000000E+03 0. -1.
        -52   -1    0    0    0    0 -0.00000000000E+00 -0.00000000000E+00 -0.64930732323E+04  0.65000000000E+04  0.30000000000E+03 0.  1.
     100001    1    1    2    0    0 -0.11329377881E+04  0.62867353691E+04 -0.11919564242E+04  0.65000000000E+04  0.15050000000E+03 0. -1.
     100001    1    1    2    0    0  0.11329377881E+04 -0.62867353691E+04  0.11919564242E+04  0.65000000000E+04  0.15050000000E+03 0.  1.
</event>
<event>
 4    1  0.4826743E-004  0.6500000E+04  0.7818608E-02  0.7223770E-01
         52   -1    0    0    0    0  0.00000000000E+00  0.00000000000E+00  0.64930732323E+04  0.65000000000E+04  0.30000000000E+03 0.  1.
        -52   -1    0    0    0    0 -0.00000000000E+00 -0.00000000000E+00 -0.64930732323E+04  0.65000000000E+04  0.30000000000E+03 0. -1.
     100001    1    1    2    0    0  0.96089993926E+03  0.25820301544E+03 -0.64216315886E+04  0.65000000000E+04  0.15050000000E+03 0. -1.
     100001    1    1    2    0    0 -0.96089993926E+03 -0.25820301544E+03  0.64216315886E+04  0.65000000000E+04  0.15050000000E+03 0.  1.
</event>
<event>
 4    1  0.4826743E-004  0.6500000E+04  0.7818608E-02  0.7223770E-01
         52   -1    0    0    0    0  0.00000000000E+00  0.00000000000E+00  0.64930732323E+04  0.65000000000E+04  0.30000000000E+03 0. -1.
        -52   -1    0    0    0    0 -0.00000000000E+00 -0.00000000000E+00 -0.64930732323E+04  0.65000000000E+04  0.30000000000E+03 0.  1.
     100001    1    1    2    0    0 -0.19166711242E+04 -0.30071577340E+04  0.54323773722E+04  0.65000000000E+04  0.15050000000E+03 0. -1.
     100001    1    1    2    0    0  0.19166711242E+04  0.30071577340E+04 -0.54323773722E+04  0.65000000000E+04  0.15050000000E+03 0.  1.
</event>
<event>
 4    1  0.4826743E-004  0.6500000E+04  0.7818608E-02  0.7223770E-01
         52   -1    0    0    0    0  0.00000000000E+00  0.00000000000E+00  0.64930732323E+04  0.65000000000E+04  0.30000000000E+03 0.  1.
        -52   -1    0    0    0    0 -0.00000000000E+00 -0.00000000000E+00 -0.64930732323E+04  0.65000000000E+04  0.30000000000E+03 0. -1.
     100001    1    1    2    0    0  0.23931327858E+03 -0.17172966146E+04  0.62626648675E+04  0.65000000000E+04  0.15050000000E+03 0.  1.
     100001    1    1    2    0    0 -0.23931327858E+03  0.17172966146E+04 -0.62626648675E+04  0.65000000000E+04  0.15050000000E+03 0. -1.
</event>
<event>
 4    1  0.4826743E-004  0.6500000E+04  0.7818608E-02  0.7223770E-01
         52   -1    0    0    0    0  0.00000000000E+00  0.00000000000E+00  0.64930732323E+04  0.65000000000E+04  0.30000000000E+03 0. -1.
        -52   -1    0    0    0    0 -0.00000000000E+00 -0.00000000000E+00 -0.64930732323E+04  0.65000000000E+04  0.30000000000E+03 0.  1.
     100001    1    1    2    0    0  0.34107101327E+03  0.10733922942E+04  0.63999101007E+04  0.65000000000E+04  0.15050000000E+03 0. -1.
     100001    1    1    2    0    0 -0.34107101327E+03 -0.10733922942E+04 -0.63999101007E+04  0.65000000000E+04  0.15050000000E+03 0.  1.
</event>
<event>
 4    1  0.4826743E-004  0.6500000E+04  0.7818608E-02  0.7223770E-01
         52   -1    0    0    0    0  0.00000000000E+00  0.00000000000E+00  0.64930732323E+04  0.65000000000E+04  0.30000000000E+03 0.  1.
        -52   -1    0    0    0    0 -0.00000000000E+00 -0.00000000000E+00 -0.64930732323E+04  0.65000000000E+04  0.30000000000E+03 0. -1.
     100001    1    1    2    0    0 -0.23449154724E+04 -0.21453260129E+04 -0.56680064816E+04  0.65000000000E+04  0.15050000000E+03 0. -1.
     100001    1    1    2    0    0  0.23449154724E+04  0.21453260129E+04  0.56680064816E+04  0.65000000000E+04  0.15050000000E+03 0.  1.
</event>
<event>
 4    1  0.4826743E-004  0.6500000E+04  0.7818608E-02  0.7223770E-01
         52   -1    0    0    0    0  0.00000000000E+00  0.00000000000E+00  0.64930732323E+04  0.65000000000E+04  0.30000000000E+03 0.  1.
        -52   -1    0    0    0    0 -0.00000000000E+00 -0.00000000000E+00 -0.64930732323E+04  0.65000000000E+04  0.30000000000E+03 0. -1.
     100001    1    1    2    0    0 -0.22481598721E+04  0.31842990084E+04 -0.51993621497E+04  0.65000000000E+04  0.15050000000E+03 0. -1.
     100001    1    1    2    0    0  0.22481598721E+04 -0.31842990084E+04  0.51993621497E+04  0.65000000000E+04  0.15050000000E+03 0.  1.
</event>
<event>
 4    1  0.4826743E-004  0.6500000E+04  0.7818608E-02  0.7223770E-01
         52   -1    0    0    0    0  0.00000000000E+00  0.00000000000E+00  0.64930732323E+04  0.65000000000E+04  0.30000000000E+03 0.  1.
        -52   -1    0    0    0    0 -0.00000000000E+00 -0.00000000000E+00 -0.64930732323E+04  0.65000000000E+04  0.30000000000E+03 0. -1.
     100001    1    1    2    0    0  0.92386920347E+02 -0.25785450670E+03  0.64924822264E+04  0.65000000000E+04  0.15050000000E+03 0.  1.
     100001    1    1    2    0    0 -0.92386920347E+02  0.25785450670E+03 -0.64924822264E+04  0.65000000000E+04  0.15050000000E+03 0. -1.
</event>
<event>
 4    1  0.4826743E-004  0.6500000E+04  0.7818608E-02  0.7223770E-01
         52   -1    0    0    0    0  0.00000000000E+00  0.00000000000E+00  0.64930732323E+04  0.65000000000E+04  0.30000000000E+03 0. -1.
        -52   -1    0    0    0    0 -0.00000000000E+00 -0.00000000000E+00 -0.64930732323E+04  0.65000000000E+04  0.30000000000E+03 0.  1.
     100001    1    1    2    0    0  0.16021145261E+04  0.36017948606E+04 -0.51660093474E+04  0.65000000000E+04  0.15050000000E+03 0.  1.
     100001    1    1    2    0    0 -0.16021145261E+04 -0.36017948606E+04  0.51660093474E+04  0.65000000000E+04  0.15050000000E+03 0. -1.
</event>
<event>
 4    1  0.4826743E-004  0.6500000E+04  0.7818608E-02  0.7223770E-01
         52   -1    0    0    0    0  0.00000000000E+00  0.00000000000E+00  0.64930732323E+04  0.65000000000E+04  0.30000000000E+03 0. -1.
        -52   -1    0    0    0    0 -0.00000000000E+00 -0.00000000000E+00 -0.64930732323E+04  0.65000000000E+04  0.30000000000E+03 0.  1.
     100001    1    1    2    0    0 -0.31439755907E+02 -0.10279636010E+03 -0.64973682518E+04  0.65000000000E+04  0.15050000000E+03 0.  1.
     100001    1    1    2    0    0  0.31439755907E+02  0.10279636010E+03  0.64973682518E+04  0.65000000000E+04  0.15050000000E+03 0. -1.
</event>
<event>
 4    1  0.4826743E-004  0.6500000E+04  0.7818608E-02  0.7223770E-01
         52   -1    0    0    0    0  0.00000000000E+00  0.00000000000E+00  0.64930732323E+04  0.65000000000E+04  0.30000000000E+03 0.  1.
        -52   -1    0    0    0    0 -0.00000000000E+00 -0.00000000000E+00 -0.64930732323E+04  0.65000000000E+04  0.30000000000E+03 0. -1.
     100001    1    1    2    0    0 -0.15826267624E+04 -0.30498742115E+04  0.55155153499E+04  0.65000000000E+04  0.15050000000E+03 0.  1.
     100001    1    1    2    0    0  0.15826267624E+04  0.30498742115E+04 -0.55155153499E+04  0.65000000000E+04  0.15050000000E+03 0. -1.
</event>
<event>
 4    1  0.4826743E-004  0.6500000E+04  0.7818608E-02  0.7223770E-01
         52   -1    0    0    0    0  0.00000000000E+00  0.00000000000E+00  0.64930732323E+04  0.65000000000E+04  0.30000000000E+03 0.  1.
        -52   -1    0    0    0    0 -0.00000000000E+00 -0.00000000000E+00 -0.64930732323E+04  0.65000000000E+04  0.30000000000E+03 0. -1.
     100001    1    1    2    0    0  0.19854669401E+04 -0.25554885600E+04 -0.56351352246E+04  0.65000000000E+04  0.15050000000E+03 0. -1.
     100001    1    1    2    0    0 -0.19854669401E+04  0.25554885600E+04  0.56351352246E+04  0.65000000000E+04  0.15050000000E+03 0.  1.
</event>
<event>
 4    1  0.4826743E-004  0.6500000E+04  0.7818608E-02  0.7223770E-01
         52   -1    0    0    0    0  0.00000000000E+00  0.00000000000E+00  0.64930732323E+04  0.65000000000E+04  0.30000000000E+03 0. -1.
        -52   -1    0    0    0    0 -0.00000000000E+00 -0.00000000000E+00 -0.64930732323E+04  0.65000000000E+04  0.30000000000E+03 0. -1.
     100001    1    1    2    0    0  0.13365769722E+03  0.29398248660E+03  0.64902280135E+04  0.65000000000E+04  0.15050000000E+03 0. -1.
     100001    1    1    2    0    0 -0.13365769722E+03 -0.29398248660E+03 -0.64902280135E+04  0.65000000000E+04  0.15050000000E+03 0. -1.
</event>
<event>
 4    1  0.4826743E-004  0.6500000E+04  0.7818608E-02  0.7223770E-01
         52   -1    0    0    0    0  0.00000000000E+00  0.00000000000E+00  0.64930732323E+04  0.65000000000E+04  0.30000000000E+03 0. -1.
        -52   -1    0    0    0    0 -0.00000000000E+00 -0.00000000000E+00 -0.64930732323E+04  0.65000000000E+04  0.30000000000E+03 0.  1.
     100001    1    1    2    0    0 -0.40406034466E+03  0.40154654933E+03  0.64732407152E+04  0.65000000000E+04  0.15050000000E+03 0. -1.
     100001    1    1    2    0    0  0.40406034466E+03 -0.40154654933E+03 -0.64732407152E+04  0.65000000000E+04  0.15050000000E+03 0.  1.
</event>
<event>
 4    1  0.7777122E-004  0.6500000E+04  0.7818608E-02  0.7223770E-01
         52   -1    0    0    0    0  0.00000000000E+00  0.00000000000E+00  0.64930732323E+04  0.65000000000E+04  0.30000000000E+03 0. -1.
        -52   -1    0    0    0    0 -0.00000000000E+00 -0.00000000000E+00 -0.64930732323E+04  0.65000000000E+04  0.30000000000E+03 0. -1.
     100001    1    1    2    0    0 -0.34495460562E+02 -0.42000587976E+01  0.64981645234E+04  0.65000000000E+04  0.15050000000E+03 0. -1.
     100001    1    1    2    0    0  0.34495460562E+02  0.42000587976E+01 -0.64981645234E+04  0.65000000000E+04  0.15050000000E+03 0. -1.
</event>
<event>
 4    1  0.4826743E-004  0.6500000E+04  0.7818608E-02  0.7223770E-01
         52   -1    0    0    0    0  0.00000000000E+00  0.00000000000E+00  0.64930732323E+04  0.65000000000E+04  0.30000000000E+03 0.  1.
        -52   -1    0    0    0    0 -0.00000000000E+00 -0.00000000000E+00 -0.64930732323E+04  0.65000000000E+04  0.30000000000E+03 0. -1.
     100001    1    1    2    0    0 -0.14776309389E+04  0.88888844774E+03  0.62652880130E+04  0.65000000000E+04  0.15050000000E+03 0.  1.
     100001    1    1    2    0    0  0.14776309389E+04 -0.88888844774E+03 -0.62652880130E+04  0.65000000000E+04  0.15050000000E+03 0. -1.
</event>
<event>
 4    1  0.4826743E-004  0.6500000E+04  0.7818608E-02  0.7223770E-01
         52   -1    0    0    0    0  0.00000000000E+00  0.00000000000E+00  0.64930732323E+04  0.65000000000E+04  0.30000000000E+03 0. -1.
        -52   -1    0    0    0    0 -0.00000000000E+00 -0.00000000000E+00 -0.64930732323E+04  0.65000000000E+04  0.30000000000E+03 0. -1.
     100001    1    1    2    0    0 -0.43004855346E+03 -0.18356004421E+03  0.64814129402E+04  0.65000000000E+04  0.15050000000E+03 0. -1.
     100001    1    1    2    0    0  0.43004855346E+03  0.18356004421E+03 -0.64814129402E+04  0.65000000000E+04  0.15050000000E+03 0. -1.
</event>
<event>
 4    1  0.4826743E-004  0.6500000E+04  0.7818608E-02  0.7223770E-01
         52   -1    0    0    0    0  0.00000000000E+00  0.00000000000E+00  0.64930732323E+04  0.65000000000E+04  0.30000000000E+03 0. -1.
        -52   -1    0    0    0    0 -0.00000000000E+00 -0.00000000000E+00 -0.64930732323E+04  0.65000000000E+04  0.30000000000E+03 0.  1.
     100001    1    1    2    0    0  0.10183737351E+04 -0.20983544552E+03  0.64145330127E+04  0.65000000000E+04  0.15050000000E+03 0. -1.
     100001    1    1    2    0    0 -0.10183737351E+04  0.20983544552E+03 -0.64145330127E+04  0.65000000000E+04  0.15050000000E+03 0.  1.
</event>
<event>
 4    1  0.4826743E-004  0.6500000E+04  0.7818608E-02  0.7223770E-01
         52   -1    0    0    0    0  0.00000000000E+00  0.00000000000E+00  0.64930732323E+04  0.65000000000E+04  0.30000000000E+03 0.  1.
        -52   -1    0    0    0    0 -0.00000000000E+00 -0.00000000000E+00 -0.64930732323E+04  0.65000000000E+04  0.30000000000E+03 0.  1.
     100001    1    1    2    0    0  0.19456441853E+03 -0.31935112311E+03  0.64874886741E+04  0.65000000000E+04  0.15050000000E+03 0.  1.
     100001    1    1    2    0    0 -0.19456441853E+03  0.31935112311E+03 -0.64874886741E+04  0.65000000000E+04  0.15050000000E+03 0.  1.
</event>
<event>
 4    1  0.4826743E-004  0.6500000E+04  0.7818608E-02  0.7223770E-01
         52   -1    0    0    0    0  0.00000000000E+00  0.00000000000E+00  0.64930732323E+04  0.65000000000E+04  0.30000000000E+03 0. -1.
        -52   -1    0    0    0    0 -0.00000000000E+00 -0.00000000000E+00 -0.64930732323E+04  0.65000000000E+04  0.30000000000E+03 0.  1.
     100001    1    1    2    0    0 -0.38497087175E+04  0.14960444529E+04  0.50168659077E+04  0.65000000000E+04  0.15050000000E+03 0. -1.
     100001    1    1    2    0    0  0.38497087175E+04 -0.14960444529E+04 -0.50168659077E+04  0.65000000000E+04  0.15050000000E+03 0.  1.
</event>
<event>
 4    1  0.4826743E-004  0.6500000E+04  0.7818608E-02  0.7223770E-01
         52   -1    0    0    0    0  0.00000000000E+00  0.00000000000E+00  0.64930732323E+04  0.65000000000E+04  0.30000000000E+03 0.  1.
        -52   -1    0    0    0    0 -0.00000000000E+00 -0.00000000000E+00 -0.64930732323E+04  0.65000000000E+04  0.30000000000E+03 0. -1.
     100001    1    1    2    0    0 -0.23029715094E+04  0.32335345167E+04  0.51446988742E+04  0.65000000000E+04  0.15050000000E+03 0.  1.
     100001    1    1    2    0    0  0.23029715094E+04 -0.32335345167E+04 -0.51446988742E+04  0.65000000000E+04  0.15050000000E+03 0. -1.
</event>
<event>
 4    1  0.4826743E-004  0.6500000E+04  0.7818608E-02  0.7223770E-01
         52   -1    0    0    0    0  0.00000000000E+00  0.00000000000E+00  0.64930732323E+04  0.65000000000E+04  0.30000000000E+03 0.  1.
        -52   -1    0    0    0    0 -0.00000000000E+00 -0.00000000000E+00 -0.64930732323E+04  0.65000000000E+04  0.30000000000E+03 0. -1.
     100001    1    1    2    0    0 -0.79916872364E+02 -0.11209189013E+04 -0.64003518544E+04  0.65000000000E+04  0.15050000000E+03 0. -1.
     100001    1    1    2    0    0  0.79916872364E+02  0.11209189013E+04  0.64003518544E+04  0.65000000000E+04  0.15050000000E+03 0.  1.
</event>
<event>
 4    1  0.4826743E-004  0.6500000E+04  0.7818608E-02  0.7223770E-01
         52   -1    0    0    0    0  0.00000000000E+00  0.00000000000E+00  0.64930732323E+04  0.65000000000E+04  0.30000000000E+03 0. -1.
        -52   -1    0    0    0    0 -0.00000000000E+00 -0.00000000000E+00 -0.64930732323E+04  0.65000000000E+04  0.30000000000E+03 0.  1.
     100001    1    1    2    0    0 -0.39694170745E+02  0.13829481345E+04 -0.63492699250E+04  0.65000000000E+04  0.15050000000E+03 0.  1.
     100001    1    1    2    0    0  0.39694170745E+02 -0.13829481345E+04  0.63492699250E+04  0.65000000000E+04  0.15050000000E+03 0. -1.
</event>
<event>
 4    1  0.4826743E-004  0.6500000E+04  0.7818608E-02  0.7223770E-01
         52   -1    0    0    0    0  0.00000000000E+00  0.00000000000E+00  0.64930732323E+04  0.65000000000E+04  0.30000000000E+03 0. -1.
        -52   -1    0    0    0    0 -0.00000000000E+00 -0.00000000000E+00 -0.64930732323E+04  0.65000000000E+04  0.30000000000E+03 0.  1.
     100001    1    1    2    0    0 -0.31601060887E+04  0.25151619999E+04 -0.50906816216E+04  0.65000000000E+04  0.15050000000E+03 0.  1.
     100001    1    1    2    0    0  0.31601060887E+04 -0.25151619999E+04  0.50906816216E+04  0.65000000000E+04  0.15050000000E+03 0. -1.
</event>
<event>
 4    1  0.4826743E-004  0.6500000E+04  0.7818608E-02  0.7223770E-01
         52   -1    0    0    0    0  0.00000000000E+00  0.00000000000E+00  0.64930732323E+04  0.65000000000E+04  0.30000000000E+03 0.  1.
        -52   -1    0    0    0    0 -0.00000000000E+00 -0.00000000000E+00 -0.64930732323E+04  0.65000000000E+04  0.30000000000E+03 0. -1.
     100001    1    1    2    0    0 -0.32029867651E+04  0.23721233934E+04  0.51323733437E+04  0.65000000000E+04  0.15050000000E+03 0.  1.
     100001    1    1    2    0    0  0.32029867651E+04 -0.23721233934E+04 -0.51323733437E+04  0.65000000000E+04  0.15050000000E+03 0. -1.
</event>
<event>
 4    1  0.4826743E-004  0.6500000E+04  0.7818608E-02  0.7223770E-01
         52   -1    0    0    0    0  0.00000000000E+00  0.00000000000E+00  0.64930732323E+04  0.65000000000E+04  0.30000000000E+03 0.  1.
        -52   -1    0    0    0    0 -0.00000000000E+00 -0.00000000000E+00 -0.64930732323E+04  0.65000000000E+04  0.30000000000E+03 0. -1.
     100001    1    1    2    0    0  0.91402937926E+03 -0.36016841015E+04  0.53310197595E+04  0.65000000000E+04  0.15050000000E+03 0.  1.
     100001    1    1    2    0    0 -0.91402937926E+03  0.36016841015E+04 -0.53310197595E+04  0.65000000000E+04  0.15050000000E+03 0. -1.
</event>
<event>
 4    1  0.4826743E-004  0.6500000E+04  0.7818608E-02  0.7223770E-01
         52   -1    0    0    0    0  0.00000000000E+00  0.00000000000E+00  0.64930732323E+04  0.65000000000E+04  0.30000000000E+03 0.  1.
        -52   -1    0    0    0    0 -0.00000000000E+00 -0.00000000000E+00 -0.64930732323E+04  0.65000000000E+04  0.30000000000E+03 0.  1.
     100001    1    1    2    0    0  0.25905265748E+03  0.35914966133E+02 -0.64929924985E+04  0.65000000000E+04  0.15050000000E+03 0.  1.
     100001    1    1    2    0    0 -0.25905265748E+03 -0.35914966133E+02  0.64929924985E+04  0.65000000000E+04  0.15050000000E+03 0.  1.
</event>
<event>
 4    1  0.4826743E-004  0.6500000E+04  0.7818608E-02  0.7223770E-01
         52   -1    0    0    0    0  0.00000000000E+00  0.00000000000E+00  0.64930732323E+04  0.65000000000E+04  0.30000000000E+03 0. -1.
        -52   -1    0    0    0    0 -0.00000000000E+00 -0.00000000000E+00 -0.64930732323E+04  0.65000000000E+04  0.30000000000E+03 0.  1.
     100001    1    1    2    0    0  0.76297162737E+03  0.17187133513E+04  0.62202289718E+04  0.65000000000E+04  0.15050000000E+03 0. -1.
     100001    1    1    2    0    0 -0.76297162737E+03 -0.17187133513E+04 -0.62202289718E+04  0.65000000000E+04  0.15050000000E+03 0.  1.
</event>
<event>
 4    1  0.4826743E-004  0.6500000E+04  0.7818608E-02  0.7223770E-01
         52   -1    0    0    0    0  0.00000000000E+00  0.00000000000E+00  0.64930732323E+04  0.65000000000E+04  0.30000000000E+03 0. -1.
        -52   -1    0    0    0    0 -0.00000000000E+00 -0.00000000000E+00 -0.64930732323E+04  0.65000000000E+04  0.30000000000E+03 0.  1.
     100001    1    1    2    0    0  0.14146339970E+04 -0.64295718157E+03 -0.63097358476E+04  0.65000000000E+04  0.15050000000E+03 0.  1.
     100001    1    1    2    0    0 -0.14146339970E+04  0.64295718157E+03  0.63097358476E+04  0.65000000000E+04  0.15050000000E+03 0. -1.
</event>
<event>
 4    1  0.4826743E-004  0.6500000E+04  0.7818608E-02  0.7223770E-01
         52   -1    0    0    0    0  0.00000000000E+00  0.00000000000E+00  0.64930732323E+04  0.65000000000E+04  0.30000000000E+03 0.  1.
        -52   -1    0    0    0    0 -0.00000000000E+00 -0.00000000000E+00 -0.64930732323E+04  0.65000000000E+04  0.30000000000E+03 0. -1.
     100001    1    1    2    0    0  0.62099747898E+03 -0.25936401889E+03  0.64633151081E+04  0.65000000000E+04  0.15050000000E+03 0.  1.
     100001    1    1    2    0    0 -0.62099747898E+03  0.25936401889E+03 -0.64633151081E+04  0.65000000000E+04  0.15050000000E+03 0. -1.
</event>
<event>
 4    1  0.4826743E-004  0.6500000E+04  0.7818608E-02  0.7223770E-01
         52   -1    0    0    0    0  0.00000000000E+00  0.00000000000E+00  0.64930732323E+04  0.65000000000E+04  0.30000000000E+03 0. -1.
        -52   -1    0    0    0    0 -0.00000000000E+00 -0.00000000000E+00 -0.64930732323E+04  0.65000000000E+04  0.30000000000E+03 0.  1.
     100001    1    1    2    0    0  0.70020151400E+03  0.39052798783E+03  0.64486088019E+04  0.65000000000E+04  0.15050000000E+03 0. -1.
     100001    1    1    2    0    0 -0.70020151400E+03 -0.39052798783E+03 -0.64486088019E+04  0.65000000000E+04  0.15050000000E+03 0.  1.
</event>
<event>
 4    1  0.4826743E-004  0.6500000E+04  0.7818608E-02  0.7223770E-01
         52   -1    0    0    0    0  0.00000000000E+00  0.00000000000E+00  0.64930732323E+04  0.65000000000E+04  0.30000000000E+03 0.  1.
        -52   -1    0    0    0    0 -0.00000000000E+00 -0.00000000000E+00 -0.64930732323E+04  0.65000000000E+04  0.30000000000E+03 0. -1.
     100001    1    1    2    0    0 -0.51110948324E+03 -0.42581173451E+04  0.48820644733E+04  0.65000000000E+04  0.15050000000E+03 0.  1.
     100001    1    1    2    0    0  0.51110948324E+03  0.42581173451E+04 -0.48820644733E+04  0.65000000000E+04  0.15050000000E+03 0. -1.
</event>
<event>
 4    1  0.4826743E-004  0.6500000E+04  0.7818608E-02  0.7223770E-01
         52   -1    0    0    0    0  0.00000000000E+00  0.00000000000E+00  0.64930732323E+04  0.65000000000E+04  0.30000000000E+03 0.  1.
        -52   -1    0    0    0    0 -0.00000000000E+00 -0.00000000000E+00 -0.64930732323E+04  0.65000000000E+04  0.30000000000E+03 0. -1.
     100001    1    1    2    0    0 -0.66366112202E+03 -0.74588338137E+03 -0.64211028372E+04  0.65000000000E+04  0.15050000000E+03 0. -1.
     100001    1    1    2    0    0  0.66366112202E+03  0.74588338137E+03  0.64211028372E+04  0.65000000000E+04  0.15050000000E+03 0.  1.
</event>
<event>
 4    1  0.4826743E-004  0.6500000E+04  0.7818608E-02  0.7223770E-01
         52   -1    0    0    0    0  0.00000000000E+00  0.00000000000E+00  0.64930732323E+04  0.65000000000E+04  0.30000000000E+03 0.  1.
        -52   -1    0    0    0    0 -0.00000000000E+00 -0.00000000000E+00 -0.64930732323E+04  0.65000000000E+04  0.30000000000E+03 0. -1.
     100001    1    1    2    0    0 -0.58735442223E+03 -0.51245213011E+03  0.64513376401E+04  0.65000000000E+04  0.15050000000E+03 0.  1.
     100001    1    1    2    0    0  0.58735442223E+03  0.51245213011E+03 -0.64513376401E+04  0.65000000000E+04  0.15050000000E+03 0. -1.
</event>
<event>
 4    1  0.4826743E-004  0.6500000E+04  0.7818608E-02  0.7223770E-01
         52   -1    0    0    0    0  0.00000000000E+00  0.00000000000E+00  0.64930732323E+04  0.65000000000E+04  0.30000000000E+03 0.  1.
        -52   -1    0    0    0    0 -0.00000000000E+00 -0.00000000000E+00 -0.64930732323E+04  0.65000000000E+04  0.30000000000E+03 0. -1.
     100001    1    1    2    0    0  0.55697547793E+03  0.79033866380E+03  0.64259235028E+04  0.65000000000E+04  0.15050000000E+03 0.  1.
     100001    1    1    2    0    0 -0.55697547793E+03 -0.79033866380E+03 -0.64259235028E+04  0.65000000000E+04  0.15050000000E+03 0. -1.
</event>
<event>
 4    1  0.4826743E-004  0.6500000E+04  0.7818608E-02  0.7223770E-01
         52   -1    0    0    0    0  0.00000000000E+00  0.00000000000E+00  0.64930732323E+04  0.65000000000E+04  0.30000000000E+03 0.  1.
        -52   -1    0    0    0    0 -0.00000000000E+00 -0.00000000000E+00 -0.64930732323E+04  0.65000000000E+04  0.30000000000E+03 0. -1.
     100001    1    1    2    0    0  0.91239127717E+03 -0.15940560932E+03  0.64319112058E+04  0.65000000000E+04  0.15050000000E+03 0.  1.
     100001    1    1    2    0    0 -0.91239127717E+03  0.15940560932E+03 -0.64319112058E+04  0.65000000000E+04  0.15050000000E+03 0. -1.
</event>
<event>
 4    1  0.4826743E-004  0.6500000E+04  0.7818608E-02  0.7223770E-01
         52   -1    0    0    0    0  0.00000000000E+00  0.00000000000E+00  0.64930732323E+04  0.65000000000E+04  0.30000000000E+03 0. -1.
        -52   -1    0    0    0    0 -0.00000000000E+00 -0.00000000000E+00 -0.64930732323E+04  0.65000000000E+04  0.30000000000E+03 0.  1.
     100001    1    1    2    0    0 -0.23093029364E+04 -0.30130432669E+04  0.52740913881E+04  0.65000000000E+04  0.15050000000E+03 0. -1.
     100001    1    1    2    0    0  0.23093029364E+04  0.30130432669E+04 -0.52740913881E+04  0.65000000000E+04  0.15050000000E+03 0.  1.
</event>
<event>
 4    1  0.4826743E-004  0.6500000E+04  0.7818608E-02  0.7223770E-01
         52   -1    0    0    0    0  0.00000000000E+00  0.00000000000E+00  0.64930732323E+04  0.65000000000E+04  0.30000000000E+03 0.  1.
        -52   -1    0    0    0    0 -0.00000000000E+00 -0.00000000000E+00 -0.64930732323E+04  0.65000000000E+04  0.30000000000E+03 0. -1.
     100001    1    1    2    0    0 -0.28128288926E+04  0.51912947865E+04 -0.27140010705E+04  0.65000000000E+04  0.15050000000E+03 0. -1.
     100001    1    1    2    0    0  0.28128288926E+04 -0.51912947865E+04  0.27140010705E+04  0.65000000000E+04  0.15050000000E+03 0.  1.
</event>
<event>
 4    1  0.4826743E-004  0.6500000E+04  0.7818608E-02  0.7223770E-01
         52   -1    0    0    0    0  0.00000000000E+00  0.00000000000E+00  0.64930732323E+04  0.65000000000E+04  0.30000000000E+03 0.  1.
        -52   -1    0    0    0    0 -0.00000000000E+00 -0.00000000000E+00 -0.64930732323E+04  0.65000000000E+04  0.30000000000E+03 0. -1.
     100001    1    1    2    0    0  0.56176261300E+02 -0.33193001966E+03  0.64895312958E+04  0.65000000000E+04  0.15050000000E+03 0.  1.
     100001    1    1    2    0    0 -0.56176261300E+02  0.33193001966E+03 -0.64895312958E+04  0.65000000000E+04  0.15050000000E+03 0. -1.
</event>
<event>
 4    1  0.4826743E-004  0.6500000E+04  0.7818608E-02  0.7223770E-01
         52   -1    0    0    0    0  0.00000000000E+00  0.00000000000E+00  0.64930732323E+04  0.65000000000E+04  0.30000000000E+03 0. -1.
        -52   -1    0    0    0    0 -0.00000000000E+00 -0.00000000000E+00 -0.64930732323E+04  0.65000000000E+04  0.30000000000E+03 0.  1.
     100001    1    1    2    0    0 -0.18756497440E+04  0.15673131795E+04  0.60210312393E+04  0.65000000000E+04  0.15050000000E+03 0. -1.
     100001    1    1    2    0    0  0.18756497440E+04 -0.15673131795E+04 -0.60210312393E+04  0.65000000000E+04  0.15050000000E+03 0.  1.
</event>
<event>
 4    1  0.4826743E-004  0.6500000E+04  0.7818608E-02  0.7223770E-01
         52   -1    0    0    0    0  0.00000000000E+00  0.00000000000E+00  0.64930732323E+04  0.65000000000E+04  0.30000000000E+03 0.  1.
        -52   -1    0    0    0    0 -0.00000000000E+00 -0.00000000000E+00 -0.64930732323E+04  0.65000000000E+04  0.30000000000E+03 0.  1.
     100001    1    1    2    0    0  0.22429567785E+03 -0.22955927040E+03 -0.64903269363E+04  0.65000000000E+04  0.15050000000E+03 0.  1.
     100001    1    1    2    0    0 -0.22429567785E+03  0.22955927040E+03  0.64903269363E+04  0.65000000000E+04  0.15050000000E+03 0.  1.
</event>
<event>
 4    1  0.4826743E-004  0.6500000E+04  0.7818608E-02  0.7223770E-01
         52   -1    0    0    0    0  0.00000000000E+00  0.00000000000E+00  0.64930732323E+04  0.65000000000E+04  0.30000000000E+03 0. -1.
        -52   -1    0    0    0    0 -0.00000000000E+00 -0.00000000000E+00 -0.64930732323E+04  0.65000000000E+04  0.30000000000E+03 0. -1.
     100001    1    1    2    0    0 -0.70500983763E+02 -0.64196542634E+03  0.64660853499E+04  0.65000000000E+04  0.15050000000E+03 0. -1.
     100001    1    1    2    0    0  0.70500983763E+02  0.64196542634E+03 -0.64660853499E+04  0.65000000000E+04  0.15050000000E+03 0. -1.
</event>
<event>
 4    1  0.4826743E-004  0.6500000E+04  0.7818608E-02  0.7223770E-01
         52   -1    0    0    0    0  0.00000000000E+00  0.00000000000E+00  0.64930732323E+04  0.65000000000E+04  0.30000000000E+03 0. -1.
        -52   -1    0    0    0    0 -0.00000000000E+00 -0.00000000000E+00 -0.64930732323E+04  0.65000000000E+04  0.30000000000E+03 0.  1.
     100001    1    1    2    0    0 -0.15207984989E+04  0.42836538725E+03  0.63032550933E+04  0.65000000000E+04  0.15050000000E+03 0. -1.
     100001    1    1    2    0    0  0.15207984989E+04 -0.42836538725E+03 -0.63032550933E+04  0.65000000000E+04  0.15050000000E+03 0.  1.
</event>
<event>
 4    1  0.4826743E-004  0.6500000E+04  0.7818608E-02  0.7223770E-01
         52   -1    0    0    0    0  0.00000000000E+00  0.00000000000E+00  0.64930732323E+04  0.65000000000E+04  0.30000000000E+03 0.  1.
        -52   -1    0    0    0    0 -0.00000000000E+00 -0.00000000000E+00 -0.64930732323E+04  0.65000000000E+04  0.30000000000E+03 0. -1.
     100001    1    1    2    0    0 -0.23862387172E+04  0.14316013690E+04  0.58722850795E+04  0.65000000000E+04  0.15050000000E+03 0.  1.
     100001    1    1    2    0    0  0.23862387172E+04 -0.14316013690E+04 -0.58722850795E+04  0.65000000000E+04  0.15050000000E+03 0. -1.
</event>
<event>
 4    1  0.4826743E-004  0.6500000E+04  0.7818608E-02  0.7223770E-01
         52   -1    0    0    0    0  0.00000000000E+00  0.00000000000E+00  0.64930732323E+04  0.65000000000E+04  0.30000000000E+03 0. -1.
        -52   -1    0    0    0    0 -0.00000000000E+00 -0.00000000000E+00 -0.64930732323E+04  0.65000000000E+04  0.30000000000E+03 0.  1.
     100001    1    1    2    0    0  0.22554586286E+04  0.35459183814E+04 -0.49564825186E+04  0.65000000000E+04  0.15050000000E+03 0.  1.
     100001    1    1    2    0    0 -0.22554586286E+04 -0.35459183814E+04  0.49564825186E+04  0.65000000000E+04  0.15050000000E+03 0. -1.
</event>
<event>
 4    1  0.4826743E-004  0.6500000E+04  0.7818608E-02  0.7223770E-01
         52   -1    0    0    0    0  0.00000000000E+00  0.00000000000E+00  0.64930732323E+04  0.65000000000E+04  0.30000000000E+03 0. -1.
        -52   -1    0    0    0    0 -0.00000000000E+00 -0.00000000000E+00 -0.64930732323E+04  0.65000000000E+04  0.30000000000E+03 0.  1.
     100001    1    1    2    0    0 -0.36653809477E+04  0.26404555575E+04 -0.46712232560E+04  0.65000000000E+04  0.15050000000E+03 0.  1.
     100001    1    1    2    0    0  0.36653809477E+04 -0.26404555575E+04  0.46712232560E+04  0.65000000000E+04  0.15050000000E+03 0. -1.
</event>
<event>
 4    1  0.4826743E-004  0.6500000E+04  0.7818608E-02  0.7223770E-01
         52   -1    0    0    0    0  0.00000000000E+00  0.00000000000E+00  0.64930732323E+04  0.65000000000E+04  0.30000000000E+03 0. -1.
        -52   -1    0    0    0    0 -0.00000000000E+00 -0.00000000000E+00 -0.64930732323E+04  0.65000000000E+04  0.30000000000E+03 0.  1.
     100001    1    1    2    0    0  0.45394965317E+03  0.29484032180E+03  0.64756736057E+04  0.65000000000E+04  0.15050000000E+03 0. -1.
     100001    1    1    2    0    0 -0.45394965317E+03 -0.29484032180E+03 -0.64756736057E+04  0.65000000000E+04  0.15050000000E+03 0.  1.
</event>
<event>
 4    1  0.5518898E-004  0.6500000E+04  0.7818608E-02  0.7223770E-01
         52   -1    0    0    0    0  0.00000000000E+00  0.00000000000E+00  0.64930732323E+04  0.65000000000E+04  0.30000000000E+03 0. -1.
        -52   -1    0    0    0    0 -0.00000000000E+00 -0.00000000000E+00 -0.64930732323E+04  0.65000000000E+04  0.30000000000E+03 0.  1.
     100001    1    1    2    0    0  0.10271238883E+02  0.19624595858E+03 -0.64952853498E+04  0.65000000000E+04  0.15050000000E+03 0.  1.
     100001    1    1    2    0    0 -0.10271238883E+02 -0.19624595858E+03  0.64952853498E+04  0.65000000000E+04  0.15050000000E+03 0. -1.
</event>
<event>
 4    1  0.6617356E-004  0.6500000E+04  0.7818608E-02  0.7223770E-01
         52   -1    0    0    0    0  0.00000000000E+00  0.00000000000E+00  0.64930732323E+04  0.65000000000E+04  0.30000000000E+03 0.  1.
        -52   -1    0    0    0    0 -0.00000000000E+00 -0.00000000000E+00 -0.64930732323E+04  0.65000000000E+04  0.30000000000E+03 0.  1.
     100001    1    1    2    0    0 -0.16061496464E+03 -0.68758398539E+02 -0.64959083172E+04  0.65000000000E+04  0.15050000000E+03 0.  1.
     100001    1    1    2    0    0  0.16061496464E+03  0.68758398539E+02  0.64959083172E+04  0.65000000000E+04  0.15050000000E+03 0.  1.
</event>
<event>
 4    1  0.4826743E-004  0.6500000E+04  0.7818608E-02  0.7223770E-01
         52   -1    0    0    0    0  0.00000000000E+00  0.00000000000E+00  0.64930732323E+04  0.65000000000E+04  0.30000000000E+03 0.  1.
        -52   -1    0    0    0    0 -0.00000000000E+00 -0.00000000000E+00 -0.64930732323E+04  0.65000000000E+04  0.30000000000E+03 0. -1.
     100001    1    1    2    0    0 -0.21596202152E+04  0.72732023035E+03 -0.60855891710E+04  0.65000000000E+04  0.15050000000E+03 0. -1.
     100001    1    1    2    0    0  0.21596202152E+04 -0.72732023035E+03  0.60855891710E+04  0.65000000000E+04  0.15050000000E+03 0.  1.
</event>
<event>
 4    1  0.4826743E-004  0.6500000E+04  0.7818608E-02  0.7223770E-01
         52   -1    0    0    0    0  0.00000000000E+00  0.00000000000E+00  0.64930732323E+04  0.65000000000E+04  0.30000000000E+03 0. -1.
        -52   -1    0    0    0    0 -0.00000000000E+00 -0.00000000000E+00 -0.64930732323E+04  0.65000000000E+04  0.30000000000E+03 0. -1.
     100001    1    1    2    0    0 -0.18036706958E+03  0.58420271118E+02 -0.64954910932E+04  0.65000000000E+04  0.15050000000E+03 0. -1.
     100001    1    1    2    0    0  0.18036706958E+03 -0.58420271118E+02  0.64954910932E+04  0.65000000000E+04  0.15050000000E+03 0. -1.
</event>
<event>
 4    1  0.4826743E-004  0.6500000E+04  0.7818608E-02  0.7223770E-01
         52   -1    0    0    0    0  0.00000000000E+00  0.00000000000E+00  0.64930732323E+04  0.65000000000E+04  0.30000000000E+03 0.  1.
        -52   -1    0    0    0    0 -0.00000000000E+00 -0.00000000000E+00 -0.64930732323E+04  0.65000000000E+04  0.30000000000E+03 0.  1.
     100001    1    1    2    0    0  0.19310646302E+03 -0.47740697290E+02 -0.64952121189E+04  0.65000000000E+04  0.15050000000E+03 0.  1.
     100001    1    1    2    0    0 -0.19310646302E+03  0.47740697290E+02  0.64952121189E+04  0.65000000000E+04  0.15050000000E+03 0.  1.
</event>
<event>
 4    1  0.4826743E-004  0.6500000E+04  0.7818608E-02  0.7223770E-01
         52   -1    0    0    0    0  0.00000000000E+00  0.00000000000E+00  0.64930732323E+04  0.65000000000E+04  0.30000000000E+03 0. -1.
        -52   -1    0    0    0    0 -0.00000000000E+00 -0.00000000000E+00 -0.64930732323E+04  0.65000000000E+04  0.30000000000E+03 0.  1.
     100001    1    1    2    0    0 -0.34155361851E+03 -0.72534149616E+03  0.64486099734E+04  0.65000000000E+04  0.15050000000E+03 0. -1.
     100001    1    1    2    0    0  0.34155361851E+03  0.72534149616E+03 -0.64486099734E+04  0.65000000000E+04  0.15050000000E+03 0.  1.
</event>
<event>
 4    1  0.4826743E-004  0.6500000E+04  0.7818608E-02  0.7223770E-01
         52   -1    0    0    0    0  0.00000000000E+00  0.00000000000E+00  0.64930732323E+04  0.65000000000E+04  0.30000000000E+03 0. -1.
        -52   -1    0    0    0    0 -0.00000000000E+00 -0.00000000000E+00 -0.64930732323E+04  0.65000000000E+04  0.30000000000E+03 0.  1.
     100001    1    1    2    0    0 -0.95952371003E+03 -0.13297679802E+04  0.62879552415E+04  0.65000000000E+04  0.15050000000E+03 0. -1.
     100001    1    1    2    0    0  0.95952371003E+03  0.13297679802E+04 -0.62879552415E+04  0.65000000000E+04  0.15050000000E+03 0.  1.
</event>
<event>
 4    1  0.4826743E-004  0.6500000E+04  0.7818608E-02  0.7223770E-01
         52   -1    0    0    0    0  0.00000000000E+00  0.00000000000E+00  0.64930732323E+04  0.65000000000E+04  0.30000000000E+03 0.  1.
        -52   -1    0    0    0    0 -0.00000000000E+00 -0.00000000000E+00 -0.64930732323E+04  0.65000000000E+04  0.30000000000E+03 0. -1.
     100001    1    1    2    0    0 -0.17512776078E+03 -0.10406340854E+03 -0.64950635735E+04  0.65000000000E+04  0.15050000000E+03 0. -1.
     100001    1    1    2    0    0  0.17512776078E+03  0.10406340854E+03  0.64950635735E+04  0.65000000000E+04  0.15050000000E+03 0.  1.
</event>
<event>
 4    1  0.4826743E-004  0.6500000E+04  0.7818608E-02  0.7223770E-01
         52   -1    0    0    0    0  0.00000000000E+00  0.00000000000E+00  0.64930732323E+04  0.65000000000E+04  0.30000000000E+03 0.  1.
        -52   -1    0    0    0    0 -0.00000000000E+00 -0.00000000000E+00 -0.64930732323E+04  0.65000000000E+04  0.30000000000E+03 0. -1.
     100001    1    1    2    0    0 -0.23765815079E+04 -0.15577546140E+03  0.60460684823E+04  0.65000000000E+04  0.15050000000E+03 0.  1.
     100001    1    1    2    0    0  0.23765815079E+04  0.15577546140E+03 -0.60460684823E+04  0.65000000000E+04  0.15050000000E+03 0. -1.
</event>
<event>
 4    1  0.4826743E-004  0.6500000E+04  0.7818608E-02  0.7223770E-01
         52   -1    0    0    0    0  0.00000000000E+00  0.00000000000E+00  0.64930732323E+04  0.65000000000E+04  0.30000000000E+03 0.  1.
        -52   -1    0    0    0    0 -0.00000000000E+00 -0.00000000000E+00 -0.64930732323E+04  0.65000000000E+04  0.30000000000E+03 0.  1.
     100001    1    1    2    0    0  0.47759631844E+03 -0.64002663445E+03  0.64490012726E+04  0.65000000000E+04  0.15050000000E+03 0.  1.
     100001    1    1    2    0    0 -0.47759631844E+03  0.64002663445E+03 -0.64490012726E+04  0.65000000000E+04  0.15050000000E+03 0.  1.
</event>
<event>
 4    1  0.4826743E-004  0.6500000E+04  0.7818608E-02  0.7223770E-01
         52   -1    0    0    0    0  0.00000000000E+00  0.00000000000E+00  0.64930732323E+04  0.65000000000E+04  0.30000000000E+03 0. -1.
        -52   -1    0    0    0    0 -0.00000000000E+00 -0.00000000000E+00 -0.64930732323E+04  0.65000000000E+04  0.30000000000E+03 0.  1.
     100001    1    1    2    0    0 -0.69281395318E+03 -0.31613925402E+03  0.64534808087E+04  0.65000000000E+04  0.15050000000E+03 0. -1.
     100001    1    1    2    0    0  0.69281395318E+03  0.31613925402E+03 -0.64534808087E+04  0.65000000000E+04  0.15050000000E+03 0.  1.
</event>
<event>
 4    1  0.4826743E-004  0.6500000E+04  0.7818608E-02  0.7223770E-01
         52   -1    0    0    0    0  0.00000000000E+00  0.00000000000E+00  0.64930732323E+04  0.65000000000E+04  0.30000000000E+03 0.  1.
        -52   -1    0    0    0    0 -0.00000000000E+00 -0.00000000000E+00 -0.64930732323E+04  0.65000000000E+04  0.30000000000E+03 0. -1.
     100001    1    1    2    0    0 -0.80557985459E+02  0.53684439886E+04  0.36606924621E+04  0.65000000000E+04  0.15050000000E+03 0.  1.
     100001    1    1    2    0    0  0.80557985459E+02 -0.53684439886E+04 -0.36606924621E+04  0.65000000000E+04  0.15050000000E+03 0. -1.
</event>
<event>
 4    1  0.4826743E-004  0.6500000E+04  0.7818608E-02  0.7223770E-01
         52   -1    0    0    0    0  0.00000000000E+00  0.00000000000E+00  0.64930732323E+04  0.65000000000E+04  0.30000000000E+03 0.  1.
        -52   -1    0    0    0    0 -0.00000000000E+00 -0.00000000000E+00 -0.64930732323E+04  0.65000000000E+04  0.30000000000E+03 0. -1.
     100001    1    1    2    0    0 -0.59234189377E+04 -0.25816376473E+04  0.68964113590E+03  0.65000000000E+04  0.15050000000E+03 0. -1.
     100001    1    1    2    0    0  0.59234189377E+04  0.25816376473E+04 -0.68964113590E+03  0.65000000000E+04  0.15050000000E+03 0.  1.
</event>
<event>
 4    1  0.4826743E-004  0.6500000E+04  0.7818608E-02  0.7223770E-01
         52   -1    0    0    0    0  0.00000000000E+00  0.00000000000E+00  0.64930732323E+04  0.65000000000E+04  0.30000000000E+03 0. -1.
        -52   -1    0    0    0    0 -0.00000000000E+00 -0.00000000000E+00 -0.64930732323E+04  0.65000000000E+04  0.30000000000E+03 0. -1.
     100001    1    1    2    0    0 -0.29278318112E+03  0.40122439479E+02 -0.64915343293E+04  0.65000000000E+04  0.15050000000E+03 0. -1.
     100001    1    1    2    0    0  0.29278318112E+03 -0.40122439479E+02  0.64915343293E+04  0.65000000000E+04  0.15050000000E+03 0. -1.
</event>
<event>
 4    1  0.4826743E-004  0.6500000E+04  0.7818608E-02  0.7223770E-01
         52   -1    0    0    0    0  0.00000000000E+00  0.00000000000E+00  0.64930732323E+04  0.65000000000E+04  0.30000000000E+03 0. -1.
        -52   -1    0    0    0    0 -0.00000000000E+00 -0.00000000000E+00 -0.64930732323E+04  0.65000000000E+04  0.30000000000E+03 0.  1.
     100001    1    1    2    0    0 -0.27436715675E+03  0.25990606481E+03 -0.64872583771E+04  0.65000000000E+04  0.15050000000E+03 0.  1.
     100001    1    1    2    0    0  0.27436715675E+03 -0.25990606481E+03  0.64872583771E+04  0.65000000000E+04  0.15050000000E+03 0. -1.
</event>
<event>
 4    1  0.4826743E-004  0.6500000E+04  0.7818608E-02  0.7223770E-01
         52   -1    0    0    0    0  0.00000000000E+00  0.00000000000E+00  0.64930732323E+04  0.65000000000E+04  0.30000000000E+03 0. -1.
        -52   -1    0    0    0    0 -0.00000000000E+00 -0.00000000000E+00 -0.64930732323E+04  0.65000000000E+04  0.30000000000E+03 0.  1.
     100001    1    1    2    0    0 -0.99565619532E+03 -0.21890303999E+03 -0.64177955678E+04  0.65000000000E+04  0.15050000000E+03 0.  1.
     100001    1    1    2    0    0  0.99565619532E+03  0.21890303999E+03  0.64177955678E+04  0.65000000000E+04  0.15050000000E+03 0. -1.
</event>
<event>
 4    1  0.4826743E-004  0.6500000E+04  0.7818608E-02  0.7223770E-01
         52   -1    0    0    0    0  0.00000000000E+00  0.00000000000E+00  0.64930732323E+04  0.65000000000E+04  0.30000000000E+03 0. -1.
        -52   -1    0    0    0    0 -0.00000000000E+00 -0.00000000000E+00 -0.64930732323E+04  0.65000000000E+04  0.30000000000E+03 0.  1.
     100001    1    1    2    0    0  0.43744481664E+03 -0.50884085364E+04 -0.40179709244E+04  0.65000000000E+04  0.15050000000E+03 0.  1.
     100001    1    1    2    0    0 -0.43744481664E+03  0.50884085364E+04  0.40179709244E+04  0.65000000000E+04  0.15050000000E+03 0. -1.
</event>
<event>
 4    1  0.4826743E-004  0.6500000E+04  0.7818608E-02  0.7223770E-01
         52   -1    0    0    0    0  0.00000000000E+00  0.00000000000E+00  0.64930732323E+04  0.65000000000E+04  0.30000000000E+03 0.  1.
        -52   -1    0    0    0    0 -0.00000000000E+00 -0.00000000000E+00 -0.64930732323E+04  0.65000000000E+04  0.30000000000E+03 0. -1.
     100001    1    1    2    0    0  0.15578520765E+04 -0.28530187885E+03  0.63023050938E+04  0.65000000000E+04  0.15050000000E+03 0.  1.
     100001    1    1    2    0    0 -0.15578520765E+04  0.28530187885E+03 -0.63023050938E+04  0.65000000000E+04  0.15050000000E+03 0. -1.
</event>
<event>
 4    1  0.4826743E-004  0.6500000E+04  0.7818608E-02  0.7223770E-01
         52   -1    0    0    0    0  0.00000000000E+00  0.00000000000E+00  0.64930732323E+04  0.65000000000E+04  0.30000000000E+03 0. -1.
        -52   -1    0    0    0    0 -0.00000000000E+00 -0.00000000000E+00 -0.64930732323E+04  0.65000000000E+04  0.30000000000E+03 0.  1.
     100001    1    1    2    0    0 -0.44993276595E+03 -0.40310971637E+03  0.64701169087E+04  0.65000000000E+04  0.15050000000E+03 0. -1.
     100001    1    1    2    0    0  0.44993276595E+03  0.40310971637E+03 -0.64701169087E+04  0.65000000000E+04  0.15050000000E+03 0.  1.
</event>
<event>
 4    1  0.4826743E-004  0.6500000E+04  0.7818608E-02  0.7223770E-01
         52   -1    0    0    0    0  0.00000000000E+00  0.00000000000E+00  0.64930732323E+04  0.65000000000E+04  0.30000000000E+03 0.  1.
        -52   -1    0    0    0    0 -0.00000000000E+00 -0.00000000000E+00 -0.64930732323E+04  0.65000000000E+04  0.30000000000E+03 0. -1.
     100001    1    1    2    0    0  0.33883054531E+02  0.26855173843E+04 -0.59172796171E+04  0.65000000000E+04  0.15050000000E+03 0. -1.
     100001    1    1    2    0    0 -0.33883054531E+02 -0.26855173843E+04  0.59172796171E+04  0.65000000000E+04  0.15050000000E+03 0.  1.
</event>
<event>
 4    1  0.4826743E-004  0.6500000E+04  0.7818608E-02  0.7223770E-01
         52   -1    0    0    0    0  0.00000000000E+00  0.00000000000E+00  0.64930732323E+04  0.65000000000E+04  0.30000000000E+03 0.  1.
        -52   -1    0    0    0    0 -0.00000000000E+00 -0.00000000000E+00 -0.64930732323E+04  0.65000000000E+04  0.30000000000E+03 0. -1.
     100001    1    1    2    0    0  0.45365151967E+04  0.26124212165E+04  0.38500175334E+04  0.65000000000E+04  0.15050000000E+03 0. -1.
     100001    1    1    2    0    0 -0.45365151967E+04 -0.26124212165E+04 -0.38500175334E+04  0.65000000000E+04  0.15050000000E+03 0.  1.
</event>
<event>
 4    1  0.4826743E-004  0.6500000E+04  0.7818608E-02  0.7223770E-01
         52   -1    0    0    0    0  0.00000000000E+00  0.00000000000E+00  0.64930732323E+04  0.65000000000E+04  0.30000000000E+03 0. -1.
        -52   -1    0    0    0    0 -0.00000000000E+00 -0.00000000000E+00 -0.64930732323E+04  0.65000000000E+04  0.30000000000E+03 0.  1.
     100001    1    1    2    0    0 -0.20485087364E+04  0.16317253513E+04  0.59471366291E+04  0.65000000000E+04  0.15050000000E+03 0. -1.
     100001    1    1    2    0    0  0.20485087364E+04 -0.16317253513E+04 -0.59471366291E+04  0.65000000000E+04  0.15050000000E+03 0.  1.
</event>
<event>
 4    1  0.4826743E-004  0.6500000E+04  0.7818608E-02  0.7223770E-01
         52   -1    0    0    0    0  0.00000000000E+00  0.00000000000E+00  0.64930732323E+04  0.65000000000E+04  0.30000000000E+03 0. -1.
        -52   -1    0    0    0    0 -0.00000000000E+00 -0.00000000000E+00 -0.64930732323E+04  0.65000000000E+04  0.30000000000E+03 0.  1.
     100001    1    1    2    0    0 -0.63140776123E+03  0.10834677993E+04  0.63761094342E+04  0.65000000000E+04  0.15050000000E+03 0. -1.
     100001    1    1    2    0    0  0.63140776123E+03 -0.10834677993E+04 -0.63761094342E+04  0.65000000000E+04  0.15050000000E+03 0.  1.
</event>
<event>
 4    1  0.4826743E-004  0.6500000E+04  0.7818608E-02  0.7223770E-01
         52   -1    0    0    0    0  0.00000000000E+00  0.00000000000E+00  0.64930732323E+04  0.65000000000E+04  0.30000000000E+03 0. -1.
        -52   -1    0    0    0    0 -0.00000000000E+00 -0.00000000000E+00 -0.64930732323E+04  0.65000000000E+04  0.30000000000E+03 0.  1.
     100001    1    1    2    0    0  0.16382034933E+04 -0.15516322599E+04 -0.60939376756E+04  0.65000000000E+04  0.15050000000E+03 0.  1.
     100001    1    1    2    0    0 -0.16382034933E+04  0.15516322599E+04  0.60939376756E+04  0.65000000000E+04  0.15050000000E+03 0. -1.
</event>
<event>
 4    1  0.4826743E-004  0.6500000E+04  0.7818608E-02  0.7223770E-01
         52   -1    0    0    0    0  0.00000000000E+00  0.00000000000E+00  0.64930732323E+04  0.65000000000E+04  0.30000000000E+03 0.  1.
        -52   -1    0    0    0    0 -0.00000000000E+00 -0.00000000000E+00 -0.64930732323E+04  0.65000000000E+04  0.30000000000E+03 0. -1.
     100001    1    1    2    0    0  0.33012994794E+03 -0.23542283899E+04 -0.60478072601E+04  0.65000000000E+04  0.15050000000E+03 0. -1.
     100001    1    1    2    0    0 -0.33012994794E+03  0.23542283899E+04  0.60478072601E+04  0.65000000000E+04  0.15050000000E+03 0.  1.
</event>
<event>
 4    1  0.4826743E-004  0.6500000E+04  0.7818608E-02  0.7223770E-01
         52   -1    0    0    0    0  0.00000000000E+00  0.00000000000E+00  0.64930732323E+04  0.65000000000E+04  0.30000000000E+03 0. -1.
        -52   -1    0    0    0    0 -0.00000000000E+00 -0.00000000000E+00 -0.64930732323E+04  0.65000000000E+04  0.30000000000E+03 0.  1.
     100001    1    1    2    0    0 -0.13627884248E+03 -0.50693803117E+03  0.64770202763E+04  0.65000000000E+04  0.15050000000E+03 0. -1.
     100001    1    1    2    0    0  0.13627884248E+03  0.50693803117E+03 -0.64770202763E+04  0.65000000000E+04  0.15050000000E+03 0.  1.
</event>
<event>
 4    1  0.4826743E-004  0.6500000E+04  0.7818608E-02  0.7223770E-01
         52   -1    0    0    0    0  0.00000000000E+00  0.00000000000E+00  0.64930732323E+04  0.65000000000E+04  0.30000000000E+03 0.  1.
        -52   -1    0    0    0    0 -0.00000000000E+00 -0.00000000000E+00 -0.64930732323E+04  0.65000000000E+04  0.30000000000E+03 0. -1.
     100001    1    1    2    0    0 -0.16173300355E+03  0.16767213492E+04  0.62761291974E+04  0.65000000000E+04  0.15050000000E+03 0.  1.
     100001    1    1    2    0    0  0.16173300355E+03 -0.16767213492E+04 -0.62761291974E+04  0.65000000000E+04  0.15050000000E+03 0. -1.
</event>
<event>
 4    1  0.4826743E-004  0.6500000E+04  0.7818608E-02  0.7223770E-01
         52   -1    0    0    0    0  0.00000000000E+00  0.00000000000E+00  0.64930732323E+04  0.65000000000E+04  0.30000000000E+03 0. -1.
        -52   -1    0    0    0    0 -0.00000000000E+00 -0.00000000000E+00 -0.64930732323E+04  0.65000000000E+04  0.30000000000E+03 0.  1.
     100001    1    1    2    0    0  0.48820521274E+03  0.11935988253E+04  0.63690130526E+04  0.65000000000E+04  0.15050000000E+03 0. -1.
     100001    1    1    2    0    0 -0.48820521274E+03 -0.11935988253E+04 -0.63690130526E+04  0.65000000000E+04  0.15050000000E+03 0.  1.
</event>
<event>
 4    1  0.4826743E-004  0.6500000E+04  0.7818608E-02  0.7223770E-01
         52   -1    0    0    0    0  0.00000000000E+00  0.00000000000E+00  0.64930732323E+04  0.65000000000E+04  0.30000000000E+03 0.  1.
        -52   -1    0    0    0    0 -0.00000000000E+00 -0.00000000000E+00 -0.64930732323E+04  0.65000000000E+04  0.30000000000E+03 0. -1.
     100001    1    1    2    0    0  0.48842801668E+03  0.70046584092E+03  0.64419046429E+04  0.65000000000E+04  0.15050000000E+03 0.  1.
     100001    1    1    2    0    0 -0.48842801668E+03 -0.70046584092E+03 -0.64419046429E+04  0.65000000000E+04  0.15050000000E+03 0. -1.
</event>
<event>
 4    1  0.4826743E-004  0.6500000E+04  0.7818608E-02  0.7223770E-01
         52   -1    0    0    0    0  0.00000000000E+00  0.00000000000E+00  0.64930732323E+04  0.65000000000E+04  0.30000000000E+03 0. -1.
        -52   -1    0    0    0    0 -0.00000000000E+00 -0.00000000000E+00 -0.64930732323E+04  0.65000000000E+04  0.30000000000E+03 0.  1.
     100001    1    1    2    0    0 -0.48812185141E+04 -0.27974863284E+04  0.32519418522E+04  0.65000000000E+04  0.15050000000E+03 0. -1.
     100001    1    1    2    0    0  0.48812185141E+04  0.27974863284E+04 -0.32519418522E+04  0.65000000000E+04  0.15050000000E+03 0.  1.
</event>
<event>
 4    1  0.4826743E-004  0.6500000E+04  0.7818608E-02  0.7223770E-01
         52   -1    0    0    0    0  0.00000000000E+00  0.00000000000E+00  0.64930732323E+04  0.65000000000E+04  0.30000000000E+03 0.  1.
        -52   -1    0    0    0    0 -0.00000000000E+00 -0.00000000000E+00 -0.64930732323E+04  0.65000000000E+04  0.30000000000E+03 0.  1.
     100001    1    1    2    0    0  0.10423547028E+04  0.97827575073E+01  0.64141056057E+04  0.65000000000E+04  0.15050000000E+03 0.  1.
     100001    1    1    2    0    0 -0.10423547028E+04 -0.97827575073E+01 -0.64141056057E+04  0.65000000000E+04  0.15050000000E+03 0.  1.
</event>
<event>
 4    1  0.4826743E-004  0.6500000E+04  0.7818608E-02  0.7223770E-01
         52   -1    0    0    0    0  0.00000000000E+00  0.00000000000E+00  0.64930732323E+04  0.65000000000E+04  0.30000000000E+03 0.  1.
        -52   -1    0    0    0    0 -0.00000000000E+00 -0.00000000000E+00 -0.64930732323E+04  0.65000000000E+04  0.30000000000E+03 0. -1.
     100001    1    1    2    0    0 -0.26391747223E+03 -0.71976848434E+03  0.64528777028E+04  0.65000000000E+04  0.15050000000E+03 0.  1.
     100001    1    1    2    0    0  0.26391747223E+03  0.71976848434E+03 -0.64528777028E+04  0.65000000000E+04  0.15050000000E+03 0. -1.
</event>
<event>
 4    1  0.4826743E-004  0.6500000E+04  0.7818608E-02  0.7223770E-01
         52   -1    0    0    0    0  0.00000000000E+00  0.00000000000E+00  0.64930732323E+04  0.65000000000E+04  0.30000000000E+03 0.  1.
        -52   -1    0    0    0    0 -0.00000000000E+00 -0.00000000000E+00 -0.64930732323E+04  0.65000000000E+04  0.30000000000E+03 0. -1.
     100001    1    1    2    0    0  0.11445115296E+04 -0.20151632116E+04  0.60709604133E+04  0.65000000000E+04  0.15050000000E+03 0.  1.
     100001    1    1    2    0    0 -0.11445115296E+04  0.20151632116E+04 -0.60709604133E+04  0.65000000000E+04  0.15050000000E+03 0. -1.
</event>
<event>
 4    1  0.4826743E-004  0.6500000E+04  0.7818608E-02  0.7223770E-01
         52   -1    0    0    0    0  0.00000000000E+00  0.00000000000E+00  0.64930732323E+04  0.65000000000E+04  0.30000000000E+03 0. -1.
        -52   -1    0    0    0    0 -0.00000000000E+00 -0.00000000000E+00 -0.64930732323E+04  0.65000000000E+04  0.30000000000E+03 0.  1.
     100001    1    1    2    0    0  0.11989019035E+04 -0.21444128145E+04  0.60159353102E+04  0.65000000000E+04  0.15050000000E+03 0. -1.
     100001    1    1    2    0    0 -0.11989019035E+04  0.21444128145E+04 -0.60159353102E+04  0.65000000000E+04  0.15050000000E+03 0.  1.
</event>
<event>
 4    1  0.4826743E-004  0.6500000E+04  0.7818608E-02  0.7223770E-01
         52   -1    0    0    0    0  0.00000000000E+00  0.00000000000E+00  0.64930732323E+04  0.65000000000E+04  0.30000000000E+03 0. -1.
        -52   -1    0    0    0    0 -0.00000000000E+00 -0.00000000000E+00 -0.64930732323E+04  0.65000000000E+04  0.30000000000E+03 0.  1.
     100001    1    1    2    0    0 -0.69418641268E+03 -0.11051796143E+04  0.63658489610E+04  0.65000000000E+04  0.15050000000E+03 0. -1.
     100001    1    1    2    0    0  0.69418641268E+03  0.11051796143E+04 -0.63658489610E+04  0.65000000000E+04  0.15050000000E+03 0.  1.
</event>
<event>
 4    1  0.4826743E-004  0.6500000E+04  0.7818608E-02  0.7223770E-01
         52   -1    0    0    0    0  0.00000000000E+00  0.00000000000E+00  0.64930732323E+04  0.65000000000E+04  0.30000000000E+03 0. -1.
        -52   -1    0    0    0    0 -0.00000000000E+00 -0.00000000000E+00 -0.64930732323E+04  0.65000000000E+04  0.30000000000E+03 0.  1.
     100001    1    1    2    0    0 -0.31348367408E+03 -0.21036535366E+04 -0.61403354578E+04  0.65000000000E+04  0.15050000000E+03 0.  1.
     100001    1    1    2    0    0  0.31348367408E+03  0.21036535366E+04  0.61403354578E+04  0.65000000000E+04  0.15050000000E+03 0. -1.
</event>
<event>
 4    1  0.4826743E-004  0.6500000E+04  0.7818608E-02  0.7223770E-01
         52   -1    0    0    0    0  0.00000000000E+00  0.00000000000E+00  0.64930732323E+04  0.65000000000E+04  0.30000000000E+03 0.  1.
        -52   -1    0    0    0    0 -0.00000000000E+00 -0.00000000000E+00 -0.64930732323E+04  0.65000000000E+04  0.30000000000E+03 0. -1.
     100001    1    1    2    0    0 -0.34151085949E+03  0.31534987608E+03 -0.64816104896E+04  0.65000000000E+04  0.15050000000E+03 0. -1.
     100001    1    1    2    0    0  0.34151085949E+03 -0.31534987608E+03  0.64816104896E+04  0.65000000000E+04  0.15050000000E+03 0.  1.
</event>
<event>
 4    1  0.4826743E-004  0.6500000E+04  0.7818608E-02  0.7223770E-01
         52   -1    0    0    0    0  0.00000000000E+00  0.00000000000E+00  0.64930732323E+04  0.65000000000E+04  0.30000000000E+03 0. -1.
        -52   -1    0    0    0    0 -0.00000000000E+00 -0.00000000000E+00 -0.64930732323E+04  0.65000000000E+04  0.30000000000E+03 0.  1.
     100001    1    1    2    0    0 -0.26118137327E+04  0.55022098497E+04 -0.22652738346E+04  0.65000000000E+04  0.15050000000E+03 0.  1.
     100001    1    1    2    0    0  0.26118137327E+04 -0.55022098497E+04  0.22652738346E+04  0.65000000000E+04  0.15050000000E+03 0. -1.
</event>
<event>
 4    1  0.4826743E-004  0.6500000E+04  0.7818608E-02  0.7223770E-01
         52   -1    0    0    0    0  0.00000000000E+00  0.00000000000E+00  0.64930732323E+04  0.65000000000E+04  0.30000000000E+03 0.  1.
        -52   -1    0    0    0    0 -0.00000000000E+00 -0.00000000000E+00 -0.64930732323E+04  0.65000000000E+04  0.30000000000E+03 0. -1.
     100001    1    1    2    0    0  0.23859886720E+03  0.88069677899E+03  0.64338785747E+04  0.65000000000E+04  0.15050000000E+03 0.  1.
     100001    1    1    2    0    0 -0.23859886720E+03 -0.88069677899E+03 -0.64338785747E+04  0.65000000000E+04  0.15050000000E+03 0. -1.
</event>
<event>
 4    1  0.4826743E-004  0.6500000E+04  0.7818608E-02  0.7223770E-01
         52   -1    0    0    0    0  0.00000000000E+00  0.00000000000E+00  0.64930732323E+04  0.65000000000E+04  0.30000000000E+03 0. -1.
        -52   -1    0    0    0    0 -0.00000000000E+00 -0.00000000000E+00 -0.64930732323E+04  0.65000000000E+04  0.30000000000E+03 0.  1.
     100001    1    1    2    0    0  0.13284107802E+04 -0.12333212828E+03  0.63598320524E+04  0.65000000000E+04  0.15050000000E+03 0. -1.
     100001    1    1    2    0    0 -0.13284107802E+04  0.12333212828E+03 -0.63598320524E+04  0.65000000000E+04  0.15050000000E+03 0.  1.
</event>
<event>
 4    1  0.4826743E-004  0.6500000E+04  0.7818608E-02  0.7223770E-01
         52   -1    0    0    0    0  0.00000000000E+00  0.00000000000E+00  0.64930732323E+04  0.65000000000E+04  0.30000000000E+03 0.  1.
        -52   -1    0    0    0    0 -0.00000000000E+00 -0.00000000000E+00 -0.64930732323E+04  0.65000000000E+04  0.30000000000E+03 0. -1.
     100001    1    1    2    0    0 -0.13473216495E+04 -0.11654728681E+04 -0.62492997301E+04  0.65000000000E+04  0.15050000000E+03 0. -1.
     100001    1    1    2    0    0  0.13473216495E+04  0.11654728681E+04  0.62492997301E+04  0.65000000000E+04  0.15050000000E+03 0.  1.
</event>
<event>
 4    1  0.4826743E-004  0.6500000E+04  0.7818608E-02  0.7223770E-01
         52   -1    0    0    0    0  0.00000000000E+00  0.00000000000E+00  0.64930732323E+04  0.65000000000E+04  0.30000000000E+03 0. -1.
        -52   -1    0    0    0    0 -0.00000000000E+00 -0.00000000000E+00 -0.64930732323E+04  0.65000000000E+04  0.30000000000E+03 0.  1.
     100001    1    1    2    0    0 -0.75272230773E+03  0.11617965128E+03  0.64534689250E+04  0.65000000000E+04  0.15050000000E+03 0. -1.
     100001    1    1    2    0    0  0.75272230773E+03 -0.11617965128E+03 -0.64534689250E+04  0.65000000000E+04  0.15050000000E+03 0.  1.
</event>
<event>
 4    1  0.4826743E-004  0.6500000E+04  0.7818608E-02  0.7223770E-01
         52   -1    0    0    0    0  0.00000000000E+00  0.00000000000E+00  0.64930732323E+04  0.65000000000E+04  0.30000000000E+03 0. -1.
        -52   -1    0    0    0    0 -0.00000000000E+00 -0.00000000000E+00 -0.64930732323E+04  0.65000000000E+04  0.30000000000E+03 0.  1.
     100001    1    1    2    0    0 -0.15522488418E+04 -0.75258062061E+03 -0.62651014112E+04  0.65000000000E+04  0.15050000000E+03 0.  1.
     100001    1    1    2    0    0  0.15522488418E+04  0.75258062061E+03  0.62651014112E+04  0.65000000000E+04  0.15050000000E+03 0. -1.
</event>
<event>
 4    1  0.4826743E-004  0.6500000E+04  0.7818608E-02  0.7223770E-01
         52   -1    0    0    0    0  0.00000000000E+00  0.00000000000E+00  0.64930732323E+04  0.65000000000E+04  0.30000000000E+03 0. -1.
        -52   -1    0    0    0    0 -0.00000000000E+00 -0.00000000000E+00 -0.64930732323E+04  0.65000000000E+04  0.30000000000E+03 0.  1.
     100001    1    1    2    0    0  0.15565224784E+04 -0.94659011214E+03 -0.62376722168E+04  0.65000000000E+04  0.15050000000E+03 0.  1.
     100001    1    1    2    0    0 -0.15565224784E+04  0.94659011214E+03  0.62376722168E+04  0.65000000000E+04  0.15050000000E+03 0. -1.
</event>
<event>
 4    1  0.4826743E-004  0.6500000E+04  0.7818608E-02  0.7223770E-01
         52   -1    0    0    0    0  0.00000000000E+00  0.00000000000E+00  0.64930732323E+04  0.65000000000E+04  0.30000000000E+03 0. -1.
        -52   -1    0    0    0    0 -0.00000000000E+00 -0.00000000000E+00 -0.64930732323E+04  0.65000000000E+04  0.30000000000E+03 0.  1.
     100001    1    1    2    0    0 -0.50036758785E+03 -0.95641819828E+03 -0.64079830100E+04  0.65000000000E+04  0.15050000000E+03 0.  1.
     100001    1    1    2    0    0  0.50036758785E+03  0.95641819828E+03  0.64079830100E+04  0.65000000000E+04  0.15050000000E+03 0. -1.
</event>
<event>
 4    1  0.4826743E-004  0.6500000E+04  0.7818608E-02  0.7223770E-01
         52   -1    0    0    0    0  0.00000000000E+00  0.00000000000E+00  0.64930732323E+04  0.65000000000E+04  0.30000000000E+03 0. -1.
        -52   -1    0    0    0    0 -0.00000000000E+00 -0.00000000000E+00 -0.64930732323E+04  0.65000000000E+04  0.30000000000E+03 0.  1.
     100001    1    1    2    0    0 -0.52697329670E+03 -0.12136704369E+04  0.63621264499E+04  0.65000000000E+04  0.15050000000E+03 0. -1.
     100001    1    1    2    0    0  0.52697329670E+03  0.12136704369E+04 -0.63621264499E+04  0.65000000000E+04  0.15050000000E+03 0.  1.
</event>
<event>
 4    1  0.4826743E-004  0.6500000E+04  0.7818608E-02  0.7223770E-01
         52   -1    0    0    0    0  0.00000000000E+00  0.00000000000E+00  0.64930732323E+04  0.65000000000E+04  0.30000000000E+03 0. -1.
        -52   -1    0    0    0    0 -0.00000000000E+00 -0.00000000000E+00 -0.64930732323E+04  0.65000000000E+04  0.30000000000E+03 0.  1.
     100001    1    1    2    0    0  0.34083088945E+04  0.34159160030E+04 -0.43522750476E+04  0.65000000000E+04  0.15050000000E+03 0.  1.
     100001    1    1    2    0    0 -0.34083088945E+04 -0.34159160030E+04  0.43522750476E+04  0.65000000000E+04  0.15050000000E+03 0. -1.
</event>
<event>
 4    1  0.4826743E-004  0.6500000E+04  0.7818608E-02  0.7223770E-01
         52   -1    0    0    0    0  0.00000000000E+00  0.00000000000E+00  0.64930732323E+04  0.65000000000E+04  0.30000000000E+03 0.  1.
        -52   -1    0    0    0    0 -0.00000000000E+00 -0.00000000000E+00 -0.64930732323E+04  0.65000000000E+04  0.30000000000E+03 0. -1.
     100001    1    1    2    0    0 -0.38230041575E+04  0.24297472381E+04  0.46592185311E+04  0.65000000000E+04  0.15050000000E+03 0.  1.
     100001    1    1    2    0    0  0.38230041575E+04 -0.24297472381E+04 -0.46592185311E+04  0.65000000000E+04  0.15050000000E+03 0. -1.
</event>
<event>
 4    1  0.4826743E-004  0.6500000E+04  0.7818608E-02  0.7223770E-01
         52   -1    0    0    0    0  0.00000000000E+00  0.00000000000E+00  0.64930732323E+04  0.65000000000E+04  0.30000000000E+03 0. -1.
        -52   -1    0    0    0    0 -0.00000000000E+00 -0.00000000000E+00 -0.64930732323E+04  0.65000000000E+04  0.30000000000E+03 0.  1.
     100001    1    1    2    0    0  0.68119669382E+03  0.29848600269E+03 -0.64555578319E+04  0.65000000000E+04  0.15050000000E+03 0.  1.
     100001    1    1    2    0    0 -0.68119669382E+03 -0.29848600269E+03  0.64555578319E+04  0.65000000000E+04  0.15050000000E+03 0. -1.
</event>
<event>
 4    1  0.4826743E-004  0.6500000E+04  0.7818608E-02  0.7223770E-01
         52   -1    0    0    0    0  0.00000000000E+00  0.00000000000E+00  0.64930732323E+04  0.65000000000E+04  0.30000000000E+03 0. -1.
        -52   -1    0    0    0    0 -0.00000000000E+00 -0.00000000000E+00 -0.64930732323E+04  0.65000000000E+04  0.30000000000E+03 0.  1.
     100001    1    1    2    0    0  0.10758070135E+04 -0.91909239428E+02 -0.64079280358E+04  0.65000000000E+04  0.15050000000E+03 0.  1.
     100001    1    1    2    0    0 -0.10758070135E+04  0.91909239428E+02  0.64079280358E+04  0.65000000000E+04  0.15050000000E+03 0. -1.
</event>
<event>
 4    1  0.4826743E-004  0.6500000E+04  0.7818608E-02  0.7223770E-01
         52   -1    0    0    0    0  0.00000000000E+00  0.00000000000E+00  0.64930732323E+04  0.65000000000E+04  0.30000000000E+03 0. -1.
        -52   -1    0    0    0    0 -0.00000000000E+00 -0.00000000000E+00 -0.64930732323E+04  0.65000000000E+04  0.30000000000E+03 0.  1.
     100001    1    1    2    0    0 -0.66565453178E+03 -0.34470254428E+03  0.64548767572E+04  0.65000000000E+04  0.15050000000E+03 0. -1.
     100001    1    1    2    0    0  0.66565453178E+03  0.34470254428E+03 -0.64548767572E+04  0.65000000000E+04  0.15050000000E+03 0.  1.
</event>
<event>
 4    1  0.4826743E-004  0.6500000E+04  0.7818608E-02  0.7223770E-01
         52   -1    0    0    0    0  0.00000000000E+00  0.00000000000E+00  0.64930732323E+04  0.65000000000E+04  0.30000000000E+03 0.  1.
        -52   -1    0    0    0    0 -0.00000000000E+00 -0.00000000000E+00 -0.64930732323E+04  0.65000000000E+04  0.30000000000E+03 0. -1.
     100001    1    1    2    0    0  0.32131255833E+04  0.13279796628E+04 -0.54899584471E+04  0.65000000000E+04  0.15050000000E+03 0. -1.
     100001    1    1    2    0    0 -0.32131255833E+04 -0.13279796628E+04  0.54899584471E+04  0.65000000000E+04  0.15050000000E+03 0.  1.
</event>
<event>
 4    1  0.4826743E-004  0.6500000E+04  0.7818608E-02  0.7223770E-01
         52   -1    0    0    0    0  0.00000000000E+00  0.00000000000E+00  0.64930732323E+04  0.65000000000E+04  0.30000000000E+03 0.  1.
        -52   -1    0    0    0    0 -0.00000000000E+00 -0.00000000000E+00 -0.64930732323E+04  0.65000000000E+04  0.30000000000E+03 0. -1.
     100001    1    1    2    0    0 -0.18071482203E+04  0.17437861805E+04  0.59933942651E+04  0.65000000000E+04  0.15050000000E+03 0.  1.
     100001    1    1    2    0    0  0.18071482203E+04 -0.17437861805E+04 -0.59933942651E+04  0.65000000000E+04  0.15050000000E+03 0. -1.
</event>
<event>
 4    1  0.4826743E-004  0.6500000E+04  0.7818608E-02  0.7223770E-01
         52   -1    0    0    0    0  0.00000000000E+00  0.00000000000E+00  0.64930732323E+04  0.65000000000E+04  0.30000000000E+03 0. -1.
        -52   -1    0    0    0    0 -0.00000000000E+00 -0.00000000000E+00 -0.64930732323E+04  0.65000000000E+04  0.30000000000E+03 0.  1.
     100001    1    1    2    0    0  0.15080747893E+04  0.11567168390E+04 -0.62141022147E+04  0.65000000000E+04  0.15050000000E+03 0.  1.
     100001    1    1    2    0    0 -0.15080747893E+04 -0.11567168390E+04  0.62141022147E+04  0.65000000000E+04  0.15050000000E+03 0. -1.
</event>
<event>
 4    1  0.4826743E-004  0.6500000E+04  0.7818608E-02  0.7223770E-01
         52   -1    0    0    0    0  0.00000000000E+00  0.00000000000E+00  0.64930732323E+04  0.65000000000E+04  0.30000000000E+03 0. -1.
        -52   -1    0    0    0    0 -0.00000000000E+00 -0.00000000000E+00 -0.64930732323E+04  0.65000000000E+04  0.30000000000E+03 0.  1.
     100001    1    1    2    0    0  0.77973568566E+03  0.17167477132E+04 -0.62186927324E+04  0.65000000000E+04  0.15050000000E+03 0.  1.
     100001    1    1    2    0    0 -0.77973568566E+03 -0.17167477132E+04  0.62186927324E+04  0.65000000000E+04  0.15050000000E+03 0. -1.
</event>
<event>
 4    1  0.4826743E-004  0.6500000E+04  0.7818608E-02  0.7223770E-01
         52   -1    0    0    0    0  0.00000000000E+00  0.00000000000E+00  0.64930732323E+04  0.65000000000E+04  0.30000000000E+03 0. -1.
        -52   -1    0    0    0    0 -0.00000000000E+00 -0.00000000000E+00 -0.64930732323E+04  0.65000000000E+04  0.30000000000E+03 0.  1.
     100001    1    1    2    0    0  0.21177107861E+04 -0.26517397228E+04  0.55417440593E+04  0.65000000000E+04  0.15050000000E+03 0. -1.
     100001    1    1    2    0    0 -0.21177107861E+04  0.26517397228E+04 -0.55417440593E+04  0.65000000000E+04  0.15050000000E+03 0.  1.
</event>
<event>
 4    1  0.4826743E-004  0.6500000E+04  0.7818608E-02  0.7223770E-01
         52   -1    0    0    0    0  0.00000000000E+00  0.00000000000E+00  0.64930732323E+04  0.65000000000E+04  0.30000000000E+03 0.  1.
        -52   -1    0    0    0    0 -0.00000000000E+00 -0.00000000000E+00 -0.64930732323E+04  0.65000000000E+04  0.30000000000E+03 0. -1.
     100001    1    1    2    0    0 -0.23114576388E+04 -0.20087088705E+04 -0.57314572324E+04  0.65000000000E+04  0.15050000000E+03 0. -1.
     100001    1    1    2    0    0  0.23114576388E+04  0.20087088705E+04  0.57314572324E+04  0.65000000000E+04  0.15050000000E+03 0.  1.
</event>
<event>
 4    1  0.4826743E-004  0.6500000E+04  0.7818608E-02  0.7223770E-01
         52   -1    0    0    0    0  0.00000000000E+00  0.00000000000E+00  0.64930732323E+04  0.65000000000E+04  0.30000000000E+03 0.  1.
        -52   -1    0    0    0    0 -0.00000000000E+00 -0.00000000000E+00 -0.64930732323E+04  0.65000000000E+04  0.30000000000E+03 0. -1.
     100001    1    1    2    0    0 -0.41904964475E+04  0.15292979508E+04 -0.47252869809E+04  0.65000000000E+04  0.15050000000E+03 0. -1.
     100001    1    1    2    0    0  0.41904964475E+04 -0.15292979508E+04  0.47252869809E+04  0.65000000000E+04  0.15050000000E+03 0.  1.
</event>
<event>
 4    1  0.4826743E-004  0.6500000E+04  0.7818608E-02  0.7223770E-01
         52   -1    0    0    0    0  0.00000000000E+00  0.00000000000E+00  0.64930732323E+04  0.65000000000E+04  0.30000000000E+03 0.  1.
        -52   -1    0    0    0    0 -0.00000000000E+00 -0.00000000000E+00 -0.64930732323E+04  0.65000000000E+04  0.30000000000E+03 0. -1.
     100001    1    1    2    0    0  0.29351963698E+03 -0.36312364332E+04  0.53810145827E+04  0.65000000000E+04  0.15050000000E+03 0.  1.
     100001    1    1    2    0    0 -0.29351963698E+03  0.36312364332E+04 -0.53810145827E+04  0.65000000000E+04  0.15050000000E+03 0. -1.
</event>
<event>
 4    1  0.4826743E-004  0.6500000E+04  0.7818608E-02  0.7223770E-01
         52   -1    0    0    0    0  0.00000000000E+00  0.00000000000E+00  0.64930732323E+04  0.65000000000E+04  0.30000000000E+03 0.  1.
        -52   -1    0    0    0    0 -0.00000000000E+00 -0.00000000000E+00 -0.64930732323E+04  0.65000000000E+04  0.30000000000E+03 0. -1.
     100001    1    1    2    0    0  0.17598343653E+03 -0.69040328398E+03 -0.64590806533E+04  0.65000000000E+04  0.15050000000E+03 0. -1.
     100001    1    1    2    0    0 -0.17598343653E+03  0.69040328398E+03  0.64590806533E+04  0.65000000000E+04  0.15050000000E+03 0.  1.
</event>
<event>
 4    1  0.4826743E-004  0.6500000E+04  0.7818608E-02  0.7223770E-01
         52   -1    0    0    0    0  0.00000000000E+00  0.00000000000E+00  0.64930732323E+04  0.65000000000E+04  0.30000000000E+03 0.  1.
        -52   -1    0    0    0    0 -0.00000000000E+00 -0.00000000000E+00 -0.64930732323E+04  0.65000000000E+04  0.30000000000E+03 0. -1.
     100001    1    1    2    0    0 -0.60183936738E+03  0.51227972667E+03  0.64500161711E+04  0.65000000000E+04  0.15050000000E+03 0.  1.
     100001    1    1    2    0    0  0.60183936738E+03 -0.51227972667E+03 -0.64500161711E+04  0.65000000000E+04  0.15050000000E+03 0. -1.
</event>
<event>
 4    1  0.4826743E-004  0.6500000E+04  0.7818608E-02  0.7223770E-01
         52   -1    0    0    0    0  0.00000000000E+00  0.00000000000E+00  0.64930732323E+04  0.65000000000E+04  0.30000000000E+03 0. -1.
        -52   -1    0    0    0    0 -0.00000000000E+00 -0.00000000000E+00 -0.64930732323E+04  0.65000000000E+04  0.30000000000E+03 0.  1.
     100001    1    1    2    0    0  0.30263680175E+03 -0.26663225124E+03  0.64857280207E+04  0.65000000000E+04  0.15050000000E+03 0. -1.
     100001    1    1    2    0    0 -0.30263680175E+03  0.26663225124E+03 -0.64857280207E+04  0.65000000000E+04  0.15050000000E+03 0.  1.
</event>
<event>
 4    1  0.4826743E-004  0.6500000E+04  0.7818608E-02  0.7223770E-01
         52   -1    0    0    0    0  0.00000000000E+00  0.00000000000E+00  0.64930732323E+04  0.65000000000E+04  0.30000000000E+03 0.  1.
        -52   -1    0    0    0    0 -0.00000000000E+00 -0.00000000000E+00 -0.64930732323E+04  0.65000000000E+04  0.30000000000E+03 0. -1.
     100001    1    1    2    0    0 -0.27318537119E+03  0.11902682553E+03 -0.64914214251E+04  0.65000000000E+04  0.15050000000E+03 0. -1.
     100001    1    1    2    0    0  0.27318537119E+03 -0.11902682553E+03  0.64914214251E+04  0.65000000000E+04  0.15050000000E+03 0.  1.
</event>
<event>
 4    1  0.4826743E-004  0.6500000E+04  0.7818608E-02  0.7223770E-01
         52   -1    0    0    0    0  0.00000000000E+00  0.00000000000E+00  0.64930732323E+04  0.65000000000E+04  0.30000000000E+03 0. -1.
        -52   -1    0    0    0    0 -0.00000000000E+00 -0.00000000000E+00 -0.64930732323E+04  0.65000000000E+04  0.30000000000E+03 0.  1.
     100001    1    1    2    0    0 -0.16269165503E+04 -0.26693569127E+04 -0.56969312758E+04  0.65000000000E+04  0.15050000000E+03 0.  1.
     100001    1    1    2    0    0  0.16269165503E+04  0.26693569127E+04  0.56969312758E+04  0.65000000000E+04  0.15050000000E+03 0. -1.
</event>
<event>
 4    1  0.4826743E-004  0.6500000E+04  0.7818608E-02  0.7223770E-01
         52   -1    0    0    0    0  0.00000000000E+00  0.00000000000E+00  0.64930732323E+04  0.65000000000E+04  0.30000000000E+03 0.  1.
        -52   -1    0    0    0    0 -0.00000000000E+00 -0.00000000000E+00 -0.64930732323E+04  0.65000000000E+04  0.30000000000E+03 0. -1.
     100001    1    1    2    0    0  0.39307884480E+03 -0.42311097653E+03  0.64725432307E+04  0.65000000000E+04  0.15050000000E+03 0.  1.
     100001    1    1    2    0    0 -0.39307884480E+03  0.42311097653E+03 -0.64725432307E+04  0.65000000000E+04  0.15050000000E+03 0. -1.
</event>
<event>
 4    1  0.4826743E-004  0.6500000E+04  0.7818608E-02  0.7223770E-01
         52   -1    0    0    0    0  0.00000000000E+00  0.00000000000E+00  0.64930732323E+04  0.65000000000E+04  0.30000000000E+03 0. -1.
        -52   -1    0    0    0    0 -0.00000000000E+00 -0.00000000000E+00 -0.64930732323E+04  0.65000000000E+04  0.30000000000E+03 0.  1.
     100001    1    1    2    0    0  0.15673990807E+04 -0.80449096033E+02 -0.63058812084E+04  0.65000000000E+04  0.15050000000E+03 0.  1.
     100001    1    1    2    0    0 -0.15673990807E+04  0.80449096033E+02  0.63058812084E+04  0.65000000000E+04  0.15050000000E+03 0. -1.
</event>
<event>
 4    1  0.4826743E-004  0.6500000E+04  0.7818608E-02  0.7223770E-01
         52   -1    0    0    0    0  0.00000000000E+00  0.00000000000E+00  0.64930732323E+04  0.65000000000E+04  0.30000000000E+03 0. -1.
        -52   -1    0    0    0    0 -0.00000000000E+00 -0.00000000000E+00 -0.64930732323E+04  0.65000000000E+04  0.30000000000E+03 0.  1.
     100001    1    1    2    0    0  0.13838494878E+04  0.25057940369E+04 -0.58338072123E+04  0.65000000000E+04  0.15050000000E+03 0.  1.
     100001    1    1    2    0    0 -0.13838494878E+04 -0.25057940369E+04  0.58338072123E+04  0.65000000000E+04  0.15050000000E+03 0. -1.
</event>
<event>
 4    1  0.4826743E-004  0.6500000E+04  0.7818608E-02  0.7223770E-01
         52   -1    0    0    0    0  0.00000000000E+00  0.00000000000E+00  0.64930732323E+04  0.65000000000E+04  0.30000000000E+03 0. -1.
        -52   -1    0    0    0    0 -0.00000000000E+00 -0.00000000000E+00 -0.64930732323E+04  0.65000000000E+04  0.30000000000E+03 0.  1.
     100001    1    1    2    0    0  0.23334121985E+04 -0.16258118136E+04 -0.58428822690E+04  0.65000000000E+04  0.15050000000E+03 0.  1.
     100001    1    1    2    0    0 -0.23334121985E+04  0.16258118136E+04  0.58428822690E+04  0.65000000000E+04  0.15050000000E+03 0. -1.
</event>
<event>
 4    1  0.4826743E-004  0.6500000E+04  0.7818608E-02  0.7223770E-01
         52   -1    0    0    0    0  0.00000000000E+00  0.00000000000E+00  0.64930732323E+04  0.65000000000E+04  0.30000000000E+03 0. -1.
        -52   -1    0    0    0    0 -0.00000000000E+00 -0.00000000000E+00 -0.64930732323E+04  0.65000000000E+04  0.30000000000E+03 0.  1.
     100001    1    1    2    0    0 -0.75307183869E+02  0.12026727797E+04  0.63855506233E+04  0.65000000000E+04  0.15050000000E+03 0. -1.
     100001    1    1    2    0    0  0.75307183869E+02 -0.12026727797E+04 -0.63855506233E+04  0.65000000000E+04  0.15050000000E+03 0.  1.
</event>
<event>
 4    1  0.4826743E-004  0.6500000E+04  0.7818608E-02  0.7223770E-01
         52   -1    0    0    0    0  0.00000000000E+00  0.00000000000E+00  0.64930732323E+04  0.65000000000E+04  0.30000000000E+03 0.  1.
        -52   -1    0    0    0    0 -0.00000000000E+00 -0.00000000000E+00 -0.64930732323E+04  0.65000000000E+04  0.30000000000E+03 0. -1.
     100001    1    1    2    0    0 -0.45830467589E+04 -0.36161033845E+04 -0.28542649611E+04  0.65000000000E+04  0.15050000000E+03 0. -1.
     100001    1    1    2    0    0  0.45830467589E+04  0.36161033845E+04  0.28542649611E+04  0.65000000000E+04  0.15050000000E+03 0.  1.
</event>
<event>
 4    1  0.4826743E-004  0.6500000E+04  0.7818608E-02  0.7223770E-01
         52   -1    0    0    0    0  0.00000000000E+00  0.00000000000E+00  0.64930732323E+04  0.65000000000E+04  0.30000000000E+03 0.  1.
        -52   -1    0    0    0    0 -0.00000000000E+00 -0.00000000000E+00 -0.64930732323E+04  0.65000000000E+04  0.30000000000E+03 0. -1.
     100001    1    1    2    0    0 -0.53157569729E+04  0.35616395067E+04 -0.11334908821E+04  0.65000000000E+04  0.15050000000E+03 0. -1.
     100001    1    1    2    0    0  0.53157569729E+04 -0.35616395067E+04  0.11334908821E+04  0.65000000000E+04  0.15050000000E+03 0.  1.
</event>
<event>
 4    1  0.4826743E-004  0.6500000E+04  0.7818608E-02  0.7223770E-01
         52   -1    0    0    0    0  0.00000000000E+00  0.00000000000E+00  0.64930732323E+04  0.65000000000E+04  0.30000000000E+03 0. -1.
        -52   -1    0    0    0    0 -0.00000000000E+00 -0.00000000000E+00 -0.64930732323E+04  0.65000000000E+04  0.30000000000E+03 0. -1.
     100001    1    1    2    0    0 -0.35582803601E+03  0.55815901990E+02 -0.64882679310E+04  0.65000000000E+04  0.15050000000E+03 0. -1.
     100001    1    1    2    0    0  0.35582803601E+03 -0.55815901990E+02  0.64882679310E+04  0.65000000000E+04  0.15050000000E+03 0. -1.
</event>
<event>
 4    1  0.4826743E-004  0.6500000E+04  0.7818608E-02  0.7223770E-01
         52   -1    0    0    0    0  0.00000000000E+00  0.00000000000E+00  0.64930732323E+04  0.65000000000E+04  0.30000000000E+03 0.  1.
        -52   -1    0    0    0    0 -0.00000000000E+00 -0.00000000000E+00 -0.64930732323E+04  0.65000000000E+04  0.30000000000E+03 0. -1.
     100001    1    1    2    0    0 -0.56335606849E+03 -0.96141047159E+03 -0.64020051230E+04  0.65000000000E+04  0.15050000000E+03 0. -1.
     100001    1    1    2    0    0  0.56335606849E+03  0.96141047159E+03  0.64020051230E+04  0.65000000000E+04  0.15050000000E+03 0.  1.
</event>
<event>
 4    1  0.4826743E-004  0.6500000E+04  0.7818608E-02  0.7223770E-01
         52   -1    0    0    0    0  0.00000000000E+00  0.00000000000E+00  0.64930732323E+04  0.65000000000E+04  0.30000000000E+03 0. -1.
        -52   -1    0    0    0    0 -0.00000000000E+00 -0.00000000000E+00 -0.64930732323E+04  0.65000000000E+04  0.30000000000E+03 0.  1.
     100001    1    1    2    0    0  0.63060849817E+03  0.14675431825E+04  0.62988887654E+04  0.65000000000E+04  0.15050000000E+03 0. -1.
     100001    1    1    2    0    0 -0.63060849817E+03 -0.14675431825E+04 -0.62988887654E+04  0.65000000000E+04  0.15050000000E+03 0.  1.
</event>
<event>
 4    1  0.4826743E-004  0.6500000E+04  0.7818608E-02  0.7223770E-01
         52   -1    0    0    0    0  0.00000000000E+00  0.00000000000E+00  0.64930732323E+04  0.65000000000E+04  0.30000000000E+03 0. -1.
        -52   -1    0    0    0    0 -0.00000000000E+00 -0.00000000000E+00 -0.64930732323E+04  0.65000000000E+04  0.30000000000E+03 0.  1.
     100001    1    1    2    0    0 -0.14338412835E+03  0.41861045691E+03  0.64831748416E+04  0.65000000000E+04  0.15050000000E+03 0. -1.
     100001    1    1    2    0    0  0.14338412835E+03 -0.41861045691E+03 -0.64831748416E+04  0.65000000000E+04  0.15050000000E+03 0.  1.
</event>
<event>
 4    1  0.4826743E-004  0.6500000E+04  0.7818608E-02  0.7223770E-01
         52   -1    0    0    0    0  0.00000000000E+00  0.00000000000E+00  0.64930732323E+04  0.65000000000E+04  0.30000000000E+03 0. -1.
        -52   -1    0    0    0    0 -0.00000000000E+00 -0.00000000000E+00 -0.64930732323E+04  0.65000000000E+04  0.30000000000E+03 0.  1.
     100001    1    1    2    0    0 -0.55576524267E+04  0.12545734612E+04  0.31250431492E+04  0.65000000000E+04  0.15050000000E+03 0. -1.
     100001    1    1    2    0    0  0.55576524267E+04 -0.12545734612E+04 -0.31250431492E+04  0.65000000000E+04  0.15050000000E+03 0.  1.
</event>
<event>
 4    1  0.4826743E-004  0.6500000E+04  0.7818608E-02  0.7223770E-01
         52   -1    0    0    0    0  0.00000000000E+00  0.00000000000E+00  0.64930732323E+04  0.65000000000E+04  0.30000000000E+03 0. -1.
        -52   -1    0    0    0    0 -0.00000000000E+00 -0.00000000000E+00 -0.64930732323E+04  0.65000000000E+04  0.30000000000E+03 0.  1.
     100001    1    1    2    0    0  0.19465592390E+03  0.60348987626E+03 -0.64672450696E+04  0.65000000000E+04  0.15050000000E+03 0.  1.
     100001    1    1    2    0    0 -0.19465592390E+03 -0.60348987626E+03  0.64672450696E+04  0.65000000000E+04  0.15050000000E+03 0. -1.
</event>
<event>
 4    1  0.4826743E-004  0.6500000E+04  0.7818608E-02  0.7223770E-01
         52   -1    0    0    0    0  0.00000000000E+00  0.00000000000E+00  0.64930732323E+04  0.65000000000E+04  0.30000000000E+03 0.  1.
        -52   -1    0    0    0    0 -0.00000000000E+00 -0.00000000000E+00 -0.64930732323E+04  0.65000000000E+04  0.30000000000E+03 0.  1.
     100001    1    1    2    0    0 -0.22740771048E+03  0.20491528727E+03 -0.64910434607E+04  0.65000000000E+04  0.15050000000E+03 0.  1.
     100001    1    1    2    0    0  0.22740771048E+03 -0.20491528727E+03  0.64910434607E+04  0.65000000000E+04  0.15050000000E+03 0.  1.
</event>
<event>
 4    1  0.4826743E-004  0.6500000E+04  0.7818608E-02  0.7223770E-01
         52   -1    0    0    0    0  0.00000000000E+00  0.00000000000E+00  0.64930732323E+04  0.65000000000E+04  0.30000000000E+03 0. -1.
        -52   -1    0    0    0    0 -0.00000000000E+00 -0.00000000000E+00 -0.64930732323E+04  0.65000000000E+04  0.30000000000E+03 0.  1.
     100001    1    1    2    0    0  0.16000843798E+04  0.23348432827E+04  0.58494090790E+04  0.65000000000E+04  0.15050000000E+03 0. -1.
     100001    1    1    2    0    0 -0.16000843798E+04 -0.23348432827E+04 -0.58494090790E+04  0.65000000000E+04  0.15050000000E+03 0.  1.
</event>
<event>
 4    1  0.4826743E-004  0.6500000E+04  0.7818608E-02  0.7223770E-01
         52   -1    0    0    0    0  0.00000000000E+00  0.00000000000E+00  0.64930732323E+04  0.65000000000E+04  0.30000000000E+03 0. -1.
        -52   -1    0    0    0    0 -0.00000000000E+00 -0.00000000000E+00 -0.64930732323E+04  0.65000000000E+04  0.30000000000E+03 0.  1.
     100001    1    1    2    0    0  0.66401134324E+03  0.74706789960E+03 -0.64209289234E+04  0.65000000000E+04  0.15050000000E+03 0.  1.
     100001    1    1    2    0    0 -0.66401134324E+03 -0.74706789960E+03  0.64209289234E+04  0.65000000000E+04  0.15050000000E+03 0. -1.
</event>
<event>
 4    1  0.4826743E-004  0.6500000E+04  0.7818608E-02  0.7223770E-01
         52   -1    0    0    0    0  0.00000000000E+00  0.00000000000E+00  0.64930732323E+04  0.65000000000E+04  0.30000000000E+03 0.  1.
        -52   -1    0    0    0    0 -0.00000000000E+00 -0.00000000000E+00 -0.64930732323E+04  0.65000000000E+04  0.30000000000E+03 0. -1.
     100001    1    1    2    0    0 -0.68116662487E+02  0.32532396846E+03  0.64897514733E+04  0.65000000000E+04  0.15050000000E+03 0.  1.
     100001    1    1    2    0    0  0.68116662487E+02 -0.32532396846E+03 -0.64897514733E+04  0.65000000000E+04  0.15050000000E+03 0. -1.
</event>
<event>
 4    1  0.4826743E-004  0.6500000E+04  0.7818608E-02  0.7223770E-01
         52   -1    0    0    0    0  0.00000000000E+00  0.00000000000E+00  0.64930732323E+04  0.65000000000E+04  0.30000000000E+03 0. -1.
        -52   -1    0    0    0    0 -0.00000000000E+00 -0.00000000000E+00 -0.64930732323E+04  0.65000000000E+04  0.30000000000E+03 0. -1.
     100001    1    1    2    0    0  0.20329862337E+03 -0.76405031143E+03  0.64499803520E+04  0.65000000000E+04  0.15050000000E+03 0. -1.
     100001    1    1    2    0    0 -0.20329862337E+03  0.76405031143E+03 -0.64499803520E+04  0.65000000000E+04  0.15050000000E+03 0. -1.
</event>
<event>
 4    1  0.4826743E-004  0.6500000E+04  0.7818608E-02  0.7223770E-01
         52   -1    0    0    0    0  0.00000000000E+00  0.00000000000E+00  0.64930732323E+04  0.65000000000E+04  0.30000000000E+03 0. -1.
        -52   -1    0    0    0    0 -0.00000000000E+00 -0.00000000000E+00 -0.64930732323E+04  0.65000000000E+04  0.30000000000E+03 0. -1.
     100001    1    1    2    0    0  0.82655804459E+01 -0.11375830876E+03  0.64972563808E+04  0.65000000000E+04  0.15050000000E+03 0. -1.
     100001    1    1    2    0    0 -0.82655804459E+01  0.11375830876E+03 -0.64972563808E+04  0.65000000000E+04  0.15050000000E+03 0. -1.
</event>
<event>
 4    1  0.4826743E-004  0.6500000E+04  0.7818608E-02  0.7223770E-01
         52   -1    0    0    0    0  0.00000000000E+00  0.00000000000E+00  0.64930732323E+04  0.65000000000E+04  0.30000000000E+03 0. -1.
        -52   -1    0    0    0    0 -0.00000000000E+00 -0.00000000000E+00 -0.64930732323E+04  0.65000000000E+04  0.30000000000E+03 0.  1.
     100001    1    1    2    0    0  0.91481919717E+03  0.91711427671E+02 -0.64328877342E+04  0.65000000000E+04  0.15050000000E+03 0.  1.
     100001    1    1    2    0    0 -0.91481919717E+03 -0.91711427671E+02  0.64328877342E+04  0.65000000000E+04  0.15050000000E+03 0. -1.
</event>
<event>
 4    1  0.4826743E-004  0.6500000E+04  0.7818608E-02  0.7223770E-01
         52   -1    0    0    0    0  0.00000000000E+00  0.00000000000E+00  0.64930732323E+04  0.65000000000E+04  0.30000000000E+03 0.  1.
        -52   -1    0    0    0    0 -0.00000000000E+00 -0.00000000000E+00 -0.64930732323E+04  0.65000000000E+04  0.30000000000E+03 0. -1.
     100001    1    1    2    0    0 -0.71764140129E+03  0.49531193512E+04 -0.41447496018E+04  0.65000000000E+04  0.15050000000E+03 0. -1.
     100001    1    1    2    0    0  0.71764140129E+03 -0.49531193512E+04  0.41447496018E+04  0.65000000000E+04  0.15050000000E+03 0.  1.
</event>
<event>
 4    1  0.4826743E-004  0.6500000E+04  0.7818608E-02  0.7223770E-01
         52   -1    0    0    0    0  0.00000000000E+00  0.00000000000E+00  0.64930732323E+04  0.65000000000E+04  0.30000000000E+03 0. -1.
        -52   -1    0    0    0    0 -0.00000000000E+00 -0.00000000000E+00 -0.64930732323E+04  0.65000000000E+04  0.30000000000E+03 0.  1.
     100001    1    1    2    0    0  0.13041384439E+04 -0.26681053581E+04  0.57799469260E+04  0.65000000000E+04  0.15050000000E+03 0. -1.
     100001    1    1    2    0    0 -0.13041384439E+04  0.26681053581E+04 -0.57799469260E+04  0.65000000000E+04  0.15050000000E+03 0.  1.
</event>
<event>
 4    1  0.4826743E-004  0.6500000E+04  0.7818608E-02  0.7223770E-01
         52   -1    0    0    0    0  0.00000000000E+00  0.00000000000E+00  0.64930732323E+04  0.65000000000E+04  0.30000000000E+03 0.  1.
        -52   -1    0    0    0    0 -0.00000000000E+00 -0.00000000000E+00 -0.64930732323E+04  0.65000000000E+04  0.30000000000E+03 0. -1.
     100001    1    1    2    0    0  0.44193065608E+03 -0.19326757528E+03 -0.64803313719E+04  0.65000000000E+04  0.15050000000E+03 0. -1.
     100001    1    1    2    0    0 -0.44193065608E+03  0.19326757528E+03  0.64803313719E+04  0.65000000000E+04  0.15050000000E+03 0.  1.
</event>
<event>
 4    1  0.4826743E-004  0.6500000E+04  0.7818608E-02  0.7223770E-01
         52   -1    0    0    0    0  0.00000000000E+00  0.00000000000E+00  0.64930732323E+04  0.65000000000E+04  0.30000000000E+03 0. -1.
        -52   -1    0    0    0    0 -0.00000000000E+00 -0.00000000000E+00 -0.64930732323E+04  0.65000000000E+04  0.30000000000E+03 0.  1.
     100001    1    1    2    0    0 -0.15890302803E+04 -0.39698014236E+04 -0.48931594267E+04  0.65000000000E+04  0.15050000000E+03 0.  1.
     100001    1    1    2    0    0  0.15890302803E+04  0.39698014236E+04  0.48931594267E+04  0.65000000000E+04  0.15050000000E+03 0. -1.
</event>
<event>
 4    1  0.4826743E-004  0.6500000E+04  0.7818608E-02  0.7223770E-01
         52   -1    0    0    0    0  0.00000000000E+00  0.00000000000E+00  0.64930732323E+04  0.65000000000E+04  0.30000000000E+03 0. -1.
        -52   -1    0    0    0    0 -0.00000000000E+00 -0.00000000000E+00 -0.64930732323E+04  0.65000000000E+04  0.30000000000E+03 0.  1.
     100001    1    1    2    0    0  0.21652378591E+04 -0.57932653953E+03 -0.60994651835E+04  0.65000000000E+04  0.15050000000E+03 0.  1.
     100001    1    1    2    0    0 -0.21652378591E+04  0.57932653953E+03  0.60994651835E+04  0.65000000000E+04  0.15050000000E+03 0. -1.
</event>
<event>
 4    1  0.4826743E-004  0.6500000E+04  0.7818608E-02  0.7223770E-01
         52   -1    0    0    0    0  0.00000000000E+00  0.00000000000E+00  0.64930732323E+04  0.65000000000E+04  0.30000000000E+03 0.  1.
        -52   -1    0    0    0    0 -0.00000000000E+00 -0.00000000000E+00 -0.64930732323E+04  0.65000000000E+04  0.30000000000E+03 0. -1.
     100001    1    1    2    0    0 -0.19218212653E+04  0.15268028957E+04  0.60168784009E+04  0.65000000000E+04  0.15050000000E+03 0.  1.
     100001    1    1    2    0    0  0.19218212653E+04 -0.15268028957E+04 -0.60168784009E+04  0.65000000000E+04  0.15050000000E+03 0. -1.
</event>
<event>
 4    1  0.5713534E-004  0.6500000E+04  0.7818608E-02  0.7223770E-01
         52   -1    0    0    0    0  0.00000000000E+00  0.00000000000E+00  0.64930732323E+04  0.65000000000E+04  0.30000000000E+03 0.  1.
        -52   -1    0    0    0    0 -0.00000000000E+00 -0.00000000000E+00 -0.64930732323E+04  0.65000000000E+04  0.30000000000E+03 0. -1.
     100001    1    1    2    0    0 -0.24277456034E+03 -0.11739487899E+02  0.64937102220E+04  0.65000000000E+04  0.15050000000E+03 0.  1.
     100001    1    1    2    0    0  0.24277456034E+03  0.11739487899E+02 -0.64937102220E+04  0.65000000000E+04  0.15050000000E+03 0. -1.
</event>
<event>
 4    1  0.4826743E-004  0.6500000E+04  0.7818608E-02  0.7223770E-01
         52   -1    0    0    0    0  0.00000000000E+00  0.00000000000E+00  0.64930732323E+04  0.65000000000E+04  0.30000000000E+03 0. -1.
        -52   -1    0    0    0    0 -0.00000000000E+00 -0.00000000000E+00 -0.64930732323E+04  0.65000000000E+04  0.30000000000E+03 0.  1.
     100001    1    1    2    0    0  0.54814302728E+03 -0.48695996705E+04  0.42677731922E+04  0.65000000000E+04  0.15050000000E+03 0. -1.
     100001    1    1    2    0    0 -0.54814302728E+03  0.48695996705E+04 -0.42677731922E+04  0.65000000000E+04  0.15050000000E+03 0.  1.
</event>
<event>
 4    1  0.4826743E-004  0.6500000E+04  0.7818608E-02  0.7223770E-01
         52   -1    0    0    0    0  0.00000000000E+00  0.00000000000E+00  0.64930732323E+04  0.65000000000E+04  0.30000000000E+03 0. -1.
        -52   -1    0    0    0    0 -0.00000000000E+00 -0.00000000000E+00 -0.64930732323E+04  0.65000000000E+04  0.30000000000E+03 0.  1.
     100001    1    1    2    0    0 -0.50743571748E+04  0.35595741740E+04  0.19513279355E+04  0.65000000000E+04  0.15050000000E+03 0. -1.
     100001    1    1    2    0    0  0.50743571748E+04 -0.35595741740E+04 -0.19513279355E+04  0.65000000000E+04  0.15050000000E+03 0.  1.
</event>
<event>
 4    1  0.4826743E-004  0.6500000E+04  0.7818608E-02  0.7223770E-01
         52   -1    0    0    0    0  0.00000000000E+00  0.00000000000E+00  0.64930732323E+04  0.65000000000E+04  0.30000000000E+03 0.  1.
        -52   -1    0    0    0    0 -0.00000000000E+00 -0.00000000000E+00 -0.64930732323E+04  0.65000000000E+04  0.30000000000E+03 0. -1.
     100001    1    1    2    0    0  0.62308049138E+03 -0.85174106837E+03 -0.64119932629E+04  0.65000000000E+04  0.15050000000E+03 0. -1.
     100001    1    1    2    0    0 -0.62308049138E+03  0.85174106837E+03  0.64119932629E+04  0.65000000000E+04  0.15050000000E+03 0.  1.
</event>
<event>
 4    1  0.4826743E-004  0.6500000E+04  0.7818608E-02  0.7223770E-01
         52   -1    0    0    0    0  0.00000000000E+00  0.00000000000E+00  0.64930732323E+04  0.65000000000E+04  0.30000000000E+03 0. -1.
        -52   -1    0    0    0    0 -0.00000000000E+00 -0.00000000000E+00 -0.64930732323E+04  0.65000000000E+04  0.30000000000E+03 0.  1.
     100001    1    1    2    0    0  0.10180993297E+04  0.44583556129E+03  0.64025037413E+04  0.65000000000E+04  0.15050000000E+03 0. -1.
     100001    1    1    2    0    0 -0.10180993297E+04 -0.44583556129E+03 -0.64025037413E+04  0.65000000000E+04  0.15050000000E+03 0.  1.
</event>
<event>
 4    1  0.4826743E-004  0.6500000E+04  0.7818608E-02  0.7223770E-01
         52   -1    0    0    0    0  0.00000000000E+00  0.00000000000E+00  0.64930732323E+04  0.65000000000E+04  0.30000000000E+03 0. -1.
        -52   -1    0    0    0    0 -0.00000000000E+00 -0.00000000000E+00 -0.64930732323E+04  0.65000000000E+04  0.30000000000E+03 0.  1.
     100001    1    1    2    0    0 -0.26429973909E+03  0.61817713672E+03 -0.64633855235E+04  0.65000000000E+04  0.15050000000E+03 0.  1.
     100001    1    1    2    0    0  0.26429973909E+03 -0.61817713672E+03  0.64633855235E+04  0.65000000000E+04  0.15050000000E+03 0. -1.
</event>
<event>
 4    1  0.4826743E-004  0.6500000E+04  0.7818608E-02  0.7223770E-01
         52   -1    0    0    0    0  0.00000000000E+00  0.00000000000E+00  0.64930732323E+04  0.65000000000E+04  0.30000000000E+03 0.  1.
        -52   -1    0    0    0    0 -0.00000000000E+00 -0.00000000000E+00 -0.64930732323E+04  0.65000000000E+04  0.30000000000E+03 0. -1.
     100001    1    1    2    0    0  0.34340957613E+04  0.16847611876E+04 -0.52531814925E+04  0.65000000000E+04  0.15050000000E+03 0. -1.
     100001    1    1    2    0    0 -0.34340957613E+04 -0.16847611876E+04  0.52531814925E+04  0.65000000000E+04  0.15050000000E+03 0.  1.
</event>
<event>
 4    1  0.4826743E-004  0.6500000E+04  0.7818608E-02  0.7223770E-01
         52   -1    0    0    0    0  0.00000000000E+00  0.00000000000E+00  0.64930732323E+04  0.65000000000E+04  0.30000000000E+03 0.  1.
        -52   -1    0    0    0    0 -0.00000000000E+00 -0.00000000000E+00 -0.64930732323E+04  0.65000000000E+04  0.30000000000E+03 0. -1.
     100001    1    1    2    0    0 -0.45806582737E+04  0.33825246335E+04  0.31310456134E+04  0.65000000000E+04  0.15050000000E+03 0.  1.
     100001    1    1    2    0    0  0.45806582737E+04 -0.33825246335E+04 -0.31310456134E+04  0.65000000000E+04  0.15050000000E+03 0. -1.
</event>
<event>
 4    1  0.4826743E-004  0.6500000E+04  0.7818608E-02  0.7223770E-01
         52   -1    0    0    0    0  0.00000000000E+00  0.00000000000E+00  0.64930732323E+04  0.65000000000E+04  0.30000000000E+03 0.  1.
        -52   -1    0    0    0    0 -0.00000000000E+00 -0.00000000000E+00 -0.64930732323E+04  0.65000000000E+04  0.30000000000E+03 0. -1.
     100001    1    1    2    0    0  0.22664431905E+04 -0.59866817799E+03  0.60607079972E+04  0.65000000000E+04  0.15050000000E+03 0.  1.
     100001    1    1    2    0    0 -0.22664431905E+04  0.59866817799E+03 -0.60607079972E+04  0.65000000000E+04  0.15050000000E+03 0. -1.
</event>
<event>
 4    1  0.4826743E-004  0.6500000E+04  0.7818608E-02  0.7223770E-01
         52   -1    0    0    0    0  0.00000000000E+00  0.00000000000E+00  0.64930732323E+04  0.65000000000E+04  0.30000000000E+03 0. -1.
        -52   -1    0    0    0    0 -0.00000000000E+00 -0.00000000000E+00 -0.64930732323E+04  0.65000000000E+04  0.30000000000E+03 0.  1.
     100001    1    1    2    0    0  0.16130411950E+03 -0.87798415145E+03 -0.64366508808E+04  0.65000000000E+04  0.15050000000E+03 0.  1.
     100001    1    1    2    0    0 -0.16130411950E+03  0.87798415145E+03  0.64366508808E+04  0.65000000000E+04  0.15050000000E+03 0. -1.
</event>
<event>
 4    1  0.4826743E-004  0.6500000E+04  0.7818608E-02  0.7223770E-01
         52   -1    0    0    0    0  0.00000000000E+00  0.00000000000E+00  0.64930732323E+04  0.65000000000E+04  0.30000000000E+03 0.  1.
        -52   -1    0    0    0    0 -0.00000000000E+00 -0.00000000000E+00 -0.64930732323E+04  0.65000000000E+04  0.30000000000E+03 0. -1.
     100001    1    1    2    0    0  0.54243827781E+04 -0.20054855477E+03  0.35725623163E+04  0.65000000000E+04  0.15050000000E+03 0.  1.
     100001    1    1    2    0    0 -0.54243827781E+04  0.20054855477E+03 -0.35725623163E+04  0.65000000000E+04  0.15050000000E+03 0. -1.
</event>
<event>
 4    1  0.4826743E-004  0.6500000E+04  0.7818608E-02  0.7223770E-01
         52   -1    0    0    0    0  0.00000000000E+00  0.00000000000E+00  0.64930732323E+04  0.65000000000E+04  0.30000000000E+03 0. -1.
        -52   -1    0    0    0    0 -0.00000000000E+00 -0.00000000000E+00 -0.64930732323E+04  0.65000000000E+04  0.30000000000E+03 0.  1.
     100001    1    1    2    0    0 -0.53379837324E+03 -0.12939068970E+01  0.64762958064E+04  0.65000000000E+04  0.15050000000E+03 0. -1.
     100001    1    1    2    0    0  0.53379837324E+03  0.12939068970E+01 -0.64762958064E+04  0.65000000000E+04  0.15050000000E+03 0.  1.
</event>
<event>
 4    1  0.5424244E-004  0.6500000E+04  0.7818608E-02  0.7223770E-01
         52   -1    0    0    0    0  0.00000000000E+00  0.00000000000E+00  0.64930732323E+04  0.65000000000E+04  0.30000000000E+03 0. -1.
        -52   -1    0    0    0    0 -0.00000000000E+00 -0.00000000000E+00 -0.64930732323E+04  0.65000000000E+04  0.30000000000E+03 0. -1.
     100001    1    1    2    0    0  0.17545453719E+03  0.13816156237E+03 -0.64944188992E+04  0.65000000000E+04  0.15050000000E+03 0. -1.
     100001    1    1    2    0    0 -0.17545453719E+03 -0.13816156237E+03  0.64944188992E+04  0.65000000000E+04  0.15050000000E+03 0. -1.
</event>
<event>
 4    1  0.4826743E-004  0.6500000E+04  0.7818608E-02  0.7223770E-01
         52   -1    0    0    0    0  0.00000000000E+00  0.00000000000E+00  0.64930732323E+04  0.65000000000E+04  0.30000000000E+03 0.  1.
        -52   -1    0    0    0    0 -0.00000000000E+00 -0.00000000000E+00 -0.64930732323E+04  0.65000000000E+04  0.30000000000E+03 0.  1.
     100001    1    1    2    0    0 -0.15087315811E+04  0.54342393304E+03  0.62972826834E+04  0.65000000000E+04  0.15050000000E+03 0.  1.
     100001    1    1    2    0    0  0.15087315811E+04 -0.54342393304E+03 -0.62972826834E+04  0.65000000000E+04  0.15050000000E+03 0.  1.
</event>
<event>
 4    1  0.4826743E-004  0.6500000E+04  0.7818608E-02  0.7223770E-01
         52   -1    0    0    0    0  0.00000000000E+00  0.00000000000E+00  0.64930732323E+04  0.65000000000E+04  0.30000000000E+03 0.  1.
        -52   -1    0    0    0    0 -0.00000000000E+00 -0.00000000000E+00 -0.64930732323E+04  0.65000000000E+04  0.30000000000E+03 0. -1.
     100001    1    1    2    0    0 -0.13800983443E+03  0.20295590047E+04  0.61716442932E+04  0.65000000000E+04  0.15050000000E+03 0.  1.
     100001    1    1    2    0    0  0.13800983443E+03 -0.20295590047E+04 -0.61716442932E+04  0.65000000000E+04  0.15050000000E+03 0. -1.
</event>
<event>
 4    1  0.4826743E-004  0.6500000E+04  0.7818608E-02  0.7223770E-01
         52   -1    0    0    0    0  0.00000000000E+00  0.00000000000E+00  0.64930732323E+04  0.65000000000E+04  0.30000000000E+03 0. -1.
        -52   -1    0    0    0    0 -0.00000000000E+00 -0.00000000000E+00 -0.64930732323E+04  0.65000000000E+04  0.30000000000E+03 0.  1.
     100001    1    1    2    0    0  0.69450203359E+03 -0.13040071339E+04 -0.63280788609E+04  0.65000000000E+04  0.15050000000E+03 0.  1.
     100001    1    1    2    0    0 -0.69450203359E+03  0.13040071339E+04  0.63280788609E+04  0.65000000000E+04  0.15050000000E+03 0. -1.
</event>
<event>
 4    1  0.4826743E-004  0.6500000E+04  0.7818608E-02  0.7223770E-01
         52   -1    0    0    0    0  0.00000000000E+00  0.00000000000E+00  0.64930732323E+04  0.65000000000E+04  0.30000000000E+03 0. -1.
        -52   -1    0    0    0    0 -0.00000000000E+00 -0.00000000000E+00 -0.64930732323E+04  0.65000000000E+04  0.30000000000E+03 0.  1.
     100001    1    1    2    0    0  0.16454086356E+03 -0.35094715629E+03 -0.64866873015E+04  0.65000000000E+04  0.15050000000E+03 0.  1.
     100001    1    1    2    0    0 -0.16454086356E+03  0.35094715629E+03  0.64866873015E+04  0.65000000000E+04  0.15050000000E+03 0. -1.
</event>
<event>
 4    1  0.4826743E-004  0.6500000E+04  0.7818608E-02  0.7223770E-01
         52   -1    0    0    0    0  0.00000000000E+00  0.00000000000E+00  0.64930732323E+04  0.65000000000E+04  0.30000000000E+03 0.  1.
        -52   -1    0    0    0    0 -0.00000000000E+00 -0.00000000000E+00 -0.64930732323E+04  0.65000000000E+04  0.30000000000E+03 0. -1.
     100001    1    1    2    0    0  0.32644832511E+03  0.10072641988E+03 -0.64892707933E+04  0.65000000000E+04  0.15050000000E+03 0. -1.
     100001    1    1    2    0    0 -0.32644832511E+03 -0.10072641988E+03  0.64892707933E+04  0.65000000000E+04  0.15050000000E+03 0.  1.
</event>
<event>
 4    1  0.4826743E-004  0.6500000E+04  0.7818608E-02  0.7223770E-01
         52   -1    0    0    0    0  0.00000000000E+00  0.00000000000E+00  0.64930732323E+04  0.65000000000E+04  0.30000000000E+03 0.  1.
        -52   -1    0    0    0    0 -0.00000000000E+00 -0.00000000000E+00 -0.64930732323E+04  0.65000000000E+04  0.30000000000E+03 0. -1.
     100001    1    1    2    0    0 -0.42271260266E+04  0.35020338429E+03 -0.49230186771E+04  0.65000000000E+04  0.15050000000E+03 0. -1.
     100001    1    1    2    0    0  0.42271260266E+04 -0.35020338429E+03  0.49230186771E+04  0.65000000000E+04  0.15050000000E+03 0.  1.
</event>
<event>
 4    1  0.4826743E-004  0.6500000E+04  0.7818608E-02  0.7223770E-01
         52   -1    0    0    0    0  0.00000000000E+00  0.00000000000E+00  0.64930732323E+04  0.65000000000E+04  0.30000000000E+03 0. -1.
        -52   -1    0    0    0    0 -0.00000000000E+00 -0.00000000000E+00 -0.64930732323E+04  0.65000000000E+04  0.30000000000E+03 0.  1.
     100001    1    1    2    0    0  0.19504068161E+03 -0.76737600895E+03  0.64498405363E+04  0.65000000000E+04  0.15050000000E+03 0. -1.
     100001    1    1    2    0    0 -0.19504068161E+03  0.76737600895E+03 -0.64498405363E+04  0.65000000000E+04  0.15050000000E+03 0.  1.
</event>
<event>
 4    1  0.4826743E-004  0.6500000E+04  0.7818608E-02  0.7223770E-01
         52   -1    0    0    0    0  0.00000000000E+00  0.00000000000E+00  0.64930732323E+04  0.65000000000E+04  0.30000000000E+03 0. -1.
        -52   -1    0    0    0    0 -0.00000000000E+00 -0.00000000000E+00 -0.64930732323E+04  0.65000000000E+04  0.30000000000E+03 0.  1.
     100001    1    1    2    0    0  0.21745599011E+03  0.13986586055E+04  0.63422249052E+04  0.65000000000E+04  0.15050000000E+03 0. -1.
     100001    1    1    2    0    0 -0.21745599011E+03 -0.13986586055E+04 -0.63422249052E+04  0.65000000000E+04  0.15050000000E+03 0.  1.
</event>
<event>
 4    1  0.4826743E-004  0.6500000E+04  0.7818608E-02  0.7223770E-01
         52   -1    0    0    0    0  0.00000000000E+00  0.00000000000E+00  0.64930732323E+04  0.65000000000E+04  0.30000000000E+03 0.  1.
        -52   -1    0    0    0    0 -0.00000000000E+00 -0.00000000000E+00 -0.64930732323E+04  0.65000000000E+04  0.30000000000E+03 0. -1.
     100001    1    1    2    0    0  0.43847273750E+04 -0.27713874846E+04 -0.39141955760E+04  0.65000000000E+04  0.15050000000E+03 0. -1.
     100001    1    1    2    0    0 -0.43847273750E+04  0.27713874846E+04  0.39141955760E+04  0.65000000000E+04  0.15050000000E+03 0.  1.
</event>
<event>
 4    1  0.4826743E-004  0.6500000E+04  0.7818608E-02  0.7223770E-01
         52   -1    0    0    0    0  0.00000000000E+00  0.00000000000E+00  0.64930732323E+04  0.65000000000E+04  0.30000000000E+03 0. -1.
        -52   -1    0    0    0    0 -0.00000000000E+00 -0.00000000000E+00 -0.64930732323E+04  0.65000000000E+04  0.30000000000E+03 0. -1.
     100001    1    1    2    0    0  0.10685285680E+03  0.78550973920E+02 -0.64969040290E+04  0.65000000000E+04  0.15050000000E+03 0. -1.
     100001    1    1    2    0    0 -0.10685285680E+03 -0.78550973920E+02  0.64969040290E+04  0.65000000000E+04  0.15050000000E+03 0. -1.
</event>
<event>
 4    1  0.4826743E-004  0.6500000E+04  0.7818608E-02  0.7223770E-01
         52   -1    0    0    0    0  0.00000000000E+00  0.00000000000E+00  0.64930732323E+04  0.65000000000E+04  0.30000000000E+03 0. -1.
        -52   -1    0    0    0    0 -0.00000000000E+00 -0.00000000000E+00 -0.64930732323E+04  0.65000000000E+04  0.30000000000E+03 0.  1.
     100001    1    1    2    0    0 -0.14827325903E+04  0.10499935780E+04  0.62390998791E+04  0.65000000000E+04  0.15050000000E+03 0. -1.
     100001    1    1    2    0    0  0.14827325903E+04 -0.10499935780E+04 -0.62390998791E+04  0.65000000000E+04  0.15050000000E+03 0.  1.
</event>
<event>
 4    1  0.4826743E-004  0.6500000E+04  0.7818608E-02  0.7223770E-01
         52   -1    0    0    0    0  0.00000000000E+00  0.00000000000E+00  0.64930732323E+04  0.65000000000E+04  0.30000000000E+03 0.  1.
        -52   -1    0    0    0    0 -0.00000000000E+00 -0.00000000000E+00 -0.64930732323E+04  0.65000000000E+04  0.30000000000E+03 0. -1.
     100001    1    1    2    0    0 -0.41323959185E+04 -0.10385371721E+04  0.49063320581E+04  0.65000000000E+04  0.15050000000E+03 0.  1.
     100001    1    1    2    0    0  0.41323959185E+04  0.10385371721E+04 -0.49063320581E+04  0.65000000000E+04  0.15050000000E+03 0. -1.
</event>
<event>
 4    1  0.4826743E-004  0.6500000E+04  0.7818608E-02  0.7223770E-01
         52   -1    0    0    0    0  0.00000000000E+00  0.00000000000E+00  0.64930732323E+04  0.65000000000E+04  0.30000000000E+03 0.  1.
        -52   -1    0    0    0    0 -0.00000000000E+00 -0.00000000000E+00 -0.64930732323E+04  0.65000000000E+04  0.30000000000E+03 0.  1.
     100001    1    1    2    0    0 -0.19345757115E+02  0.79757442341E+02  0.64977391639E+04  0.65000000000E+04  0.15050000000E+03 0.  1.
     100001    1    1    2    0    0  0.19345757115E+02 -0.79757442341E+02 -0.64977391639E+04  0.65000000000E+04  0.15050000000E+03 0.  1.
</event>
<event>
 4    1  0.4826743E-004  0.6500000E+04  0.7818608E-02  0.7223770E-01
         52   -1    0    0    0    0  0.00000000000E+00  0.00000000000E+00  0.64930732323E+04  0.65000000000E+04  0.30000000000E+03 0.  1.
        -52   -1    0    0    0    0 -0.00000000000E+00 -0.00000000000E+00 -0.64930732323E+04  0.65000000000E+04  0.30000000000E+03 0. -1.
     100001    1    1    2    0    0  0.19110011911E+03 -0.15011786687E+04 -0.63195959601E+04  0.65000000000E+04  0.15050000000E+03 0. -1.
     100001    1    1    2    0    0 -0.19110011911E+03  0.15011786687E+04  0.63195959601E+04  0.65000000000E+04  0.15050000000E+03 0.  1.
</event>
<event>
 4    1  0.4826743E-004  0.6500000E+04  0.7818608E-02  0.7223770E-01
         52   -1    0    0    0    0  0.00000000000E+00  0.00000000000E+00  0.64930732323E+04  0.65000000000E+04  0.30000000000E+03 0.  1.
        -52   -1    0    0    0    0 -0.00000000000E+00 -0.00000000000E+00 -0.64930732323E+04  0.65000000000E+04  0.30000000000E+03 0. -1.
     100001    1    1    2    0    0  0.25564629051E+04 -0.14745223750E+04 -0.57894413314E+04  0.65000000000E+04  0.15050000000E+03 0. -1.
     100001    1    1    2    0    0 -0.25564629051E+04  0.14745223750E+04  0.57894413314E+04  0.65000000000E+04  0.15050000000E+03 0.  1.
</event>
<event>
 4    1  0.4826743E-004  0.6500000E+04  0.7818608E-02  0.7223770E-01
         52   -1    0    0    0    0  0.00000000000E+00  0.00000000000E+00  0.64930732323E+04  0.65000000000E+04  0.30000000000E+03 0. -1.
        -52   -1    0    0    0    0 -0.00000000000E+00 -0.00000000000E+00 -0.64930732323E+04  0.65000000000E+04  0.30000000000E+03 0.  1.
     100001    1    1    2    0    0  0.57836327772E+03  0.15897992702E+04  0.62741839270E+04  0.65000000000E+04  0.15050000000E+03 0. -1.
     100001    1    1    2    0    0 -0.57836327772E+03 -0.15897992702E+04 -0.62741839270E+04  0.65000000000E+04  0.15050000000E+03 0.  1.
</event>
<event>
 4    1  0.4826743E-004  0.6500000E+04  0.7818608E-02  0.7223770E-01
         52   -1    0    0    0    0  0.00000000000E+00  0.00000000000E+00  0.64930732323E+04  0.65000000000E+04  0.30000000000E+03 0.  1.
        -52   -1    0    0    0    0 -0.00000000000E+00 -0.00000000000E+00 -0.64930732323E+04  0.65000000000E+04  0.30000000000E+03 0. -1.
     100001    1    1    2    0    0 -0.16264856233E+03  0.42624985757E+04  0.49022444948E+04  0.65000000000E+04  0.15050000000E+03 0.  1.
     100001    1    1    2    0    0  0.16264856233E+03 -0.42624985757E+04 -0.49022444948E+04  0.65000000000E+04  0.15050000000E+03 0. -1.
</event>
<event>
 4    1  0.4826743E-004  0.6500000E+04  0.7818608E-02  0.7223770E-01
         52   -1    0    0    0    0  0.00000000000E+00  0.00000000000E+00  0.64930732323E+04  0.65000000000E+04  0.30000000000E+03 0. -1.
        -52   -1    0    0    0    0 -0.00000000000E+00 -0.00000000000E+00 -0.64930732323E+04  0.65000000000E+04  0.30000000000E+03 0.  1.
     100001    1    1    2    0    0 -0.31202513265E+04  0.16266741746E+03 -0.56977996385E+04  0.65000000000E+04  0.15050000000E+03 0.  1.
     100001    1    1    2    0    0  0.31202513265E+04 -0.16266741746E+03  0.56977996385E+04  0.65000000000E+04  0.15050000000E+03 0. -1.
</event>
<event>
 4    1  0.4826743E-004  0.6500000E+04  0.7818608E-02  0.7223770E-01
         52   -1    0    0    0    0  0.00000000000E+00  0.00000000000E+00  0.64930732323E+04  0.65000000000E+04  0.30000000000E+03 0.  1.
        -52   -1    0    0    0    0 -0.00000000000E+00 -0.00000000000E+00 -0.64930732323E+04  0.65000000000E+04  0.30000000000E+03 0. -1.
     100001    1    1    2    0    0  0.44720777141E+04 -0.25577843728E+04 -0.39605062519E+04  0.65000000000E+04  0.15050000000E+03 0. -1.
     100001    1    1    2    0    0 -0.44720777141E+04  0.25577843728E+04  0.39605062519E+04  0.65000000000E+04  0.15050000000E+03 0.  1.
</event>
<event>
 4    1  0.4826743E-004  0.6500000E+04  0.7818608E-02  0.7223770E-01
         52   -1    0    0    0    0  0.00000000000E+00  0.00000000000E+00  0.64930732323E+04  0.65000000000E+04  0.30000000000E+03 0. -1.
        -52   -1    0    0    0    0 -0.00000000000E+00 -0.00000000000E+00 -0.64930732323E+04  0.65000000000E+04  0.30000000000E+03 0.  1.
     100001    1    1    2    0    0 -0.12698792799E+04  0.74442290367E+03  0.63293436394E+04  0.65000000000E+04  0.15050000000E+03 0. -1.
     100001    1    1    2    0    0  0.12698792799E+04 -0.74442290367E+03 -0.63293436394E+04  0.65000000000E+04  0.15050000000E+03 0.  1.
</event>
<event>
 4    1  0.4826743E-004  0.6500000E+04  0.7818608E-02  0.7223770E-01
         52   -1    0    0    0    0  0.00000000000E+00  0.00000000000E+00  0.64930732323E+04  0.65000000000E+04  0.30000000000E+03 0.  1.
        -52   -1    0    0    0    0 -0.00000000000E+00 -0.00000000000E+00 -0.64930732323E+04  0.65000000000E+04  0.30000000000E+03 0. -1.
     100001    1    1    2    0    0  0.12471589915E+04  0.15793942338E+04  0.61787909864E+04  0.65000000000E+04  0.15050000000E+03 0.  1.
     100001    1    1    2    0    0 -0.12471589915E+04 -0.15793942338E+04 -0.61787909864E+04  0.65000000000E+04  0.15050000000E+03 0. -1.
</event>
<event>
 4    1  0.4826743E-004  0.6500000E+04  0.7818608E-02  0.7223770E-01
         52   -1    0    0    0    0  0.00000000000E+00  0.00000000000E+00  0.64930732323E+04  0.65000000000E+04  0.30000000000E+03 0. -1.
        -52   -1    0    0    0    0 -0.00000000000E+00 -0.00000000000E+00 -0.64930732323E+04  0.65000000000E+04  0.30000000000E+03 0.  1.
     100001    1    1    2    0    0  0.14922266871E+03 -0.57846539228E+04  0.29568329913E+04  0.65000000000E+04  0.15050000000E+03 0. -1.
     100001    1    1    2    0    0 -0.14922266871E+03  0.57846539228E+04 -0.29568329913E+04  0.65000000000E+04  0.15050000000E+03 0.  1.
</event>
<event>
 4    1  0.4826743E-004  0.6500000E+04  0.7818608E-02  0.7223770E-01
         52   -1    0    0    0    0  0.00000000000E+00  0.00000000000E+00  0.64930732323E+04  0.65000000000E+04  0.30000000000E+03 0. -1.
        -52   -1    0    0    0    0 -0.00000000000E+00 -0.00000000000E+00 -0.64930732323E+04  0.65000000000E+04  0.30000000000E+03 0.  1.
     100001    1    1    2    0    0 -0.18312362035E+04  0.21741090735E+04  0.58435582870E+04  0.65000000000E+04  0.15050000000E+03 0. -1.
     100001    1    1    2    0    0  0.18312362035E+04 -0.21741090735E+04 -0.58435582870E+04  0.65000000000E+04  0.15050000000E+03 0.  1.
</event>
<event>
 4    1  0.4826743E-004  0.6500000E+04  0.7818608E-02  0.7223770E-01
         52   -1    0    0    0    0  0.00000000000E+00  0.00000000000E+00  0.64930732323E+04  0.65000000000E+04  0.30000000000E+03 0. -1.
        -52   -1    0    0    0    0 -0.00000000000E+00 -0.00000000000E+00 -0.64930732323E+04  0.65000000000E+04  0.30000000000E+03 0.  1.
     100001    1    1    2    0    0 -0.11159890048E+04 -0.33462046611E+04 -0.54575482277E+04  0.65000000000E+04  0.15050000000E+03 0.  1.
     100001    1    1    2    0    0  0.11159890048E+04  0.33462046611E+04  0.54575482277E+04  0.65000000000E+04  0.15050000000E+03 0. -1.
</event>
<event>
 4    1  0.4826743E-004  0.6500000E+04  0.7818608E-02  0.7223770E-01
         52   -1    0    0    0    0  0.00000000000E+00  0.00000000000E+00  0.64930732323E+04  0.65000000000E+04  0.30000000000E+03 0. -1.
        -52   -1    0    0    0    0 -0.00000000000E+00 -0.00000000000E+00 -0.64930732323E+04  0.65000000000E+04  0.30000000000E+03 0. -1.
     100001    1    1    2    0    0 -0.93910750926E+03  0.13350261175E+04 -0.62899230601E+04  0.65000000000E+04  0.15050000000E+03 0. -1.
     100001    1    1    2    0    0  0.93910750926E+03 -0.13350261175E+04  0.62899230601E+04  0.65000000000E+04  0.15050000000E+03 0. -1.
</event>
<event>
 4    1  0.4826743E-004  0.6500000E+04  0.7818608E-02  0.7223770E-01
         52   -1    0    0    0    0  0.00000000000E+00  0.00000000000E+00  0.64930732323E+04  0.65000000000E+04  0.30000000000E+03 0. -1.
        -52   -1    0    0    0    0 -0.00000000000E+00 -0.00000000000E+00 -0.64930732323E+04  0.65000000000E+04  0.30000000000E+03 0.  1.
     100001    1    1    2    0    0 -0.23311008804E+03 -0.35333670427E+03  0.64844554598E+04  0.65000000000E+04  0.15050000000E+03 0. -1.
     100001    1    1    2    0    0  0.23311008804E+03  0.35333670427E+03 -0.64844554598E+04  0.65000000000E+04  0.15050000000E+03 0.  1.
</event>
<event>
 4    1  0.4826743E-004  0.6500000E+04  0.7818608E-02  0.7223770E-01
         52   -1    0    0    0    0  0.00000000000E+00  0.00000000000E+00  0.64930732323E+04  0.65000000000E+04  0.30000000000E+03 0.  1.
        -52   -1    0    0    0    0 -0.00000000000E+00 -0.00000000000E+00 -0.64930732323E+04  0.65000000000E+04  0.30000000000E+03 0. -1.
     100001    1    1    2    0    0  0.32509755736E+04 -0.20845768235E+03  0.56227264707E+04  0.65000000000E+04  0.15050000000E+03 0.  1.
     100001    1    1    2    0    0 -0.32509755736E+04  0.20845768235E+03 -0.56227264707E+04  0.65000000000E+04  0.15050000000E+03 0. -1.
</event>
<event>
 4    1  0.4826743E-004  0.6500000E+04  0.7818608E-02  0.7223770E-01
         52   -1    0    0    0    0  0.00000000000E+00  0.00000000000E+00  0.64930732323E+04  0.65000000000E+04  0.30000000000E+03 0. -1.
        -52   -1    0    0    0    0 -0.00000000000E+00 -0.00000000000E+00 -0.64930732323E+04  0.65000000000E+04  0.30000000000E+03 0.  1.
     100001    1    1    2    0    0  0.33756567783E+03  0.13617499959E+04 -0.63450008756E+04  0.65000000000E+04  0.15050000000E+03 0.  1.
     100001    1    1    2    0    0 -0.33756567783E+03 -0.13617499959E+04  0.63450008756E+04  0.65000000000E+04  0.15050000000E+03 0. -1.
</event>
<event>
 4    1  0.4826743E-004  0.6500000E+04  0.7818608E-02  0.7223770E-01
         52   -1    0    0    0    0  0.00000000000E+00  0.00000000000E+00  0.64930732323E+04  0.65000000000E+04  0.30000000000E+03 0.  1.
        -52   -1    0    0    0    0 -0.00000000000E+00 -0.00000000000E+00 -0.64930732323E+04  0.65000000000E+04  0.30000000000E+03 0. -1.
     100001    1    1    2    0    0 -0.69943603623E+03 -0.14498149725E+03  0.64588791092E+04  0.65000000000E+04  0.15050000000E+03 0.  1.
     100001    1    1    2    0    0  0.69943603623E+03  0.14498149725E+03 -0.64588791092E+04  0.65000000000E+04  0.15050000000E+03 0. -1.
</event>
<event>
 4    1  0.4826743E-004  0.6500000E+04  0.7818608E-02  0.7223770E-01
         52   -1    0    0    0    0  0.00000000000E+00  0.00000000000E+00  0.64930732323E+04  0.65000000000E+04  0.30000000000E+03 0.  1.
        -52   -1    0    0    0    0 -0.00000000000E+00 -0.00000000000E+00 -0.64930732323E+04  0.65000000000E+04  0.30000000000E+03 0. -1.
     100001    1    1    2    0    0 -0.22485440610E+04  0.40296967177E+03 -0.60835034971E+04  0.65000000000E+04  0.15050000000E+03 0. -1.
     100001    1    1    2    0    0  0.22485440610E+04 -0.40296967177E+03  0.60835034971E+04  0.65000000000E+04  0.15050000000E+03 0.  1.
</event>
<event>
 4    1  0.4826743E-004  0.6500000E+04  0.7818608E-02  0.7223770E-01
         52   -1    0    0    0    0  0.00000000000E+00  0.00000000000E+00  0.64930732323E+04  0.65000000000E+04  0.30000000000E+03 0.  1.
        -52   -1    0    0    0    0 -0.00000000000E+00 -0.00000000000E+00 -0.64930732323E+04  0.65000000000E+04  0.30000000000E+03 0. -1.
     100001    1    1    2    0    0 -0.42561228824E+04  0.65597180131E+03 -0.48664636808E+04  0.65000000000E+04  0.15050000000E+03 0. -1.
     100001    1    1    2    0    0  0.42561228824E+04 -0.65597180131E+03  0.48664636808E+04  0.65000000000E+04  0.15050000000E+03 0.  1.
</event>
<event>
 4    1  0.4826743E-004  0.6500000E+04  0.7818608E-02  0.7223770E-01
         52   -1    0    0    0    0  0.00000000000E+00  0.00000000000E+00  0.64930732323E+04  0.65000000000E+04  0.30000000000E+03 0.  1.
        -52   -1    0    0    0    0 -0.00000000000E+00 -0.00000000000E+00 -0.64930732323E+04  0.65000000000E+04  0.30000000000E+03 0. -1.
     100001    1    1    2    0    0  0.38874799942E+04 -0.99749174084E+03 -0.51107591678E+04  0.65000000000E+04  0.15050000000E+03 0. -1.
     100001    1    1    2    0    0 -0.38874799942E+04  0.99749174084E+03  0.51107591678E+04  0.65000000000E+04  0.15050000000E+03 0.  1.
</event>
<event>
 4    1  0.4826743E-004  0.6500000E+04  0.7818608E-02  0.7223770E-01
         52   -1    0    0    0    0  0.00000000000E+00  0.00000000000E+00  0.64930732323E+04  0.65000000000E+04  0.30000000000E+03 0. -1.
        -52   -1    0    0    0    0 -0.00000000000E+00 -0.00000000000E+00 -0.64930732323E+04  0.65000000000E+04  0.30000000000E+03 0.  1.
     100001    1    1    2    0    0 -0.25124754194E+04 -0.30711479342E+04  0.51461507346E+04  0.65000000000E+04  0.15050000000E+03 0. -1.
     100001    1    1    2    0    0  0.25124754194E+04  0.30711479342E+04 -0.51461507346E+04  0.65000000000E+04  0.15050000000E+03 0.  1.
</event>
<event>
 4    1  0.4826743E-004  0.6500000E+04  0.7818608E-02  0.7223770E-01
         52   -1    0    0    0    0  0.00000000000E+00  0.00000000000E+00  0.64930732323E+04  0.65000000000E+04  0.30000000000E+03 0. -1.
        -52   -1    0    0    0    0 -0.00000000000E+00 -0.00000000000E+00 -0.64930732323E+04  0.65000000000E+04  0.30000000000E+03 0.  1.
     100001    1    1    2    0    0 -0.15173628594E+04 -0.39434355390E+04  0.49370310768E+04  0.65000000000E+04  0.15050000000E+03 0. -1.
     100001    1    1    2    0    0  0.15173628594E+04  0.39434355390E+04 -0.49370310768E+04  0.65000000000E+04  0.15050000000E+03 0.  1.
</event>
<event>
 4    1  0.4826743E-004  0.6500000E+04  0.7818608E-02  0.7223770E-01
         52   -1    0    0    0    0  0.00000000000E+00  0.00000000000E+00  0.64930732323E+04  0.65000000000E+04  0.30000000000E+03 0.  1.
        -52   -1    0    0    0    0 -0.00000000000E+00 -0.00000000000E+00 -0.64930732323E+04  0.65000000000E+04  0.30000000000E+03 0. -1.
     100001    1    1    2    0    0 -0.18923186748E+04  0.35726655723E+04 -0.50874886233E+04  0.65000000000E+04  0.15050000000E+03 0. -1.
     100001    1    1    2    0    0  0.18923186748E+04 -0.35726655723E+04  0.50874886233E+04  0.65000000000E+04  0.15050000000E+03 0.  1.
</event>
<event>
 4    1  0.4826743E-004  0.6500000E+04  0.7818608E-02  0.7223770E-01
         52   -1    0    0    0    0  0.00000000000E+00  0.00000000000E+00  0.64930732323E+04  0.65000000000E+04  0.30000000000E+03 0. -1.
        -52   -1    0    0    0    0 -0.00000000000E+00 -0.00000000000E+00 -0.64930732323E+04  0.65000000000E+04  0.30000000000E+03 0.  1.
     100001    1    1    2    0    0 -0.61236297719E+04  0.76887086223E+03 -0.20340466474E+04  0.65000000000E+04  0.15050000000E+03 0.  1.
     100001    1    1    2    0    0  0.61236297719E+04 -0.76887086223E+03  0.20340466474E+04  0.65000000000E+04  0.15050000000E+03 0. -1.
</event>
<event>
 4    1  0.4826743E-004  0.6500000E+04  0.7818608E-02  0.7223770E-01
         52   -1    0    0    0    0  0.00000000000E+00  0.00000000000E+00  0.64930732323E+04  0.65000000000E+04  0.30000000000E+03 0. -1.
        -52   -1    0    0    0    0 -0.00000000000E+00 -0.00000000000E+00 -0.64930732323E+04  0.65000000000E+04  0.30000000000E+03 0.  1.
     100001    1    1    2    0    0  0.54769388040E+03  0.16556166707E+04  0.62598973317E+04  0.65000000000E+04  0.15050000000E+03 0. -1.
     100001    1    1    2    0    0 -0.54769388040E+03 -0.16556166707E+04 -0.62598973317E+04  0.65000000000E+04  0.15050000000E+03 0.  1.
</event>
<event>
 4    1  0.4826743E-004  0.6500000E+04  0.7818608E-02  0.7223770E-01
         52   -1    0    0    0    0  0.00000000000E+00  0.00000000000E+00  0.64930732323E+04  0.65000000000E+04  0.30000000000E+03 0. -1.
        -52   -1    0    0    0    0 -0.00000000000E+00 -0.00000000000E+00 -0.64930732323E+04  0.65000000000E+04  0.30000000000E+03 0.  1.
     100001    1    1    2    0    0  0.19500113901E+03 -0.11942537805E+04 -0.63845972632E+04  0.65000000000E+04  0.15050000000E+03 0.  1.
     100001    1    1    2    0    0 -0.19500113901E+03  0.11942537805E+04  0.63845972632E+04  0.65000000000E+04  0.15050000000E+03 0. -1.
</event>
<event>
 4    1  0.4826743E-004  0.6500000E+04  0.7818608E-02  0.7223770E-01
         52   -1    0    0    0    0  0.00000000000E+00  0.00000000000E+00  0.64930732323E+04  0.65000000000E+04  0.30000000000E+03 0. -1.
        -52   -1    0    0    0    0 -0.00000000000E+00 -0.00000000000E+00 -0.64930732323E+04  0.65000000000E+04  0.30000000000E+03 0.  1.
     100001    1    1    2    0    0 -0.16747708434E+04  0.37526716031E+04 -0.50338800354E+04  0.65000000000E+04  0.15050000000E+03 0.  1.
     100001    1    1    2    0    0  0.16747708434E+04 -0.37526716031E+04  0.50338800354E+04  0.65000000000E+04  0.15050000000E+03 0. -1.
</event>
<event>
 4    1  0.4826743E-004  0.6500000E+04  0.7818608E-02  0.7223770E-01
         52   -1    0    0    0    0  0.00000000000E+00  0.00000000000E+00  0.64930732323E+04  0.65000000000E+04  0.30000000000E+03 0.  1.
        -52   -1    0    0    0    0 -0.00000000000E+00 -0.00000000000E+00 -0.64930732323E+04  0.65000000000E+04  0.30000000000E+03 0. -1.
     100001    1    1    2    0    0  0.53291386569E+03 -0.20003041270E+04  0.61597188216E+04  0.65000000000E+04  0.15050000000E+03 0.  1.
     100001    1    1    2    0    0 -0.53291386569E+03  0.20003041270E+04 -0.61597188216E+04  0.65000000000E+04  0.15050000000E+03 0. -1.
</event>
<event>
 4    1  0.4826743E-004  0.6500000E+04  0.7818608E-02  0.7223770E-01
         52   -1    0    0    0    0  0.00000000000E+00  0.00000000000E+00  0.64930732323E+04  0.65000000000E+04  0.30000000000E+03 0.  1.
        -52   -1    0    0    0    0 -0.00000000000E+00 -0.00000000000E+00 -0.64930732323E+04  0.65000000000E+04  0.30000000000E+03 0. -1.
     100001    1    1    2    0    0 -0.19183928385E+03 -0.52568908186E+03 -0.64741175791E+04  0.65000000000E+04  0.15050000000E+03 0. -1.
     100001    1    1    2    0    0  0.19183928385E+03  0.52568908186E+03  0.64741175791E+04  0.65000000000E+04  0.15050000000E+03 0.  1.
</event>
<event>
 4    1  0.4826743E-004  0.6500000E+04  0.7818608E-02  0.7223770E-01
         52   -1    0    0    0    0  0.00000000000E+00  0.00000000000E+00  0.64930732323E+04  0.65000000000E+04  0.30000000000E+03 0.  1.
        -52   -1    0    0    0    0 -0.00000000000E+00 -0.00000000000E+00 -0.64930732323E+04  0.65000000000E+04  0.30000000000E+03 0. -1.
     100001    1    1    2    0    0  0.18746639893E+03 -0.46616164234E+03  0.64788038574E+04  0.65000000000E+04  0.15050000000E+03 0.  1.
     100001    1    1    2    0    0 -0.18746639893E+03  0.46616164234E+03 -0.64788038574E+04  0.65000000000E+04  0.15050000000E+03 0. -1.
</event>
<event>
 4    1  0.4826743E-004  0.6500000E+04  0.7818608E-02  0.7223770E-01
         52   -1    0    0    0    0  0.00000000000E+00  0.00000000000E+00  0.64930732323E+04  0.65000000000E+04  0.30000000000E+03 0.  1.
        -52   -1    0    0    0    0 -0.00000000000E+00 -0.00000000000E+00 -0.64930732323E+04  0.65000000000E+04  0.30000000000E+03 0. -1.
     100001    1    1    2    0    0  0.81487666376E+03 -0.50717054350E+03 -0.64269824811E+04  0.65000000000E+04  0.15050000000E+03 0. -1.
     100001    1    1    2    0    0 -0.81487666376E+03  0.50717054350E+03  0.64269824811E+04  0.65000000000E+04  0.15050000000E+03 0.  1.
</event>
<event>
 4    1  0.4826743E-004  0.6500000E+04  0.7818608E-02  0.7223770E-01
         52   -1    0    0    0    0  0.00000000000E+00  0.00000000000E+00  0.64930732323E+04  0.65000000000E+04  0.30000000000E+03 0.  1.
        -52   -1    0    0    0    0 -0.00000000000E+00 -0.00000000000E+00 -0.64930732323E+04  0.65000000000E+04  0.30000000000E+03 0. -1.
     100001    1    1    2    0    0 -0.60169627553E+03  0.31414217404E+03 -0.64627104249E+04  0.65000000000E+04  0.15050000000E+03 0. -1.
     100001    1    1    2    0    0  0.60169627553E+03 -0.31414217404E+03  0.64627104249E+04  0.65000000000E+04  0.15050000000E+03 0.  1.
</event>
<event>
 4    1  0.4826743E-004  0.6500000E+04  0.7818608E-02  0.7223770E-01
         52   -1    0    0    0    0  0.00000000000E+00  0.00000000000E+00  0.64930732323E+04  0.65000000000E+04  0.30000000000E+03 0. -1.
        -52   -1    0    0    0    0 -0.00000000000E+00 -0.00000000000E+00 -0.64930732323E+04  0.65000000000E+04  0.30000000000E+03 0.  1.
     100001    1    1    2    0    0 -0.43916873092E+04  0.56905209398E+03 -0.47556925934E+04  0.65000000000E+04  0.15050000000E+03 0.  1.
     100001    1    1    2    0    0  0.43916873092E+04 -0.56905209398E+03  0.47556925934E+04  0.65000000000E+04  0.15050000000E+03 0. -1.
</event>
<event>
 4    1  0.4826743E-004  0.6500000E+04  0.7818608E-02  0.7223770E-01
         52   -1    0    0    0    0  0.00000000000E+00  0.00000000000E+00  0.64930732323E+04  0.65000000000E+04  0.30000000000E+03 0. -1.
        -52   -1    0    0    0    0 -0.00000000000E+00 -0.00000000000E+00 -0.64930732323E+04  0.65000000000E+04  0.30000000000E+03 0.  1.
     100001    1    1    2    0    0 -0.54080355521E+03 -0.15651834949E+04 -0.62837156120E+04  0.65000000000E+04  0.15050000000E+03 0.  1.
     100001    1    1    2    0    0  0.54080355521E+03  0.15651834949E+04  0.62837156120E+04  0.65000000000E+04  0.15050000000E+03 0. -1.
</event>
<event>
 4    1  0.4826743E-004  0.6500000E+04  0.7818608E-02  0.7223770E-01
         52   -1    0    0    0    0  0.00000000000E+00  0.00000000000E+00  0.64930732323E+04  0.65000000000E+04  0.30000000000E+03 0.  1.
        -52   -1    0    0    0    0 -0.00000000000E+00 -0.00000000000E+00 -0.64930732323E+04  0.65000000000E+04  0.30000000000E+03 0. -1.
     100001    1    1    2    0    0 -0.12456339757E+03  0.66503488280E+03  0.64629375917E+04  0.65000000000E+04  0.15050000000E+03 0.  1.
     100001    1    1    2    0    0  0.12456339757E+03 -0.66503488280E+03 -0.64629375917E+04  0.65000000000E+04  0.15050000000E+03 0. -1.
</event>
<event>
 4    1  0.4826743E-004  0.6500000E+04  0.7818608E-02  0.7223770E-01
         52   -1    0    0    0    0  0.00000000000E+00  0.00000000000E+00  0.64930732323E+04  0.65000000000E+04  0.30000000000E+03 0.  1.
        -52   -1    0    0    0    0 -0.00000000000E+00 -0.00000000000E+00 -0.64930732323E+04  0.65000000000E+04  0.30000000000E+03 0. -1.
     100001    1    1    2    0    0 -0.20877258236E+04 -0.61117401427E+04  0.71790184785E+03  0.65000000000E+04  0.15050000000E+03 0. -1.
     100001    1    1    2    0    0  0.20877258236E+04  0.61117401427E+04 -0.71790184785E+03  0.65000000000E+04  0.15050000000E+03 0.  1.
</event>
<event>
 4    1  0.4826743E-004  0.6500000E+04  0.7818608E-02  0.7223770E-01
         52   -1    0    0    0    0  0.00000000000E+00  0.00000000000E+00  0.64930732323E+04  0.65000000000E+04  0.30000000000E+03 0.  1.
        -52   -1    0    0    0    0 -0.00000000000E+00 -0.00000000000E+00 -0.64930732323E+04  0.65000000000E+04  0.30000000000E+03 0. -1.
     100001    1    1    2    0    0 -0.38145128588E+04 -0.44402903130E+04  0.28214647503E+04  0.65000000000E+04  0.15050000000E+03 0.  1.
     100001    1    1    2    0    0  0.38145128588E+04  0.44402903130E+04 -0.28214647503E+04  0.65000000000E+04  0.15050000000E+03 0. -1.
</event>
<event>
 4    1  0.4826743E-004  0.6500000E+04  0.7818608E-02  0.7223770E-01
         52   -1    0    0    0    0  0.00000000000E+00  0.00000000000E+00  0.64930732323E+04  0.65000000000E+04  0.30000000000E+03 0. -1.
        -52   -1    0    0    0    0 -0.00000000000E+00 -0.00000000000E+00 -0.64930732323E+04  0.65000000000E+04  0.30000000000E+03 0.  1.
     100001    1    1    2    0    0 -0.91393297799E+03  0.44872539541E+04 -0.46104911033E+04  0.65000000000E+04  0.15050000000E+03 0.  1.
     100001    1    1    2    0    0  0.91393297799E+03 -0.44872539541E+04  0.46104911033E+04  0.65000000000E+04  0.15050000000E+03 0. -1.
</event>
<event>
 4    1  0.4826743E-004  0.6500000E+04  0.7818608E-02  0.7223770E-01
         52   -1    0    0    0    0  0.00000000000E+00  0.00000000000E+00  0.64930732323E+04  0.65000000000E+04  0.30000000000E+03 0.  1.
        -52   -1    0    0    0    0 -0.00000000000E+00 -0.00000000000E+00 -0.64930732323E+04  0.65000000000E+04  0.30000000000E+03 0. -1.
     100001    1    1    2    0    0  0.35502534482E+04 -0.31163679009E+04  0.44622081204E+04  0.65000000000E+04  0.15050000000E+03 0.  1.
     100001    1    1    2    0    0 -0.35502534482E+04  0.31163679009E+04 -0.44622081204E+04  0.65000000000E+04  0.15050000000E+03 0. -1.
</event>
<event>
 4    1  0.4826743E-004  0.6500000E+04  0.7818608E-02  0.7223770E-01
         52   -1    0    0    0    0  0.00000000000E+00  0.00000000000E+00  0.64930732323E+04  0.65000000000E+04  0.30000000000E+03 0. -1.
        -52   -1    0    0    0    0 -0.00000000000E+00 -0.00000000000E+00 -0.64930732323E+04  0.65000000000E+04  0.30000000000E+03 0.  1.
     100001    1    1    2    0    0 -0.24886780899E+03  0.18946077737E+04  0.62109480715E+04  0.65000000000E+04  0.15050000000E+03 0. -1.
     100001    1    1    2    0    0  0.24886780899E+03 -0.18946077737E+04 -0.62109480715E+04  0.65000000000E+04  0.15050000000E+03 0.  1.
</event>
<event>
 4    1  0.4826743E-004  0.6500000E+04  0.7818608E-02  0.7223770E-01
         52   -1    0    0    0    0  0.00000000000E+00  0.00000000000E+00  0.64930732323E+04  0.65000000000E+04  0.30000000000E+03 0.  1.
        -52   -1    0    0    0    0 -0.00000000000E+00 -0.00000000000E+00 -0.64930732323E+04  0.65000000000E+04  0.30000000000E+03 0.  1.
     100001    1    1    2    0    0 -0.16009481747E+03 -0.70946038378E+02 -0.64958976330E+04  0.65000000000E+04  0.15050000000E+03 0.  1.
     100001    1    1    2    0    0  0.16009481747E+03  0.70946038378E+02  0.64958976330E+04  0.65000000000E+04  0.15050000000E+03 0.  1.
</event>
<event>
 4    1  0.4826743E-004  0.6500000E+04  0.7818608E-02  0.7223770E-01
         52   -1    0    0    0    0  0.00000000000E+00  0.00000000000E+00  0.64930732323E+04  0.65000000000E+04  0.30000000000E+03 0.  1.
        -52   -1    0    0    0    0 -0.00000000000E+00 -0.00000000000E+00 -0.64930732323E+04  0.65000000000E+04  0.30000000000E+03 0. -1.
     100001    1    1    2    0    0  0.70228878874E+03 -0.95827070212E+03 -0.63887289400E+04  0.65000000000E+04  0.15050000000E+03 0. -1.
     100001    1    1    2    0    0 -0.70228878874E+03  0.95827070212E+03  0.63887289400E+04  0.65000000000E+04  0.15050000000E+03 0.  1.
</event>
<event>
 4    1  0.4826743E-004  0.6500000E+04  0.7818608E-02  0.7223770E-01
         52   -1    0    0    0    0  0.00000000000E+00  0.00000000000E+00  0.64930732323E+04  0.65000000000E+04  0.30000000000E+03 0.  1.
        -52   -1    0    0    0    0 -0.00000000000E+00 -0.00000000000E+00 -0.64930732323E+04  0.65000000000E+04  0.30000000000E+03 0. -1.
     100001    1    1    2    0    0 -0.60808081442E+04 -0.77858079106E+03  0.21552108979E+04  0.65000000000E+04  0.15050000000E+03 0.  1.
     100001    1    1    2    0    0  0.60808081442E+04  0.77858079106E+03 -0.21552108979E+04  0.65000000000E+04  0.15050000000E+03 0. -1.
</event>
<event>
 4    1  0.5400269E-004  0.6500000E+04  0.7818608E-02  0.7223770E-01
         52   -1    0    0    0    0  0.00000000000E+00  0.00000000000E+00  0.64930732323E+04  0.65000000000E+04  0.30000000000E+03 0. -1.
        -52   -1    0    0    0    0 -0.00000000000E+00 -0.00000000000E+00 -0.64930732323E+04  0.65000000000E+04  0.30000000000E+03 0.  1.
     100001    1    1    2    0    0 -0.21031044884E+03 -0.75063046097E+02 -0.64944195125E+04  0.65000000000E+04  0.15050000000E+03 0.  1.
     100001    1    1    2    0    0  0.21031044884E+03  0.75063046097E+02  0.64944195125E+04  0.65000000000E+04  0.15050000000E+03 0. -1.
</event>
<event>
 4    1  0.4826743E-004  0.6500000E+04  0.7818608E-02  0.7223770E-01
         52   -1    0    0    0    0  0.00000000000E+00  0.00000000000E+00  0.64930732323E+04  0.65000000000E+04  0.30000000000E+03 0. -1.
        -52   -1    0    0    0    0 -0.00000000000E+00 -0.00000000000E+00 -0.64930732323E+04  0.65000000000E+04  0.30000000000E+03 0.  1.
     100001    1    1    2    0    0 -0.67483063527E+03 -0.20191299851E+03  0.64599678408E+04  0.65000000000E+04  0.15050000000E+03 0. -1.
     100001    1    1    2    0    0  0.67483063527E+03  0.20191299851E+03 -0.64599678408E+04  0.65000000000E+04  0.15050000000E+03 0.  1.
</event>
<event>
 4    1  0.4826743E-004  0.6500000E+04  0.7818608E-02  0.7223770E-01
         52   -1    0    0    0    0  0.00000000000E+00  0.00000000000E+00  0.64930732323E+04  0.65000000000E+04  0.30000000000E+03 0.  1.
        -52   -1    0    0    0    0 -0.00000000000E+00 -0.00000000000E+00 -0.64930732323E+04  0.65000000000E+04  0.30000000000E+03 0. -1.
     100001    1    1    2    0    0 -0.16793841298E+03 -0.71218202766E+03 -0.64569298586E+04  0.65000000000E+04  0.15050000000E+03 0. -1.
     100001    1    1    2    0    0  0.16793841298E+03  0.71218202766E+03  0.64569298586E+04  0.65000000000E+04  0.15050000000E+03 0.  1.
</event>
<event>
 4    1  0.4826743E-004  0.6500000E+04  0.7818608E-02  0.7223770E-01
         52   -1    0    0    0    0  0.00000000000E+00  0.00000000000E+00  0.64930732323E+04  0.65000000000E+04  0.30000000000E+03 0. -1.
        -52   -1    0    0    0    0 -0.00000000000E+00 -0.00000000000E+00 -0.64930732323E+04  0.65000000000E+04  0.30000000000E+03 0.  1.
     100001    1    1    2    0    0 -0.11478051773E+04  0.81758884077E+03 -0.63436142311E+04  0.65000000000E+04  0.15050000000E+03 0.  1.
     100001    1    1    2    0    0  0.11478051773E+04 -0.81758884077E+03  0.63436142311E+04  0.65000000000E+04  0.15050000000E+03 0. -1.
</event>
<event>
 4    1  0.4826743E-004  0.6500000E+04  0.7818608E-02  0.7223770E-01
         52   -1    0    0    0    0  0.00000000000E+00  0.00000000000E+00  0.64930732323E+04  0.65000000000E+04  0.30000000000E+03 0.  1.
        -52   -1    0    0    0    0 -0.00000000000E+00 -0.00000000000E+00 -0.64930732323E+04  0.65000000000E+04  0.30000000000E+03 0. -1.
     100001    1    1    2    0    0 -0.18295173678E+04 -0.53320264111E+03 -0.62125607357E+04  0.65000000000E+04  0.15050000000E+03 0. -1.
     100001    1    1    2    0    0  0.18295173678E+04  0.53320264111E+03  0.62125607357E+04  0.65000000000E+04  0.15050000000E+03 0.  1.
</event>
<event>
 4    1  0.4826743E-004  0.6500000E+04  0.7818608E-02  0.7223770E-01
         52   -1    0    0    0    0  0.00000000000E+00  0.00000000000E+00  0.64930732323E+04  0.65000000000E+04  0.30000000000E+03 0. -1.
        -52   -1    0    0    0    0 -0.00000000000E+00 -0.00000000000E+00 -0.64930732323E+04  0.65000000000E+04  0.30000000000E+03 0.  1.
     100001    1    1    2    0    0  0.21785365388E+03  0.46376427327E+03 -0.64780253345E+04  0.65000000000E+04  0.15050000000E+03 0.  1.
     100001    1    1    2    0    0 -0.21785365388E+03 -0.46376427327E+03  0.64780253345E+04  0.65000000000E+04  0.15050000000E+03 0. -1.
</event>
<event>
 4    1  0.4826743E-004  0.6500000E+04  0.7818608E-02  0.7223770E-01
         52   -1    0    0    0    0  0.00000000000E+00  0.00000000000E+00  0.64930732323E+04  0.65000000000E+04  0.30000000000E+03 0. -1.
        -52   -1    0    0    0    0 -0.00000000000E+00 -0.00000000000E+00 -0.64930732323E+04  0.65000000000E+04  0.30000000000E+03 0.  1.
     100001    1    1    2    0    0 -0.18697484729E+04  0.67071772628E+03  0.61872068116E+04  0.65000000000E+04  0.15050000000E+03 0. -1.
     100001    1    1    2    0    0  0.18697484729E+04 -0.67071772628E+03 -0.61872068116E+04  0.65000000000E+04  0.15050000000E+03 0.  1.
</event>
<event>
 4    1  0.4826743E-004  0.6500000E+04  0.7818608E-02  0.7223770E-01
         52   -1    0    0    0    0  0.00000000000E+00  0.00000000000E+00  0.64930732323E+04  0.65000000000E+04  0.30000000000E+03 0.  1.
        -52   -1    0    0    0    0 -0.00000000000E+00 -0.00000000000E+00 -0.64930732323E+04  0.65000000000E+04  0.30000000000E+03 0. -1.
     100001    1    1    2    0    0  0.99491732144E+03  0.29288675015E+04  0.57148249695E+04  0.65000000000E+04  0.15050000000E+03 0.  1.
     100001    1    1    2    0    0 -0.99491732144E+03 -0.29288675015E+04 -0.57148249695E+04  0.65000000000E+04  0.15050000000E+03 0. -1.
</event>
<event>
 4    1  0.4826743E-004  0.6500000E+04  0.7818608E-02  0.7223770E-01
         52   -1    0    0    0    0  0.00000000000E+00  0.00000000000E+00  0.64930732323E+04  0.65000000000E+04  0.30000000000E+03 0. -1.
        -52   -1    0    0    0    0 -0.00000000000E+00 -0.00000000000E+00 -0.64930732323E+04  0.65000000000E+04  0.30000000000E+03 0.  1.
     100001    1    1    2    0    0  0.37179871402E+04  0.37768418373E+04  0.37602376403E+04  0.65000000000E+04  0.15050000000E+03 0. -1.
     100001    1    1    2    0    0 -0.37179871402E+04 -0.37768418373E+04 -0.37602376403E+04  0.65000000000E+04  0.15050000000E+03 0.  1.
</event>
<event>
 4    1  0.4826743E-004  0.6500000E+04  0.7818608E-02  0.7223770E-01
         52   -1    0    0    0    0  0.00000000000E+00  0.00000000000E+00  0.64930732323E+04  0.65000000000E+04  0.30000000000E+03 0.  1.
        -52   -1    0    0    0    0 -0.00000000000E+00 -0.00000000000E+00 -0.64930732323E+04  0.65000000000E+04  0.30000000000E+03 0.  1.
     100001    1    1    2    0    0 -0.73804530432E+02 -0.30834611949E+03 -0.64905181081E+04  0.65000000000E+04  0.15050000000E+03 0.  1.
     100001    1    1    2    0    0  0.73804530432E+02  0.30834611949E+03  0.64905181081E+04  0.65000000000E+04  0.15050000000E+03 0.  1.
</event>
<event>
 4    1  0.4826743E-004  0.6500000E+04  0.7818608E-02  0.7223770E-01
         52   -1    0    0    0    0  0.00000000000E+00  0.00000000000E+00  0.64930732323E+04  0.65000000000E+04  0.30000000000E+03 0. -1.
        -52   -1    0    0    0    0 -0.00000000000E+00 -0.00000000000E+00 -0.64930732323E+04  0.65000000000E+04  0.30000000000E+03 0.  1.
     100001    1    1    2    0    0 -0.49304727444E+04  0.10380142842E+04  0.41036952387E+04  0.65000000000E+04  0.15050000000E+03 0. -1.
     100001    1    1    2    0    0  0.49304727444E+04 -0.10380142842E+04 -0.41036952387E+04  0.65000000000E+04  0.15050000000E+03 0.  1.
</event>
<event>
 4    1  0.4826743E-004  0.6500000E+04  0.7818608E-02  0.7223770E-01
         52   -1    0    0    0    0  0.00000000000E+00  0.00000000000E+00  0.64930732323E+04  0.65000000000E+04  0.30000000000E+03 0.  1.
        -52   -1    0    0    0    0 -0.00000000000E+00 -0.00000000000E+00 -0.64930732323E+04  0.65000000000E+04  0.30000000000E+03 0.  1.
     100001    1    1    2    0    0  0.15655841994E+04 -0.15261548002E+04 -0.61194074379E+04  0.65000000000E+04  0.15050000000E+03 0.  1.
     100001    1    1    2    0    0 -0.15655841994E+04  0.15261548002E+04  0.61194074379E+04  0.65000000000E+04  0.15050000000E+03 0.  1.
</event>
<event>
 4    1  0.4826743E-004  0.6500000E+04  0.7818608E-02  0.7223770E-01
         52   -1    0    0    0    0  0.00000000000E+00  0.00000000000E+00  0.64930732323E+04  0.65000000000E+04  0.30000000000E+03 0. -1.
        -52   -1    0    0    0    0 -0.00000000000E+00 -0.00000000000E+00 -0.64930732323E+04  0.65000000000E+04  0.30000000000E+03 0.  1.
     100001    1    1    2    0    0 -0.24438365099E+04 -0.44711701475E+04 -0.40328216394E+04  0.65000000000E+04  0.15050000000E+03 0.  1.
     100001    1    1    2    0    0  0.24438365099E+04  0.44711701475E+04  0.40328216394E+04  0.65000000000E+04  0.15050000000E+03 0. -1.
</event>
<event>
 4    1  0.4826743E-004  0.6500000E+04  0.7818608E-02  0.7223770E-01
         52   -1    0    0    0    0  0.00000000000E+00  0.00000000000E+00  0.64930732323E+04  0.65000000000E+04  0.30000000000E+03 0.  1.
        -52   -1    0    0    0    0 -0.00000000000E+00 -0.00000000000E+00 -0.64930732323E+04  0.65000000000E+04  0.30000000000E+03 0. -1.
     100001    1    1    2    0    0  0.22850693515E+03  0.52074626493E+03  0.64733266300E+04  0.65000000000E+04  0.15050000000E+03 0.  1.
     100001    1    1    2    0    0 -0.22850693515E+03 -0.52074626493E+03 -0.64733266300E+04  0.65000000000E+04  0.15050000000E+03 0. -1.
</event>
<event>
 4    1  0.4826743E-004  0.6500000E+04  0.7818608E-02  0.7223770E-01
         52   -1    0    0    0    0  0.00000000000E+00  0.00000000000E+00  0.64930732323E+04  0.65000000000E+04  0.30000000000E+03 0. -1.
        -52   -1    0    0    0    0 -0.00000000000E+00 -0.00000000000E+00 -0.64930732323E+04  0.65000000000E+04  0.30000000000E+03 0.  1.
     100001    1    1    2    0    0  0.17136614098E+03 -0.12656582132E+03  0.64947643905E+04  0.65000000000E+04  0.15050000000E+03 0. -1.
     100001    1    1    2    0    0 -0.17136614098E+03  0.12656582132E+03 -0.64947643905E+04  0.65000000000E+04  0.15050000000E+03 0.  1.
</event>
<event>
 4    1  0.4826743E-004  0.6500000E+04  0.7818608E-02  0.7223770E-01
         52   -1    0    0    0    0  0.00000000000E+00  0.00000000000E+00  0.64930732323E+04  0.65000000000E+04  0.30000000000E+03 0. -1.
        -52   -1    0    0    0    0 -0.00000000000E+00 -0.00000000000E+00 -0.64930732323E+04  0.65000000000E+04  0.30000000000E+03 0.  1.
     100001    1    1    2    0    0 -0.30903259367E+03 -0.74468167502E+03 -0.64480460458E+04  0.65000000000E+04  0.15050000000E+03 0.  1.
     100001    1    1    2    0    0  0.30903259367E+03  0.74468167502E+03  0.64480460458E+04  0.65000000000E+04  0.15050000000E+03 0. -1.
</event>
<event>
 4    1  0.4826743E-004  0.6500000E+04  0.7818608E-02  0.7223770E-01
         52   -1    0    0    0    0  0.00000000000E+00  0.00000000000E+00  0.64930732323E+04  0.65000000000E+04  0.30000000000E+03 0. -1.
        -52   -1    0    0    0    0 -0.00000000000E+00 -0.00000000000E+00 -0.64930732323E+04  0.65000000000E+04  0.30000000000E+03 0.  1.
     100001    1    1    2    0    0  0.16161345874E+04 -0.92210896972E+02  0.62934057470E+04  0.65000000000E+04  0.15050000000E+03 0. -1.
     100001    1    1    2    0    0 -0.16161345874E+04  0.92210896972E+02 -0.62934057470E+04  0.65000000000E+04  0.15050000000E+03 0.  1.
</event>
<event>
 4    1  0.4826743E-004  0.6500000E+04  0.7818608E-02  0.7223770E-01
         52   -1    0    0    0    0  0.00000000000E+00  0.00000000000E+00  0.64930732323E+04  0.65000000000E+04  0.30000000000E+03 0.  1.
        -52   -1    0    0    0    0 -0.00000000000E+00 -0.00000000000E+00 -0.64930732323E+04  0.65000000000E+04  0.30000000000E+03 0. -1.
     100001    1    1    2    0    0 -0.26553121629E+04  0.57758461591E+04  0.13476899549E+04  0.65000000000E+04  0.15050000000E+03 0.  1.
     100001    1    1    2    0    0  0.26553121629E+04 -0.57758461591E+04 -0.13476899549E+04  0.65000000000E+04  0.15050000000E+03 0. -1.
</event>
<event>
 4    1  0.4826743E-004  0.6500000E+04  0.7818608E-02  0.7223770E-01
         52   -1    0    0    0    0  0.00000000000E+00  0.00000000000E+00  0.64930732323E+04  0.65000000000E+04  0.30000000000E+03 0.  1.
        -52   -1    0    0    0    0 -0.00000000000E+00 -0.00000000000E+00 -0.64930732323E+04  0.65000000000E+04  0.30000000000E+03 0. -1.
     100001    1    1    2    0    0 -0.28334922487E+04 -0.38791938182E+03 -0.58350826883E+04  0.65000000000E+04  0.15050000000E+03 0. -1.
     100001    1    1    2    0    0  0.28334922487E+04  0.38791938182E+03  0.58350826883E+04  0.65000000000E+04  0.15050000000E+03 0.  1.
</event>
<event>
 4    1  0.4826743E-004  0.6500000E+04  0.7818608E-02  0.7223770E-01
         52   -1    0    0    0    0  0.00000000000E+00  0.00000000000E+00  0.64930732323E+04  0.65000000000E+04  0.30000000000E+03 0. -1.
        -52   -1    0    0    0    0 -0.00000000000E+00 -0.00000000000E+00 -0.64930732323E+04  0.65000000000E+04  0.30000000000E+03 0.  1.
     100001    1    1    2    0    0  0.72094977430E+03  0.13281927246E+03 -0.64567747532E+04  0.65000000000E+04  0.15050000000E+03 0.  1.
     100001    1    1    2    0    0 -0.72094977430E+03 -0.13281927246E+03  0.64567747532E+04  0.65000000000E+04  0.15050000000E+03 0. -1.
</event>
<event>
 4    1  0.4826743E-004  0.6500000E+04  0.7818608E-02  0.7223770E-01
         52   -1    0    0    0    0  0.00000000000E+00  0.00000000000E+00  0.64930732323E+04  0.65000000000E+04  0.30000000000E+03 0. -1.
        -52   -1    0    0    0    0 -0.00000000000E+00 -0.00000000000E+00 -0.64930732323E+04  0.65000000000E+04  0.30000000000E+03 0.  1.
     100001    1    1    2    0    0 -0.14461295179E+04  0.52286050552E+03 -0.63136895758E+04  0.65000000000E+04  0.15050000000E+03 0.  1.
     100001    1    1    2    0    0  0.14461295179E+04 -0.52286050552E+03  0.63136895758E+04  0.65000000000E+04  0.15050000000E+03 0. -1.
</event>
<event>
 4    1  0.4826743E-004  0.6500000E+04  0.7818608E-02  0.7223770E-01
         52   -1    0    0    0    0  0.00000000000E+00  0.00000000000E+00  0.64930732323E+04  0.65000000000E+04  0.30000000000E+03 0.  1.
        -52   -1    0    0    0    0 -0.00000000000E+00 -0.00000000000E+00 -0.64930732323E+04  0.65000000000E+04  0.30000000000E+03 0. -1.
     100001    1    1    2    0    0 -0.54239671675E+04 -0.23619545604E+04  0.26886986761E+04  0.65000000000E+04  0.15050000000E+03 0. -1.
     100001    1    1    2    0    0  0.54239671675E+04  0.23619545604E+04 -0.26886986761E+04  0.65000000000E+04  0.15050000000E+03 0.  1.
</event>
<event>
 4    1  0.4826743E-004  0.6500000E+04  0.7818608E-02  0.7223770E-01
         52   -1    0    0    0    0  0.00000000000E+00  0.00000000000E+00  0.64930732323E+04  0.65000000000E+04  0.30000000000E+03 0. -1.
        -52   -1    0    0    0    0 -0.00000000000E+00 -0.00000000000E+00 -0.64930732323E+04  0.65000000000E+04  0.30000000000E+03 0.  1.
     100001    1    1    2    0    0 -0.11997515125E+04 -0.78277783525E+03  0.63383913510E+04  0.65000000000E+04  0.15050000000E+03 0. -1.
     100001    1    1    2    0    0  0.11997515125E+04  0.78277783525E+03 -0.63383913510E+04  0.65000000000E+04  0.15050000000E+03 0.  1.
</event>
<event>
 4    1  0.4826743E-004  0.6500000E+04  0.7818608E-02  0.7223770E-01
         52   -1    0    0    0    0  0.00000000000E+00  0.00000000000E+00  0.64930732323E+04  0.65000000000E+04  0.30000000000E+03 0. -1.
        -52   -1    0    0    0    0 -0.00000000000E+00 -0.00000000000E+00 -0.64930732323E+04  0.65000000000E+04  0.30000000000E+03 0.  1.
     100001    1    1    2    0    0 -0.34486442261E+04  0.28380760793E+04 -0.47201193756E+04  0.65000000000E+04  0.15050000000E+03 0.  1.
     100001    1    1    2    0    0  0.34486442261E+04 -0.28380760793E+04  0.47201193756E+04  0.65000000000E+04  0.15050000000E+03 0. -1.
</event>
<event>
 4    1  0.4826743E-004  0.6500000E+04  0.7818608E-02  0.7223770E-01
         52   -1    0    0    0    0  0.00000000000E+00  0.00000000000E+00  0.64930732323E+04  0.65000000000E+04  0.30000000000E+03 0. -1.
        -52   -1    0    0    0    0 -0.00000000000E+00 -0.00000000000E+00 -0.64930732323E+04  0.65000000000E+04  0.30000000000E+03 0.  1.
     100001    1    1    2    0    0 -0.20931499133E+04 -0.47829576882E+03 -0.61332949014E+04  0.65000000000E+04  0.15050000000E+03 0.  1.
     100001    1    1    2    0    0  0.20931499133E+04  0.47829576882E+03  0.61332949014E+04  0.65000000000E+04  0.15050000000E+03 0. -1.
</event>
<event>
 4    1  0.4826743E-004  0.6500000E+04  0.7818608E-02  0.7223770E-01
         52   -1    0    0    0    0  0.00000000000E+00  0.00000000000E+00  0.64930732323E+04  0.65000000000E+04  0.30000000000E+03 0.  1.
        -52   -1    0    0    0    0 -0.00000000000E+00 -0.00000000000E+00 -0.64930732323E+04  0.65000000000E+04  0.30000000000E+03 0. -1.
     100001    1    1    2    0    0  0.34001692085E+02 -0.14167500916E+03 -0.64966238791E+04  0.65000000000E+04  0.15050000000E+03 0. -1.
     100001    1    1    2    0    0 -0.34001692085E+02  0.14167500916E+03  0.64966238791E+04  0.65000000000E+04  0.15050000000E+03 0.  1.
</event>
<event>
 4    1  0.4826743E-004  0.6500000E+04  0.7818608E-02  0.7223770E-01
         52   -1    0    0    0    0  0.00000000000E+00  0.00000000000E+00  0.64930732323E+04  0.65000000000E+04  0.30000000000E+03 0. -1.
        -52   -1    0    0    0    0 -0.00000000000E+00 -0.00000000000E+00 -0.64930732323E+04  0.65000000000E+04  0.30000000000E+03 0. -1.
     100001    1    1    2    0    0  0.22902446385E+03 -0.39794473665E+01  0.64942190992E+04  0.65000000000E+04  0.15050000000E+03 0. -1.
     100001    1    1    2    0    0 -0.22902446385E+03  0.39794473665E+01 -0.64942190992E+04  0.65000000000E+04  0.15050000000E+03 0. -1.
</event>
<event>
 4    1  0.4826743E-004  0.6500000E+04  0.7818608E-02  0.7223770E-01
         52   -1    0    0    0    0  0.00000000000E+00  0.00000000000E+00  0.64930732323E+04  0.65000000000E+04  0.30000000000E+03 0.  1.
        -52   -1    0    0    0    0 -0.00000000000E+00 -0.00000000000E+00 -0.64930732323E+04  0.65000000000E+04  0.30000000000E+03 0. -1.
     100001    1    1    2    0    0 -0.84460029783E+03 -0.15358565674E+04  0.62574071860E+04  0.65000000000E+04  0.15050000000E+03 0.  1.
     100001    1    1    2    0    0  0.84460029783E+03  0.15358565674E+04 -0.62574071860E+04  0.65000000000E+04  0.15050000000E+03 0. -1.
</event>
<event>
 4    1  0.4826743E-004  0.6500000E+04  0.7818608E-02  0.7223770E-01
         52   -1    0    0    0    0  0.00000000000E+00  0.00000000000E+00  0.64930732323E+04  0.65000000000E+04  0.30000000000E+03 0. -1.
        -52   -1    0    0    0    0 -0.00000000000E+00 -0.00000000000E+00 -0.64930732323E+04  0.65000000000E+04  0.30000000000E+03 0.  1.
     100001    1    1    2    0    0 -0.40540367448E+04  0.29069473148E+04  0.41643478638E+04  0.65000000000E+04  0.15050000000E+03 0. -1.
     100001    1    1    2    0    0  0.40540367448E+04 -0.29069473148E+04 -0.41643478638E+04  0.65000000000E+04  0.15050000000E+03 0.  1.
</event>
<event>
 4    1  0.4826743E-004  0.6500000E+04  0.7818608E-02  0.7223770E-01
         52   -1    0    0    0    0  0.00000000000E+00  0.00000000000E+00  0.64930732323E+04  0.65000000000E+04  0.30000000000E+03 0.  1.
        -52   -1    0    0    0    0 -0.00000000000E+00 -0.00000000000E+00 -0.64930732323E+04  0.65000000000E+04  0.30000000000E+03 0. -1.
     100001    1    1    2    0    0 -0.80990892836E+03  0.63293394716E+04 -0.12291700987E+04  0.65000000000E+04  0.15050000000E+03 0. -1.
     100001    1    1    2    0    0  0.80990892836E+03 -0.63293394716E+04  0.12291700987E+04  0.65000000000E+04  0.15050000000E+03 0.  1.
</event>
<event>
 4    1  0.4826743E-004  0.6500000E+04  0.7818608E-02  0.7223770E-01
         52   -1    0    0    0    0  0.00000000000E+00  0.00000000000E+00  0.64930732323E+04  0.65000000000E+04  0.30000000000E+03 0.  1.
        -52   -1    0    0    0    0 -0.00000000000E+00 -0.00000000000E+00 -0.64930732323E+04  0.65000000000E+04  0.30000000000E+03 0. -1.
     100001    1    1    2    0    0  0.16303193030E+04 -0.24629504219E+04 -0.57882021336E+04  0.65000000000E+04  0.15050000000E+03 0. -1.
     100001    1    1    2    0    0 -0.16303193030E+04  0.24629504219E+04  0.57882021336E+04  0.65000000000E+04  0.15050000000E+03 0.  1.
</event>
<event>
 4    1  0.4826743E-004  0.6500000E+04  0.7818608E-02  0.7223770E-01
         52   -1    0    0    0    0  0.00000000000E+00  0.00000000000E+00  0.64930732323E+04  0.65000000000E+04  0.30000000000E+03 0. -1.
        -52   -1    0    0    0    0 -0.00000000000E+00 -0.00000000000E+00 -0.64930732323E+04  0.65000000000E+04  0.30000000000E+03 0.  1.
     100001    1    1    2    0    0  0.68188694327E+03 -0.47779619906E+03  0.64446947747E+04  0.65000000000E+04  0.15050000000E+03 0. -1.
     100001    1    1    2    0    0 -0.68188694327E+03  0.47779619906E+03 -0.64446947747E+04  0.65000000000E+04  0.15050000000E+03 0.  1.
</event>
<event>
 4    1  0.4826743E-004  0.6500000E+04  0.7818608E-02  0.7223770E-01
         52   -1    0    0    0    0  0.00000000000E+00  0.00000000000E+00  0.64930732323E+04  0.65000000000E+04  0.30000000000E+03 0.  1.
        -52   -1    0    0    0    0 -0.00000000000E+00 -0.00000000000E+00 -0.64930732323E+04  0.65000000000E+04  0.30000000000E+03 0.  1.
     100001    1    1    2    0    0  0.45287702125E+03  0.64502202117E+03  0.64502867181E+04  0.65000000000E+04  0.15050000000E+03 0.  1.
     100001    1    1    2    0    0 -0.45287702125E+03 -0.64502202117E+03 -0.64502867181E+04  0.65000000000E+04  0.15050000000E+03 0.  1.
</event>
<event>
 4    1  0.4826743E-004  0.6500000E+04  0.7818608E-02  0.7223770E-01
         52   -1    0    0    0    0  0.00000000000E+00  0.00000000000E+00  0.64930732323E+04  0.65000000000E+04  0.30000000000E+03 0.  1.
        -52   -1    0    0    0    0 -0.00000000000E+00 -0.00000000000E+00 -0.64930732323E+04  0.65000000000E+04  0.30000000000E+03 0. -1.
     100001    1    1    2    0    0 -0.32982288413E+04  0.83959005121E+03 -0.55357135770E+04  0.65000000000E+04  0.15050000000E+03 0. -1.
     100001    1    1    2    0    0  0.32982288413E+04 -0.83959005121E+03  0.55357135770E+04  0.65000000000E+04  0.15050000000E+03 0.  1.
</event>
<event>
 4    1  0.4826743E-004  0.6500000E+04  0.7818608E-02  0.7223770E-01
         52   -1    0    0    0    0  0.00000000000E+00  0.00000000000E+00  0.64930732323E+04  0.65000000000E+04  0.30000000000E+03 0.  1.
        -52   -1    0    0    0    0 -0.00000000000E+00 -0.00000000000E+00 -0.64930732323E+04  0.65000000000E+04  0.30000000000E+03 0. -1.
     100001    1    1    2    0    0 -0.18405196536E+03 -0.30337811148E+03  0.64885619628E+04  0.65000000000E+04  0.15050000000E+03 0.  1.
     100001    1    1    2    0    0  0.18405196536E+03  0.30337811148E+03 -0.64885619628E+04  0.65000000000E+04  0.15050000000E+03 0. -1.
</event>
<event>
 4    1  0.4826743E-004  0.6500000E+04  0.7818608E-02  0.7223770E-01
         52   -1    0    0    0    0  0.00000000000E+00  0.00000000000E+00  0.64930732323E+04  0.65000000000E+04  0.30000000000E+03 0.  1.
        -52   -1    0    0    0    0 -0.00000000000E+00 -0.00000000000E+00 -0.64930732323E+04  0.65000000000E+04  0.30000000000E+03 0.  1.
     100001    1    1    2    0    0 -0.82998057673E+02 -0.16798527199E+03 -0.64955555591E+04  0.65000000000E+04  0.15050000000E+03 0.  1.
     100001    1    1    2    0    0  0.82998057673E+02  0.16798527199E+03  0.64955555591E+04  0.65000000000E+04  0.15050000000E+03 0.  1.
</event>
<event>
 4    1  0.4826743E-004  0.6500000E+04  0.7818608E-02  0.7223770E-01
         52   -1    0    0    0    0  0.00000000000E+00  0.00000000000E+00  0.64930732323E+04  0.65000000000E+04  0.30000000000E+03 0.  1.
        -52   -1    0    0    0    0 -0.00000000000E+00 -0.00000000000E+00 -0.64930732323E+04  0.65000000000E+04  0.30000000000E+03 0. -1.
     100001    1    1    2    0    0 -0.12129033950E+04 -0.47796009800E+03  0.63661424151E+04  0.65000000000E+04  0.15050000000E+03 0.  1.
     100001    1    1    2    0    0  0.12129033950E+04  0.47796009800E+03 -0.63661424151E+04  0.65000000000E+04  0.15050000000E+03 0. -1.
</event>
<event>
 4    1  0.4826743E-004  0.6500000E+04  0.7818608E-02  0.7223770E-01
         52   -1    0    0    0    0  0.00000000000E+00  0.00000000000E+00  0.64930732323E+04  0.65000000000E+04  0.30000000000E+03 0.  1.
        -52   -1    0    0    0    0 -0.00000000000E+00 -0.00000000000E+00 -0.64930732323E+04  0.65000000000E+04  0.30000000000E+03 0. -1.
     100001    1    1    2    0    0  0.32638495498E+04 -0.41295894564E+03  0.56039361859E+04  0.65000000000E+04  0.15050000000E+03 0.  1.
     100001    1    1    2    0    0 -0.32638495498E+04  0.41295894564E+03 -0.56039361859E+04  0.65000000000E+04  0.15050000000E+03 0. -1.
</event>
<event>
 4    1  0.4826743E-004  0.6500000E+04  0.7818608E-02  0.7223770E-01
         52   -1    0    0    0    0  0.00000000000E+00  0.00000000000E+00  0.64930732323E+04  0.65000000000E+04  0.30000000000E+03 0. -1.
        -52   -1    0    0    0    0 -0.00000000000E+00 -0.00000000000E+00 -0.64930732323E+04  0.65000000000E+04  0.30000000000E+03 0.  1.
     100001    1    1    2    0    0  0.10326590234E+04 -0.16021842358E+04 -0.62124045881E+04  0.65000000000E+04  0.15050000000E+03 0.  1.
     100001    1    1    2    0    0 -0.10326590234E+04  0.16021842358E+04  0.62124045881E+04  0.65000000000E+04  0.15050000000E+03 0. -1.
</event>
<event>
 4    1  0.4826743E-004  0.6500000E+04  0.7818608E-02  0.7223770E-01
         52   -1    0    0    0    0  0.00000000000E+00  0.00000000000E+00  0.64930732323E+04  0.65000000000E+04  0.30000000000E+03 0. -1.
        -52   -1    0    0    0    0 -0.00000000000E+00 -0.00000000000E+00 -0.64930732323E+04  0.65000000000E+04  0.30000000000E+03 0.  1.
     100001    1    1    2    0    0  0.42381498772E+04 -0.20930450001E+04  0.44592149528E+04  0.65000000000E+04  0.15050000000E+03 0. -1.
     100001    1    1    2    0    0 -0.42381498772E+04  0.20930450001E+04 -0.44592149528E+04  0.65000000000E+04  0.15050000000E+03 0.  1.
</event>
<event>
 4    1  0.4826743E-004  0.6500000E+04  0.7818608E-02  0.7223770E-01
         52   -1    0    0    0    0  0.00000000000E+00  0.00000000000E+00  0.64930732323E+04  0.65000000000E+04  0.30000000000E+03 0. -1.
        -52   -1    0    0    0    0 -0.00000000000E+00 -0.00000000000E+00 -0.64930732323E+04  0.65000000000E+04  0.30000000000E+03 0.  1.
     100001    1    1    2    0    0 -0.21821687433E+04 -0.20679577257E+03  0.61174116123E+04  0.65000000000E+04  0.15050000000E+03 0. -1.
     100001    1    1    2    0    0  0.21821687433E+04  0.20679577257E+03 -0.61174116123E+04  0.65000000000E+04  0.15050000000E+03 0.  1.
</event>
<event>
 4    1  0.4826743E-004  0.6500000E+04  0.7818608E-02  0.7223770E-01
         52   -1    0    0    0    0  0.00000000000E+00  0.00000000000E+00  0.64930732323E+04  0.65000000000E+04  0.30000000000E+03 0. -1.
        -52   -1    0    0    0    0 -0.00000000000E+00 -0.00000000000E+00 -0.64930732323E+04  0.65000000000E+04  0.30000000000E+03 0.  1.
     100001    1    1    2    0    0 -0.10871841625E+04 -0.11268271582E+04 -0.63067932345E+04  0.65000000000E+04  0.15050000000E+03 0.  1.
     100001    1    1    2    0    0  0.10871841625E+04  0.11268271582E+04  0.63067932345E+04  0.65000000000E+04  0.15050000000E+03 0. -1.
</event>
<event>
 4    1  0.4826743E-004  0.6500000E+04  0.7818608E-02  0.7223770E-01
         52   -1    0    0    0    0  0.00000000000E+00  0.00000000000E+00  0.64930732323E+04  0.65000000000E+04  0.30000000000E+03 0. -1.
        -52   -1    0    0    0    0 -0.00000000000E+00 -0.00000000000E+00 -0.64930732323E+04  0.65000000000E+04  0.30000000000E+03 0.  1.
     100001    1    1    2    0    0  0.86443405418E+03 -0.29919571865E+03 -0.64335515416E+04  0.65000000000E+04  0.15050000000E+03 0.  1.
     100001    1    1    2    0    0 -0.86443405418E+03  0.29919571865E+03  0.64335515416E+04  0.65000000000E+04  0.15050000000E+03 0. -1.
</event>
<event>
 4    1  0.4826743E-004  0.6500000E+04  0.7818608E-02  0.7223770E-01
         52   -1    0    0    0    0  0.00000000000E+00  0.00000000000E+00  0.64930732323E+04  0.65000000000E+04  0.30000000000E+03 0. -1.
        -52   -1    0    0    0    0 -0.00000000000E+00 -0.00000000000E+00 -0.64930732323E+04  0.65000000000E+04  0.30000000000E+03 0.  1.
     100001    1    1    2    0    0  0.11833858426E+04 -0.58387120853E+03 -0.63628643007E+04  0.65000000000E+04  0.15050000000E+03 0.  1.
     100001    1    1    2    0    0 -0.11833858426E+04  0.58387120853E+03  0.63628643007E+04  0.65000000000E+04  0.15050000000E+03 0. -1.
</event>
<event>
 4    1  0.4826743E-004  0.6500000E+04  0.7818608E-02  0.7223770E-01
         52   -1    0    0    0    0  0.00000000000E+00  0.00000000000E+00  0.64930732323E+04  0.65000000000E+04  0.30000000000E+03 0.  1.
        -52   -1    0    0    0    0 -0.00000000000E+00 -0.00000000000E+00 -0.64930732323E+04  0.65000000000E+04  0.30000000000E+03 0.  1.
     100001    1    1    2    0    0 -0.89589063579E+03 -0.65403974642E+03 -0.64028869839E+04  0.65000000000E+04  0.15050000000E+03 0.  1.
     100001    1    1    2    0    0  0.89589063579E+03  0.65403974642E+03  0.64028869839E+04  0.65000000000E+04  0.15050000000E+03 0.  1.
</event>
<event>
 4    1  0.4826743E-004  0.6500000E+04  0.7818608E-02  0.7223770E-01
         52   -1    0    0    0    0  0.00000000000E+00  0.00000000000E+00  0.64930732323E+04  0.65000000000E+04  0.30000000000E+03 0. -1.
        -52   -1    0    0    0    0 -0.00000000000E+00 -0.00000000000E+00 -0.64930732323E+04  0.65000000000E+04  0.30000000000E+03 0. -1.
     100001    1    1    2    0    0 -0.66194891410E+02  0.45222532252E+03 -0.64821647807E+04  0.65000000000E+04  0.15050000000E+03 0. -1.
     100001    1    1    2    0    0  0.66194891410E+02 -0.45222532252E+03  0.64821647807E+04  0.65000000000E+04  0.15050000000E+03 0. -1.
</event>
<event>
 4    1  0.4826743E-004  0.6500000E+04  0.7818608E-02  0.7223770E-01
         52   -1    0    0    0    0  0.00000000000E+00  0.00000000000E+00  0.64930732323E+04  0.65000000000E+04  0.30000000000E+03 0.  1.
        -52   -1    0    0    0    0 -0.00000000000E+00 -0.00000000000E+00 -0.64930732323E+04  0.65000000000E+04  0.30000000000E+03 0. -1.
     100001    1    1    2    0    0  0.23079360048E+04 -0.49186000485E+04  0.35648498862E+04  0.65000000000E+04  0.15050000000E+03 0.  1.
     100001    1    1    2    0    0 -0.23079360048E+04  0.49186000485E+04 -0.35648498862E+04  0.65000000000E+04  0.15050000000E+03 0. -1.
</event>
<event>
 4    1  0.4826743E-004  0.6500000E+04  0.7818608E-02  0.7223770E-01
         52   -1    0    0    0    0  0.00000000000E+00  0.00000000000E+00  0.64930732323E+04  0.65000000000E+04  0.30000000000E+03 0.  1.
        -52   -1    0    0    0    0 -0.00000000000E+00 -0.00000000000E+00 -0.64930732323E+04  0.65000000000E+04  0.30000000000E+03 0. -1.
     100001    1    1    2    0    0 -0.36509013313E+04  0.80629431028E+03  0.53148996890E+04  0.65000000000E+04  0.15050000000E+03 0.  1.
     100001    1    1    2    0    0  0.36509013313E+04 -0.80629431028E+03 -0.53148996890E+04  0.65000000000E+04  0.15050000000E+03 0. -1.
</event>
<event>
 4    1  0.4826743E-004  0.6500000E+04  0.7818608E-02  0.7223770E-01
         52   -1    0    0    0    0  0.00000000000E+00  0.00000000000E+00  0.64930732323E+04  0.65000000000E+04  0.30000000000E+03 0.  1.
        -52   -1    0    0    0    0 -0.00000000000E+00 -0.00000000000E+00 -0.64930732323E+04  0.65000000000E+04  0.30000000000E+03 0. -1.
     100001    1    1    2    0    0  0.13957350565E+04  0.36703003108E+03  0.63359736709E+04  0.65000000000E+04  0.15050000000E+03 0.  1.
     100001    1    1    2    0    0 -0.13957350565E+04 -0.36703003108E+03 -0.63359736709E+04  0.65000000000E+04  0.15050000000E+03 0. -1.
</event>
<event>
 4    1  0.4826743E-004  0.6500000E+04  0.7818608E-02  0.7223770E-01
         52   -1    0    0    0    0  0.00000000000E+00  0.00000000000E+00  0.64930732323E+04  0.65000000000E+04  0.30000000000E+03 0. -1.
        -52   -1    0    0    0    0 -0.00000000000E+00 -0.00000000000E+00 -0.64930732323E+04  0.65000000000E+04  0.30000000000E+03 0. -1.
     100001    1    1    2    0    0  0.16618783897E+03 -0.73510815046E+03 -0.64544052677E+04  0.65000000000E+04  0.15050000000E+03 0. -1.
     100001    1    1    2    0    0 -0.16618783897E+03  0.73510815046E+03  0.64544052677E+04  0.65000000000E+04  0.15050000000E+03 0. -1.
</event>
<event>
 4    1  0.4826743E-004  0.6500000E+04  0.7818608E-02  0.7223770E-01
         52   -1    0    0    0    0  0.00000000000E+00  0.00000000000E+00  0.64930732323E+04  0.65000000000E+04  0.30000000000E+03 0. -1.
        -52   -1    0    0    0    0 -0.00000000000E+00 -0.00000000000E+00 -0.64930732323E+04  0.65000000000E+04  0.30000000000E+03 0.  1.
     100001    1    1    2    0    0 -0.75321913858E+03  0.58322814244E+04  0.27648696291E+04  0.65000000000E+04  0.15050000000E+03 0. -1.
     100001    1    1    2    0    0  0.75321913858E+03 -0.58322814244E+04 -0.27648696291E+04  0.65000000000E+04  0.15050000000E+03 0.  1.
</event>
<event>
 4    1  0.4826743E-004  0.6500000E+04  0.7818608E-02  0.7223770E-01
         52   -1    0    0    0    0  0.00000000000E+00  0.00000000000E+00  0.64930732323E+04  0.65000000000E+04  0.30000000000E+03 0.  1.
        -52   -1    0    0    0    0 -0.00000000000E+00 -0.00000000000E+00 -0.64930732323E+04  0.65000000000E+04  0.30000000000E+03 0. -1.
     100001    1    1    2    0    0  0.23071673262E+04  0.14474431240E+04 -0.58999353456E+04  0.65000000000E+04  0.15050000000E+03 0. -1.
     100001    1    1    2    0    0 -0.23071673262E+04 -0.14474431240E+04  0.58999353456E+04  0.65000000000E+04  0.15050000000E+03 0.  1.
</event>
<event>
 4    1  0.4826743E-004  0.6500000E+04  0.7818608E-02  0.7223770E-01
         52   -1    0    0    0    0  0.00000000000E+00  0.00000000000E+00  0.64930732323E+04  0.65000000000E+04  0.30000000000E+03 0.  1.
        -52   -1    0    0    0    0 -0.00000000000E+00 -0.00000000000E+00 -0.64930732323E+04  0.65000000000E+04  0.30000000000E+03 0. -1.
     100001    1    1    2    0    0 -0.61328280704E+03  0.29248129089E+03 -0.64626379013E+04  0.65000000000E+04  0.15050000000E+03 0. -1.
     100001    1    1    2    0    0  0.61328280704E+03 -0.29248129089E+03  0.64626379013E+04  0.65000000000E+04  0.15050000000E+03 0.  1.
</event>
<event>
 4    1  0.4826743E-004  0.6500000E+04  0.7818608E-02  0.7223770E-01
         52   -1    0    0    0    0  0.00000000000E+00  0.00000000000E+00  0.64930732323E+04  0.65000000000E+04  0.30000000000E+03 0. -1.
        -52   -1    0    0    0    0 -0.00000000000E+00 -0.00000000000E+00 -0.64930732323E+04  0.65000000000E+04  0.30000000000E+03 0. -1.
     100001    1    1    2    0    0  0.24392456429E+03 -0.21010345314E+03 -0.64902778905E+04  0.65000000000E+04  0.15050000000E+03 0. -1.
     100001    1    1    2    0    0 -0.24392456429E+03  0.21010345314E+03  0.64902778905E+04  0.65000000000E+04  0.15050000000E+03 0. -1.
</event>
<event>
 4    1  0.4826743E-004  0.6500000E+04  0.7818608E-02  0.7223770E-01
         52   -1    0    0    0    0  0.00000000000E+00  0.00000000000E+00  0.64930732323E+04  0.65000000000E+04  0.30000000000E+03 0. -1.
        -52   -1    0    0    0    0 -0.00000000000E+00 -0.00000000000E+00 -0.64930732323E+04  0.65000000000E+04  0.30000000000E+03 0.  1.
     100001    1    1    2    0    0 -0.39624875676E+04  0.43509300409E+04  0.27559843624E+04  0.65000000000E+04  0.15050000000E+03 0. -1.
     100001    1    1    2    0    0  0.39624875676E+04 -0.43509300409E+04 -0.27559843624E+04  0.65000000000E+04  0.15050000000E+03 0.  1.
</event>
<event>
 4    1  0.4826743E-004  0.6500000E+04  0.7818608E-02  0.7223770E-01
         52   -1    0    0    0    0  0.00000000000E+00  0.00000000000E+00  0.64930732323E+04  0.65000000000E+04  0.30000000000E+03 0.  1.
        -52   -1    0    0    0    0 -0.00000000000E+00 -0.00000000000E+00 -0.64930732323E+04  0.65000000000E+04  0.30000000000E+03 0.  1.
     100001    1    1    2    0    0 -0.12462210109E+03  0.25472168807E+02 -0.64970124096E+04  0.65000000000E+04  0.15050000000E+03 0.  1.
     100001    1    1    2    0    0  0.12462210109E+03 -0.25472168807E+02  0.64970124096E+04  0.65000000000E+04  0.15050000000E+03 0.  1.
</event>
<event>
 4    1  0.4826743E-004  0.6500000E+04  0.7818608E-02  0.7223770E-01
         52   -1    0    0    0    0  0.00000000000E+00  0.00000000000E+00  0.64930732323E+04  0.65000000000E+04  0.30000000000E+03 0. -1.
        -52   -1    0    0    0    0 -0.00000000000E+00 -0.00000000000E+00 -0.64930732323E+04  0.65000000000E+04  0.30000000000E+03 0.  1.
     100001    1    1    2    0    0 -0.18434596497E+04 -0.62255371253E+04  0.26775692531E+03  0.65000000000E+04  0.15050000000E+03 0.  1.
     100001    1    1    2    0    0  0.18434596497E+04  0.62255371253E+04 -0.26775692531E+03  0.65000000000E+04  0.15050000000E+03 0. -1.
</event>
<event>
 4    1  0.4826743E-004  0.6500000E+04  0.7818608E-02  0.7223770E-01
         52   -1    0    0    0    0  0.00000000000E+00  0.00000000000E+00  0.64930732323E+04  0.65000000000E+04  0.30000000000E+03 0.  1.
        -52   -1    0    0    0    0 -0.00000000000E+00 -0.00000000000E+00 -0.64930732323E+04  0.65000000000E+04  0.30000000000E+03 0.  1.
     100001    1    1    2    0    0  0.37288763930E+03 -0.48251036104E+03 -0.64695817724E+04  0.65000000000E+04  0.15050000000E+03 0.  1.
     100001    1    1    2    0    0 -0.37288763930E+03  0.48251036104E+03  0.64695817724E+04  0.65000000000E+04  0.15050000000E+03 0.  1.
</event>
<event>
 4    1  0.4826743E-004  0.6500000E+04  0.7818608E-02  0.7223770E-01
         52   -1    0    0    0    0  0.00000000000E+00  0.00000000000E+00  0.64930732323E+04  0.65000000000E+04  0.30000000000E+03 0.  1.
        -52   -1    0    0    0    0 -0.00000000000E+00 -0.00000000000E+00 -0.64930732323E+04  0.65000000000E+04  0.30000000000E+03 0. -1.
     100001    1    1    2    0    0 -0.24483447811E+04 -0.12983970994E+04  0.58776800317E+04  0.65000000000E+04  0.15050000000E+03 0.  1.
     100001    1    1    2    0    0  0.24483447811E+04  0.12983970994E+04 -0.58776800317E+04  0.65000000000E+04  0.15050000000E+03 0. -1.
</event>
<event>
 4    1  0.4826743E-004  0.6500000E+04  0.7818608E-02  0.7223770E-01
         52   -1    0    0    0    0  0.00000000000E+00  0.00000000000E+00  0.64930732323E+04  0.65000000000E+04  0.30000000000E+03 0. -1.
        -52   -1    0    0    0    0 -0.00000000000E+00 -0.00000000000E+00 -0.64930732323E+04  0.65000000000E+04  0.30000000000E+03 0.  1.
     100001    1    1    2    0    0  0.32163494648E+04 -0.17099335771E+03 -0.56438645574E+04  0.65000000000E+04  0.15050000000E+03 0.  1.
     100001    1    1    2    0    0 -0.32163494648E+04  0.17099335771E+03  0.56438645574E+04  0.65000000000E+04  0.15050000000E+03 0. -1.
</event>
<event>
 4    1  0.4826743E-004  0.6500000E+04  0.7818608E-02  0.7223770E-01
         52   -1    0    0    0    0  0.00000000000E+00  0.00000000000E+00  0.64930732323E+04  0.65000000000E+04  0.30000000000E+03 0.  1.
        -52   -1    0    0    0    0 -0.00000000000E+00 -0.00000000000E+00 -0.64930732323E+04  0.65000000000E+04  0.30000000000E+03 0.  1.
     100001    1    1    2    0    0  0.30249508038E+03  0.29161812474E+02  0.64911475153E+04  0.65000000000E+04  0.15050000000E+03 0.  1.
     100001    1    1    2    0    0 -0.30249508038E+03 -0.29161812474E+02 -0.64911475153E+04  0.65000000000E+04  0.15050000000E+03 0.  1.
</event>
<event>
 4    1  0.4826743E-004  0.6500000E+04  0.7818608E-02  0.7223770E-01
         52   -1    0    0    0    0  0.00000000000E+00  0.00000000000E+00  0.64930732323E+04  0.65000000000E+04  0.30000000000E+03 0.  1.
        -52   -1    0    0    0    0 -0.00000000000E+00 -0.00000000000E+00 -0.64930732323E+04  0.65000000000E+04  0.30000000000E+03 0. -1.
     100001    1    1    2    0    0 -0.91357081791E+03 -0.34551666630E+03 -0.64244343209E+04  0.65000000000E+04  0.15050000000E+03 0. -1.
     100001    1    1    2    0    0  0.91357081791E+03  0.34551666630E+03  0.64244343209E+04  0.65000000000E+04  0.15050000000E+03 0.  1.
</event>
<event>
 4    1  0.4826743E-004  0.6500000E+04  0.7818608E-02  0.7223770E-01
         52   -1    0    0    0    0  0.00000000000E+00  0.00000000000E+00  0.64930732323E+04  0.65000000000E+04  0.30000000000E+03 0.  1.
        -52   -1    0    0    0    0 -0.00000000000E+00 -0.00000000000E+00 -0.64930732323E+04  0.65000000000E+04  0.30000000000E+03 0. -1.
     100001    1    1    2    0    0 -0.55332896538E+04 -0.33623891208E+04 -0.55171981789E+03  0.65000000000E+04  0.15050000000E+03 0.  1.
     100001    1    1    2    0    0  0.55332896538E+04  0.33623891208E+04  0.55171981789E+03  0.65000000000E+04  0.15050000000E+03 0. -1.
</event>
<event>
 4    1  0.4826743E-004  0.6500000E+04  0.7818608E-02  0.7223770E-01
         52   -1    0    0    0    0  0.00000000000E+00  0.00000000000E+00  0.64930732323E+04  0.65000000000E+04  0.30000000000E+03 0.  1.
        -52   -1    0    0    0    0 -0.00000000000E+00 -0.00000000000E+00 -0.64930732323E+04  0.65000000000E+04  0.30000000000E+03 0. -1.
     100001    1    1    2    0    0 -0.41571314010E+04  0.69640555357E+03  0.49457686531E+04  0.65000000000E+04  0.15050000000E+03 0.  1.
     100001    1    1    2    0    0  0.41571314010E+04 -0.69640555357E+03 -0.49457686531E+04  0.65000000000E+04  0.15050000000E+03 0. -1.
</event>
<event>
 4    1  0.4826743E-004  0.6500000E+04  0.7818608E-02  0.7223770E-01
         52   -1    0    0    0    0  0.00000000000E+00  0.00000000000E+00  0.64930732323E+04  0.65000000000E+04  0.30000000000E+03 0.  1.
        -52   -1    0    0    0    0 -0.00000000000E+00 -0.00000000000E+00 -0.64930732323E+04  0.65000000000E+04  0.30000000000E+03 0. -1.
     100001    1    1    2    0    0  0.23374234118E+04  0.41656963114E+02  0.60631729516E+04  0.65000000000E+04  0.15050000000E+03 0.  1.
     100001    1    1    2    0    0 -0.23374234118E+04 -0.41656963114E+02 -0.60631729516E+04  0.65000000000E+04  0.15050000000E+03 0. -1.
</event>
<event>
 4    1  0.4826743E-004  0.6500000E+04  0.7818608E-02  0.7223770E-01
         52   -1    0    0    0    0  0.00000000000E+00  0.00000000000E+00  0.64930732323E+04  0.65000000000E+04  0.30000000000E+03 0. -1.
        -52   -1    0    0    0    0 -0.00000000000E+00 -0.00000000000E+00 -0.64930732323E+04  0.65000000000E+04  0.30000000000E+03 0.  1.
     100001    1    1    2    0    0  0.22160614605E+04  0.37361473268E+03  0.60972808189E+04  0.65000000000E+04  0.15050000000E+03 0. -1.
     100001    1    1    2    0    0 -0.22160614605E+04 -0.37361473268E+03 -0.60972808189E+04  0.65000000000E+04  0.15050000000E+03 0.  1.
</event>
<event>
 4    1  0.4826743E-004  0.6500000E+04  0.7818608E-02  0.7223770E-01
         52   -1    0    0    0    0  0.00000000000E+00  0.00000000000E+00  0.64930732323E+04  0.65000000000E+04  0.30000000000E+03 0. -1.
        -52   -1    0    0    0    0 -0.00000000000E+00 -0.00000000000E+00 -0.64930732323E+04  0.65000000000E+04  0.30000000000E+03 0.  1.
     100001    1    1    2    0    0 -0.25418063831E+03 -0.12764126453E+04 -0.63665934935E+04  0.65000000000E+04  0.15050000000E+03 0.  1.
     100001    1    1    2    0    0  0.25418063831E+03  0.12764126453E+04  0.63665934935E+04  0.65000000000E+04  0.15050000000E+03 0. -1.
</event>
<event>
 4    1  0.4826743E-004  0.6500000E+04  0.7818608E-02  0.7223770E-01
         52   -1    0    0    0    0  0.00000000000E+00  0.00000000000E+00  0.64930732323E+04  0.65000000000E+04  0.30000000000E+03 0.  1.
        -52   -1    0    0    0    0 -0.00000000000E+00 -0.00000000000E+00 -0.64930732323E+04  0.65000000000E+04  0.30000000000E+03 0.  1.
     100001    1    1    2    0    0 -0.39034093879E+01  0.88867645417E+02  0.64976485789E+04  0.65000000000E+04  0.15050000000E+03 0.  1.
     100001    1    1    2    0    0  0.39034093879E+01 -0.88867645417E+02 -0.64976485789E+04  0.65000000000E+04  0.15050000000E+03 0.  1.
</event>
<event>
 4    1  0.4826743E-004  0.6500000E+04  0.7818608E-02  0.7223770E-01
         52   -1    0    0    0    0  0.00000000000E+00  0.00000000000E+00  0.64930732323E+04  0.65000000000E+04  0.30000000000E+03 0. -1.
        -52   -1    0    0    0    0 -0.00000000000E+00 -0.00000000000E+00 -0.64930732323E+04  0.65000000000E+04  0.30000000000E+03 0.  1.
     100001    1    1    2    0    0  0.17167428705E+04  0.72517016704E+03 -0.62252929164E+04  0.65000000000E+04  0.15050000000E+03 0.  1.
     100001    1    1    2    0    0 -0.17167428705E+04 -0.72517016704E+03  0.62252929164E+04  0.65000000000E+04  0.15050000000E+03 0. -1.
</event>
<event>
 4    1  0.4826743E-004  0.6500000E+04  0.7818608E-02  0.7223770E-01
         52   -1    0    0    0    0  0.00000000000E+00  0.00000000000E+00  0.64930732323E+04  0.65000000000E+04  0.30000000000E+03 0.  1.
        -52   -1    0    0    0    0 -0.00000000000E+00 -0.00000000000E+00 -0.64930732323E+04  0.65000000000E+04  0.30000000000E+03 0. -1.
     100001    1    1    2    0    0  0.10224736044E+03  0.63963657840E+04  0.11416654434E+04  0.65000000000E+04  0.15050000000E+03 0.  1.
     100001    1    1    2    0    0 -0.10224736044E+03 -0.63963657840E+04 -0.11416654434E+04  0.65000000000E+04  0.15050000000E+03 0. -1.
</event>
<event>
 4    1  0.4826743E-004  0.6500000E+04  0.7818608E-02  0.7223770E-01
         52   -1    0    0    0    0  0.00000000000E+00  0.00000000000E+00  0.64930732323E+04  0.65000000000E+04  0.30000000000E+03 0. -1.
        -52   -1    0    0    0    0 -0.00000000000E+00 -0.00000000000E+00 -0.64930732323E+04  0.65000000000E+04  0.30000000000E+03 0.  1.
     100001    1    1    2    0    0 -0.45107231376E+04  0.37214891855E+03 -0.46628566039E+04  0.65000000000E+04  0.15050000000E+03 0.  1.
     100001    1    1    2    0    0  0.45107231376E+04 -0.37214891855E+03  0.46628566039E+04  0.65000000000E+04  0.15050000000E+03 0. -1.
</event>
<event>
 4    1  0.4826743E-004  0.6500000E+04  0.7818608E-02  0.7223770E-01
         52   -1    0    0    0    0  0.00000000000E+00  0.00000000000E+00  0.64930732323E+04  0.65000000000E+04  0.30000000000E+03 0. -1.
        -52   -1    0    0    0    0 -0.00000000000E+00 -0.00000000000E+00 -0.64930732323E+04  0.65000000000E+04  0.30000000000E+03 0.  1.
     100001    1    1    2    0    0 -0.11218990702E+04 -0.43744492805E+03  0.63857132852E+04  0.65000000000E+04  0.15050000000E+03 0. -1.
     100001    1    1    2    0    0  0.11218990702E+04  0.43744492805E+03 -0.63857132852E+04  0.65000000000E+04  0.15050000000E+03 0.  1.
</event>
<event>
 4    1  0.4826743E-004  0.6500000E+04  0.7818608E-02  0.7223770E-01
         52   -1    0    0    0    0  0.00000000000E+00  0.00000000000E+00  0.64930732323E+04  0.65000000000E+04  0.30000000000E+03 0. -1.
        -52   -1    0    0    0    0 -0.00000000000E+00 -0.00000000000E+00 -0.64930732323E+04  0.65000000000E+04  0.30000000000E+03 0.  1.
     100001    1    1    2    0    0 -0.54358288754E+04 -0.40041286475E+02 -0.35605492390E+04  0.65000000000E+04  0.15050000000E+03 0.  1.
     100001    1    1    2    0    0  0.54358288754E+04  0.40041286475E+02  0.35605492390E+04  0.65000000000E+04  0.15050000000E+03 0. -1.
</event>
<event>
 4    1  0.4826743E-004  0.6500000E+04  0.7818608E-02  0.7223770E-01
         52   -1    0    0    0    0  0.00000000000E+00  0.00000000000E+00  0.64930732323E+04  0.65000000000E+04  0.30000000000E+03 0. -1.
        -52   -1    0    0    0    0 -0.00000000000E+00 -0.00000000000E+00 -0.64930732323E+04  0.65000000000E+04  0.30000000000E+03 0. -1.
     100001    1    1    2    0    0 -0.38872507059E+03 -0.11946330142E+03  0.64855201094E+04  0.65000000000E+04  0.15050000000E+03 0. -1.
     100001    1    1    2    0    0  0.38872507059E+03  0.11946330142E+03 -0.64855201094E+04  0.65000000000E+04  0.15050000000E+03 0. -1.
</event>
<event>
 4    1  0.4826743E-004  0.6500000E+04  0.7818608E-02  0.7223770E-01
         52   -1    0    0    0    0  0.00000000000E+00  0.00000000000E+00  0.64930732323E+04  0.65000000000E+04  0.30000000000E+03 0. -1.
        -52   -1    0    0    0    0 -0.00000000000E+00 -0.00000000000E+00 -0.64930732323E+04  0.65000000000E+04  0.30000000000E+03 0.  1.
     100001    1    1    2    0    0 -0.16248891536E+04  0.25299523907E+04 -0.57607660853E+04  0.65000000000E+04  0.15050000000E+03 0.  1.
     100001    1    1    2    0    0  0.16248891536E+04 -0.25299523907E+04  0.57607660853E+04  0.65000000000E+04  0.15050000000E+03 0. -1.
</event>
<event>
 4    1  0.4826743E-004  0.6500000E+04  0.7818608E-02  0.7223770E-01
         52   -1    0    0    0    0  0.00000000000E+00  0.00000000000E+00  0.64930732323E+04  0.65000000000E+04  0.30000000000E+03 0. -1.
        -52   -1    0    0    0    0 -0.00000000000E+00 -0.00000000000E+00 -0.64930732323E+04  0.65000000000E+04  0.30000000000E+03 0.  1.
     100001    1    1    2    0    0 -0.38350431629E+04  0.17587086858E+04  0.49423412921E+04  0.65000000000E+04  0.15050000000E+03 0. -1.
     100001    1    1    2    0    0  0.38350431629E+04 -0.17587086858E+04 -0.49423412921E+04  0.65000000000E+04  0.15050000000E+03 0.  1.
</event>
<event>
 4    1  0.4826743E-004  0.6500000E+04  0.7818608E-02  0.7223770E-01
         52   -1    0    0    0    0  0.00000000000E+00  0.00000000000E+00  0.64930732323E+04  0.65000000000E+04  0.30000000000E+03 0. -1.
        -52   -1    0    0    0    0 -0.00000000000E+00 -0.00000000000E+00 -0.64930732323E+04  0.65000000000E+04  0.30000000000E+03 0.  1.
     100001    1    1    2    0    0  0.15082484804E+04 -0.28489257439E+04 -0.56423539748E+04  0.65000000000E+04  0.15050000000E+03 0.  1.
     100001    1    1    2    0    0 -0.15082484804E+04  0.28489257439E+04  0.56423539748E+04  0.65000000000E+04  0.15050000000E+03 0. -1.
</event>
<event>
 4    1  0.4826743E-004  0.6500000E+04  0.7818608E-02  0.7223770E-01
         52   -1    0    0    0    0  0.00000000000E+00  0.00000000000E+00  0.64930732323E+04  0.65000000000E+04  0.30000000000E+03 0. -1.
        -52   -1    0    0    0    0 -0.00000000000E+00 -0.00000000000E+00 -0.64930732323E+04  0.65000000000E+04  0.30000000000E+03 0.  1.
     100001    1    1    2    0    0  0.14641038674E+04  0.47264379581E+04 -0.42124261232E+04  0.65000000000E+04  0.15050000000E+03 0.  1.
     100001    1    1    2    0    0 -0.14641038674E+04 -0.47264379581E+04  0.42124261232E+04  0.65000000000E+04  0.15050000000E+03 0. -1.
</event>
<event>
 4    1  0.4826743E-004  0.6500000E+04  0.7818608E-02  0.7223770E-01
         52   -1    0    0    0    0  0.00000000000E+00  0.00000000000E+00  0.64930732323E+04  0.65000000000E+04  0.30000000000E+03 0. -1.
        -52   -1    0    0    0    0 -0.00000000000E+00 -0.00000000000E+00 -0.64930732323E+04  0.65000000000E+04  0.30000000000E+03 0.  1.
     100001    1    1    2    0    0  0.65424501977E+03 -0.31186323952E+03 -0.64577127935E+04  0.65000000000E+04  0.15050000000E+03 0.  1.
     100001    1    1    2    0    0 -0.65424501977E+03  0.31186323952E+03  0.64577127935E+04  0.65000000000E+04  0.15050000000E+03 0. -1.
</event>
<event>
 4    1  0.4826743E-004  0.6500000E+04  0.7818608E-02  0.7223770E-01
         52   -1    0    0    0    0  0.00000000000E+00  0.00000000000E+00  0.64930732323E+04  0.65000000000E+04  0.30000000000E+03 0.  1.
        -52   -1    0    0    0    0 -0.00000000000E+00 -0.00000000000E+00 -0.64930732323E+04  0.65000000000E+04  0.30000000000E+03 0. -1.
     100001    1    1    2    0    0  0.26409365063E+04  0.81292200905E+03 -0.58814931716E+04  0.65000000000E+04  0.15050000000E+03 0. -1.
     100001    1    1    2    0    0 -0.26409365063E+04 -0.81292200905E+03  0.58814931716E+04  0.65000000000E+04  0.15050000000E+03 0.  1.
</event>
<event>
 4    1  0.4826743E-004  0.6500000E+04  0.7818608E-02  0.7223770E-01
         52   -1    0    0    0    0  0.00000000000E+00  0.00000000000E+00  0.64930732323E+04  0.65000000000E+04  0.30000000000E+03 0. -1.
        -52   -1    0    0    0    0 -0.00000000000E+00 -0.00000000000E+00 -0.64930732323E+04  0.65000000000E+04  0.30000000000E+03 0.  1.
     100001    1    1    2    0    0 -0.47791830651E+03  0.16941751866E+03  0.64784443771E+04  0.65000000000E+04  0.15050000000E+03 0. -1.
     100001    1    1    2    0    0  0.47791830651E+03 -0.16941751866E+03 -0.64784443771E+04  0.65000000000E+04  0.15050000000E+03 0.  1.
</event>
<event>
 4    1  0.4826743E-004  0.6500000E+04  0.7818608E-02  0.7223770E-01
         52   -1    0    0    0    0  0.00000000000E+00  0.00000000000E+00  0.64930732323E+04  0.65000000000E+04  0.30000000000E+03 0. -1.
        -52   -1    0    0    0    0 -0.00000000000E+00 -0.00000000000E+00 -0.64930732323E+04  0.65000000000E+04  0.30000000000E+03 0.  1.
     100001    1    1    2    0    0  0.38990553677E+04  0.25272939912E+04  0.45428517554E+04  0.65000000000E+04  0.15050000000E+03 0. -1.
     100001    1    1    2    0    0 -0.38990553677E+04 -0.25272939912E+04 -0.45428517554E+04  0.65000000000E+04  0.15050000000E+03 0.  1.
</event>
<event>
 4    1  0.4826743E-004  0.6500000E+04  0.7818608E-02  0.7223770E-01
         52   -1    0    0    0    0  0.00000000000E+00  0.00000000000E+00  0.64930732323E+04  0.65000000000E+04  0.30000000000E+03 0.  1.
        -52   -1    0    0    0    0 -0.00000000000E+00 -0.00000000000E+00 -0.64930732323E+04  0.65000000000E+04  0.30000000000E+03 0. -1.
     100001    1    1    2    0    0  0.67045878276E+03 -0.26524220182E+03 -0.64581329612E+04  0.65000000000E+04  0.15050000000E+03 0. -1.
     100001    1    1    2    0    0 -0.67045878276E+03  0.26524220182E+03  0.64581329612E+04  0.65000000000E+04  0.15050000000E+03 0.  1.
</event>
<event>
 4    1  0.4826743E-004  0.6500000E+04  0.7818608E-02  0.7223770E-01
         52   -1    0    0    0    0  0.00000000000E+00  0.00000000000E+00  0.64930732323E+04  0.65000000000E+04  0.30000000000E+03 0. -1.
        -52   -1    0    0    0    0 -0.00000000000E+00 -0.00000000000E+00 -0.64930732323E+04  0.65000000000E+04  0.30000000000E+03 0. -1.
     100001    1    1    2    0    0  0.87424652417E+03  0.28334312576E+02  0.64391179467E+04  0.65000000000E+04  0.15050000000E+03 0. -1.
     100001    1    1    2    0    0 -0.87424652417E+03 -0.28334312576E+02 -0.64391179467E+04  0.65000000000E+04  0.15050000000E+03 0. -1.
</event>
<event>
 4    1  0.4826743E-004  0.6500000E+04  0.7818608E-02  0.7223770E-01
         52   -1    0    0    0    0  0.00000000000E+00  0.00000000000E+00  0.64930732323E+04  0.65000000000E+04  0.30000000000E+03 0. -1.
        -52   -1    0    0    0    0 -0.00000000000E+00 -0.00000000000E+00 -0.64930732323E+04  0.65000000000E+04  0.30000000000E+03 0.  1.
     100001    1    1    2    0    0 -0.21751806291E+04  0.17962585236E+04 -0.58540066875E+04  0.65000000000E+04  0.15050000000E+03 0.  1.
     100001    1    1    2    0    0  0.21751806291E+04 -0.17962585236E+04  0.58540066875E+04  0.65000000000E+04  0.15050000000E+03 0. -1.
</event>
<event>
 4    1  0.4826743E-004  0.6500000E+04  0.7818608E-02  0.7223770E-01
         52   -1    0    0    0    0  0.00000000000E+00  0.00000000000E+00  0.64930732323E+04  0.65000000000E+04  0.30000000000E+03 0.  1.
        -52   -1    0    0    0    0 -0.00000000000E+00 -0.00000000000E+00 -0.64930732323E+04  0.65000000000E+04  0.30000000000E+03 0. -1.
     100001    1    1    2    0    0 -0.24375337159E+03  0.46355273209E+03  0.64771176389E+04  0.65000000000E+04  0.15050000000E+03 0.  1.
     100001    1    1    2    0    0  0.24375337159E+03 -0.46355273209E+03 -0.64771176389E+04  0.65000000000E+04  0.15050000000E+03 0. -1.
</event>
<event>
 4    1  0.4826743E-004  0.6500000E+04  0.7818608E-02  0.7223770E-01
         52   -1    0    0    0    0  0.00000000000E+00  0.00000000000E+00  0.64930732323E+04  0.65000000000E+04  0.30000000000E+03 0.  1.
        -52   -1    0    0    0    0 -0.00000000000E+00 -0.00000000000E+00 -0.64930732323E+04  0.65000000000E+04  0.30000000000E+03 0.  1.
     100001    1    1    2    0    0  0.16919780126E+04  0.11827215366E+04  0.61616337056E+04  0.65000000000E+04  0.15050000000E+03 0.  1.
     100001    1    1    2    0    0 -0.16919780126E+04 -0.11827215366E+04 -0.61616337056E+04  0.65000000000E+04  0.15050000000E+03 0.  1.
</event>
<event>
 4    1  0.4826743E-004  0.6500000E+04  0.7818608E-02  0.7223770E-01
         52   -1    0    0    0    0  0.00000000000E+00  0.00000000000E+00  0.64930732323E+04  0.65000000000E+04  0.30000000000E+03 0.  1.
        -52   -1    0    0    0    0 -0.00000000000E+00 -0.00000000000E+00 -0.64930732323E+04  0.65000000000E+04  0.30000000000E+03 0. -1.
     100001    1    1    2    0    0  0.11375830576E+04 -0.28381160974E+03  0.63916121211E+04  0.65000000000E+04  0.15050000000E+03 0.  1.
     100001    1    1    2    0    0 -0.11375830576E+04  0.28381160974E+03 -0.63916121211E+04  0.65000000000E+04  0.15050000000E+03 0. -1.
</event>
<event>
 4    1  0.4826743E-004  0.6500000E+04  0.7818608E-02  0.7223770E-01
         52   -1    0    0    0    0  0.00000000000E+00  0.00000000000E+00  0.64930732323E+04  0.65000000000E+04  0.30000000000E+03 0. -1.
        -52   -1    0    0    0    0 -0.00000000000E+00 -0.00000000000E+00 -0.64930732323E+04  0.65000000000E+04  0.30000000000E+03 0.  1.
     100001    1    1    2    0    0  0.91285192695E+03 -0.52860357895E+03 -0.64120690394E+04  0.65000000000E+04  0.15050000000E+03 0.  1.
     100001    1    1    2    0    0 -0.91285192695E+03  0.52860357895E+03  0.64120690394E+04  0.65000000000E+04  0.15050000000E+03 0. -1.
</event>
<event>
 4    1  0.4826743E-004  0.6500000E+04  0.7818608E-02  0.7223770E-01
         52   -1    0    0    0    0  0.00000000000E+00  0.00000000000E+00  0.64930732323E+04  0.65000000000E+04  0.30000000000E+03 0. -1.
        -52   -1    0    0    0    0 -0.00000000000E+00 -0.00000000000E+00 -0.64930732323E+04  0.65000000000E+04  0.30000000000E+03 0.  1.
     100001    1    1    2    0    0 -0.16112244444E+04  0.51147366924E+04  0.36702553191E+04  0.65000000000E+04  0.15050000000E+03 0. -1.
     100001    1    1    2    0    0  0.16112244444E+04 -0.51147366924E+04 -0.36702553191E+04  0.65000000000E+04  0.15050000000E+03 0.  1.
</event>
<event>
 4    1  0.4826743E-004  0.6500000E+04  0.7818608E-02  0.7223770E-01
         52   -1    0    0    0    0  0.00000000000E+00  0.00000000000E+00  0.64930732323E+04  0.65000000000E+04  0.30000000000E+03 0.  1.
        -52   -1    0    0    0    0 -0.00000000000E+00 -0.00000000000E+00 -0.64930732323E+04  0.65000000000E+04  0.30000000000E+03 0. -1.
     100001    1    1    2    0    0 -0.37953755553E+03  0.16329069955E+03  0.64851088766E+04  0.65000000000E+04  0.15050000000E+03 0.  1.
     100001    1    1    2    0    0  0.37953755553E+03 -0.16329069955E+03 -0.64851088766E+04  0.65000000000E+04  0.15050000000E+03 0. -1.
</event>
<event>
 4    1  0.4826743E-004  0.6500000E+04  0.7818608E-02  0.7223770E-01
         52   -1    0    0    0    0  0.00000000000E+00  0.00000000000E+00  0.64930732323E+04  0.65000000000E+04  0.30000000000E+03 0.  1.
        -52   -1    0    0    0    0 -0.00000000000E+00 -0.00000000000E+00 -0.64930732323E+04  0.65000000000E+04  0.30000000000E+03 0. -1.
     100001    1    1    2    0    0 -0.36324745703E+03 -0.12939785643E+04 -0.63577527877E+04  0.65000000000E+04  0.15050000000E+03 0. -1.
     100001    1    1    2    0    0  0.36324745703E+03  0.12939785643E+04  0.63577527877E+04  0.65000000000E+04  0.15050000000E+03 0.  1.
</event>
<event>
 4    1  0.4826743E-004  0.6500000E+04  0.7818608E-02  0.7223770E-01
         52   -1    0    0    0    0  0.00000000000E+00  0.00000000000E+00  0.64930732323E+04  0.65000000000E+04  0.30000000000E+03 0.  1.
        -52   -1    0    0    0    0 -0.00000000000E+00 -0.00000000000E+00 -0.64930732323E+04  0.65000000000E+04  0.30000000000E+03 0. -1.
     100001    1    1    2    0    0  0.11540252005E+04  0.61440138760E+03 -0.63653818834E+04  0.65000000000E+04  0.15050000000E+03 0. -1.
     100001    1    1    2    0    0 -0.11540252005E+04 -0.61440138760E+03  0.63653818834E+04  0.65000000000E+04  0.15050000000E+03 0.  1.
</event>
<event>
 4    1  0.4826743E-004  0.6500000E+04  0.7818608E-02  0.7223770E-01
         52   -1    0    0    0    0  0.00000000000E+00  0.00000000000E+00  0.64930732323E+04  0.65000000000E+04  0.30000000000E+03 0. -1.
        -52   -1    0    0    0    0 -0.00000000000E+00 -0.00000000000E+00 -0.64930732323E+04  0.65000000000E+04  0.30000000000E+03 0.  1.
     100001    1    1    2    0    0  0.12849978457E+04 -0.47668228180E+04  0.42253438332E+04  0.65000000000E+04  0.15050000000E+03 0.  1.
     100001    1    1    2    0    0 -0.12849978457E+04  0.47668228180E+04 -0.42253438332E+04  0.65000000000E+04  0.15050000000E+03 0. -1.
</event>
<event>
 4    1  0.4826743E-004  0.6500000E+04  0.7818608E-02  0.7223770E-01
         52   -1    0    0    0    0  0.00000000000E+00  0.00000000000E+00  0.64930732323E+04  0.65000000000E+04  0.30000000000E+03 0. -1.
        -52   -1    0    0    0    0 -0.00000000000E+00 -0.00000000000E+00 -0.64930732323E+04  0.65000000000E+04  0.30000000000E+03 0.  1.
     100001    1    1    2    0    0  0.52265146771E+04  0.20202525449E+03  0.38561742539E+04  0.65000000000E+04  0.15050000000E+03 0. -1.
     100001    1    1    2    0    0 -0.52265146771E+04 -0.20202525449E+03 -0.38561742539E+04  0.65000000000E+04  0.15050000000E+03 0.  1.
</event>
<event>
 4    1  0.4826743E-004  0.6500000E+04  0.7818608E-02  0.7223770E-01
         52   -1    0    0    0    0  0.00000000000E+00  0.00000000000E+00  0.64930732323E+04  0.65000000000E+04  0.30000000000E+03 0.  1.
        -52   -1    0    0    0    0 -0.00000000000E+00 -0.00000000000E+00 -0.64930732323E+04  0.65000000000E+04  0.30000000000E+03 0.  1.
     100001    1    1    2    0    0 -0.24780291230E+03 -0.57836388027E+03  0.64677228364E+04  0.65000000000E+04  0.15050000000E+03 0.  1.
     100001    1    1    2    0    0  0.24780291230E+03  0.57836388027E+03 -0.64677228364E+04  0.65000000000E+04  0.15050000000E+03 0.  1.
</event>
<event>
 4    1  0.4826743E-004  0.6500000E+04  0.7818608E-02  0.7223770E-01
         52   -1    0    0    0    0  0.00000000000E+00  0.00000000000E+00  0.64930732323E+04  0.65000000000E+04  0.30000000000E+03 0.  1.
        -52   -1    0    0    0    0 -0.00000000000E+00 -0.00000000000E+00 -0.64930732323E+04  0.65000000000E+04  0.30000000000E+03 0. -1.
     100001    1    1    2    0    0  0.58756662479E+03 -0.22113106081E+04 -0.60821230344E+04  0.65000000000E+04  0.15050000000E+03 0. -1.
     100001    1    1    2    0    0 -0.58756662479E+03  0.22113106081E+04  0.60821230344E+04  0.65000000000E+04  0.15050000000E+03 0.  1.
</event>
<event>
 4    1  0.4826743E-004  0.6500000E+04  0.7818608E-02  0.7223770E-01
         52   -1    0    0    0    0  0.00000000000E+00  0.00000000000E+00  0.64930732323E+04  0.65000000000E+04  0.30000000000E+03 0.  1.
        -52   -1    0    0    0    0 -0.00000000000E+00 -0.00000000000E+00 -0.64930732323E+04  0.65000000000E+04  0.30000000000E+03 0. -1.
     100001    1    1    2    0    0  0.43422486277E+04 -0.19777328370E+04  0.44114396098E+04  0.65000000000E+04  0.15050000000E+03 0.  1.
     100001    1    1    2    0    0 -0.43422486277E+04  0.19777328370E+04 -0.44114396098E+04  0.65000000000E+04  0.15050000000E+03 0. -1.
</event>
<event>
 4    1  0.4826743E-004  0.6500000E+04  0.7818608E-02  0.7223770E-01
         52   -1    0    0    0    0  0.00000000000E+00  0.00000000000E+00  0.64930732323E+04  0.65000000000E+04  0.30000000000E+03 0. -1.
        -52   -1    0    0    0    0 -0.00000000000E+00 -0.00000000000E+00 -0.64930732323E+04  0.65000000000E+04  0.30000000000E+03 0.  1.
     100001    1    1    2    0    0  0.35979869574E+04  0.11921406045E+04  0.52783179502E+04  0.65000000000E+04  0.15050000000E+03 0. -1.
     100001    1    1    2    0    0 -0.35979869574E+04 -0.11921406045E+04 -0.52783179502E+04  0.65000000000E+04  0.15050000000E+03 0.  1.
</event>
<event>
 4    1  0.4826743E-004  0.6500000E+04  0.7818608E-02  0.7223770E-01
         52   -1    0    0    0    0  0.00000000000E+00  0.00000000000E+00  0.64930732323E+04  0.65000000000E+04  0.30000000000E+03 0. -1.
        -52   -1    0    0    0    0 -0.00000000000E+00 -0.00000000000E+00 -0.64930732323E+04  0.65000000000E+04  0.30000000000E+03 0.  1.
     100001    1    1    2    0    0  0.11575120167E+04 -0.58022225119E+03 -0.63679555448E+04  0.65000000000E+04  0.15050000000E+03 0.  1.
     100001    1    1    2    0    0 -0.11575120167E+04  0.58022225119E+03  0.63679555448E+04  0.65000000000E+04  0.15050000000E+03 0. -1.
</event>
<event>
 4    1  0.4826743E-004  0.6500000E+04  0.7818608E-02  0.7223770E-01
         52   -1    0    0    0    0  0.00000000000E+00  0.00000000000E+00  0.64930732323E+04  0.65000000000E+04  0.30000000000E+03 0. -1.
        -52   -1    0    0    0    0 -0.00000000000E+00 -0.00000000000E+00 -0.64930732323E+04  0.65000000000E+04  0.30000000000E+03 0.  1.
     100001    1    1    2    0    0  0.49479248242E+03  0.31658932584E+03  0.64716536796E+04  0.65000000000E+04  0.15050000000E+03 0. -1.
     100001    1    1    2    0    0 -0.49479248242E+03 -0.31658932584E+03 -0.64716536796E+04  0.65000000000E+04  0.15050000000E+03 0.  1.
</event>
<event>
 4    1  0.4826743E-004  0.6500000E+04  0.7818608E-02  0.7223770E-01
         52   -1    0    0    0    0  0.00000000000E+00  0.00000000000E+00  0.64930732323E+04  0.65000000000E+04  0.30000000000E+03 0. -1.
        -52   -1    0    0    0    0 -0.00000000000E+00 -0.00000000000E+00 -0.64930732323E+04  0.65000000000E+04  0.30000000000E+03 0.  1.
     100001    1    1    2    0    0  0.34517593561E+03 -0.42465456620E+04  0.49066335979E+04  0.65000000000E+04  0.15050000000E+03 0. -1.
     100001    1    1    2    0    0 -0.34517593561E+03  0.42465456620E+04 -0.49066335979E+04  0.65000000000E+04  0.15050000000E+03 0.  1.
</event>
<event>
 4    1  0.4826743E-004  0.6500000E+04  0.7818608E-02  0.7223770E-01
         52   -1    0    0    0    0  0.00000000000E+00  0.00000000000E+00  0.64930732323E+04  0.65000000000E+04  0.30000000000E+03 0.  1.
        -52   -1    0    0    0    0 -0.00000000000E+00 -0.00000000000E+00 -0.64930732323E+04  0.65000000000E+04  0.30000000000E+03 0. -1.
     100001    1    1    2    0    0 -0.13161582278E+03  0.23806520673E+04  0.60450411710E+04  0.65000000000E+04  0.15050000000E+03 0.  1.
     100001    1    1    2    0    0  0.13161582278E+03 -0.23806520673E+04 -0.60450411710E+04  0.65000000000E+04  0.15050000000E+03 0. -1.
</event>
<event>
 4    1  0.4826743E-004  0.6500000E+04  0.7818608E-02  0.7223770E-01
         52   -1    0    0    0    0  0.00000000000E+00  0.00000000000E+00  0.64930732323E+04  0.65000000000E+04  0.30000000000E+03 0. -1.
        -52   -1    0    0    0    0 -0.00000000000E+00 -0.00000000000E+00 -0.64930732323E+04  0.65000000000E+04  0.30000000000E+03 0.  1.
     100001    1    1    2    0    0  0.25288766434E+03  0.11715430655E+04  0.63867741799E+04  0.65000000000E+04  0.15050000000E+03 0. -1.
     100001    1    1    2    0    0 -0.25288766434E+03 -0.11715430655E+04 -0.63867741799E+04  0.65000000000E+04  0.15050000000E+03 0.  1.
</event>
<event>
 4    1  0.4826743E-004  0.6500000E+04  0.7818608E-02  0.7223770E-01
         52   -1    0    0    0    0  0.00000000000E+00  0.00000000000E+00  0.64930732323E+04  0.65000000000E+04  0.30000000000E+03 0.  1.
        -52   -1    0    0    0    0 -0.00000000000E+00 -0.00000000000E+00 -0.64930732323E+04  0.65000000000E+04  0.30000000000E+03 0. -1.
     100001    1    1    2    0    0 -0.21243892026E+04  0.78471944614E+03  0.60908567260E+04  0.65000000000E+04  0.15050000000E+03 0.  1.
     100001    1    1    2    0    0  0.21243892026E+04 -0.78471944614E+03 -0.60908567260E+04  0.65000000000E+04  0.15050000000E+03 0. -1.
</event>
<event>
 4    1  0.4826743E-004  0.6500000E+04  0.7818608E-02  0.7223770E-01
         52   -1    0    0    0    0  0.00000000000E+00  0.00000000000E+00  0.64930732323E+04  0.65000000000E+04  0.30000000000E+03 0.  1.
        -52   -1    0    0    0    0 -0.00000000000E+00 -0.00000000000E+00 -0.64930732323E+04  0.65000000000E+04  0.30000000000E+03 0. -1.
     100001    1    1    2    0    0  0.16322334161E+03  0.24753211377E+03  0.64914894857E+04  0.65000000000E+04  0.15050000000E+03 0.  1.
     100001    1    1    2    0    0 -0.16322334161E+03 -0.24753211377E+03 -0.64914894857E+04  0.65000000000E+04  0.15050000000E+03 0. -1.
</event>
<event>
 4    1  0.4826743E-004  0.6500000E+04  0.7818608E-02  0.7223770E-01
         52   -1    0    0    0    0  0.00000000000E+00  0.00000000000E+00  0.64930732323E+04  0.65000000000E+04  0.30000000000E+03 0. -1.
        -52   -1    0    0    0    0 -0.00000000000E+00 -0.00000000000E+00 -0.64930732323E+04  0.65000000000E+04  0.30000000000E+03 0. -1.
     100001    1    1    2    0    0 -0.55077752308E+02  0.33218624161E+02 -0.64979391128E+04  0.65000000000E+04  0.15050000000E+03 0. -1.
     100001    1    1    2    0    0  0.55077752308E+02 -0.33218624161E+02  0.64979391128E+04  0.65000000000E+04  0.15050000000E+03 0. -1.
</event>
<event>
 4    1  0.4826743E-004  0.6500000E+04  0.7818608E-02  0.7223770E-01
         52   -1    0    0    0    0  0.00000000000E+00  0.00000000000E+00  0.64930732323E+04  0.65000000000E+04  0.30000000000E+03 0. -1.
        -52   -1    0    0    0    0 -0.00000000000E+00 -0.00000000000E+00 -0.64930732323E+04  0.65000000000E+04  0.30000000000E+03 0.  1.
     100001    1    1    2    0    0 -0.71283838635E+02  0.27565414151E+03  0.64920168791E+04  0.65000000000E+04  0.15050000000E+03 0. -1.
     100001    1    1    2    0    0  0.71283838635E+02 -0.27565414151E+03 -0.64920168791E+04  0.65000000000E+04  0.15050000000E+03 0.  1.
</event>
<event>
 4    1  0.4826743E-004  0.6500000E+04  0.7818608E-02  0.7223770E-01
         52   -1    0    0    0    0  0.00000000000E+00  0.00000000000E+00  0.64930732323E+04  0.65000000000E+04  0.30000000000E+03 0.  1.
        -52   -1    0    0    0    0 -0.00000000000E+00 -0.00000000000E+00 -0.64930732323E+04  0.65000000000E+04  0.30000000000E+03 0. -1.
     100001    1    1    2    0    0 -0.28783131408E+03  0.25915797546E+03 -0.64867048668E+04  0.65000000000E+04  0.15050000000E+03 0. -1.
     100001    1    1    2    0    0  0.28783131408E+03 -0.25915797546E+03  0.64867048668E+04  0.65000000000E+04  0.15050000000E+03 0.  1.
</event>
<event>
 4    1  0.4826743E-004  0.6500000E+04  0.7818608E-02  0.7223770E-01
         52   -1    0    0    0    0  0.00000000000E+00  0.00000000000E+00  0.64930732323E+04  0.65000000000E+04  0.30000000000E+03 0. -1.
        -52   -1    0    0    0    0 -0.00000000000E+00 -0.00000000000E+00 -0.64930732323E+04  0.65000000000E+04  0.30000000000E+03 0. -1.
     100001    1    1    2    0    0  0.10699511941E+03  0.18386870333E+03 -0.64947743682E+04  0.65000000000E+04  0.15050000000E+03 0. -1.
     100001    1    1    2    0    0 -0.10699511941E+03 -0.18386870333E+03  0.64947743682E+04  0.65000000000E+04  0.15050000000E+03 0. -1.
</event>
<event>
 4    1  0.4826743E-004  0.6500000E+04  0.7818608E-02  0.7223770E-01
         52   -1    0    0    0    0  0.00000000000E+00  0.00000000000E+00  0.64930732323E+04  0.65000000000E+04  0.30000000000E+03 0.  1.
        -52   -1    0    0    0    0 -0.00000000000E+00 -0.00000000000E+00 -0.64930732323E+04  0.65000000000E+04  0.30000000000E+03 0. -1.
     100001    1    1    2    0    0  0.30008062399E+04 -0.96899369131E+03 -0.56818626248E+04  0.65000000000E+04  0.15050000000E+03 0. -1.
     100001    1    1    2    0    0 -0.30008062399E+04  0.96899369131E+03  0.56818626248E+04  0.65000000000E+04  0.15050000000E+03 0.  1.
</event>
<event>
 4    1  0.4826743E-004  0.6500000E+04  0.7818608E-02  0.7223770E-01
         52   -1    0    0    0    0  0.00000000000E+00  0.00000000000E+00  0.64930732323E+04  0.65000000000E+04  0.30000000000E+03 0.  1.
        -52   -1    0    0    0    0 -0.00000000000E+00 -0.00000000000E+00 -0.64930732323E+04  0.65000000000E+04  0.30000000000E+03 0. -1.
     100001    1    1    2    0    0  0.29785059023E+04 -0.34925075076E+04  0.45998090884E+04  0.65000000000E+04  0.15050000000E+03 0.  1.
     100001    1    1    2    0    0 -0.29785059023E+04  0.34925075076E+04 -0.45998090884E+04  0.65000000000E+04  0.15050000000E+03 0. -1.
</event>
<event>
 4    1  0.4826743E-004  0.6500000E+04  0.7818608E-02  0.7223770E-01
         52   -1    0    0    0    0  0.00000000000E+00  0.00000000000E+00  0.64930732323E+04  0.65000000000E+04  0.30000000000E+03 0. -1.
        -52   -1    0    0    0    0 -0.00000000000E+00 -0.00000000000E+00 -0.64930732323E+04  0.65000000000E+04  0.30000000000E+03 0.  1.
     100001    1    1    2    0    0 -0.35010051279E+04 -0.17503451540E+03  0.54717159798E+04  0.65000000000E+04  0.15050000000E+03 0. -1.
     100001    1    1    2    0    0  0.35010051279E+04  0.17503451540E+03 -0.54717159798E+04  0.65000000000E+04  0.15050000000E+03 0.  1.
</event>
<event>
 4    1  0.4826743E-004  0.6500000E+04  0.7818608E-02  0.7223770E-01
         52   -1    0    0    0    0  0.00000000000E+00  0.00000000000E+00  0.64930732323E+04  0.65000000000E+04  0.30000000000E+03 0.  1.
        -52   -1    0    0    0    0 -0.00000000000E+00 -0.00000000000E+00 -0.64930732323E+04  0.65000000000E+04  0.30000000000E+03 0. -1.
     100001    1    1    2    0    0  0.93780241576E+03  0.12445874548E+04  0.63086352285E+04  0.65000000000E+04  0.15050000000E+03 0.  1.
     100001    1    1    2    0    0 -0.93780241576E+03 -0.12445874548E+04 -0.63086352285E+04  0.65000000000E+04  0.15050000000E+03 0. -1.
</event>
<event>
 4    1  0.4826743E-004  0.6500000E+04  0.7818608E-02  0.7223770E-01
         52   -1    0    0    0    0  0.00000000000E+00  0.00000000000E+00  0.64930732323E+04  0.65000000000E+04  0.30000000000E+03 0.  1.
        -52   -1    0    0    0    0 -0.00000000000E+00 -0.00000000000E+00 -0.64930732323E+04  0.65000000000E+04  0.30000000000E+03 0. -1.
     100001    1    1    2    0    0 -0.51246655310E+04  0.16570873700E+04  0.36358237572E+04  0.65000000000E+04  0.15050000000E+03 0.  1.
     100001    1    1    2    0    0  0.51246655310E+04 -0.16570873700E+04 -0.36358237572E+04  0.65000000000E+04  0.15050000000E+03 0. -1.
</event>
<event>
 4    1  0.7580544E-004  0.6500000E+04  0.7818608E-02  0.7223770E-01
         52   -1    0    0    0    0  0.00000000000E+00  0.00000000000E+00  0.64930732323E+04  0.65000000000E+04  0.30000000000E+03 0.  1.
        -52   -1    0    0    0    0 -0.00000000000E+00 -0.00000000000E+00 -0.64930732323E+04  0.65000000000E+04  0.30000000000E+03 0.  1.
     100001    1    1    2    0    0  0.61387060599E+02  0.61343853745E+01 -0.64979645850E+04  0.65000000000E+04  0.15050000000E+03 0.  1.
     100001    1    1    2    0    0 -0.61387060599E+02 -0.61343853745E+01  0.64979645850E+04  0.65000000000E+04  0.15050000000E+03 0.  1.
</event>
<event>
 4    1  0.4826743E-004  0.6500000E+04  0.7818608E-02  0.7223770E-01
         52   -1    0    0    0    0  0.00000000000E+00  0.00000000000E+00  0.64930732323E+04  0.65000000000E+04  0.30000000000E+03 0. -1.
        -52   -1    0    0    0    0 -0.00000000000E+00 -0.00000000000E+00 -0.64930732323E+04  0.65000000000E+04  0.30000000000E+03 0.  1.
     100001    1    1    2    0    0 -0.82020956736E+03 -0.70210249400E+03 -0.64079371176E+04  0.65000000000E+04  0.15050000000E+03 0.  1.
     100001    1    1    2    0    0  0.82020956736E+03  0.70210249400E+03  0.64079371176E+04  0.65000000000E+04  0.15050000000E+03 0. -1.
</event>
<event>
 4    1  0.4826743E-004  0.6500000E+04  0.7818608E-02  0.7223770E-01
         52   -1    0    0    0    0  0.00000000000E+00  0.00000000000E+00  0.64930732323E+04  0.65000000000E+04  0.30000000000E+03 0. -1.
        -52   -1    0    0    0    0 -0.00000000000E+00 -0.00000000000E+00 -0.64930732323E+04  0.65000000000E+04  0.30000000000E+03 0.  1.
     100001    1    1    2    0    0 -0.71992702545E+02 -0.12086222627E+04  0.63844654457E+04  0.65000000000E+04  0.15050000000E+03 0. -1.
     100001    1    1    2    0    0  0.71992702545E+02  0.12086222627E+04 -0.63844654457E+04  0.65000000000E+04  0.15050000000E+03 0.  1.
</event>
<event>
 4    1  0.4826743E-004  0.6500000E+04  0.7818608E-02  0.7223770E-01
         52   -1    0    0    0    0  0.00000000000E+00  0.00000000000E+00  0.64930732323E+04  0.65000000000E+04  0.30000000000E+03 0.  1.
        -52   -1    0    0    0    0 -0.00000000000E+00 -0.00000000000E+00 -0.64930732323E+04  0.65000000000E+04  0.30000000000E+03 0. -1.
     100001    1    1    2    0    0  0.17937827588E+03  0.14548694331E+04  0.63307604691E+04  0.65000000000E+04  0.15050000000E+03 0.  1.
     100001    1    1    2    0    0 -0.17937827588E+03 -0.14548694331E+04 -0.63307604691E+04  0.65000000000E+04  0.15050000000E+03 0. -1.
</event>
<event>
 4    1  0.4826743E-004  0.6500000E+04  0.7818608E-02  0.7223770E-01
         52   -1    0    0    0    0  0.00000000000E+00  0.00000000000E+00  0.64930732323E+04  0.65000000000E+04  0.30000000000E+03 0.  1.
        -52   -1    0    0    0    0 -0.00000000000E+00 -0.00000000000E+00 -0.64930732323E+04  0.65000000000E+04  0.30000000000E+03 0. -1.
     100001    1    1    2    0    0 -0.59257141278E+04  0.17471206059E+04 -0.20151504694E+04  0.65000000000E+04  0.15050000000E+03 0.  1.
     100001    1    1    2    0    0  0.59257141278E+04 -0.17471206059E+04  0.20151504694E+04  0.65000000000E+04  0.15050000000E+03 0. -1.
</event>
<event>
 4    1  0.4826743E-004  0.6500000E+04  0.7818608E-02  0.7223770E-01
         52   -1    0    0    0    0  0.00000000000E+00  0.00000000000E+00  0.64930732323E+04  0.65000000000E+04  0.30000000000E+03 0. -1.
        -52   -1    0    0    0    0 -0.00000000000E+00 -0.00000000000E+00 -0.64930732323E+04  0.65000000000E+04  0.30000000000E+03 0.  1.
     100001    1    1    2    0    0 -0.10935241022E+04  0.95918027427E+03 -0.63333662447E+04  0.65000000000E+04  0.15050000000E+03 0.  1.
     100001    1    1    2    0    0  0.10935241022E+04 -0.95918027427E+03  0.63333662447E+04  0.65000000000E+04  0.15050000000E+03 0. -1.
</event>
<event>
 4    1  0.4826743E-004  0.6500000E+04  0.7818608E-02  0.7223770E-01
         52   -1    0    0    0    0  0.00000000000E+00  0.00000000000E+00  0.64930732323E+04  0.65000000000E+04  0.30000000000E+03 0. -1.
        -52   -1    0    0    0    0 -0.00000000000E+00 -0.00000000000E+00 -0.64930732323E+04  0.65000000000E+04  0.30000000000E+03 0.  1.
     100001    1    1    2    0    0 -0.78276293648E+03 -0.15931813656E+04  0.62511123067E+04  0.65000000000E+04  0.15050000000E+03 0. -1.
     100001    1    1    2    0    0  0.78276293648E+03  0.15931813656E+04 -0.62511123067E+04  0.65000000000E+04  0.15050000000E+03 0.  1.
</event>
<event>
 4    1  0.4826743E-004  0.6500000E+04  0.7818608E-02  0.7223770E-01
         52   -1    0    0    0    0  0.00000000000E+00  0.00000000000E+00  0.64930732323E+04  0.65000000000E+04  0.30000000000E+03 0. -1.
        -52   -1    0    0    0    0 -0.00000000000E+00 -0.00000000000E+00 -0.64930732323E+04  0.65000000000E+04  0.30000000000E+03 0.  1.
     100001    1    1    2    0    0 -0.23160198672E+04 -0.42079265697E+04  0.43768431214E+04  0.65000000000E+04  0.15050000000E+03 0. -1.
     100001    1    1    2    0    0  0.23160198672E+04  0.42079265697E+04 -0.43768431214E+04  0.65000000000E+04  0.15050000000E+03 0.  1.
</event>
<event>
 4    1  0.4826743E-004  0.6500000E+04  0.7818608E-02  0.7223770E-01
         52   -1    0    0    0    0  0.00000000000E+00  0.00000000000E+00  0.64930732323E+04  0.65000000000E+04  0.30000000000E+03 0.  1.
        -52   -1    0    0    0    0 -0.00000000000E+00 -0.00000000000E+00 -0.64930732323E+04  0.65000000000E+04  0.30000000000E+03 0. -1.
     100001    1    1    2    0    0 -0.52247639874E+03  0.11090127205E+04  0.63815718243E+04  0.65000000000E+04  0.15050000000E+03 0.  1.
     100001    1    1    2    0    0  0.52247639874E+03 -0.11090127205E+04 -0.63815718243E+04  0.65000000000E+04  0.15050000000E+03 0. -1.
</event>
<event>
 4    1  0.4826743E-004  0.6500000E+04  0.7818608E-02  0.7223770E-01
         52   -1    0    0    0    0  0.00000000000E+00  0.00000000000E+00  0.64930732323E+04  0.65000000000E+04  0.30000000000E+03 0.  1.
        -52   -1    0    0    0    0 -0.00000000000E+00 -0.00000000000E+00 -0.64930732323E+04  0.65000000000E+04  0.30000000000E+03 0. -1.
     100001    1    1    2    0    0 -0.17023615880E+04 -0.14193648189E+04  0.61085774354E+04  0.65000000000E+04  0.15050000000E+03 0.  1.
     100001    1    1    2    0    0  0.17023615880E+04  0.14193648189E+04 -0.61085774354E+04  0.65000000000E+04  0.15050000000E+03 0. -1.
</event>
<event>
 4    1  0.4826743E-004  0.6500000E+04  0.7818608E-02  0.7223770E-01
         52   -1    0    0    0    0  0.00000000000E+00  0.00000000000E+00  0.64930732323E+04  0.65000000000E+04  0.30000000000E+03 0.  1.
        -52   -1    0    0    0    0 -0.00000000000E+00 -0.00000000000E+00 -0.64930732323E+04  0.65000000000E+04  0.30000000000E+03 0. -1.
     100001    1    1    2    0    0  0.44985224707E+03  0.13492105079E+03 -0.64812636897E+04  0.65000000000E+04  0.15050000000E+03 0. -1.
     100001    1    1    2    0    0 -0.44985224707E+03 -0.13492105079E+03  0.64812636897E+04  0.65000000000E+04  0.15050000000E+03 0.  1.
</event>
<event>
 4    1  0.4826743E-004  0.6500000E+04  0.7818608E-02  0.7223770E-01
         52   -1    0    0    0    0  0.00000000000E+00  0.00000000000E+00  0.64930732323E+04  0.65000000000E+04  0.30000000000E+03 0. -1.
        -52   -1    0    0    0    0 -0.00000000000E+00 -0.00000000000E+00 -0.64930732323E+04  0.65000000000E+04  0.30000000000E+03 0.  1.
     100001    1    1    2    0    0  0.55180986488E+04  0.20764887049E+04 -0.27324223156E+04  0.65000000000E+04  0.15050000000E+03 0.  1.
     100001    1    1    2    0    0 -0.55180986488E+04 -0.20764887049E+04  0.27324223156E+04  0.65000000000E+04  0.15050000000E+03 0. -1.
</event>
<event>
 4    1  0.4826743E-004  0.6500000E+04  0.7818608E-02  0.7223770E-01
         52   -1    0    0    0    0  0.00000000000E+00  0.00000000000E+00  0.64930732323E+04  0.65000000000E+04  0.30000000000E+03 0. -1.
        -52   -1    0    0    0    0 -0.00000000000E+00 -0.00000000000E+00 -0.64930732323E+04  0.65000000000E+04  0.30000000000E+03 0.  1.
     100001    1    1    2    0    0  0.78032511244E+03  0.28542266680E+04 -0.57854846466E+04  0.65000000000E+04  0.15050000000E+03 0.  1.
     100001    1    1    2    0    0 -0.78032511244E+03 -0.28542266680E+04  0.57854846466E+04  0.65000000000E+04  0.15050000000E+03 0. -1.
</event>
<event>
 4    1  0.4826743E-004  0.6500000E+04  0.7818608E-02  0.7223770E-01
         52   -1    0    0    0    0  0.00000000000E+00  0.00000000000E+00  0.64930732323E+04  0.65000000000E+04  0.30000000000E+03 0. -1.
        -52   -1    0    0    0    0 -0.00000000000E+00 -0.00000000000E+00 -0.64930732323E+04  0.65000000000E+04  0.30000000000E+03 0.  1.
     100001    1    1    2    0    0  0.15431164054E+04  0.12498062776E+04  0.61874167289E+04  0.65000000000E+04  0.15050000000E+03 0. -1.
     100001    1    1    2    0    0 -0.15431164054E+04 -0.12498062776E+04 -0.61874167289E+04  0.65000000000E+04  0.15050000000E+03 0.  1.
</event>
<event>
 4    1  0.4826743E-004  0.6500000E+04  0.7818608E-02  0.7223770E-01
         52   -1    0    0    0    0  0.00000000000E+00  0.00000000000E+00  0.64930732323E+04  0.65000000000E+04  0.30000000000E+03 0.  1.
        -52   -1    0    0    0    0 -0.00000000000E+00 -0.00000000000E+00 -0.64930732323E+04  0.65000000000E+04  0.30000000000E+03 0. -1.
     100001    1    1    2    0    0  0.11389614849E+04  0.25177022616E+04  0.58814362028E+04  0.65000000000E+04  0.15050000000E+03 0.  1.
     100001    1    1    2    0    0 -0.11389614849E+04 -0.25177022616E+04 -0.58814362028E+04  0.65000000000E+04  0.15050000000E+03 0. -1.
</event>
<event>
 4    1  0.4826743E-004  0.6500000E+04  0.7818608E-02  0.7223770E-01
         52   -1    0    0    0    0  0.00000000000E+00  0.00000000000E+00  0.64930732323E+04  0.65000000000E+04  0.30000000000E+03 0.  1.
        -52   -1    0    0    0    0 -0.00000000000E+00 -0.00000000000E+00 -0.64930732323E+04  0.65000000000E+04  0.30000000000E+03 0. -1.
     100001    1    1    2    0    0 -0.10934733490E+04 -0.22379828620E+03  0.64016857243E+04  0.65000000000E+04  0.15050000000E+03 0.  1.
     100001    1    1    2    0    0  0.10934733490E+04  0.22379828620E+03 -0.64016857243E+04  0.65000000000E+04  0.15050000000E+03 0. -1.
</event>
<event>
 4    1  0.4826743E-004  0.6500000E+04  0.7818608E-02  0.7223770E-01
         52   -1    0    0    0    0  0.00000000000E+00  0.00000000000E+00  0.64930732323E+04  0.65000000000E+04  0.30000000000E+03 0. -1.
        -52   -1    0    0    0    0 -0.00000000000E+00 -0.00000000000E+00 -0.64930732323E+04  0.65000000000E+04  0.30000000000E+03 0.  1.
     100001    1    1    2    0    0 -0.25989595451E+04 -0.26026804965E+04 -0.53571273334E+04  0.65000000000E+04  0.15050000000E+03 0.  1.
     100001    1    1    2    0    0  0.25989595451E+04  0.26026804965E+04  0.53571273334E+04  0.65000000000E+04  0.15050000000E+03 0. -1.
</event>
<event>
 4    1  0.4826743E-004  0.6500000E+04  0.7818608E-02  0.7223770E-01
         52   -1    0    0    0    0  0.00000000000E+00  0.00000000000E+00  0.64930732323E+04  0.65000000000E+04  0.30000000000E+03 0.  1.
        -52   -1    0    0    0    0 -0.00000000000E+00 -0.00000000000E+00 -0.64930732323E+04  0.65000000000E+04  0.30000000000E+03 0. -1.
     100001    1    1    2    0    0  0.29459580994E+04 -0.96754661692E+03  0.57107384961E+04  0.65000000000E+04  0.15050000000E+03 0.  1.
     100001    1    1    2    0    0 -0.29459580994E+04  0.96754661692E+03 -0.57107384961E+04  0.65000000000E+04  0.15050000000E+03 0. -1.
</event>
<event>
 4    1  0.4826743E-004  0.6500000E+04  0.7818608E-02  0.7223770E-01
         52   -1    0    0    0    0  0.00000000000E+00  0.00000000000E+00  0.64930732323E+04  0.65000000000E+04  0.30000000000E+03 0. -1.
        -52   -1    0    0    0    0 -0.00000000000E+00 -0.00000000000E+00 -0.64930732323E+04  0.65000000000E+04  0.30000000000E+03 0.  1.
     100001    1    1    2    0    0  0.26913560189E+04 -0.17715483878E+04  0.56431878260E+04  0.65000000000E+04  0.15050000000E+03 0. -1.
     100001    1    1    2    0    0 -0.26913560189E+04  0.17715483878E+04 -0.56431878260E+04  0.65000000000E+04  0.15050000000E+03 0.  1.
</event>
<event>
 4    1  0.4826743E-004  0.6500000E+04  0.7818608E-02  0.7223770E-01
         52   -1    0    0    0    0  0.00000000000E+00  0.00000000000E+00  0.64930732323E+04  0.65000000000E+04  0.30000000000E+03 0.  1.
        -52   -1    0    0    0    0 -0.00000000000E+00 -0.00000000000E+00 -0.64930732323E+04  0.65000000000E+04  0.30000000000E+03 0. -1.
     100001    1    1    2    0    0  0.49378931059E+03  0.96535635912E+03  0.64071529533E+04  0.65000000000E+04  0.15050000000E+03 0.  1.
     100001    1    1    2    0    0 -0.49378931059E+03 -0.96535635912E+03 -0.64071529533E+04  0.65000000000E+04  0.15050000000E+03 0. -1.
</event>
<event>
 4    1  0.4826743E-004  0.6500000E+04  0.7818608E-02  0.7223770E-01
         52   -1    0    0    0    0  0.00000000000E+00  0.00000000000E+00  0.64930732323E+04  0.65000000000E+04  0.30000000000E+03 0. -1.
        -52   -1    0    0    0    0 -0.00000000000E+00 -0.00000000000E+00 -0.64930732323E+04  0.65000000000E+04  0.30000000000E+03 0.  1.
     100001    1    1    2    0    0 -0.52354417607E+03 -0.31567070245E+03  0.64694360846E+04  0.65000000000E+04  0.15050000000E+03 0. -1.
     100001    1    1    2    0    0  0.52354417607E+03  0.31567070245E+03 -0.64694360846E+04  0.65000000000E+04  0.15050000000E+03 0.  1.
</event>
<event>
 4    1  0.4826743E-004  0.6500000E+04  0.7818608E-02  0.7223770E-01
         52   -1    0    0    0    0  0.00000000000E+00  0.00000000000E+00  0.64930732323E+04  0.65000000000E+04  0.30000000000E+03 0.  1.
        -52   -1    0    0    0    0 -0.00000000000E+00 -0.00000000000E+00 -0.64930732323E+04  0.65000000000E+04  0.30000000000E+03 0.  1.
     100001    1    1    2    0    0  0.34253478846E+02 -0.23254505595E+03 -0.64940048696E+04  0.65000000000E+04  0.15050000000E+03 0.  1.
     100001    1    1    2    0    0 -0.34253478846E+02  0.23254505595E+03  0.64940048696E+04  0.65000000000E+04  0.15050000000E+03 0.  1.
</event>
<event>
 4    1  0.4826743E-004  0.6500000E+04  0.7818608E-02  0.7223770E-01
         52   -1    0    0    0    0  0.00000000000E+00  0.00000000000E+00  0.64930732323E+04  0.65000000000E+04  0.30000000000E+03 0.  1.
        -52   -1    0    0    0    0 -0.00000000000E+00 -0.00000000000E+00 -0.64930732323E+04  0.65000000000E+04  0.30000000000E+03 0. -1.
     100001    1    1    2    0    0  0.17861165177E+04 -0.27699282605E+04  0.56004138211E+04  0.65000000000E+04  0.15050000000E+03 0.  1.
     100001    1    1    2    0    0 -0.17861165177E+04  0.27699282605E+04 -0.56004138211E+04  0.65000000000E+04  0.15050000000E+03 0. -1.
</event>
<event>
 4    1  0.4826743E-004  0.6500000E+04  0.7818608E-02  0.7223770E-01
         52   -1    0    0    0    0  0.00000000000E+00  0.00000000000E+00  0.64930732323E+04  0.65000000000E+04  0.30000000000E+03 0.  1.
        -52   -1    0    0    0    0 -0.00000000000E+00 -0.00000000000E+00 -0.64930732323E+04  0.65000000000E+04  0.30000000000E+03 0. -1.
     100001    1    1    2    0    0  0.13792969960E+04  0.21851902345E+04  0.59623680854E+04  0.65000000000E+04  0.15050000000E+03 0.  1.
     100001    1    1    2    0    0 -0.13792969960E+04 -0.21851902345E+04 -0.59623680854E+04  0.65000000000E+04  0.15050000000E+03 0. -1.
</event>
<event>
 4    1  0.4826743E-004  0.6500000E+04  0.7818608E-02  0.7223770E-01
         52   -1    0    0    0    0  0.00000000000E+00  0.00000000000E+00  0.64930732323E+04  0.65000000000E+04  0.30000000000E+03 0. -1.
        -52   -1    0    0    0    0 -0.00000000000E+00 -0.00000000000E+00 -0.64930732323E+04  0.65000000000E+04  0.30000000000E+03 0.  1.
     100001    1    1    2    0    0 -0.52817658195E+03 -0.29188983952E+03 -0.64701761622E+04  0.65000000000E+04  0.15050000000E+03 0.  1.
     100001    1    1    2    0    0  0.52817658195E+03  0.29188983952E+03  0.64701761622E+04  0.65000000000E+04  0.15050000000E+03 0. -1.
</event>
<event>
 4    1  0.4826743E-004  0.6500000E+04  0.7818608E-02  0.7223770E-01
         52   -1    0    0    0    0  0.00000000000E+00  0.00000000000E+00  0.64930732323E+04  0.65000000000E+04  0.30000000000E+03 0. -1.
        -52   -1    0    0    0    0 -0.00000000000E+00 -0.00000000000E+00 -0.64930732323E+04  0.65000000000E+04  0.30000000000E+03 0.  1.
     100001    1    1    2    0    0 -0.26397601279E+04  0.33128445449E+04  0.49278877056E+04  0.65000000000E+04  0.15050000000E+03 0. -1.
     100001    1    1    2    0    0  0.26397601279E+04 -0.33128445449E+04 -0.49278877056E+04  0.65000000000E+04  0.15050000000E+03 0.  1.
</event>
<event>
 4    1  0.4826743E-004  0.6500000E+04  0.7818608E-02  0.7223770E-01
         52   -1    0    0    0    0  0.00000000000E+00  0.00000000000E+00  0.64930732323E+04  0.65000000000E+04  0.30000000000E+03 0.  1.
        -52   -1    0    0    0    0 -0.00000000000E+00 -0.00000000000E+00 -0.64930732323E+04  0.65000000000E+04  0.30000000000E+03 0.  1.
     100001    1    1    2    0    0 -0.82517016761E+02  0.31863631833E+03 -0.64899161465E+04  0.65000000000E+04  0.15050000000E+03 0.  1.
     100001    1    1    2    0    0  0.82517016761E+02 -0.31863631833E+03  0.64899161465E+04  0.65000000000E+04  0.15050000000E+03 0.  1.
</event>
<event>
 4    1  0.4826743E-004  0.6500000E+04  0.7818608E-02  0.7223770E-01
         52   -1    0    0    0    0  0.00000000000E+00  0.00000000000E+00  0.64930732323E+04  0.65000000000E+04  0.30000000000E+03 0. -1.
        -52   -1    0    0    0    0 -0.00000000000E+00 -0.00000000000E+00 -0.64930732323E+04  0.65000000000E+04  0.30000000000E+03 0.  1.
     100001    1    1    2    0    0 -0.82106846152E+03 -0.53420005437E+03 -0.64240039410E+04  0.65000000000E+04  0.15050000000E+03 0.  1.
     100001    1    1    2    0    0  0.82106846152E+03  0.53420005437E+03  0.64240039410E+04  0.65000000000E+04  0.15050000000E+03 0. -1.
</event>
<event>
 4    1  0.4826743E-004  0.6500000E+04  0.7818608E-02  0.7223770E-01
         52   -1    0    0    0    0  0.00000000000E+00  0.00000000000E+00  0.64930732323E+04  0.65000000000E+04  0.30000000000E+03 0. -1.
        -52   -1    0    0    0    0 -0.00000000000E+00 -0.00000000000E+00 -0.64930732323E+04  0.65000000000E+04  0.30000000000E+03 0.  1.
     100001    1    1    2    0    0  0.41336552797E+03 -0.14739189690E+04 -0.63153813474E+04  0.65000000000E+04  0.15050000000E+03 0.  1.
     100001    1    1    2    0    0 -0.41336552797E+03  0.14739189690E+04  0.63153813474E+04  0.65000000000E+04  0.15050000000E+03 0. -1.
</event>
<event>
 4    1  0.4826743E-004  0.6500000E+04  0.7818608E-02  0.7223770E-01
         52   -1    0    0    0    0  0.00000000000E+00  0.00000000000E+00  0.64930732323E+04  0.65000000000E+04  0.30000000000E+03 0. -1.
        -52   -1    0    0    0    0 -0.00000000000E+00 -0.00000000000E+00 -0.64930732323E+04  0.65000000000E+04  0.30000000000E+03 0. -1.
     100001    1    1    2    0    0  0.15443748891E+03 -0.16772504312E+03  0.64942564718E+04  0.65000000000E+04  0.15050000000E+03 0. -1.
     100001    1    1    2    0    0 -0.15443748891E+03  0.16772504312E+03 -0.64942564718E+04  0.65000000000E+04  0.15050000000E+03 0. -1.
</event>
<event>
 4    1  0.4826743E-004  0.6500000E+04  0.7818608E-02  0.7223770E-01
         52   -1    0    0    0    0  0.00000000000E+00  0.00000000000E+00  0.64930732323E+04  0.65000000000E+04  0.30000000000E+03 0.  1.
        -52   -1    0    0    0    0 -0.00000000000E+00 -0.00000000000E+00 -0.64930732323E+04  0.65000000000E+04  0.30000000000E+03 0. -1.
     100001    1    1    2    0    0  0.57064158812E+04  0.16854285767E+04 -0.26121826226E+04  0.65000000000E+04  0.15050000000E+03 0. -1.
     100001    1    1    2    0    0 -0.57064158812E+04 -0.16854285767E+04  0.26121826226E+04  0.65000000000E+04  0.15050000000E+03 0.  1.
</event>
<event>
 4    1  0.4826743E-004  0.6500000E+04  0.7818608E-02  0.7223770E-01
         52   -1    0    0    0    0  0.00000000000E+00  0.00000000000E+00  0.64930732323E+04  0.65000000000E+04  0.30000000000E+03 0. -1.
        -52   -1    0    0    0    0 -0.00000000000E+00 -0.00000000000E+00 -0.64930732323E+04  0.65000000000E+04  0.30000000000E+03 0.  1.
     100001    1    1    2    0    0  0.35233934379E+03  0.62249779258E+03 -0.64587694830E+04  0.65000000000E+04  0.15050000000E+03 0.  1.
     100001    1    1    2    0    0 -0.35233934379E+03 -0.62249779258E+03  0.64587694830E+04  0.65000000000E+04  0.15050000000E+03 0. -1.
</event>
<event>
 4    1  0.4826743E-004  0.6500000E+04  0.7818608E-02  0.7223770E-01
         52   -1    0    0    0    0  0.00000000000E+00  0.00000000000E+00  0.64930732323E+04  0.65000000000E+04  0.30000000000E+03 0.  1.
        -52   -1    0    0    0    0 -0.00000000000E+00 -0.00000000000E+00 -0.64930732323E+04  0.65000000000E+04  0.30000000000E+03 0. -1.
     100001    1    1    2    0    0  0.13484225831E+02  0.50414967049E+03 -0.64786573482E+04  0.65000000000E+04  0.15050000000E+03 0. -1.
     100001    1    1    2    0    0 -0.13484225831E+02 -0.50414967049E+03  0.64786573482E+04  0.65000000000E+04  0.15050000000E+03 0.  1.
</event>
<event>
 4    1  0.4826743E-004  0.6500000E+04  0.7818608E-02  0.7223770E-01
         52   -1    0    0    0    0  0.00000000000E+00  0.00000000000E+00  0.64930732323E+04  0.65000000000E+04  0.30000000000E+03 0.  1.
        -52   -1    0    0    0    0 -0.00000000000E+00 -0.00000000000E+00 -0.64930732323E+04  0.65000000000E+04  0.30000000000E+03 0. -1.
     100001    1    1    2    0    0 -0.58293224903E+03 -0.19184571027E+03 -0.64692144010E+04  0.65000000000E+04  0.15050000000E+03 0. -1.
     100001    1    1    2    0    0  0.58293224903E+03  0.19184571027E+03  0.64692144010E+04  0.65000000000E+04  0.15050000000E+03 0.  1.
</event>
<event>
 4    1  0.4826743E-004  0.6500000E+04  0.7818608E-02  0.7223770E-01
         52   -1    0    0    0    0  0.00000000000E+00  0.00000000000E+00  0.64930732323E+04  0.65000000000E+04  0.30000000000E+03 0.  1.
        -52   -1    0    0    0    0 -0.00000000000E+00 -0.00000000000E+00 -0.64930732323E+04  0.65000000000E+04  0.30000000000E+03 0. -1.
     100001    1    1    2    0    0  0.12477258402E+04 -0.31520276144E+04  0.55439383020E+04  0.65000000000E+04  0.15050000000E+03 0.  1.
     100001    1    1    2    0    0 -0.12477258402E+04  0.31520276144E+04 -0.55439383020E+04  0.65000000000E+04  0.15050000000E+03 0. -1.
</event>
<event>
 4    1  0.4826743E-004  0.6500000E+04  0.7818608E-02  0.7223770E-01
         52   -1    0    0    0    0  0.00000000000E+00  0.00000000000E+00  0.64930732323E+04  0.65000000000E+04  0.30000000000E+03 0.  1.
        -52   -1    0    0    0    0 -0.00000000000E+00 -0.00000000000E+00 -0.64930732323E+04  0.65000000000E+04  0.30000000000E+03 0.  1.
     100001    1    1    2    0    0 -0.34151753967E+03 -0.34418640136E+03  0.64801428411E+04  0.65000000000E+04  0.15050000000E+03 0.  1.
     100001    1    1    2    0    0  0.34151753967E+03  0.34418640136E+03 -0.64801428411E+04  0.65000000000E+04  0.15050000000E+03 0.  1.
</event>
<event>
 4    1  0.4826743E-004  0.6500000E+04  0.7818608E-02  0.7223770E-01
         52   -1    0    0    0    0  0.00000000000E+00  0.00000000000E+00  0.64930732323E+04  0.65000000000E+04  0.30000000000E+03 0. -1.
        -52   -1    0    0    0    0 -0.00000000000E+00 -0.00000000000E+00 -0.64930732323E+04  0.65000000000E+04  0.30000000000E+03 0.  1.
     100001    1    1    2    0    0  0.15687018003E+04  0.10305232063E+03  0.63052283568E+04  0.65000000000E+04  0.15050000000E+03 0. -1.
     100001    1    1    2    0    0 -0.15687018003E+04 -0.10305232063E+03 -0.63052283568E+04  0.65000000000E+04  0.15050000000E+03 0.  1.
</event>
<event>
 4    1  0.4826743E-004  0.6500000E+04  0.7818608E-02  0.7223770E-01
         52   -1    0    0    0    0  0.00000000000E+00  0.00000000000E+00  0.64930732323E+04  0.65000000000E+04  0.30000000000E+03 0. -1.
        -52   -1    0    0    0    0 -0.00000000000E+00 -0.00000000000E+00 -0.64930732323E+04  0.65000000000E+04  0.30000000000E+03 0.  1.
     100001    1    1    2    0    0 -0.48849732378E+03 -0.44703380440E+03 -0.64644319853E+04  0.65000000000E+04  0.15050000000E+03 0.  1.
     100001    1    1    2    0    0  0.48849732378E+03  0.44703380440E+03  0.64644319853E+04  0.65000000000E+04  0.15050000000E+03 0. -1.
</event>
<event>
 4    1  0.4826743E-004  0.6500000E+04  0.7818608E-02  0.7223770E-01
         52   -1    0    0    0    0  0.00000000000E+00  0.00000000000E+00  0.64930732323E+04  0.65000000000E+04  0.30000000000E+03 0. -1.
        -52   -1    0    0    0    0 -0.00000000000E+00 -0.00000000000E+00 -0.64930732323E+04  0.65000000000E+04  0.30000000000E+03 0. -1.
     100001    1    1    2    0    0 -0.61888595024E+02 -0.70772047084E+02  0.64975773077E+04  0.65000000000E+04  0.15050000000E+03 0. -1.
     100001    1    1    2    0    0  0.61888595024E+02  0.70772047084E+02 -0.64975773077E+04  0.65000000000E+04  0.15050000000E+03 0. -1.
</event>
<event>
 4    1  0.4826743E-004  0.6500000E+04  0.7818608E-02  0.7223770E-01
         52   -1    0    0    0    0  0.00000000000E+00  0.00000000000E+00  0.64930732323E+04  0.65000000000E+04  0.30000000000E+03 0. -1.
        -52   -1    0    0    0    0 -0.00000000000E+00 -0.00000000000E+00 -0.64930732323E+04  0.65000000000E+04  0.30000000000E+03 0.  1.
     100001    1    1    2    0    0  0.28330584804E+03 -0.14980535628E+03 -0.64903502141E+04  0.65000000000E+04  0.15050000000E+03 0.  1.
     100001    1    1    2    0    0 -0.28330584804E+03  0.14980535628E+03  0.64903502141E+04  0.65000000000E+04  0.15050000000E+03 0. -1.
</event>
<event>
 4    1  0.4826743E-004  0.6500000E+04  0.7818608E-02  0.7223770E-01
         52   -1    0    0    0    0  0.00000000000E+00  0.00000000000E+00  0.64930732323E+04  0.65000000000E+04  0.30000000000E+03 0. -1.
        -52   -1    0    0    0    0 -0.00000000000E+00 -0.00000000000E+00 -0.64930732323E+04  0.65000000000E+04  0.30000000000E+03 0.  1.
     100001    1    1    2    0    0  0.26468946354E+04 -0.58505212306E+04 -0.99634324891E+03  0.65000000000E+04  0.15050000000E+03 0.  1.
     100001    1    1    2    0    0 -0.26468946354E+04  0.58505212306E+04  0.99634324891E+03  0.65000000000E+04  0.15050000000E+03 0. -1.
</event>
<event>
 4    1  0.4826743E-004  0.6500000E+04  0.7818608E-02  0.7223770E-01
         52   -1    0    0    0    0  0.00000000000E+00  0.00000000000E+00  0.64930732323E+04  0.65000000000E+04  0.30000000000E+03 0. -1.
        -52   -1    0    0    0    0 -0.00000000000E+00 -0.00000000000E+00 -0.64930732323E+04  0.65000000000E+04  0.30000000000E+03 0.  1.
     100001    1    1    2    0    0  0.44197040527E+02  0.40113873732E+03  0.64857138454E+04  0.65000000000E+04  0.15050000000E+03 0. -1.
     100001    1    1    2    0    0 -0.44197040527E+02 -0.40113873732E+03 -0.64857138454E+04  0.65000000000E+04  0.15050000000E+03 0.  1.
</event>
<event>
 4    1  0.4826743E-004  0.6500000E+04  0.7818608E-02  0.7223770E-01
         52   -1    0    0    0    0  0.00000000000E+00  0.00000000000E+00  0.64930732323E+04  0.65000000000E+04  0.30000000000E+03 0.  1.
        -52   -1    0    0    0    0 -0.00000000000E+00 -0.00000000000E+00 -0.64930732323E+04  0.65000000000E+04  0.30000000000E+03 0.  1.
     100001    1    1    2    0    0 -0.25599257536E+03 -0.19937157364E+03  0.64901516567E+04  0.65000000000E+04  0.15050000000E+03 0.  1.
     100001    1    1    2    0    0  0.25599257536E+03  0.19937157364E+03 -0.64901516567E+04  0.65000000000E+04  0.15050000000E+03 0.  1.
</event>
<event>
 4    1  0.4826743E-004  0.6500000E+04  0.7818608E-02  0.7223770E-01
         52   -1    0    0    0    0  0.00000000000E+00  0.00000000000E+00  0.64930732323E+04  0.65000000000E+04  0.30000000000E+03 0.  1.
        -52   -1    0    0    0    0 -0.00000000000E+00 -0.00000000000E+00 -0.64930732323E+04  0.65000000000E+04  0.30000000000E+03 0. -1.
     100001    1    1    2    0    0  0.58609462953E+03  0.12964440877E+04 -0.63405895280E+04  0.65000000000E+04  0.15050000000E+03 0. -1.
     100001    1    1    2    0    0 -0.58609462953E+03 -0.12964440877E+04  0.63405895280E+04  0.65000000000E+04  0.15050000000E+03 0.  1.
</event>
<event>
 4    1  0.4826743E-004  0.6500000E+04  0.7818608E-02  0.7223770E-01
         52   -1    0    0    0    0  0.00000000000E+00  0.00000000000E+00  0.64930732323E+04  0.65000000000E+04  0.30000000000E+03 0. -1.
        -52   -1    0    0    0    0 -0.00000000000E+00 -0.00000000000E+00 -0.64930732323E+04  0.65000000000E+04  0.30000000000E+03 0.  1.
     100001    1    1    2    0    0 -0.65425500353E+03  0.74301458031E+03  0.64224006005E+04  0.65000000000E+04  0.15050000000E+03 0. -1.
     100001    1    1    2    0    0  0.65425500353E+03 -0.74301458031E+03 -0.64224006005E+04  0.65000000000E+04  0.15050000000E+03 0.  1.
</event>
<event>
 4    1  0.4826743E-004  0.6500000E+04  0.7818608E-02  0.7223770E-01
         52   -1    0    0    0    0  0.00000000000E+00  0.00000000000E+00  0.64930732323E+04  0.65000000000E+04  0.30000000000E+03 0.  1.
        -52   -1    0    0    0    0 -0.00000000000E+00 -0.00000000000E+00 -0.64930732323E+04  0.65000000000E+04  0.30000000000E+03 0. -1.
     100001    1    1    2    0    0  0.29463133459E+04 -0.51969035352E+04 -0.25571040384E+04  0.65000000000E+04  0.15050000000E+03 0. -1.
     100001    1    1    2    0    0 -0.29463133459E+04  0.51969035352E+04  0.25571040384E+04  0.65000000000E+04  0.15050000000E+03 0.  1.
</event>
<event>
 4    1  0.4826743E-004  0.6500000E+04  0.7818608E-02  0.7223770E-01
         52   -1    0    0    0    0  0.00000000000E+00  0.00000000000E+00  0.64930732323E+04  0.65000000000E+04  0.30000000000E+03 0.  1.
        -52   -1    0    0    0    0 -0.00000000000E+00 -0.00000000000E+00 -0.64930732323E+04  0.65000000000E+04  0.30000000000E+03 0.  1.
     100001    1    1    2    0    0  0.14041175155E+04 -0.15049148278E+04 -0.61636868118E+04  0.65000000000E+04  0.15050000000E+03 0.  1.
     100001    1    1    2    0    0 -0.14041175155E+04  0.15049148278E+04  0.61636868118E+04  0.65000000000E+04  0.15050000000E+03 0.  1.
</event>
<event>
 4    1  0.4826743E-004  0.6500000E+04  0.7818608E-02  0.7223770E-01
         52   -1    0    0    0    0  0.00000000000E+00  0.00000000000E+00  0.64930732323E+04  0.65000000000E+04  0.30000000000E+03 0. -1.
        -52   -1    0    0    0    0 -0.00000000000E+00 -0.00000000000E+00 -0.64930732323E+04  0.65000000000E+04  0.30000000000E+03 0.  1.
     100001    1    1    2    0    0  0.10274606431E+04 -0.18778949058E+04  0.61355672191E+04  0.65000000000E+04  0.15050000000E+03 0. -1.
     100001    1    1    2    0    0 -0.10274606431E+04  0.18778949058E+04 -0.61355672191E+04  0.65000000000E+04  0.15050000000E+03 0.  1.
</event>
<event>
 4    1  0.4826743E-004  0.6500000E+04  0.7818608E-02  0.7223770E-01
         52   -1    0    0    0    0  0.00000000000E+00  0.00000000000E+00  0.64930732323E+04  0.65000000000E+04  0.30000000000E+03 0. -1.
        -52   -1    0    0    0    0 -0.00000000000E+00 -0.00000000000E+00 -0.64930732323E+04  0.65000000000E+04  0.30000000000E+03 0.  1.
     100001    1    1    2    0    0  0.18973759872E+04  0.37145472559E+04 -0.49829160937E+04  0.65000000000E+04  0.15050000000E+03 0.  1.
     100001    1    1    2    0    0 -0.18973759872E+04 -0.37145472559E+04  0.49829160937E+04  0.65000000000E+04  0.15050000000E+03 0. -1.
</event>
<event>
 4    1  0.4826743E-004  0.6500000E+04  0.7818608E-02  0.7223770E-01
         52   -1    0    0    0    0  0.00000000000E+00  0.00000000000E+00  0.64930732323E+04  0.65000000000E+04  0.30000000000E+03 0.  1.
        -52   -1    0    0    0    0 -0.00000000000E+00 -0.00000000000E+00 -0.64930732323E+04  0.65000000000E+04  0.30000000000E+03 0. -1.
     100001    1    1    2    0    0 -0.33039069147E+04 -0.32030550446E+04  0.45882444606E+04  0.65000000000E+04  0.15050000000E+03 0.  1.
     100001    1    1    2    0    0  0.33039069147E+04  0.32030550446E+04 -0.45882444606E+04  0.65000000000E+04  0.15050000000E+03 0. -1.
</event>
<event>
 4    1  0.4826743E-004  0.6500000E+04  0.7818608E-02  0.7223770E-01
         52   -1    0    0    0    0  0.00000000000E+00  0.00000000000E+00  0.64930732323E+04  0.65000000000E+04  0.30000000000E+03 0. -1.
        -52   -1    0    0    0    0 -0.00000000000E+00 -0.00000000000E+00 -0.64930732323E+04  0.65000000000E+04  0.30000000000E+03 0.  1.
     100001    1    1    2    0    0  0.31930969161E+03  0.13551503131E+04  0.63473584033E+04  0.65000000000E+04  0.15050000000E+03 0. -1.
     100001    1    1    2    0    0 -0.31930969161E+03 -0.13551503131E+04 -0.63473584033E+04  0.65000000000E+04  0.15050000000E+03 0.  1.
</event>
<event>
 4    1  0.4826743E-004  0.6500000E+04  0.7818608E-02  0.7223770E-01
         52   -1    0    0    0    0  0.00000000000E+00  0.00000000000E+00  0.64930732323E+04  0.65000000000E+04  0.30000000000E+03 0.  1.
        -52   -1    0    0    0    0 -0.00000000000E+00 -0.00000000000E+00 -0.64930732323E+04  0.65000000000E+04  0.30000000000E+03 0. -1.
     100001    1    1    2    0    0 -0.27819700452E+04 -0.30968755235E+04  0.49897248832E+04  0.65000000000E+04  0.15050000000E+03 0.  1.
     100001    1    1    2    0    0  0.27819700452E+04  0.30968755235E+04 -0.49897248832E+04  0.65000000000E+04  0.15050000000E+03 0. -1.
</event>
<event>
 4    1  0.4826743E-004  0.6500000E+04  0.7818608E-02  0.7223770E-01
         52   -1    0    0    0    0  0.00000000000E+00  0.00000000000E+00  0.64930732323E+04  0.65000000000E+04  0.30000000000E+03 0.  1.
        -52   -1    0    0    0    0 -0.00000000000E+00 -0.00000000000E+00 -0.64930732323E+04  0.65000000000E+04  0.30000000000E+03 0. -1.
     100001    1    1    2    0    0  0.55406200699E+04  0.28197913726E+03  0.33836912917E+04  0.65000000000E+04  0.15050000000E+03 0.  1.
     100001    1    1    2    0    0 -0.55406200699E+04 -0.28197913726E+03 -0.33836912917E+04  0.65000000000E+04  0.15050000000E+03 0. -1.
</event>
<event>
 4    1  0.4826743E-004  0.6500000E+04  0.7818608E-02  0.7223770E-01
         52   -1    0    0    0    0  0.00000000000E+00  0.00000000000E+00  0.64930732323E+04  0.65000000000E+04  0.30000000000E+03 0. -1.
        -52   -1    0    0    0    0 -0.00000000000E+00 -0.00000000000E+00 -0.64930732323E+04  0.65000000000E+04  0.30000000000E+03 0.  1.
     100001    1    1    2    0    0  0.23422509547E+04 -0.37484258174E+03  0.60498515068E+04  0.65000000000E+04  0.15050000000E+03 0. -1.
     100001    1    1    2    0    0 -0.23422509547E+04  0.37484258174E+03 -0.60498515068E+04  0.65000000000E+04  0.15050000000E+03 0.  1.
</event>
<event>
 4    1  0.4826743E-004  0.6500000E+04  0.7818608E-02  0.7223770E-01
         52   -1    0    0    0    0  0.00000000000E+00  0.00000000000E+00  0.64930732323E+04  0.65000000000E+04  0.30000000000E+03 0.  1.
        -52   -1    0    0    0    0 -0.00000000000E+00 -0.00000000000E+00 -0.64930732323E+04  0.65000000000E+04  0.30000000000E+03 0. -1.
     100001    1    1    2    0    0 -0.63385695997E+04 -0.12185348071E+04  0.75170346781E+03  0.65000000000E+04  0.15050000000E+03 0. -1.
     100001    1    1    2    0    0  0.63385695997E+04  0.12185348071E+04 -0.75170346781E+03  0.65000000000E+04  0.15050000000E+03 0.  1.
</event>
<event>
 4    1  0.4826743E-004  0.6500000E+04  0.7818608E-02  0.7223770E-01
         52   -1    0    0    0    0  0.00000000000E+00  0.00000000000E+00  0.64930732323E+04  0.65000000000E+04  0.30000000000E+03 0.  1.
        -52   -1    0    0    0    0 -0.00000000000E+00 -0.00000000000E+00 -0.64930732323E+04  0.65000000000E+04  0.30000000000E+03 0. -1.
     100001    1    1    2    0    0  0.39469032652E+04 -0.13513556800E+04  0.49822828293E+04  0.65000000000E+04  0.15050000000E+03 0.  1.
     100001    1    1    2    0    0 -0.39469032652E+04  0.13513556800E+04 -0.49822828293E+04  0.65000000000E+04  0.15050000000E+03 0. -1.
</event>
<event>
 4    1  0.4826743E-004  0.6500000E+04  0.7818608E-02  0.7223770E-01
         52   -1    0    0    0    0  0.00000000000E+00  0.00000000000E+00  0.64930732323E+04  0.65000000000E+04  0.30000000000E+03 0.  1.
        -52   -1    0    0    0    0 -0.00000000000E+00 -0.00000000000E+00 -0.64930732323E+04  0.65000000000E+04  0.30000000000E+03 0. -1.
     100001    1    1    2    0    0  0.53378711011E+03 -0.67901208489E+03  0.64406027404E+04  0.65000000000E+04  0.15050000000E+03 0.  1.
     100001    1    1    2    0    0 -0.53378711011E+03  0.67901208489E+03 -0.64406027404E+04  0.65000000000E+04  0.15050000000E+03 0. -1.
</event>
<event>
 4    1  0.4826743E-004  0.6500000E+04  0.7818608E-02  0.7223770E-01
         52   -1    0    0    0    0  0.00000000000E+00  0.00000000000E+00  0.64930732323E+04  0.65000000000E+04  0.30000000000E+03 0. -1.
        -52   -1    0    0    0    0 -0.00000000000E+00 -0.00000000000E+00 -0.64930732323E+04  0.65000000000E+04  0.30000000000E+03 0.  1.
     100001    1    1    2    0    0  0.60162913787E+04  0.75804419036E+03  0.23360130140E+04  0.65000000000E+04  0.15050000000E+03 0. -1.
     100001    1    1    2    0    0 -0.60162913787E+04 -0.75804419036E+03 -0.23360130140E+04  0.65000000000E+04  0.15050000000E+03 0.  1.
</event>
<event>
 4    1  0.4826743E-004  0.6500000E+04  0.7818608E-02  0.7223770E-01
         52   -1    0    0    0    0  0.00000000000E+00  0.00000000000E+00  0.64930732323E+04  0.65000000000E+04  0.30000000000E+03 0. -1.
        -52   -1    0    0    0    0 -0.00000000000E+00 -0.00000000000E+00 -0.64930732323E+04  0.65000000000E+04  0.30000000000E+03 0. -1.
     100001    1    1    2    0    0  0.40838117650E+02  0.72875791858E+03 -0.64571351151E+04  0.65000000000E+04  0.15050000000E+03 0. -1.
     100001    1    1    2    0    0 -0.40838117650E+02 -0.72875791858E+03  0.64571351151E+04  0.65000000000E+04  0.15050000000E+03 0. -1.
</event>
<event>
 4    1  0.4826743E-004  0.6500000E+04  0.7818608E-02  0.7223770E-01
         52   -1    0    0    0    0  0.00000000000E+00  0.00000000000E+00  0.64930732323E+04  0.65000000000E+04  0.30000000000E+03 0. -1.
        -52   -1    0    0    0    0 -0.00000000000E+00 -0.00000000000E+00 -0.64930732323E+04  0.65000000000E+04  0.30000000000E+03 0.  1.
     100001    1    1    2    0    0  0.35311219598E+03  0.16744026655E+04 -0.62688944193E+04  0.65000000000E+04  0.15050000000E+03 0.  1.
     100001    1    1    2    0    0 -0.35311219598E+03 -0.16744026655E+04  0.62688944193E+04  0.65000000000E+04  0.15050000000E+03 0. -1.
</event>
<event>
 4    1  0.4826743E-004  0.6500000E+04  0.7818608E-02  0.7223770E-01
         52   -1    0    0    0    0  0.00000000000E+00  0.00000000000E+00  0.64930732323E+04  0.65000000000E+04  0.30000000000E+03 0.  1.
        -52   -1    0    0    0    0 -0.00000000000E+00 -0.00000000000E+00 -0.64930732323E+04  0.65000000000E+04  0.30000000000E+03 0. -1.
     100001    1    1    2    0    0  0.91272263121E+03  0.55947347894E+03 -0.64094677294E+04  0.65000000000E+04  0.15050000000E+03 0. -1.
     100001    1    1    2    0    0 -0.91272263121E+03 -0.55947347894E+03  0.64094677294E+04  0.65000000000E+04  0.15050000000E+03 0.  1.
</event>
<event>
 4    1  0.4826743E-004  0.6500000E+04  0.7818608E-02  0.7223770E-01
         52   -1    0    0    0    0  0.00000000000E+00  0.00000000000E+00  0.64930732323E+04  0.65000000000E+04  0.30000000000E+03 0. -1.
        -52   -1    0    0    0    0 -0.00000000000E+00 -0.00000000000E+00 -0.64930732323E+04  0.65000000000E+04  0.30000000000E+03 0.  1.
     100001    1    1    2    0    0  0.39143626776E+01 -0.67797499594E+03  0.64627923015E+04  0.65000000000E+04  0.15050000000E+03 0. -1.
     100001    1    1    2    0    0 -0.39143626776E+01  0.67797499594E+03 -0.64627923015E+04  0.65000000000E+04  0.15050000000E+03 0.  1.
</event>
<event>
 4    1  0.4826743E-004  0.6500000E+04  0.7818608E-02  0.7223770E-01
         52   -1    0    0    0    0  0.00000000000E+00  0.00000000000E+00  0.64930732323E+04  0.65000000000E+04  0.30000000000E+03 0. -1.
        -52   -1    0    0    0    0 -0.00000000000E+00 -0.00000000000E+00 -0.64930732323E+04  0.65000000000E+04  0.30000000000E+03 0. -1.
     100001    1    1    2    0    0 -0.40122643103E+03 -0.13715560865E+03 -0.64844086423E+04  0.65000000000E+04  0.15050000000E+03 0. -1.
     100001    1    1    2    0    0  0.40122643103E+03  0.13715560865E+03  0.64844086423E+04  0.65000000000E+04  0.15050000000E+03 0. -1.
</event>
<event>
 4    1  0.4826743E-004  0.6500000E+04  0.7818608E-02  0.7223770E-01
         52   -1    0    0    0    0  0.00000000000E+00  0.00000000000E+00  0.64930732323E+04  0.65000000000E+04  0.30000000000E+03 0.  1.
        -52   -1    0    0    0    0 -0.00000000000E+00 -0.00000000000E+00 -0.64930732323E+04  0.65000000000E+04  0.30000000000E+03 0. -1.
     100001    1    1    2    0    0  0.53065628426E+03  0.48392009521E+03  0.64584498914E+04  0.65000000000E+04  0.15050000000E+03 0.  1.
     100001    1    1    2    0    0 -0.53065628426E+03 -0.48392009521E+03 -0.64584498914E+04  0.65000000000E+04  0.15050000000E+03 0. -1.
</event>
<event>
 4    1  0.4826743E-004  0.6500000E+04  0.7818608E-02  0.7223770E-01
         52   -1    0    0    0    0  0.00000000000E+00  0.00000000000E+00  0.64930732323E+04  0.65000000000E+04  0.30000000000E+03 0. -1.
        -52   -1    0    0    0    0 -0.00000000000E+00 -0.00000000000E+00 -0.64930732323E+04  0.65000000000E+04  0.30000000000E+03 0.  1.
     100001    1    1    2    0    0  0.21689609701E+04  0.29043853133E+04  0.53932832312E+04  0.65000000000E+04  0.15050000000E+03 0. -1.
     100001    1    1    2    0    0 -0.21689609701E+04 -0.29043853133E+04 -0.53932832312E+04  0.65000000000E+04  0.15050000000E+03 0.  1.
</event>
<event>
 4    1  0.4826743E-004  0.6500000E+04  0.7818608E-02  0.7223770E-01
         52   -1    0    0    0    0  0.00000000000E+00  0.00000000000E+00  0.64930732323E+04  0.65000000000E+04  0.30000000000E+03 0.  1.
        -52   -1    0    0    0    0 -0.00000000000E+00 -0.00000000000E+00 -0.64930732323E+04  0.65000000000E+04  0.30000000000E+03 0.  1.
     100001    1    1    2    0    0  0.37973665083E+03  0.25219689734E+03  0.64822485721E+04  0.65000000000E+04  0.15050000000E+03 0.  1.
     100001    1    1    2    0    0 -0.37973665083E+03 -0.25219689734E+03 -0.64822485721E+04  0.65000000000E+04  0.15050000000E+03 0.  1.
</event>
<event>
 4    1  0.4826743E-004  0.6500000E+04  0.7818608E-02  0.7223770E-01
         52   -1    0    0    0    0  0.00000000000E+00  0.00000000000E+00  0.64930732323E+04  0.65000000000E+04  0.30000000000E+03 0. -1.
        -52   -1    0    0    0    0 -0.00000000000E+00 -0.00000000000E+00 -0.64930732323E+04  0.65000000000E+04  0.30000000000E+03 0.  1.
     100001    1    1    2    0    0 -0.82083680919E+03 -0.13972086244E+04 -0.62929631131E+04  0.65000000000E+04  0.15050000000E+03 0.  1.
     100001    1    1    2    0    0  0.82083680919E+03  0.13972086244E+04  0.62929631131E+04  0.65000000000E+04  0.15050000000E+03 0. -1.
</event>
<event>
 4    1  0.4826743E-004  0.6500000E+04  0.7818608E-02  0.7223770E-01
         52   -1    0    0    0    0  0.00000000000E+00  0.00000000000E+00  0.64930732323E+04  0.65000000000E+04  0.30000000000E+03 0.  1.
        -52   -1    0    0    0    0 -0.00000000000E+00 -0.00000000000E+00 -0.64930732323E+04  0.65000000000E+04  0.30000000000E+03 0.  1.
     100001    1    1    2    0    0  0.92734799144E+02  0.45289087953E+02  0.64974378724E+04  0.65000000000E+04  0.15050000000E+03 0.  1.
     100001    1    1    2    0    0 -0.92734799144E+02 -0.45289087953E+02 -0.64974378724E+04  0.65000000000E+04  0.15050000000E+03 0.  1.
</event>
<event>
 4    1  0.4826743E-004  0.6500000E+04  0.7818608E-02  0.7223770E-01
         52   -1    0    0    0    0  0.00000000000E+00  0.00000000000E+00  0.64930732323E+04  0.65000000000E+04  0.30000000000E+03 0. -1.
        -52   -1    0    0    0    0 -0.00000000000E+00 -0.00000000000E+00 -0.64930732323E+04  0.65000000000E+04  0.30000000000E+03 0.  1.
     100001    1    1    2    0    0  0.17874804495E+03  0.24000469816E+04  0.60361555126E+04  0.65000000000E+04  0.15050000000E+03 0. -1.
     100001    1    1    2    0    0 -0.17874804495E+03 -0.24000469816E+04 -0.60361555126E+04  0.65000000000E+04  0.15050000000E+03 0.  1.
</event>
<event>
 4    1  0.4826743E-004  0.6500000E+04  0.7818608E-02  0.7223770E-01
         52   -1    0    0    0    0  0.00000000000E+00  0.00000000000E+00  0.64930732323E+04  0.65000000000E+04  0.30000000000E+03 0.  1.
        -52   -1    0    0    0    0 -0.00000000000E+00 -0.00000000000E+00 -0.64930732323E+04  0.65000000000E+04  0.30000000000E+03 0. -1.
     100001    1    1    2    0    0  0.28493728728E+04 -0.54312532359E+04 -0.21470706252E+04  0.65000000000E+04  0.15050000000E+03 0. -1.
     100001    1    1    2    0    0 -0.28493728728E+04  0.54312532359E+04  0.21470706252E+04  0.65000000000E+04  0.15050000000E+03 0.  1.
</event>
<event>
 4    1  0.4826743E-004  0.6500000E+04  0.7818608E-02  0.7223770E-01
         52   -1    0    0    0    0  0.00000000000E+00  0.00000000000E+00  0.64930732323E+04  0.65000000000E+04  0.30000000000E+03 0.  1.
        -52   -1    0    0    0    0 -0.00000000000E+00 -0.00000000000E+00 -0.64930732323E+04  0.65000000000E+04  0.30000000000E+03 0. -1.
     100001    1    1    2    0    0  0.44451393345E+03 -0.37482482100E+03  0.64721915505E+04  0.65000000000E+04  0.15050000000E+03 0.  1.
     100001    1    1    2    0    0 -0.44451393345E+03  0.37482482100E+03 -0.64721915505E+04  0.65000000000E+04  0.15050000000E+03 0. -1.
</event>
<event>
 4    1  0.4826743E-004  0.6500000E+04  0.7818608E-02  0.7223770E-01
         52   -1    0    0    0    0  0.00000000000E+00  0.00000000000E+00  0.64930732323E+04  0.65000000000E+04  0.30000000000E+03 0. -1.
        -52   -1    0    0    0    0 -0.00000000000E+00 -0.00000000000E+00 -0.64930732323E+04  0.65000000000E+04  0.30000000000E+03 0.  1.
     100001    1    1    2    0    0  0.77964557357E+03  0.98745323027E+03  0.63752991026E+04  0.65000000000E+04  0.15050000000E+03 0. -1.
     100001    1    1    2    0    0 -0.77964557357E+03 -0.98745323027E+03 -0.63752991026E+04  0.65000000000E+04  0.15050000000E+03 0.  1.
</event>
<event>
 4    1  0.4826743E-004  0.6500000E+04  0.7818608E-02  0.7223770E-01
         52   -1    0    0    0    0  0.00000000000E+00  0.00000000000E+00  0.64930732323E+04  0.65000000000E+04  0.30000000000E+03 0. -1.
        -52   -1    0    0    0    0 -0.00000000000E+00 -0.00000000000E+00 -0.64930732323E+04  0.65000000000E+04  0.30000000000E+03 0.  1.
     100001    1    1    2    0    0  0.81796257933E+03  0.69499019522E+03  0.64089995785E+04  0.65000000000E+04  0.15050000000E+03 0. -1.
     100001    1    1    2    0    0 -0.81796257933E+03 -0.69499019522E+03 -0.64089995785E+04  0.65000000000E+04  0.15050000000E+03 0.  1.
</event>
<event>
 4    1  0.4826743E-004  0.6500000E+04  0.7818608E-02  0.7223770E-01
         52   -1    0    0    0    0  0.00000000000E+00  0.00000000000E+00  0.64930732323E+04  0.65000000000E+04  0.30000000000E+03 0. -1.
        -52   -1    0    0    0    0 -0.00000000000E+00 -0.00000000000E+00 -0.64930732323E+04  0.65000000000E+04  0.30000000000E+03 0.  1.
     100001    1    1    2    0    0 -0.25393287887E+04 -0.26578692575E+04  0.53586276287E+04  0.65000000000E+04  0.15050000000E+03 0. -1.
     100001    1    1    2    0    0  0.25393287887E+04  0.26578692575E+04 -0.53586276287E+04  0.65000000000E+04  0.15050000000E+03 0.  1.
</event>
<event>
 4    1  0.4826743E-004  0.6500000E+04  0.7818608E-02  0.7223770E-01
         52   -1    0    0    0    0  0.00000000000E+00  0.00000000000E+00  0.64930732323E+04  0.65000000000E+04  0.30000000000E+03 0.  1.
        -52   -1    0    0    0    0 -0.00000000000E+00 -0.00000000000E+00 -0.64930732323E+04  0.65000000000E+04  0.30000000000E+03 0.  1.
     100001    1    1    2    0    0 -0.50433341094E+03  0.48835784874E+03 -0.64602247772E+04  0.65000000000E+04  0.15050000000E+03 0.  1.
     100001    1    1    2    0    0  0.50433341094E+03 -0.48835784874E+03  0.64602247772E+04  0.65000000000E+04  0.15050000000E+03 0.  1.
</event>
<event>
 4    1  0.4826743E-004  0.6500000E+04  0.7818608E-02  0.7223770E-01
         52   -1    0    0    0    0  0.00000000000E+00  0.00000000000E+00  0.64930732323E+04  0.65000000000E+04  0.30000000000E+03 0.  1.
        -52   -1    0    0    0    0 -0.00000000000E+00 -0.00000000000E+00 -0.64930732323E+04  0.65000000000E+04  0.30000000000E+03 0. -1.
     100001    1    1    2    0    0 -0.10755264875E+04 -0.15898790823E+04 -0.62082909910E+04  0.65000000000E+04  0.15050000000E+03 0. -1.
     100001    1    1    2    0    0  0.10755264875E+04  0.15898790823E+04  0.62082909910E+04  0.65000000000E+04  0.15050000000E+03 0.  1.
</event>
<event>
 4    1  0.4826743E-004  0.6500000E+04  0.7818608E-02  0.7223770E-01
         52   -1    0    0    0    0  0.00000000000E+00  0.00000000000E+00  0.64930732323E+04  0.65000000000E+04  0.30000000000E+03 0.  1.
        -52   -1    0    0    0    0 -0.00000000000E+00 -0.00000000000E+00 -0.64930732323E+04  0.65000000000E+04  0.30000000000E+03 0. -1.
     100001    1    1    2    0    0  0.62967775358E+03  0.40678682553E+03  0.64548725902E+04  0.65000000000E+04  0.15050000000E+03 0.  1.
     100001    1    1    2    0    0 -0.62967775358E+03 -0.40678682553E+03 -0.64548725902E+04  0.65000000000E+04  0.15050000000E+03 0. -1.
</event>
<event>
 4    1  0.4826743E-004  0.6500000E+04  0.7818608E-02  0.7223770E-01
         52   -1    0    0    0    0  0.00000000000E+00  0.00000000000E+00  0.64930732323E+04  0.65000000000E+04  0.30000000000E+03 0.  1.
        -52   -1    0    0    0    0 -0.00000000000E+00 -0.00000000000E+00 -0.64930732323E+04  0.65000000000E+04  0.30000000000E+03 0. -1.
     100001    1    1    2    0    0 -0.14583187006E+04 -0.15255608227E+03  0.63306700245E+04  0.65000000000E+04  0.15050000000E+03 0.  1.
     100001    1    1    2    0    0  0.14583187006E+04  0.15255608227E+03 -0.63306700245E+04  0.65000000000E+04  0.15050000000E+03 0. -1.
</event>
<event>
 4    1  0.4826743E-004  0.6500000E+04  0.7818608E-02  0.7223770E-01
         52   -1    0    0    0    0  0.00000000000E+00  0.00000000000E+00  0.64930732323E+04  0.65000000000E+04  0.30000000000E+03 0. -1.
        -52   -1    0    0    0    0 -0.00000000000E+00 -0.00000000000E+00 -0.64930732323E+04  0.65000000000E+04  0.30000000000E+03 0. -1.
     100001    1    1    2    0    0  0.26323246414E+03 -0.13611984420E+03 -0.64914967309E+04  0.65000000000E+04  0.15050000000E+03 0. -1.
     100001    1    1    2    0    0 -0.26323246414E+03  0.13611984420E+03  0.64914967309E+04  0.65000000000E+04  0.15050000000E+03 0. -1.
</event>
<event>
 4    1  0.4826743E-004  0.6500000E+04  0.7818608E-02  0.7223770E-01
         52   -1    0    0    0    0  0.00000000000E+00  0.00000000000E+00  0.64930732323E+04  0.65000000000E+04  0.30000000000E+03 0. -1.
        -52   -1    0    0    0    0 -0.00000000000E+00 -0.00000000000E+00 -0.64930732323E+04  0.65000000000E+04  0.30000000000E+03 0.  1.
     100001    1    1    2    0    0  0.67543922677E+03  0.40329125750E+04 -0.50504205531E+04  0.65000000000E+04  0.15050000000E+03 0.  1.
     100001    1    1    2    0    0 -0.67543922677E+03 -0.40329125750E+04  0.50504205531E+04  0.65000000000E+04  0.15050000000E+03 0. -1.
</event>
<event>
 4    1  0.4826743E-004  0.6500000E+04  0.7818608E-02  0.7223770E-01
         52   -1    0    0    0    0  0.00000000000E+00  0.00000000000E+00  0.64930732323E+04  0.65000000000E+04  0.30000000000E+03 0.  1.
        -52   -1    0    0    0    0 -0.00000000000E+00 -0.00000000000E+00 -0.64930732323E+04  0.65000000000E+04  0.30000000000E+03 0. -1.
     100001    1    1    2    0    0 -0.32259020467E+04  0.60221834110E+03  0.56087644633E+04  0.65000000000E+04  0.15050000000E+03 0.  1.
     100001    1    1    2    0    0  0.32259020467E+04 -0.60221834110E+03 -0.56087644633E+04  0.65000000000E+04  0.15050000000E+03 0. -1.
</event>
<event>
 4    1  0.4826743E-004  0.6500000E+04  0.7818608E-02  0.7223770E-01
         52   -1    0    0    0    0  0.00000000000E+00  0.00000000000E+00  0.64930732323E+04  0.65000000000E+04  0.30000000000E+03 0. -1.
        -52   -1    0    0    0    0 -0.00000000000E+00 -0.00000000000E+00 -0.64930732323E+04  0.65000000000E+04  0.30000000000E+03 0.  1.
     100001    1    1    2    0    0  0.18994021537E+04 -0.10391140201E+04 -0.61269783141E+04  0.65000000000E+04  0.15050000000E+03 0.  1.
     100001    1    1    2    0    0 -0.18994021537E+04  0.10391140201E+04  0.61269783141E+04  0.65000000000E+04  0.15050000000E+03 0. -1.
</event>
<event>
 4    1  0.4826743E-004  0.6500000E+04  0.7818608E-02  0.7223770E-01
         52   -1    0    0    0    0  0.00000000000E+00  0.00000000000E+00  0.64930732323E+04  0.65000000000E+04  0.30000000000E+03 0.  1.
        -52   -1    0    0    0    0 -0.00000000000E+00 -0.00000000000E+00 -0.64930732323E+04  0.65000000000E+04  0.30000000000E+03 0.  1.
     100001    1    1    2    0    0  0.66160715418E+01 -0.20303037277E+03  0.64950815734E+04  0.65000000000E+04  0.15050000000E+03 0.  1.
     100001    1    1    2    0    0 -0.66160715418E+01  0.20303037277E+03 -0.64950815734E+04  0.65000000000E+04  0.15050000000E+03 0.  1.
</event>
<event>
 4    1  0.4826743E-004  0.6500000E+04  0.7818608E-02  0.7223770E-01
         52   -1    0    0    0    0  0.00000000000E+00  0.00000000000E+00  0.64930732323E+04  0.65000000000E+04  0.30000000000E+03 0. -1.
        -52   -1    0    0    0    0 -0.00000000000E+00 -0.00000000000E+00 -0.64930732323E+04  0.65000000000E+04  0.30000000000E+03 0. -1.
     100001    1    1    2    0    0 -0.59399451052E+03  0.10597851433E+04 -0.63836804213E+04  0.65000000000E+04  0.15050000000E+03 0. -1.
     100001    1    1    2    0    0  0.59399451052E+03 -0.10597851433E+04  0.63836804213E+04  0.65000000000E+04  0.15050000000E+03 0. -1.
</event>
<event>
 4    1  0.4826743E-004  0.6500000E+04  0.7818608E-02  0.7223770E-01
         52   -1    0    0    0    0  0.00000000000E+00  0.00000000000E+00  0.64930732323E+04  0.65000000000E+04  0.30000000000E+03 0.  1.
        -52   -1    0    0    0    0 -0.00000000000E+00 -0.00000000000E+00 -0.64930732323E+04  0.65000000000E+04  0.30000000000E+03 0. -1.
     100001    1    1    2    0    0  0.23599504190E+04  0.39564787766E+03  0.60416427010E+04  0.65000000000E+04  0.15050000000E+03 0.  1.
     100001    1    1    2    0    0 -0.23599504190E+04 -0.39564787766E+03 -0.60416427010E+04  0.65000000000E+04  0.15050000000E+03 0. -1.
</event>
<event>
 4    1  0.4826743E-004  0.6500000E+04  0.7818608E-02  0.7223770E-01
         52   -1    0    0    0    0  0.00000000000E+00  0.00000000000E+00  0.64930732323E+04  0.65000000000E+04  0.30000000000E+03 0.  1.
        -52   -1    0    0    0    0 -0.00000000000E+00 -0.00000000000E+00 -0.64930732323E+04  0.65000000000E+04  0.30000000000E+03 0. -1.
     100001    1    1    2    0    0  0.34305719806E+04  0.29738847427E+04  0.46491434881E+04  0.65000000000E+04  0.15050000000E+03 0.  1.
     100001    1    1    2    0    0 -0.34305719806E+04 -0.29738847427E+04 -0.46491434881E+04  0.65000000000E+04  0.15050000000E+03 0. -1.
</event>
<event>
 4    1  0.4826743E-004  0.6500000E+04  0.7818608E-02  0.7223770E-01
         52   -1    0    0    0    0  0.00000000000E+00  0.00000000000E+00  0.64930732323E+04  0.65000000000E+04  0.30000000000E+03 0. -1.
        -52   -1    0    0    0    0 -0.00000000000E+00 -0.00000000000E+00 -0.64930732323E+04  0.65000000000E+04  0.30000000000E+03 0.  1.
     100001    1    1    2    0    0  0.13045260202E+04  0.82161938380E+03 -0.63127254970E+04  0.65000000000E+04  0.15050000000E+03 0.  1.
     100001    1    1    2    0    0 -0.13045260202E+04 -0.82161938380E+03  0.63127254970E+04  0.65000000000E+04  0.15050000000E+03 0. -1.
</event>
<event>
 4    1  0.4826743E-004  0.6500000E+04  0.7818608E-02  0.7223770E-01
         52   -1    0    0    0    0  0.00000000000E+00  0.00000000000E+00  0.64930732323E+04  0.65000000000E+04  0.30000000000E+03 0.  1.
        -52   -1    0    0    0    0 -0.00000000000E+00 -0.00000000000E+00 -0.64930732323E+04  0.65000000000E+04  0.30000000000E+03 0. -1.
     100001    1    1    2    0    0  0.23580901231E+04  0.29753699906E+03 -0.60479940853E+04  0.65000000000E+04  0.15050000000E+03 0. -1.
     100001    1    1    2    0    0 -0.23580901231E+04 -0.29753699906E+03  0.60479940853E+04  0.65000000000E+04  0.15050000000E+03 0.  1.
</event>
<event>
 4    1  0.4826743E-004  0.6500000E+04  0.7818608E-02  0.7223770E-01
         52   -1    0    0    0    0  0.00000000000E+00  0.00000000000E+00  0.64930732323E+04  0.65000000000E+04  0.30000000000E+03 0. -1.
        -52   -1    0    0    0    0 -0.00000000000E+00 -0.00000000000E+00 -0.64930732323E+04  0.65000000000E+04  0.30000000000E+03 0.  1.
     100001    1    1    2    0    0 -0.26233767151E+04  0.59263865653E+04 -0.47242633228E+03  0.65000000000E+04  0.15050000000E+03 0. -1.
     100001    1    1    2    0    0  0.26233767151E+04 -0.59263865653E+04  0.47242633228E+03  0.65000000000E+04  0.15050000000E+03 0.  1.
</event>
<event>
 4    1  0.4826743E-004  0.6500000E+04  0.7818608E-02  0.7223770E-01
         52   -1    0    0    0    0  0.00000000000E+00  0.00000000000E+00  0.64930732323E+04  0.65000000000E+04  0.30000000000E+03 0.  1.
        -52   -1    0    0    0    0 -0.00000000000E+00 -0.00000000000E+00 -0.64930732323E+04  0.65000000000E+04  0.30000000000E+03 0. -1.
     100001    1    1    2    0    0 -0.13448535397E+04 -0.45407693594E+02 -0.63574096020E+04  0.65000000000E+04  0.15050000000E+03 0. -1.
     100001    1    1    2    0    0  0.13448535397E+04  0.45407693594E+02  0.63574096020E+04  0.65000000000E+04  0.15050000000E+03 0.  1.
</event>
<event>
 4    1  0.4826743E-004  0.6500000E+04  0.7818608E-02  0.7223770E-01
         52   -1    0    0    0    0  0.00000000000E+00  0.00000000000E+00  0.64930732323E+04  0.65000000000E+04  0.30000000000E+03 0. -1.
        -52   -1    0    0    0    0 -0.00000000000E+00 -0.00000000000E+00 -0.64930732323E+04  0.65000000000E+04  0.30000000000E+03 0.  1.
     100001    1    1    2    0    0 -0.40153195337E+03 -0.18356905618E+04 -0.62206399994E+04  0.65000000000E+04  0.15050000000E+03 0.  1.
     100001    1    1    2    0    0  0.40153195337E+03  0.18356905618E+04  0.62206399994E+04  0.65000000000E+04  0.15050000000E+03 0. -1.
</event>
<event>
 4    1  0.4826743E-004  0.6500000E+04  0.7818608E-02  0.7223770E-01
         52   -1    0    0    0    0  0.00000000000E+00  0.00000000000E+00  0.64930732323E+04  0.65000000000E+04  0.30000000000E+03 0.  1.
        -52   -1    0    0    0    0 -0.00000000000E+00 -0.00000000000E+00 -0.64930732323E+04  0.65000000000E+04  0.30000000000E+03 0. -1.
     100001    1    1    2    0    0  0.10200361451E+04 -0.31016160427E+04  0.56184387454E+04  0.65000000000E+04  0.15050000000E+03 0.  1.
     100001    1    1    2    0    0 -0.10200361451E+04  0.31016160427E+04 -0.56184387454E+04  0.65000000000E+04  0.15050000000E+03 0. -1.
</event>
<event>
 4    1  0.4826743E-004  0.6500000E+04  0.7818608E-02  0.7223770E-01
         52   -1    0    0    0    0  0.00000000000E+00  0.00000000000E+00  0.64930732323E+04  0.65000000000E+04  0.30000000000E+03 0.  1.
        -52   -1    0    0    0    0 -0.00000000000E+00 -0.00000000000E+00 -0.64930732323E+04  0.65000000000E+04  0.30000000000E+03 0. -1.
     100001    1    1    2    0    0  0.16532689808E+04  0.14185838499E+03  0.62828279959E+04  0.65000000000E+04  0.15050000000E+03 0.  1.
     100001    1    1    2    0    0 -0.16532689808E+04 -0.14185838499E+03 -0.62828279959E+04  0.65000000000E+04  0.15050000000E+03 0. -1.
</event>
<event>
 4    1  0.4826743E-004  0.6500000E+04  0.7818608E-02  0.7223770E-01
         52   -1    0    0    0    0  0.00000000000E+00  0.00000000000E+00  0.64930732323E+04  0.65000000000E+04  0.30000000000E+03 0.  1.
        -52   -1    0    0    0    0 -0.00000000000E+00 -0.00000000000E+00 -0.64930732323E+04  0.65000000000E+04  0.30000000000E+03 0.  1.
     100001    1    1    2    0    0 -0.67054252970E+03 -0.87441508753E+02  0.64629773672E+04  0.65000000000E+04  0.15050000000E+03 0.  1.
     100001    1    1    2    0    0  0.67054252970E+03  0.87441508753E+02 -0.64629773672E+04  0.65000000000E+04  0.15050000000E+03 0.  1.
</event>
<event>
 4    1  0.4826743E-004  0.6500000E+04  0.7818608E-02  0.7223770E-01
         52   -1    0    0    0    0  0.00000000000E+00  0.00000000000E+00  0.64930732323E+04  0.65000000000E+04  0.30000000000E+03 0.  1.
        -52   -1    0    0    0    0 -0.00000000000E+00 -0.00000000000E+00 -0.64930732323E+04  0.65000000000E+04  0.30000000000E+03 0. -1.
     100001    1    1    2    0    0  0.21317786738E+04 -0.51721210658E+04  0.33063625204E+04  0.65000000000E+04  0.15050000000E+03 0. -1.
     100001    1    1    2    0    0 -0.21317786738E+04  0.51721210658E+04 -0.33063625204E+04  0.65000000000E+04  0.15050000000E+03 0.  1.
</event>
<event>
 4    1  0.4826743E-004  0.6500000E+04  0.7818608E-02  0.7223770E-01
         52   -1    0    0    0    0  0.00000000000E+00  0.00000000000E+00  0.64930732323E+04  0.65000000000E+04  0.30000000000E+03 0.  1.
        -52   -1    0    0    0    0 -0.00000000000E+00 -0.00000000000E+00 -0.64930732323E+04  0.65000000000E+04  0.30000000000E+03 0. -1.
     100001    1    1    2    0    0  0.58591645941E+03 -0.46015724376E+02  0.64716253141E+04  0.65000000000E+04  0.15050000000E+03 0.  1.
     100001    1    1    2    0    0 -0.58591645941E+03  0.46015724376E+02 -0.64716253141E+04  0.65000000000E+04  0.15050000000E+03 0. -1.
</event>
<event>
 4    1  0.4826743E-004  0.6500000E+04  0.7818608E-02  0.7223770E-01
         52   -1    0    0    0    0  0.00000000000E+00  0.00000000000E+00  0.64930732323E+04  0.65000000000E+04  0.30000000000E+03 0. -1.
        -52   -1    0    0    0    0 -0.00000000000E+00 -0.00000000000E+00 -0.64930732323E+04  0.65000000000E+04  0.30000000000E+03 0.  1.
     100001    1    1    2    0    0  0.89933935344E+03 -0.60352399533E+04 -0.22348192732E+04  0.65000000000E+04  0.15050000000E+03 0. -1.
     100001    1    1    2    0    0 -0.89933935344E+03  0.60352399533E+04  0.22348192732E+04  0.65000000000E+04  0.15050000000E+03 0.  1.
</event>
<event>
 4    1  0.4826743E-004  0.6500000E+04  0.7818608E-02  0.7223770E-01
         52   -1    0    0    0    0  0.00000000000E+00  0.00000000000E+00  0.64930732323E+04  0.65000000000E+04  0.30000000000E+03 0.  1.
        -52   -1    0    0    0    0 -0.00000000000E+00 -0.00000000000E+00 -0.64930732323E+04  0.65000000000E+04  0.30000000000E+03 0. -1.
     100001    1    1    2    0    0 -0.18476978296E+03 -0.50374752100E+03  0.64760673493E+04  0.65000000000E+04  0.15050000000E+03 0.  1.
     100001    1    1    2    0    0  0.18476978296E+03  0.50374752100E+03 -0.64760673493E+04  0.65000000000E+04  0.15050000000E+03 0. -1.
</event>
<event>
 4    1  0.7306180E-004  0.6500000E+04  0.7818608E-02  0.7223770E-01
         52   -1    0    0    0    0  0.00000000000E+00  0.00000000000E+00  0.64930732323E+04  0.65000000000E+04  0.30000000000E+03 0.  1.
        -52   -1    0    0    0    0 -0.00000000000E+00 -0.00000000000E+00 -0.64930732323E+04  0.65000000000E+04  0.30000000000E+03 0.  1.
     100001    1    1    2    0    0 -0.73099145673E+02  0.43927386513E+02  0.64976977961E+04  0.65000000000E+04  0.15050000000E+03 0.  1.
     100001    1    1    2    0    0  0.73099145673E+02 -0.43927386513E+02 -0.64976977961E+04  0.65000000000E+04  0.15050000000E+03 0.  1.
</event>
<event>
 4    1  0.4826743E-004  0.6500000E+04  0.7818608E-02  0.7223770E-01
         52   -1    0    0    0    0  0.00000000000E+00  0.00000000000E+00  0.64930732323E+04  0.65000000000E+04  0.30000000000E+03 0.  1.
        -52   -1    0    0    0    0 -0.00000000000E+00 -0.00000000000E+00 -0.64930732323E+04  0.65000000000E+04  0.30000000000E+03 0. -1.
     100001    1    1    2    0    0  0.88418144685E+03  0.39140036652E+03  0.64259146176E+04  0.65000000000E+04  0.15050000000E+03 0.  1.
     100001    1    1    2    0    0 -0.88418144685E+03 -0.39140036652E+03 -0.64259146176E+04  0.65000000000E+04  0.15050000000E+03 0. -1.
</event>
<event>
 4    1  0.4826743E-004  0.6500000E+04  0.7818608E-02  0.7223770E-01
         52   -1    0    0    0    0  0.00000000000E+00  0.00000000000E+00  0.64930732323E+04  0.65000000000E+04  0.30000000000E+03 0. -1.
        -52   -1    0    0    0    0 -0.00000000000E+00 -0.00000000000E+00 -0.64930732323E+04  0.65000000000E+04  0.30000000000E+03 0.  1.
     100001    1    1    2    0    0  0.21377376832E+04  0.36284225864E+04 -0.49489369447E+04  0.65000000000E+04  0.15050000000E+03 0.  1.
     100001    1    1    2    0    0 -0.21377376832E+04 -0.36284225864E+04  0.49489369447E+04  0.65000000000E+04  0.15050000000E+03 0. -1.
</event>
<event>
 4    1  0.4826743E-004  0.6500000E+04  0.7818608E-02  0.7223770E-01
         52   -1    0    0    0    0  0.00000000000E+00  0.00000000000E+00  0.64930732323E+04  0.65000000000E+04  0.30000000000E+03 0.  1.
        -52   -1    0    0    0    0 -0.00000000000E+00 -0.00000000000E+00 -0.64930732323E+04  0.65000000000E+04  0.30000000000E+03 0.  1.
     100001    1    1    2    0    0  0.32147662204E+03 -0.73623120528E+02  0.64898830627E+04  0.65000000000E+04  0.15050000000E+03 0.  1.
     100001    1    1    2    0    0 -0.32147662204E+03  0.73623120528E+02 -0.64898830627E+04  0.65000000000E+04  0.15050000000E+03 0.  1.
</event>
<event>
 4    1  0.4826743E-004  0.6500000E+04  0.7818608E-02  0.7223770E-01
         52   -1    0    0    0    0  0.00000000000E+00  0.00000000000E+00  0.64930732323E+04  0.65000000000E+04  0.30000000000E+03 0.  1.
        -52   -1    0    0    0    0 -0.00000000000E+00 -0.00000000000E+00 -0.64930732323E+04  0.65000000000E+04  0.30000000000E+03 0. -1.
     100001    1    1    2    0    0 -0.29205790539E+04  0.29672732237E+04  0.49892742314E+04  0.65000000000E+04  0.15050000000E+03 0. -1.
     100001    1    1    2    0    0  0.29205790539E+04 -0.29672732237E+04 -0.49892742314E+04  0.65000000000E+04  0.15050000000E+03 0.  1.
</event>
<event>
 4    1  0.4826743E-004  0.6500000E+04  0.7818608E-02  0.7223770E-01
         52   -1    0    0    0    0  0.00000000000E+00  0.00000000000E+00  0.64930732323E+04  0.65000000000E+04  0.30000000000E+03 0. -1.
        -52   -1    0    0    0    0 -0.00000000000E+00 -0.00000000000E+00 -0.64930732323E+04  0.65000000000E+04  0.30000000000E+03 0.  1.
     100001    1    1    2    0    0 -0.23112710156E+03 -0.23553866106E+04  0.60519487711E+04  0.65000000000E+04  0.15050000000E+03 0. -1.
     100001    1    1    2    0    0  0.23112710156E+03  0.23553866106E+04 -0.60519487711E+04  0.65000000000E+04  0.15050000000E+03 0.  1.
</event>
<event>
 4    1  0.4826743E-004  0.6500000E+04  0.7818608E-02  0.7223770E-01
         52   -1    0    0    0    0  0.00000000000E+00  0.00000000000E+00  0.64930732323E+04  0.65000000000E+04  0.30000000000E+03 0. -1.
        -52   -1    0    0    0    0 -0.00000000000E+00 -0.00000000000E+00 -0.64930732323E+04  0.65000000000E+04  0.30000000000E+03 0.  1.
     100001    1    1    2    0    0 -0.61350024028E+03 -0.70744217896E+03  0.64304348818E+04  0.65000000000E+04  0.15050000000E+03 0. -1.
     100001    1    1    2    0    0  0.61350024028E+03  0.70744217896E+03 -0.64304348818E+04  0.65000000000E+04  0.15050000000E+03 0.  1.
</event>
<event>
 4    1  0.4826743E-004  0.6500000E+04  0.7818608E-02  0.7223770E-01
         52   -1    0    0    0    0  0.00000000000E+00  0.00000000000E+00  0.64930732323E+04  0.65000000000E+04  0.30000000000E+03 0.  1.
        -52   -1    0    0    0    0 -0.00000000000E+00 -0.00000000000E+00 -0.64930732323E+04  0.65000000000E+04  0.30000000000E+03 0. -1.
     100001    1    1    2    0    0  0.38054406502E+04  0.40457034492E+03 -0.52518848087E+04  0.65000000000E+04  0.15050000000E+03 0. -1.
     100001    1    1    2    0    0 -0.38054406502E+04 -0.40457034492E+03  0.52518848087E+04  0.65000000000E+04  0.15050000000E+03 0.  1.
</event>
<event>
 4    1  0.4826743E-004  0.6500000E+04  0.7818608E-02  0.7223770E-01
         52   -1    0    0    0    0  0.00000000000E+00  0.00000000000E+00  0.64930732323E+04  0.65000000000E+04  0.30000000000E+03 0. -1.
        -52   -1    0    0    0    0 -0.00000000000E+00 -0.00000000000E+00 -0.64930732323E+04  0.65000000000E+04  0.30000000000E+03 0.  1.
     100001    1    1    2    0    0  0.22723462999E+04 -0.39339700934E+04  0.46462534743E+04  0.65000000000E+04  0.15050000000E+03 0. -1.
     100001    1    1    2    0    0 -0.22723462999E+04  0.39339700934E+04 -0.46462534743E+04  0.65000000000E+04  0.15050000000E+03 0.  1.
</event>
<event>
 4    1  0.4826743E-004  0.6500000E+04  0.7818608E-02  0.7223770E-01
         52   -1    0    0    0    0  0.00000000000E+00  0.00000000000E+00  0.64930732323E+04  0.65000000000E+04  0.30000000000E+03 0.  1.
        -52   -1    0    0    0    0 -0.00000000000E+00 -0.00000000000E+00 -0.64930732323E+04  0.65000000000E+04  0.30000000000E+03 0. -1.
     100001    1    1    2    0    0  0.12848637875E+01  0.14183680323E+04 -0.63415755317E+04  0.65000000000E+04  0.15050000000E+03 0. -1.
     100001    1    1    2    0    0 -0.12848637875E+01 -0.14183680323E+04  0.63415755317E+04  0.65000000000E+04  0.15050000000E+03 0.  1.
</event>
<event>
 4    1  0.4826743E-004  0.6500000E+04  0.7818608E-02  0.7223770E-01
         52   -1    0    0    0    0  0.00000000000E+00  0.00000000000E+00  0.64930732323E+04  0.65000000000E+04  0.30000000000E+03 0.  1.
        -52   -1    0    0    0    0 -0.00000000000E+00 -0.00000000000E+00 -0.64930732323E+04  0.65000000000E+04  0.30000000000E+03 0. -1.
     100001    1    1    2    0    0  0.48144193708E+03  0.37150349060E+04 -0.53098097008E+04  0.65000000000E+04  0.15050000000E+03 0. -1.
     100001    1    1    2    0    0 -0.48144193708E+03 -0.37150349060E+04  0.53098097008E+04  0.65000000000E+04  0.15050000000E+03 0.  1.
</event>
<event>
 4    1  0.4826743E-004  0.6500000E+04  0.7818608E-02  0.7223770E-01
         52   -1    0    0    0    0  0.00000000000E+00  0.00000000000E+00  0.64930732323E+04  0.65000000000E+04  0.30000000000E+03 0.  1.
        -52   -1    0    0    0    0 -0.00000000000E+00 -0.00000000000E+00 -0.64930732323E+04  0.65000000000E+04  0.30000000000E+03 0. -1.
     100001    1    1    2    0    0 -0.20275510458E+03  0.99387965585E+01  0.64950859377E+04  0.65000000000E+04  0.15050000000E+03 0.  1.
     100001    1    1    2    0    0  0.20275510458E+03 -0.99387965585E+01 -0.64950859377E+04  0.65000000000E+04  0.15050000000E+03 0. -1.
</event>
<event>
 4    1  0.4826743E-004  0.6500000E+04  0.7818608E-02  0.7223770E-01
         52   -1    0    0    0    0  0.00000000000E+00  0.00000000000E+00  0.64930732323E+04  0.65000000000E+04  0.30000000000E+03 0. -1.
        -52   -1    0    0    0    0 -0.00000000000E+00 -0.00000000000E+00 -0.64930732323E+04  0.65000000000E+04  0.30000000000E+03 0.  1.
     100001    1    1    2    0    0 -0.62877133302E+03 -0.76223763557E+03 -0.64226933718E+04  0.65000000000E+04  0.15050000000E+03 0.  1.
     100001    1    1    2    0    0  0.62877133302E+03  0.76223763557E+03  0.64226933718E+04  0.65000000000E+04  0.15050000000E+03 0. -1.
</event>
<event>
 4    1  0.4826743E-004  0.6500000E+04  0.7818608E-02  0.7223770E-01
         52   -1    0    0    0    0  0.00000000000E+00  0.00000000000E+00  0.64930732323E+04  0.65000000000E+04  0.30000000000E+03 0.  1.
        -52   -1    0    0    0    0 -0.00000000000E+00 -0.00000000000E+00 -0.64930732323E+04  0.65000000000E+04  0.30000000000E+03 0. -1.
     100001    1    1    2    0    0  0.40540349841E+03 -0.13941922540E+03 -0.64841005570E+04  0.65000000000E+04  0.15050000000E+03 0. -1.
     100001    1    1    2    0    0 -0.40540349841E+03  0.13941922540E+03  0.64841005570E+04  0.65000000000E+04  0.15050000000E+03 0.  1.
</event>
<event>
 4    1  0.4826743E-004  0.6500000E+04  0.7818608E-02  0.7223770E-01
         52   -1    0    0    0    0  0.00000000000E+00  0.00000000000E+00  0.64930732323E+04  0.65000000000E+04  0.30000000000E+03 0. -1.
        -52   -1    0    0    0    0 -0.00000000000E+00 -0.00000000000E+00 -0.64930732323E+04  0.65000000000E+04  0.30000000000E+03 0.  1.
     100001    1    1    2    0    0 -0.52329846769E+03  0.89289744583E+03 -0.64153131346E+04  0.65000000000E+04  0.15050000000E+03 0.  1.
     100001    1    1    2    0    0  0.52329846769E+03 -0.89289744583E+03  0.64153131346E+04  0.65000000000E+04  0.15050000000E+03 0. -1.
</event>
<event>
 4    1  0.4826743E-004  0.6500000E+04  0.7818608E-02  0.7223770E-01
         52   -1    0    0    0    0  0.00000000000E+00  0.00000000000E+00  0.64930732323E+04  0.65000000000E+04  0.30000000000E+03 0. -1.
        -52   -1    0    0    0    0 -0.00000000000E+00 -0.00000000000E+00 -0.64930732323E+04  0.65000000000E+04  0.30000000000E+03 0.  1.
     100001    1    1    2    0    0  0.44506464951E+02  0.14463753257E+04 -0.63350901605E+04  0.65000000000E+04  0.15050000000E+03 0.  1.
     100001    1    1    2    0    0 -0.44506464951E+02 -0.14463753257E+04  0.63350901605E+04  0.65000000000E+04  0.15050000000E+03 0. -1.
</event>
<event>
 4    1  0.7033828E-004  0.6500000E+04  0.7818608E-02  0.7223770E-01
         52   -1    0    0    0    0  0.00000000000E+00  0.00000000000E+00  0.64930732323E+04  0.65000000000E+04  0.30000000000E+03 0. -1.
        -52   -1    0    0    0    0 -0.00000000000E+00 -0.00000000000E+00 -0.64930732323E+04  0.65000000000E+04  0.30000000000E+03 0. -1.
     100001    1    1    2    0    0  0.99407587255E+02 -0.65777635603E+01  0.64974937179E+04  0.65000000000E+04  0.15050000000E+03 0. -1.
     100001    1    1    2    0    0 -0.99407587255E+02  0.65777635603E+01 -0.64974937179E+04  0.65000000000E+04  0.15050000000E+03 0. -1.
</event>
<event>
 4    1  0.4826743E-004  0.6500000E+04  0.7818608E-02  0.7223770E-01
         52   -1    0    0    0    0  0.00000000000E+00  0.00000000000E+00  0.64930732323E+04  0.65000000000E+04  0.30000000000E+03 0. -1.
        -52   -1    0    0    0    0 -0.00000000000E+00 -0.00000000000E+00 -0.64930732323E+04  0.65000000000E+04  0.30000000000E+03 0. -1.
     100001    1    1    2    0    0  0.19723771798E+03 -0.31533429024E+03  0.64876044360E+04  0.65000000000E+04  0.15050000000E+03 0. -1.
     100001    1    1    2    0    0 -0.19723771798E+03  0.31533429024E+03 -0.64876044360E+04  0.65000000000E+04  0.15050000000E+03 0. -1.
</event>
<event>
 4    1  0.4826743E-004  0.6500000E+04  0.7818608E-02  0.7223770E-01
         52   -1    0    0    0    0  0.00000000000E+00  0.00000000000E+00  0.64930732323E+04  0.65000000000E+04  0.30000000000E+03 0. -1.
        -52   -1    0    0    0    0 -0.00000000000E+00 -0.00000000000E+00 -0.64930732323E+04  0.65000000000E+04  0.30000000000E+03 0.  1.
     100001    1    1    2    0    0 -0.30661324975E+03 -0.10300396944E+04 -0.64087718241E+04  0.65000000000E+04  0.15050000000E+03 0.  1.
     100001    1    1    2    0    0  0.30661324975E+03  0.10300396944E+04  0.64087718241E+04  0.65000000000E+04  0.15050000000E+03 0. -1.
</event>
<event>
 4    1  0.4826743E-004  0.6500000E+04  0.7818608E-02  0.7223770E-01
         52   -1    0    0    0    0  0.00000000000E+00  0.00000000000E+00  0.64930732323E+04  0.65000000000E+04  0.30000000000E+03 0.  1.
        -52   -1    0    0    0    0 -0.00000000000E+00 -0.00000000000E+00 -0.64930732323E+04  0.65000000000E+04  0.30000000000E+03 0. -1.
     100001    1    1    2    0    0 -0.66147183657E+03  0.44395476665E+03  0.64492409572E+04  0.65000000000E+04  0.15050000000E+03 0.  1.
     100001    1    1    2    0    0  0.66147183657E+03 -0.44395476665E+03 -0.64492409572E+04  0.65000000000E+04  0.15050000000E+03 0. -1.
</event>
<event>
 4    1  0.4826743E-004  0.6500000E+04  0.7818608E-02  0.7223770E-01
         52   -1    0    0    0    0  0.00000000000E+00  0.00000000000E+00  0.64930732323E+04  0.65000000000E+04  0.30000000000E+03 0.  1.
        -52   -1    0    0    0    0 -0.00000000000E+00 -0.00000000000E+00 -0.64930732323E+04  0.65000000000E+04  0.30000000000E+03 0. -1.
     100001    1    1    2    0    0  0.40056561081E+04  0.49161145768E+04  0.14191146398E+04  0.65000000000E+04  0.15050000000E+03 0. -1.
     100001    1    1    2    0    0 -0.40056561081E+04 -0.49161145768E+04 -0.14191146398E+04  0.65000000000E+04  0.15050000000E+03 0.  1.
</event>
<event>
 4    1  0.4826743E-004  0.6500000E+04  0.7818608E-02  0.7223770E-01
         52   -1    0    0    0    0  0.00000000000E+00  0.00000000000E+00  0.64930732323E+04  0.65000000000E+04  0.30000000000E+03 0.  1.
        -52   -1    0    0    0    0 -0.00000000000E+00 -0.00000000000E+00 -0.64930732323E+04  0.65000000000E+04  0.30000000000E+03 0.  1.
     100001    1    1    2    0    0 -0.39357890321E+02  0.36807987256E+02  0.64980340010E+04  0.65000000000E+04  0.15050000000E+03 0.  1.
     100001    1    1    2    0    0  0.39357890321E+02 -0.36807987256E+02 -0.64980340010E+04  0.65000000000E+04  0.15050000000E+03 0.  1.
</event>
<event>
 4    1  0.4826743E-004  0.6500000E+04  0.7818608E-02  0.7223770E-01
         52   -1    0    0    0    0  0.00000000000E+00  0.00000000000E+00  0.64930732323E+04  0.65000000000E+04  0.30000000000E+03 0.  1.
        -52   -1    0    0    0    0 -0.00000000000E+00 -0.00000000000E+00 -0.64930732323E+04  0.65000000000E+04  0.30000000000E+03 0. -1.
     100001    1    1    2    0    0  0.58590038635E+04  0.22275895172E+04  0.17138460898E+04  0.65000000000E+04  0.15050000000E+03 0.  1.
     100001    1    1    2    0    0 -0.58590038635E+04 -0.22275895172E+04 -0.17138460898E+04  0.65000000000E+04  0.15050000000E+03 0. -1.
</event>
<event>
 4    1  0.4826743E-004  0.6500000E+04  0.7818608E-02  0.7223770E-01
         52   -1    0    0    0    0  0.00000000000E+00  0.00000000000E+00  0.64930732323E+04  0.65000000000E+04  0.30000000000E+03 0.  1.
        -52   -1    0    0    0    0 -0.00000000000E+00 -0.00000000000E+00 -0.64930732323E+04  0.65000000000E+04  0.30000000000E+03 0. -1.
     100001    1    1    2    0    0 -0.40839414290E+04  0.35171410723E+04  0.36302191162E+04  0.65000000000E+04  0.15050000000E+03 0.  1.
     100001    1    1    2    0    0  0.40839414290E+04 -0.35171410723E+04 -0.36302191162E+04  0.65000000000E+04  0.15050000000E+03 0. -1.
</event>
<event>
 4    1  0.4826743E-004  0.6500000E+04  0.7818608E-02  0.7223770E-01
         52   -1    0    0    0    0  0.00000000000E+00  0.00000000000E+00  0.64930732323E+04  0.65000000000E+04  0.30000000000E+03 0. -1.
        -52   -1    0    0    0    0 -0.00000000000E+00 -0.00000000000E+00 -0.64930732323E+04  0.65000000000E+04  0.30000000000E+03 0. -1.
     100001    1    1    2    0    0 -0.23069615496E+02 -0.27726543518E+03 -0.64922986239E+04  0.65000000000E+04  0.15050000000E+03 0. -1.
     100001    1    1    2    0    0  0.23069615496E+02  0.27726543518E+03  0.64922986239E+04  0.65000000000E+04  0.15050000000E+03 0. -1.
</event>
<event>
 4    1  0.4826743E-004  0.6500000E+04  0.7818608E-02  0.7223770E-01
         52   -1    0    0    0    0  0.00000000000E+00  0.00000000000E+00  0.64930732323E+04  0.65000000000E+04  0.30000000000E+03 0. -1.
        -52   -1    0    0    0    0 -0.00000000000E+00 -0.00000000000E+00 -0.64930732323E+04  0.65000000000E+04  0.30000000000E+03 0. -1.
     100001    1    1    2    0    0 -0.51678934513E+03  0.23534628971E+03  0.64733986936E+04  0.65000000000E+04  0.15050000000E+03 0. -1.
     100001    1    1    2    0    0  0.51678934513E+03 -0.23534628971E+03 -0.64733986936E+04  0.65000000000E+04  0.15050000000E+03 0. -1.
</event>
<event>
 4    1  0.4826743E-004  0.6500000E+04  0.7818608E-02  0.7223770E-01
         52   -1    0    0    0    0  0.00000000000E+00  0.00000000000E+00  0.64930732323E+04  0.65000000000E+04  0.30000000000E+03 0. -1.
        -52   -1    0    0    0    0 -0.00000000000E+00 -0.00000000000E+00 -0.64930732323E+04  0.65000000000E+04  0.30000000000E+03 0.  1.
     100001    1    1    2    0    0  0.11710610066E+04 -0.43825072972E+04 -0.46529125996E+04  0.65000000000E+04  0.15050000000E+03 0.  1.
     100001    1    1    2    0    0 -0.11710610066E+04  0.43825072972E+04  0.46529125996E+04  0.65000000000E+04  0.15050000000E+03 0. -1.
</event>
<event>
 4    1  0.4826743E-004  0.6500000E+04  0.7818608E-02  0.7223770E-01
         52   -1    0    0    0    0  0.00000000000E+00  0.00000000000E+00  0.64930732323E+04  0.65000000000E+04  0.30000000000E+03 0.  1.
        -52   -1    0    0    0    0 -0.00000000000E+00 -0.00000000000E+00 -0.64930732323E+04  0.65000000000E+04  0.30000000000E+03 0. -1.
     100001    1    1    2    0    0  0.17199071156E+03 -0.77318199018E+03 -0.64498029858E+04  0.65000000000E+04  0.15050000000E+03 0. -1.
     100001    1    1    2    0    0 -0.17199071156E+03  0.77318199018E+03  0.64498029858E+04  0.65000000000E+04  0.15050000000E+03 0.  1.
</event>
<event>
 4    1  0.4826743E-004  0.6500000E+04  0.7818608E-02  0.7223770E-01
         52   -1    0    0    0    0  0.00000000000E+00  0.00000000000E+00  0.64930732323E+04  0.65000000000E+04  0.30000000000E+03 0.  1.
        -52   -1    0    0    0    0 -0.00000000000E+00 -0.00000000000E+00 -0.64930732323E+04  0.65000000000E+04  0.30000000000E+03 0. -1.
     100001    1    1    2    0    0  0.22361755455E+04  0.16218360492E+04 -0.58818803549E+04  0.65000000000E+04  0.15050000000E+03 0. -1.
     100001    1    1    2    0    0 -0.22361755455E+04 -0.16218360492E+04  0.58818803549E+04  0.65000000000E+04  0.15050000000E+03 0.  1.
</event>
<event>
 4    1  0.4826743E-004  0.6500000E+04  0.7818608E-02  0.7223770E-01
         52   -1    0    0    0    0  0.00000000000E+00  0.00000000000E+00  0.64930732323E+04  0.65000000000E+04  0.30000000000E+03 0.  1.
        -52   -1    0    0    0    0 -0.00000000000E+00 -0.00000000000E+00 -0.64930732323E+04  0.65000000000E+04  0.30000000000E+03 0. -1.
     100001    1    1    2    0    0  0.17338854421E+04 -0.49154966673E+03 -0.62433460539E+04  0.65000000000E+04  0.15050000000E+03 0. -1.
     100001    1    1    2    0    0 -0.17338854421E+04  0.49154966673E+03  0.62433460539E+04  0.65000000000E+04  0.15050000000E+03 0.  1.
</event>
<event>
 4    1  0.4826743E-004  0.6500000E+04  0.7818608E-02  0.7223770E-01
         52   -1    0    0    0    0  0.00000000000E+00  0.00000000000E+00  0.64930732323E+04  0.65000000000E+04  0.30000000000E+03 0.  1.
        -52   -1    0    0    0    0 -0.00000000000E+00 -0.00000000000E+00 -0.64930732323E+04  0.65000000000E+04  0.30000000000E+03 0. -1.
     100001    1    1    2    0    0  0.11383284373E+04 -0.40246000985E+03 -0.63851064251E+04  0.65000000000E+04  0.15050000000E+03 0. -1.
     100001    1    1    2    0    0 -0.11383284373E+04  0.40246000985E+03  0.63851064251E+04  0.65000000000E+04  0.15050000000E+03 0.  1.
</event>
<event>
 4    1  0.4826743E-004  0.6500000E+04  0.7818608E-02  0.7223770E-01
         52   -1    0    0    0    0  0.00000000000E+00  0.00000000000E+00  0.64930732323E+04  0.65000000000E+04  0.30000000000E+03 0. -1.
        -52   -1    0    0    0    0 -0.00000000000E+00 -0.00000000000E+00 -0.64930732323E+04  0.65000000000E+04  0.30000000000E+03 0. -1.
     100001    1    1    2    0    0  0.58214302156E+03 -0.30364216787E+04  0.57156454265E+04  0.65000000000E+04  0.15050000000E+03 0. -1.
     100001    1    1    2    0    0 -0.58214302156E+03  0.30364216787E+04 -0.57156454265E+04  0.65000000000E+04  0.15050000000E+03 0. -1.
</event>
<event>
 4    1  0.4826743E-004  0.6500000E+04  0.7818608E-02  0.7223770E-01
         52   -1    0    0    0    0  0.00000000000E+00  0.00000000000E+00  0.64930732323E+04  0.65000000000E+04  0.30000000000E+03 0. -1.
        -52   -1    0    0    0    0 -0.00000000000E+00 -0.00000000000E+00 -0.64930732323E+04  0.65000000000E+04  0.30000000000E+03 0.  1.
     100001    1    1    2    0    0  0.40705316537E+04 -0.13001937264E+04  0.48956734041E+04  0.65000000000E+04  0.15050000000E+03 0. -1.
     100001    1    1    2    0    0 -0.40705316537E+04  0.13001937264E+04 -0.48956734041E+04  0.65000000000E+04  0.15050000000E+03 0.  1.
</event>
<event>
 4    1  0.6367047E-004  0.6500000E+04  0.7818608E-02  0.7223770E-01
         52   -1    0    0    0    0  0.00000000000E+00  0.00000000000E+00  0.64930732323E+04  0.65000000000E+04  0.30000000000E+03 0.  1.
        -52   -1    0    0    0    0 -0.00000000000E+00 -0.00000000000E+00 -0.64930732323E+04  0.65000000000E+04  0.30000000000E+03 0. -1.
     100001    1    1    2    0    0 -0.94309675835E+02 -0.11925607817E+03  0.64964785402E+04  0.65000000000E+04  0.15050000000E+03 0.  1.
     100001    1    1    2    0    0  0.94309675835E+02  0.11925607817E+03 -0.64964785402E+04  0.65000000000E+04  0.15050000000E+03 0. -1.
</event>
<event>
 4    1  0.4826743E-004  0.6500000E+04  0.7818608E-02  0.7223770E-01
         52   -1    0    0    0    0  0.00000000000E+00  0.00000000000E+00  0.64930732323E+04  0.65000000000E+04  0.30000000000E+03 0. -1.
        -52   -1    0    0    0    0 -0.00000000000E+00 -0.00000000000E+00 -0.64930732323E+04  0.65000000000E+04  0.30000000000E+03 0.  1.
     100001    1    1    2    0    0 -0.25137312652E+04  0.33524211668E+04 -0.49668679463E+04  0.65000000000E+04  0.15050000000E+03 0.  1.
     100001    1    1    2    0    0  0.25137312652E+04 -0.33524211668E+04  0.49668679463E+04  0.65000000000E+04  0.15050000000E+03 0. -1.
</event>
<event>
 4    1  0.4826743E-004  0.6500000E+04  0.7818608E-02  0.7223770E-01
         52   -1    0    0    0    0  0.00000000000E+00  0.00000000000E+00  0.64930732323E+04  0.65000000000E+04  0.30000000000E+03 0. -1.
        -52   -1    0    0    0    0 -0.00000000000E+00 -0.00000000000E+00 -0.64930732323E+04  0.65000000000E+04  0.30000000000E+03 0. -1.
     100001    1    1    2    0    0 -0.15336397006E+03 -0.12832573823E+02 -0.64964347582E+04  0.65000000000E+04  0.15050000000E+03 0. -1.
     100001    1    1    2    0    0  0.15336397006E+03  0.12832573823E+02  0.64964347582E+04  0.65000000000E+04  0.15050000000E+03 0. -1.
</event>
<event>
 4    1  0.4826743E-004  0.6500000E+04  0.7818608E-02  0.7223770E-01
         52   -1    0    0    0    0  0.00000000000E+00  0.00000000000E+00  0.64930732323E+04  0.65000000000E+04  0.30000000000E+03 0.  1.
        -52   -1    0    0    0    0 -0.00000000000E+00 -0.00000000000E+00 -0.64930732323E+04  0.65000000000E+04  0.30000000000E+03 0. -1.
     100001    1    1    2    0    0 -0.25126850755E+04  0.36206751793E+04  0.47754030937E+04  0.65000000000E+04  0.15050000000E+03 0.  1.
     100001    1    1    2    0    0  0.25126850755E+04 -0.36206751793E+04 -0.47754030937E+04  0.65000000000E+04  0.15050000000E+03 0. -1.
</event>
<event>
 4    1  0.4826743E-004  0.6500000E+04  0.7818608E-02  0.7223770E-01
         52   -1    0    0    0    0  0.00000000000E+00  0.00000000000E+00  0.64930732323E+04  0.65000000000E+04  0.30000000000E+03 0.  1.
        -52   -1    0    0    0    0 -0.00000000000E+00 -0.00000000000E+00 -0.64930732323E+04  0.65000000000E+04  0.30000000000E+03 0. -1.
     100001    1    1    2    0    0  0.19441082343E+03 -0.10759136475E+04  0.64056197206E+04  0.65000000000E+04  0.15050000000E+03 0.  1.
     100001    1    1    2    0    0 -0.19441082343E+03  0.10759136475E+04 -0.64056197206E+04  0.65000000000E+04  0.15050000000E+03 0. -1.
</event>
<event>
 4    1  0.4826743E-004  0.6500000E+04  0.7818608E-02  0.7223770E-01
         52   -1    0    0    0    0  0.00000000000E+00  0.00000000000E+00  0.64930732323E+04  0.65000000000E+04  0.30000000000E+03 0. -1.
        -52   -1    0    0    0    0 -0.00000000000E+00 -0.00000000000E+00 -0.64930732323E+04  0.65000000000E+04  0.30000000000E+03 0. -1.
     100001    1    1    2    0    0 -0.21992537651E+03 -0.18773996643E+03 -0.64918207218E+04  0.65000000000E+04  0.15050000000E+03 0. -1.
     100001    1    1    2    0    0  0.21992537651E+03  0.18773996643E+03  0.64918207218E+04  0.65000000000E+04  0.15050000000E+03 0. -1.
</event>
<event>
 4    1  0.7529241E-004  0.6500000E+04  0.7818608E-02  0.7223770E-01
         52   -1    0    0    0    0  0.00000000000E+00  0.00000000000E+00  0.64930732323E+04  0.65000000000E+04  0.30000000000E+03 0. -1.
        -52   -1    0    0    0    0 -0.00000000000E+00 -0.00000000000E+00 -0.64930732323E+04  0.65000000000E+04  0.30000000000E+03 0. -1.
     100001    1    1    2    0    0 -0.66558664936E+02  0.97589864679E+02 -0.64971836908E+04  0.65000000000E+04  0.15050000000E+03 0. -1.
     100001    1    1    2    0    0  0.66558664936E+02 -0.97589864679E+02  0.64971836908E+04  0.65000000000E+04  0.15050000000E+03 0. -1.
</event>
<event>
 4    1  0.4826743E-004  0.6500000E+04  0.7818608E-02  0.7223770E-01
         52   -1    0    0    0    0  0.00000000000E+00  0.00000000000E+00  0.64930732323E+04  0.65000000000E+04  0.30000000000E+03 0.  1.
        -52   -1    0    0    0    0 -0.00000000000E+00 -0.00000000000E+00 -0.64930732323E+04  0.65000000000E+04  0.30000000000E+03 0. -1.
     100001    1    1    2    0    0 -0.14065328846E+03  0.10861081429E+04  0.64053052624E+04  0.65000000000E+04  0.15050000000E+03 0.  1.
     100001    1    1    2    0    0  0.14065328846E+03 -0.10861081429E+04 -0.64053052624E+04  0.65000000000E+04  0.15050000000E+03 0. -1.
</event>
<event>
 4    1  0.4826743E-004  0.6500000E+04  0.7818608E-02  0.7223770E-01
         52   -1    0    0    0    0  0.00000000000E+00  0.00000000000E+00  0.64930732323E+04  0.65000000000E+04  0.30000000000E+03 0. -1.
        -52   -1    0    0    0    0 -0.00000000000E+00 -0.00000000000E+00 -0.64930732323E+04  0.65000000000E+04  0.30000000000E+03 0.  1.
     100001    1    1    2    0    0 -0.12059625120E+04  0.42540522568E+04 -0.47619369553E+04  0.65000000000E+04  0.15050000000E+03 0.  1.
     100001    1    1    2    0    0  0.12059625120E+04 -0.42540522568E+04  0.47619369553E+04  0.65000000000E+04  0.15050000000E+03 0. -1.
</event>
<event>
 4    1  0.4826743E-004  0.6500000E+04  0.7818608E-02  0.7223770E-01
         52   -1    0    0    0    0  0.00000000000E+00  0.00000000000E+00  0.64930732323E+04  0.65000000000E+04  0.30000000000E+03 0. -1.
        -52   -1    0    0    0    0 -0.00000000000E+00 -0.00000000000E+00 -0.64930732323E+04  0.65000000000E+04  0.30000000000E+03 0.  1.
     100001    1    1    2    0    0 -0.13696650767E+04 -0.67616186797E+03  0.63161833773E+04  0.65000000000E+04  0.15050000000E+03 0. -1.
     100001    1    1    2    0    0  0.13696650767E+04  0.67616186797E+03 -0.63161833773E+04  0.65000000000E+04  0.15050000000E+03 0.  1.
</event>
<event>
 4    1  0.4826743E-004  0.6500000E+04  0.7818608E-02  0.7223770E-01
         52   -1    0    0    0    0  0.00000000000E+00  0.00000000000E+00  0.64930732323E+04  0.65000000000E+04  0.30000000000E+03 0. -1.
        -52   -1    0    0    0    0 -0.00000000000E+00 -0.00000000000E+00 -0.64930732323E+04  0.65000000000E+04  0.30000000000E+03 0.  1.
     100001    1    1    2    0    0 -0.26873465891E+04 -0.26107880199E+02 -0.59164885227E+04  0.65000000000E+04  0.15050000000E+03 0.  1.
     100001    1    1    2    0    0  0.26873465891E+04  0.26107880199E+02  0.59164885227E+04  0.65000000000E+04  0.15050000000E+03 0. -1.
</event>
<event>
 4    1  0.4826743E-004  0.6500000E+04  0.7818608E-02  0.7223770E-01
         52   -1    0    0    0    0  0.00000000000E+00  0.00000000000E+00  0.64930732323E+04  0.65000000000E+04  0.30000000000E+03 0. -1.
        -52   -1    0    0    0    0 -0.00000000000E+00 -0.00000000000E+00 -0.64930732323E+04  0.65000000000E+04  0.30000000000E+03 0. -1.
     100001    1    1    2    0    0 -0.19654833999E+02 -0.14332463732E+03 -0.64966469418E+04  0.65000000000E+04  0.15050000000E+03 0. -1.
     100001    1    1    2    0    0  0.19654833999E+02  0.14332463732E+03  0.64966469418E+04  0.65000000000E+04  0.15050000000E+03 0. -1.
</event>
<event>
 4    1  0.4826743E-004  0.6500000E+04  0.7818608E-02  0.7223770E-01
         52   -1    0    0    0    0  0.00000000000E+00  0.00000000000E+00  0.64930732323E+04  0.65000000000E+04  0.30000000000E+03 0. -1.
        -52   -1    0    0    0    0 -0.00000000000E+00 -0.00000000000E+00 -0.64930732323E+04  0.65000000000E+04  0.30000000000E+03 0. -1.
     100001    1    1    2    0    0 -0.62897371534E+03  0.38512506614E+02 -0.64676316069E+04  0.65000000000E+04  0.15050000000E+03 0. -1.
     100001    1    1    2    0    0  0.62897371534E+03 -0.38512506614E+02  0.64676316069E+04  0.65000000000E+04  0.15050000000E+03 0. -1.
</event>
<event>
 4    1  0.4826743E-004  0.6500000E+04  0.7818608E-02  0.7223770E-01
         52   -1    0    0    0    0  0.00000000000E+00  0.00000000000E+00  0.64930732323E+04  0.65000000000E+04  0.30000000000E+03 0.  1.
        -52   -1    0    0    0    0 -0.00000000000E+00 -0.00000000000E+00 -0.64930732323E+04  0.65000000000E+04  0.30000000000E+03 0. -1.
     100001    1    1    2    0    0  0.23854322676E+04 -0.57741693455E+03  0.60169470939E+04  0.65000000000E+04  0.15050000000E+03 0.  1.
     100001    1    1    2    0    0 -0.23854322676E+04  0.57741693455E+03 -0.60169470939E+04  0.65000000000E+04  0.15050000000E+03 0. -1.
</event>
<event>
 4    1  0.4826743E-004  0.6500000E+04  0.7818608E-02  0.7223770E-01
         52   -1    0    0    0    0  0.00000000000E+00  0.00000000000E+00  0.64930732323E+04  0.65000000000E+04  0.30000000000E+03 0. -1.
        -52   -1    0    0    0    0 -0.00000000000E+00 -0.00000000000E+00 -0.64930732323E+04  0.65000000000E+04  0.30000000000E+03 0.  1.
     100001    1    1    2    0    0 -0.24367452551E+03  0.16743731334E+04 -0.62741092663E+04  0.65000000000E+04  0.15050000000E+03 0.  1.
     100001    1    1    2    0    0  0.24367452551E+03 -0.16743731334E+04  0.62741092663E+04  0.65000000000E+04  0.15050000000E+03 0. -1.
</event>
<event>
 4    1  0.6982988E-004  0.6500000E+04  0.7818608E-02  0.7223770E-01
         52   -1    0    0    0    0  0.00000000000E+00  0.00000000000E+00  0.64930732323E+04  0.65000000000E+04  0.30000000000E+03 0.  1.
        -52   -1    0    0    0    0 -0.00000000000E+00 -0.00000000000E+00 -0.64930732323E+04  0.65000000000E+04  0.30000000000E+03 0.  1.
     100001    1    1    2    0    0  0.10677777083E+03 -0.11587961026E+03 -0.64963466790E+04  0.65000000000E+04  0.15050000000E+03 0.  1.
     100001    1    1    2    0    0 -0.10677777083E+03  0.11587961026E+03  0.64963466790E+04  0.65000000000E+04  0.15050000000E+03 0.  1.
</event>
<event>
 4    1  0.4826743E-004  0.6500000E+04  0.7818608E-02  0.7223770E-01
         52   -1    0    0    0    0  0.00000000000E+00  0.00000000000E+00  0.64930732323E+04  0.65000000000E+04  0.30000000000E+03 0.  1.
        -52   -1    0    0    0    0 -0.00000000000E+00 -0.00000000000E+00 -0.64930732323E+04  0.65000000000E+04  0.30000000000E+03 0. -1.
     100001    1    1    2    0    0 -0.45059096398E+04  0.30070551256E+03 -0.46726549480E+04  0.65000000000E+04  0.15050000000E+03 0. -1.
     100001    1    1    2    0    0  0.45059096398E+04 -0.30070551256E+03  0.46726549480E+04  0.65000000000E+04  0.15050000000E+03 0.  1.
</event>
<event>
 4    1  0.4826743E-004  0.6500000E+04  0.7818608E-02  0.7223770E-01
         52   -1    0    0    0    0  0.00000000000E+00  0.00000000000E+00  0.64930732323E+04  0.65000000000E+04  0.30000000000E+03 0.  1.
        -52   -1    0    0    0    0 -0.00000000000E+00 -0.00000000000E+00 -0.64930732323E+04  0.65000000000E+04  0.30000000000E+03 0. -1.
     100001    1    1    2    0    0 -0.88344695456E+03 -0.12554565306E+04 -0.63143249939E+04  0.65000000000E+04  0.15050000000E+03 0. -1.
     100001    1    1    2    0    0  0.88344695456E+03  0.12554565306E+04  0.63143249939E+04  0.65000000000E+04  0.15050000000E+03 0.  1.
</event>
<event>
 4    1  0.4826743E-004  0.6500000E+04  0.7818608E-02  0.7223770E-01
         52   -1    0    0    0    0  0.00000000000E+00  0.00000000000E+00  0.64930732323E+04  0.65000000000E+04  0.30000000000E+03 0.  1.
        -52   -1    0    0    0    0 -0.00000000000E+00 -0.00000000000E+00 -0.64930732323E+04  0.65000000000E+04  0.30000000000E+03 0.  1.
     100001    1    1    2    0    0 -0.72443678716E+02  0.38380564150E+02 -0.64977402684E+04  0.65000000000E+04  0.15050000000E+03 0.  1.
     100001    1    1    2    0    0  0.72443678716E+02 -0.38380564150E+02  0.64977402684E+04  0.65000000000E+04  0.15050000000E+03 0.  1.
</event>
<event>
 4    1  0.4826743E-004  0.6500000E+04  0.7818608E-02  0.7223770E-01
         52   -1    0    0    0    0  0.00000000000E+00  0.00000000000E+00  0.64930732323E+04  0.65000000000E+04  0.30000000000E+03 0. -1.
        -52   -1    0    0    0    0 -0.00000000000E+00 -0.00000000000E+00 -0.64930732323E+04  0.65000000000E+04  0.30000000000E+03 0.  1.
     100001    1    1    2    0    0 -0.25749833501E+04 -0.40254133519E+03  0.59527112285E+04  0.65000000000E+04  0.15050000000E+03 0. -1.
     100001    1    1    2    0    0  0.25749833501E+04  0.40254133519E+03 -0.59527112285E+04  0.65000000000E+04  0.15050000000E+03 0.  1.
</event>
<event>
 4    1  0.4826743E-004  0.6500000E+04  0.7818608E-02  0.7223770E-01
         52   -1    0    0    0    0  0.00000000000E+00  0.00000000000E+00  0.64930732323E+04  0.65000000000E+04  0.30000000000E+03 0. -1.
        -52   -1    0    0    0    0 -0.00000000000E+00 -0.00000000000E+00 -0.64930732323E+04  0.65000000000E+04  0.30000000000E+03 0.  1.
     100001    1    1    2    0    0 -0.19996655790E+04  0.49629032169E+03 -0.61629849293E+04  0.65000000000E+04  0.15050000000E+03 0.  1.
     100001    1    1    2    0    0  0.19996655790E+04 -0.49629032169E+03  0.61629849293E+04  0.65000000000E+04  0.15050000000E+03 0. -1.
</event>
<event>
 4    1  0.4826743E-004  0.6500000E+04  0.7818608E-02  0.7223770E-01
         52   -1    0    0    0    0  0.00000000000E+00  0.00000000000E+00  0.64930732323E+04  0.65000000000E+04  0.30000000000E+03 0. -1.
        -52   -1    0    0    0    0 -0.00000000000E+00 -0.00000000000E+00 -0.64930732323E+04  0.65000000000E+04  0.30000000000E+03 0.  1.
     100001    1    1    2    0    0  0.62731040041E+03 -0.42602482915E+04  0.48666329127E+04  0.65000000000E+04  0.15050000000E+03 0. -1.
     100001    1    1    2    0    0 -0.62731040041E+03  0.42602482915E+04 -0.48666329127E+04  0.65000000000E+04  0.15050000000E+03 0.  1.
</event>
<event>
 4    1  0.4826743E-004  0.6500000E+04  0.7818608E-02  0.7223770E-01
         52   -1    0    0    0    0  0.00000000000E+00  0.00000000000E+00  0.64930732323E+04  0.65000000000E+04  0.30000000000E+03 0.  1.
        -52   -1    0    0    0    0 -0.00000000000E+00 -0.00000000000E+00 -0.64930732323E+04  0.65000000000E+04  0.30000000000E+03 0.  1.
     100001    1    1    2    0    0  0.45386892816E+03  0.35310001055E+03  0.64727639482E+04  0.65000000000E+04  0.15050000000E+03 0.  1.
     100001    1    1    2    0    0 -0.45386892816E+03 -0.35310001055E+03 -0.64727639482E+04  0.65000000000E+04  0.15050000000E+03 0.  1.
</event>
<event>
 4    1  0.4826743E-004  0.6500000E+04  0.7818608E-02  0.7223770E-01
         52   -1    0    0    0    0  0.00000000000E+00  0.00000000000E+00  0.64930732323E+04  0.65000000000E+04  0.30000000000E+03 0. -1.
        -52   -1    0    0    0    0 -0.00000000000E+00 -0.00000000000E+00 -0.64930732323E+04  0.65000000000E+04  0.30000000000E+03 0.  1.
     100001    1    1    2    0    0  0.48217991253E+03 -0.31397210235E+03  0.64727331013E+04  0.65000000000E+04  0.15050000000E+03 0. -1.
     100001    1    1    2    0    0 -0.48217991253E+03  0.31397210235E+03 -0.64727331013E+04  0.65000000000E+04  0.15050000000E+03 0.  1.
</event>
<event>
 4    1  0.4826743E-004  0.6500000E+04  0.7818608E-02  0.7223770E-01
         52   -1    0    0    0    0  0.00000000000E+00  0.00000000000E+00  0.64930732323E+04  0.65000000000E+04  0.30000000000E+03 0. -1.
        -52   -1    0    0    0    0 -0.00000000000E+00 -0.00000000000E+00 -0.64930732323E+04  0.65000000000E+04  0.30000000000E+03 0.  1.
     100001    1    1    2    0    0 -0.15608478550E+04  0.33036932927E+04 -0.53737058304E+04  0.65000000000E+04  0.15050000000E+03 0.  1.
     100001    1    1    2    0    0  0.15608478550E+04 -0.33036932927E+04  0.53737058304E+04  0.65000000000E+04  0.15050000000E+03 0. -1.
</event>
<event>
 4    1  0.8363484E-004  0.6500000E+04  0.7818608E-02  0.7223770E-01
         52   -1    0    0    0    0  0.00000000000E+00  0.00000000000E+00  0.64930732323E+04  0.65000000000E+04  0.30000000000E+03 0.  1.
        -52   -1    0    0    0    0 -0.00000000000E+00 -0.00000000000E+00 -0.64930732323E+04  0.65000000000E+04  0.30000000000E+03 0.  1.
     100001    1    1    2    0    0 -0.42930531892E+02  0.54307601270E+02  0.64978886882E+04  0.65000000000E+04  0.15050000000E+03 0.  1.
     100001    1    1    2    0    0  0.42930531892E+02 -0.54307601270E+02 -0.64978886882E+04  0.65000000000E+04  0.15050000000E+03 0.  1.
</event>
<event>
 4    1  0.4826743E-004  0.6500000E+04  0.7818608E-02  0.7223770E-01
         52   -1    0    0    0    0  0.00000000000E+00  0.00000000000E+00  0.64930732323E+04  0.65000000000E+04  0.30000000000E+03 0. -1.
        -52   -1    0    0    0    0 -0.00000000000E+00 -0.00000000000E+00 -0.64930732323E+04  0.65000000000E+04  0.30000000000E+03 0.  1.
     100001    1    1    2    0    0 -0.14585580055E+03 -0.16569087727E+04 -0.62817775474E+04  0.65000000000E+04  0.15050000000E+03 0.  1.
     100001    1    1    2    0    0  0.14585580055E+03  0.16569087727E+04  0.62817775474E+04  0.65000000000E+04  0.15050000000E+03 0. -1.
</event>
<event>
 4    1  0.4826743E-004  0.6500000E+04  0.7818608E-02  0.7223770E-01
         52   -1    0    0    0    0  0.00000000000E+00  0.00000000000E+00  0.64930732323E+04  0.65000000000E+04  0.30000000000E+03 0.  1.
        -52   -1    0    0    0    0 -0.00000000000E+00 -0.00000000000E+00 -0.64930732323E+04  0.65000000000E+04  0.30000000000E+03 0. -1.
     100001    1    1    2    0    0  0.77963958991E+02  0.84151466134E+03 -0.64430679374E+04  0.65000000000E+04  0.15050000000E+03 0. -1.
     100001    1    1    2    0    0 -0.77963958991E+02 -0.84151466134E+03  0.64430679374E+04  0.65000000000E+04  0.15050000000E+03 0.  1.
</event>
<event>
 4    1  0.4826743E-004  0.6500000E+04  0.7818608E-02  0.7223770E-01
         52   -1    0    0    0    0  0.00000000000E+00  0.00000000000E+00  0.64930732323E+04  0.65000000000E+04  0.30000000000E+03 0.  1.
        -52   -1    0    0    0    0 -0.00000000000E+00 -0.00000000000E+00 -0.64930732323E+04  0.65000000000E+04  0.30000000000E+03 0. -1.
     100001    1    1    2    0    0  0.18089601185E+04 -0.22660114619E+04 -0.58155141728E+04  0.65000000000E+04  0.15050000000E+03 0. -1.
     100001    1    1    2    0    0 -0.18089601185E+04  0.22660114619E+04  0.58155141728E+04  0.65000000000E+04  0.15050000000E+03 0.  1.
</event>
<event>
 4    1  0.4826743E-004  0.6500000E+04  0.7818608E-02  0.7223770E-01
         52   -1    0    0    0    0  0.00000000000E+00  0.00000000000E+00  0.64930732323E+04  0.65000000000E+04  0.30000000000E+03 0. -1.
        -52   -1    0    0    0    0 -0.00000000000E+00 -0.00000000000E+00 -0.64930732323E+04  0.65000000000E+04  0.30000000000E+03 0.  1.
     100001    1    1    2    0    0  0.52999816615E+03 -0.74031484002E+03 -0.64341577251E+04  0.65000000000E+04  0.15050000000E+03 0.  1.
     100001    1    1    2    0    0 -0.52999816615E+03  0.74031484002E+03  0.64341577251E+04  0.65000000000E+04  0.15050000000E+03 0. -1.
</event>
<event>
 4    1  0.4826743E-004  0.6500000E+04  0.7818608E-02  0.7223770E-01
         52   -1    0    0    0    0  0.00000000000E+00  0.00000000000E+00  0.64930732323E+04  0.65000000000E+04  0.30000000000E+03 0. -1.
        -52   -1    0    0    0    0 -0.00000000000E+00 -0.00000000000E+00 -0.64930732323E+04  0.65000000000E+04  0.30000000000E+03 0.  1.
     100001    1    1    2    0    0 -0.17599804673E+04  0.77093680532E+03  0.62076948175E+04  0.65000000000E+04  0.15050000000E+03 0. -1.
     100001    1    1    2    0    0  0.17599804673E+04 -0.77093680532E+03 -0.62076948175E+04  0.65000000000E+04  0.15050000000E+03 0.  1.
</event>
<event>
 4    1  0.4826743E-004  0.6500000E+04  0.7818608E-02  0.7223770E-01
         52   -1    0    0    0    0  0.00000000000E+00  0.00000000000E+00  0.64930732323E+04  0.65000000000E+04  0.30000000000E+03 0. -1.
        -52   -1    0    0    0    0 -0.00000000000E+00 -0.00000000000E+00 -0.64930732323E+04  0.65000000000E+04  0.30000000000E+03 0.  1.
     100001    1    1    2    0    0  0.26755456220E+04 -0.37273148409E+04  0.46017311364E+04  0.65000000000E+04  0.15050000000E+03 0. -1.
     100001    1    1    2    0    0 -0.26755456220E+04  0.37273148409E+04 -0.46017311364E+04  0.65000000000E+04  0.15050000000E+03 0.  1.
</event>
<event>
 4    1  0.4826743E-004  0.6500000E+04  0.7818608E-02  0.7223770E-01
         52   -1    0    0    0    0  0.00000000000E+00  0.00000000000E+00  0.64930732323E+04  0.65000000000E+04  0.30000000000E+03 0.  1.
        -52   -1    0    0    0    0 -0.00000000000E+00 -0.00000000000E+00 -0.64930732323E+04  0.65000000000E+04  0.30000000000E+03 0. -1.
     100001    1    1    2    0    0  0.39504923987E+03  0.96012235361E+03  0.64147837777E+04  0.65000000000E+04  0.15050000000E+03 0.  1.
     100001    1    1    2    0    0 -0.39504923987E+03 -0.96012235361E+03 -0.64147837777E+04  0.65000000000E+04  0.15050000000E+03 0. -1.
</event>
<event>
 4    1  0.6294799E-004  0.6500000E+04  0.7818608E-02  0.7223770E-01
         52   -1    0    0    0    0  0.00000000000E+00  0.00000000000E+00  0.64930732323E+04  0.65000000000E+04  0.30000000000E+03 0.  1.
        -52   -1    0    0    0    0 -0.00000000000E+00 -0.00000000000E+00 -0.64930732323E+04  0.65000000000E+04  0.30000000000E+03 0. -1.
     100001    1    1    2    0    0  0.57056421225E+02 -0.13931499563E+03  0.64965133454E+04  0.65000000000E+04  0.15050000000E+03 0.  1.
     100001    1    1    2    0    0 -0.57056421225E+02  0.13931499563E+03 -0.64965133454E+04  0.65000000000E+04  0.15050000000E+03 0. -1.
</event>
<event>
 4    1  0.4826743E-004  0.6500000E+04  0.7818608E-02  0.7223770E-01
         52   -1    0    0    0    0  0.00000000000E+00  0.00000000000E+00  0.64930732323E+04  0.65000000000E+04  0.30000000000E+03 0.  1.
        -52   -1    0    0    0    0 -0.00000000000E+00 -0.00000000000E+00 -0.64930732323E+04  0.65000000000E+04  0.30000000000E+03 0. -1.
     100001    1    1    2    0    0  0.52296890261E+03  0.20023608258E+04 -0.61599029538E+04  0.65000000000E+04  0.15050000000E+03 0. -1.
     100001    1    1    2    0    0 -0.52296890261E+03 -0.20023608258E+04  0.61599029538E+04  0.65000000000E+04  0.15050000000E+03 0.  1.
</event>
<event>
 4    1  0.4826743E-004  0.6500000E+04  0.7818608E-02  0.7223770E-01
         52   -1    0    0    0    0  0.00000000000E+00  0.00000000000E+00  0.64930732323E+04  0.65000000000E+04  0.30000000000E+03 0. -1.
        -52   -1    0    0    0    0 -0.00000000000E+00 -0.00000000000E+00 -0.64930732323E+04  0.65000000000E+04  0.30000000000E+03 0.  1.
     100001    1    1    2    0    0  0.97692325961E+03 -0.22428819262E+04 -0.60201703763E+04  0.65000000000E+04  0.15050000000E+03 0.  1.
     100001    1    1    2    0    0 -0.97692325961E+03  0.22428819262E+04  0.60201703763E+04  0.65000000000E+04  0.15050000000E+03 0. -1.
</event>
<event>
 4    1  0.4826743E-004  0.6500000E+04  0.7818608E-02  0.7223770E-01
         52   -1    0    0    0    0  0.00000000000E+00  0.00000000000E+00  0.64930732323E+04  0.65000000000E+04  0.30000000000E+03 0. -1.
        -52   -1    0    0    0    0 -0.00000000000E+00 -0.00000000000E+00 -0.64930732323E+04  0.65000000000E+04  0.30000000000E+03 0.  1.
     100001    1    1    2    0    0 -0.37991920509E+02  0.28071212061E+04  0.58605440787E+04  0.65000000000E+04  0.15050000000E+03 0. -1.
     100001    1    1    2    0    0  0.37991920509E+02 -0.28071212061E+04 -0.58605440787E+04  0.65000000000E+04  0.15050000000E+03 0.  1.
</event>
<event>
 4    1  0.4826743E-004  0.6500000E+04  0.7818608E-02  0.7223770E-01
         52   -1    0    0    0    0  0.00000000000E+00  0.00000000000E+00  0.64930732323E+04  0.65000000000E+04  0.30000000000E+03 0.  1.
        -52   -1    0    0    0    0 -0.00000000000E+00 -0.00000000000E+00 -0.64930732323E+04  0.65000000000E+04  0.30000000000E+03 0. -1.
     100001    1    1    2    0    0 -0.13906085207E+04  0.10462658359E+04  0.62609013323E+04  0.65000000000E+04  0.15050000000E+03 0.  1.
     100001    1    1    2    0    0  0.13906085207E+04 -0.10462658359E+04 -0.62609013323E+04  0.65000000000E+04  0.15050000000E+03 0. -1.
</event>
<event>
 4    1  0.4826743E-004  0.6500000E+04  0.7818608E-02  0.7223770E-01
         52   -1    0    0    0    0  0.00000000000E+00  0.00000000000E+00  0.64930732323E+04  0.65000000000E+04  0.30000000000E+03 0. -1.
        -52   -1    0    0    0    0 -0.00000000000E+00 -0.00000000000E+00 -0.64930732323E+04  0.65000000000E+04  0.30000000000E+03 0.  1.
     100001    1    1    2    0    0 -0.43719002459E+03  0.23282280688E+03 -0.64793524501E+04  0.65000000000E+04  0.15050000000E+03 0.  1.
     100001    1    1    2    0    0  0.43719002459E+03 -0.23282280688E+03  0.64793524501E+04  0.65000000000E+04  0.15050000000E+03 0. -1.
</event>
<event>
 4    1  0.4826743E-004  0.6500000E+04  0.7818608E-02  0.7223770E-01
         52   -1    0    0    0    0  0.00000000000E+00  0.00000000000E+00  0.64930732323E+04  0.65000000000E+04  0.30000000000E+03 0. -1.
        -52   -1    0    0    0    0 -0.00000000000E+00 -0.00000000000E+00 -0.64930732323E+04  0.65000000000E+04  0.30000000000E+03 0.  1.
     100001    1    1    2    0    0 -0.44297455055E+03 -0.40848445216E+04 -0.50343985273E+04  0.65000000000E+04  0.15050000000E+03 0.  1.
     100001    1    1    2    0    0  0.44297455055E+03  0.40848445216E+04  0.50343985273E+04  0.65000000000E+04  0.15050000000E+03 0. -1.
</event>
<event>
 4    1  0.4826743E-004  0.6500000E+04  0.7818608E-02  0.7223770E-01
         52   -1    0    0    0    0  0.00000000000E+00  0.00000000000E+00  0.64930732323E+04  0.65000000000E+04  0.30000000000E+03 0.  1.
        -52   -1    0    0    0    0 -0.00000000000E+00 -0.00000000000E+00 -0.64930732323E+04  0.65000000000E+04  0.30000000000E+03 0. -1.
     100001    1    1    2    0    0 -0.15835710511E+04  0.19174286079E+04 -0.60035922588E+04  0.65000000000E+04  0.15050000000E+03 0. -1.
     100001    1    1    2    0    0  0.15835710511E+04 -0.19174286079E+04  0.60035922588E+04  0.65000000000E+04  0.15050000000E+03 0.  1.
</event>
<event>
 4    1  0.4826743E-004  0.6500000E+04  0.7818608E-02  0.7223770E-01
         52   -1    0    0    0    0  0.00000000000E+00  0.00000000000E+00  0.64930732323E+04  0.65000000000E+04  0.30000000000E+03 0. -1.
        -52   -1    0    0    0    0 -0.00000000000E+00 -0.00000000000E+00 -0.64930732323E+04  0.65000000000E+04  0.30000000000E+03 0.  1.
     100001    1    1    2    0    0 -0.37882673876E+04 -0.11936598754E+04 -0.51431076260E+04  0.65000000000E+04  0.15050000000E+03 0.  1.
     100001    1    1    2    0    0  0.37882673876E+04  0.11936598754E+04  0.51431076260E+04  0.65000000000E+04  0.15050000000E+03 0. -1.
</event>
<event>
 4    1  0.4826743E-004  0.6500000E+04  0.7818608E-02  0.7223770E-01
         52   -1    0    0    0    0  0.00000000000E+00  0.00000000000E+00  0.64930732323E+04  0.65000000000E+04  0.30000000000E+03 0.  1.
        -52   -1    0    0    0    0 -0.00000000000E+00 -0.00000000000E+00 -0.64930732323E+04  0.65000000000E+04  0.30000000000E+03 0. -1.
     100001    1    1    2    0    0 -0.63652250828E+03 -0.51894642967E+02  0.64667995015E+04  0.65000000000E+04  0.15050000000E+03 0.  1.
     100001    1    1    2    0    0  0.63652250828E+03  0.51894642967E+02 -0.64667995015E+04  0.65000000000E+04  0.15050000000E+03 0. -1.
</event>
<event>
 4    1  0.4826743E-004  0.6500000E+04  0.7818608E-02  0.7223770E-01
         52   -1    0    0    0    0  0.00000000000E+00  0.00000000000E+00  0.64930732323E+04  0.65000000000E+04  0.30000000000E+03 0.  1.
        -52   -1    0    0    0    0 -0.00000000000E+00 -0.00000000000E+00 -0.64930732323E+04  0.65000000000E+04  0.30000000000E+03 0.  1.
     100001    1    1    2    0    0 -0.50321171028E+03  0.44403759581E+03  0.64635097539E+04  0.65000000000E+04  0.15050000000E+03 0.  1.
     100001    1    1    2    0    0  0.50321171028E+03 -0.44403759581E+03 -0.64635097539E+04  0.65000000000E+04  0.15050000000E+03 0.  1.
</event>
<event>
 4    1  0.4826743E-004  0.6500000E+04  0.7818608E-02  0.7223770E-01
         52   -1    0    0    0    0  0.00000000000E+00  0.00000000000E+00  0.64930732323E+04  0.65000000000E+04  0.30000000000E+03 0. -1.
        -52   -1    0    0    0    0 -0.00000000000E+00 -0.00000000000E+00 -0.64930732323E+04  0.65000000000E+04  0.30000000000E+03 0. -1.
     100001    1    1    2    0    0  0.13169000534E+03  0.13932585671E+03 -0.64954288387E+04  0.65000000000E+04  0.15050000000E+03 0. -1.
     100001    1    1    2    0    0 -0.13169000534E+03 -0.13932585671E+03  0.64954288387E+04  0.65000000000E+04  0.15050000000E+03 0. -1.
</event>
<event>
 4    1  0.4826743E-004  0.6500000E+04  0.7818608E-02  0.7223770E-01
         52   -1    0    0    0    0  0.00000000000E+00  0.00000000000E+00  0.64930732323E+04  0.65000000000E+04  0.30000000000E+03 0. -1.
        -52   -1    0    0    0    0 -0.00000000000E+00 -0.00000000000E+00 -0.64930732323E+04  0.65000000000E+04  0.30000000000E+03 0.  1.
     100001    1    1    2    0    0  0.42778937492E+03 -0.23675106221E+03 -0.64798375701E+04  0.65000000000E+04  0.15050000000E+03 0.  1.
     100001    1    1    2    0    0 -0.42778937492E+03  0.23675106221E+03  0.64798375701E+04  0.65000000000E+04  0.15050000000E+03 0. -1.
</event>
<event>
 4    1  0.4826743E-004  0.6500000E+04  0.7818608E-02  0.7223770E-01
         52   -1    0    0    0    0  0.00000000000E+00  0.00000000000E+00  0.64930732323E+04  0.65000000000E+04  0.30000000000E+03 0. -1.
        -52   -1    0    0    0    0 -0.00000000000E+00 -0.00000000000E+00 -0.64930732323E+04  0.65000000000E+04  0.30000000000E+03 0. -1.
     100001    1    1    2    0    0 -0.27744559191E+02 -0.58943366419E+03 -0.64714100430E+04  0.65000000000E+04  0.15050000000E+03 0. -1.
     100001    1    1    2    0    0  0.27744559191E+02  0.58943366419E+03  0.64714100430E+04  0.65000000000E+04  0.15050000000E+03 0. -1.
</event>
<event>
 4    1  0.4826743E-004  0.6500000E+04  0.7818608E-02  0.7223770E-01
         52   -1    0    0    0    0  0.00000000000E+00  0.00000000000E+00  0.64930732323E+04  0.65000000000E+04  0.30000000000E+03 0.  1.
        -52   -1    0    0    0    0 -0.00000000000E+00 -0.00000000000E+00 -0.64930732323E+04  0.65000000000E+04  0.30000000000E+03 0. -1.
     100001    1    1    2    0    0  0.14243128423E+03  0.80955037884E+03  0.64460601349E+04  0.65000000000E+04  0.15050000000E+03 0.  1.
     100001    1    1    2    0    0 -0.14243128423E+03 -0.80955037884E+03 -0.64460601349E+04  0.65000000000E+04  0.15050000000E+03 0. -1.
</event>
<event>
 4    1  0.4826743E-004  0.6500000E+04  0.7818608E-02  0.7223770E-01
         52   -1    0    0    0    0  0.00000000000E+00  0.00000000000E+00  0.64930732323E+04  0.65000000000E+04  0.30000000000E+03 0.  1.
        -52   -1    0    0    0    0 -0.00000000000E+00 -0.00000000000E+00 -0.64930732323E+04  0.65000000000E+04  0.30000000000E+03 0. -1.
     100001    1    1    2    0    0 -0.19938841172E+04 -0.13037068824E+04  0.60458352808E+04  0.65000000000E+04  0.15050000000E+03 0.  1.
     100001    1    1    2    0    0  0.19938841172E+04  0.13037068824E+04 -0.60458352808E+04  0.65000000000E+04  0.15050000000E+03 0. -1.
</event>
<event>
 4    1  0.4826743E-004  0.6500000E+04  0.7818608E-02  0.7223770E-01
         52   -1    0    0    0    0  0.00000000000E+00  0.00000000000E+00  0.64930732323E+04  0.65000000000E+04  0.30000000000E+03 0. -1.
        -52   -1    0    0    0    0 -0.00000000000E+00 -0.00000000000E+00 -0.64930732323E+04  0.65000000000E+04  0.30000000000E+03 0.  1.
     100001    1    1    2    0    0  0.18053297572E+03 -0.12895084393E+04 -0.63664688470E+04  0.65000000000E+04  0.15050000000E+03 0.  1.
     100001    1    1    2    0    0 -0.18053297572E+03  0.12895084393E+04  0.63664688470E+04  0.65000000000E+04  0.15050000000E+03 0. -1.
</event>
<event>
 4    1  0.4826743E-004  0.6500000E+04  0.7818608E-02  0.7223770E-01
         52   -1    0    0    0    0  0.00000000000E+00  0.00000000000E+00  0.64930732323E+04  0.65000000000E+04  0.30000000000E+03 0.  1.
        -52   -1    0    0    0    0 -0.00000000000E+00 -0.00000000000E+00 -0.64930732323E+04  0.65000000000E+04  0.30000000000E+03 0. -1.
     100001    1    1    2    0    0 -0.24723828130E+03  0.24208244468E+03  0.64890383781E+04  0.65000000000E+04  0.15050000000E+03 0.  1.
     100001    1    1    2    0    0  0.24723828130E+03 -0.24208244468E+03 -0.64890383781E+04  0.65000000000E+04  0.15050000000E+03 0. -1.
</event>
<event>
 4    1  0.4826743E-004  0.6500000E+04  0.7818608E-02  0.7223770E-01
         52   -1    0    0    0    0  0.00000000000E+00  0.00000000000E+00  0.64930732323E+04  0.65000000000E+04  0.30000000000E+03 0.  1.
        -52   -1    0    0    0    0 -0.00000000000E+00 -0.00000000000E+00 -0.64930732323E+04  0.65000000000E+04  0.30000000000E+03 0. -1.
     100001    1    1    2    0    0 -0.15958015702E+04  0.16755669976E+04 -0.60723341752E+04  0.65000000000E+04  0.15050000000E+03 0. -1.
     100001    1    1    2    0    0  0.15958015702E+04 -0.16755669976E+04  0.60723341752E+04  0.65000000000E+04  0.15050000000E+03 0.  1.
</event>
<event>
 4    1  0.4826743E-004  0.6500000E+04  0.7818608E-02  0.7223770E-01
         52   -1    0    0    0    0  0.00000000000E+00  0.00000000000E+00  0.64930732323E+04  0.65000000000E+04  0.30000000000E+03 0.  1.
        -52   -1    0    0    0    0 -0.00000000000E+00 -0.00000000000E+00 -0.64930732323E+04  0.65000000000E+04  0.30000000000E+03 0. -1.
     100001    1    1    2    0    0 -0.55820196481E+03  0.31963983317E+04  0.56301685607E+04  0.65000000000E+04  0.15050000000E+03 0.  1.
     100001    1    1    2    0    0  0.55820196481E+03 -0.31963983317E+04 -0.56301685607E+04  0.65000000000E+04  0.15050000000E+03 0. -1.
</event>
<event>
 4    1  0.4826743E-004  0.6500000E+04  0.7818608E-02  0.7223770E-01
         52   -1    0    0    0    0  0.00000000000E+00  0.00000000000E+00  0.64930732323E+04  0.65000000000E+04  0.30000000000E+03 0. -1.
        -52   -1    0    0    0    0 -0.00000000000E+00 -0.00000000000E+00 -0.64930732323E+04  0.65000000000E+04  0.30000000000E+03 0.  1.
     100001    1    1    2    0    0  0.61685151053E+03 -0.20855222236E+04 -0.61235154135E+04  0.65000000000E+04  0.15050000000E+03 0.  1.
     100001    1    1    2    0    0 -0.61685151053E+03  0.20855222236E+04  0.61235154135E+04  0.65000000000E+04  0.15050000000E+03 0. -1.
</event>
<event>
 4    1  0.4826743E-004  0.6500000E+04  0.7818608E-02  0.7223770E-01
         52   -1    0    0    0    0  0.00000000000E+00  0.00000000000E+00  0.64930732323E+04  0.65000000000E+04  0.30000000000E+03 0.  1.
        -52   -1    0    0    0    0 -0.00000000000E+00 -0.00000000000E+00 -0.64930732323E+04  0.65000000000E+04  0.30000000000E+03 0. -1.
     100001    1    1    2    0    0  0.34527671021E+03 -0.11508402502E+04 -0.63862117458E+04  0.65000000000E+04  0.15050000000E+03 0. -1.
     100001    1    1    2    0    0 -0.34527671021E+03  0.11508402502E+04  0.63862117458E+04  0.65000000000E+04  0.15050000000E+03 0.  1.
</event>
<event>
 4    1  0.4826743E-004  0.6500000E+04  0.7818608E-02  0.7223770E-01
         52   -1    0    0    0    0  0.00000000000E+00  0.00000000000E+00  0.64930732323E+04  0.65000000000E+04  0.30000000000E+03 0. -1.
        -52   -1    0    0    0    0 -0.00000000000E+00 -0.00000000000E+00 -0.64930732323E+04  0.65000000000E+04  0.30000000000E+03 0. -1.
     100001    1    1    2    0    0 -0.24816407413E+02  0.14650733123E+03 -0.64965582810E+04  0.65000000000E+04  0.15050000000E+03 0. -1.
     100001    1    1    2    0    0  0.24816407413E+02 -0.14650733123E+03  0.64965582810E+04  0.65000000000E+04  0.15050000000E+03 0. -1.
</event>
<event>
 4    1  0.4826743E-004  0.6500000E+04  0.7818608E-02  0.7223770E-01
         52   -1    0    0    0    0  0.00000000000E+00  0.00000000000E+00  0.64930732323E+04  0.65000000000E+04  0.30000000000E+03 0. -1.
        -52   -1    0    0    0    0 -0.00000000000E+00 -0.00000000000E+00 -0.64930732323E+04  0.65000000000E+04  0.30000000000E+03 0.  1.
     100001    1    1    2    0    0 -0.27615858756E+04  0.29057833205E+04 -0.51144321773E+04  0.65000000000E+04  0.15050000000E+03 0.  1.
     100001    1    1    2    0    0  0.27615858756E+04 -0.29057833205E+04  0.51144321773E+04  0.65000000000E+04  0.15050000000E+03 0. -1.
</event>
<event>
 4    1  0.4826743E-004  0.6500000E+04  0.7818608E-02  0.7223770E-01
         52   -1    0    0    0    0  0.00000000000E+00  0.00000000000E+00  0.64930732323E+04  0.65000000000E+04  0.30000000000E+03 0. -1.
        -52   -1    0    0    0    0 -0.00000000000E+00 -0.00000000000E+00 -0.64930732323E+04  0.65000000000E+04  0.30000000000E+03 0.  1.
     100001    1    1    2    0    0  0.49271048820E+03 -0.42062478153E+01 -0.64795500177E+04  0.65000000000E+04  0.15050000000E+03 0.  1.
     100001    1    1    2    0    0 -0.49271048820E+03  0.42062478153E+01  0.64795500177E+04  0.65000000000E+04  0.15050000000E+03 0. -1.
</event>
<event>
 4    1  0.4826743E-004  0.6500000E+04  0.7818608E-02  0.7223770E-01
         52   -1    0    0    0    0  0.00000000000E+00  0.00000000000E+00  0.64930732323E+04  0.65000000000E+04  0.30000000000E+03 0. -1.
        -52   -1    0    0    0    0 -0.00000000000E+00 -0.00000000000E+00 -0.64930732323E+04  0.65000000000E+04  0.30000000000E+03 0.  1.
     100001    1    1    2    0    0  0.41252899387E+04  0.23365669742E+04 -0.44440732945E+04  0.65000000000E+04  0.15050000000E+03 0.  1.
     100001    1    1    2    0    0 -0.41252899387E+04 -0.23365669742E+04  0.44440732945E+04  0.65000000000E+04  0.15050000000E+03 0. -1.
</event>
<event>
 4    1  0.4826743E-004  0.6500000E+04  0.7818608E-02  0.7223770E-01
         52   -1    0    0    0    0  0.00000000000E+00  0.00000000000E+00  0.64930732323E+04  0.65000000000E+04  0.30000000000E+03 0.  1.
        -52   -1    0    0    0    0 -0.00000000000E+00 -0.00000000000E+00 -0.64930732323E+04  0.65000000000E+04  0.30000000000E+03 0.  1.
     100001    1    1    2    0    0 -0.31149325801E+03  0.11198126319E+03 -0.64898214072E+04  0.65000000000E+04  0.15050000000E+03 0.  1.
     100001    1    1    2    0    0  0.31149325801E+03 -0.11198126319E+03  0.64898214072E+04  0.65000000000E+04  0.15050000000E+03 0.  1.
</event>
<event>
 4    1  0.4826743E-004  0.6500000E+04  0.7818608E-02  0.7223770E-01
         52   -1    0    0    0    0  0.00000000000E+00  0.00000000000E+00  0.64930732323E+04  0.65000000000E+04  0.30000000000E+03 0. -1.
        -52   -1    0    0    0    0 -0.00000000000E+00 -0.00000000000E+00 -0.64930732323E+04  0.65000000000E+04  0.30000000000E+03 0.  1.
     100001    1    1    2    0    0  0.36703238952E+03  0.98070443672E+03  0.64133342173E+04  0.65000000000E+04  0.15050000000E+03 0. -1.
     100001    1    1    2    0    0 -0.36703238952E+03 -0.98070443672E+03 -0.64133342173E+04  0.65000000000E+04  0.15050000000E+03 0.  1.
</event>
<event>
 4    1  0.4826743E-004  0.6500000E+04  0.7818608E-02  0.7223770E-01
         52   -1    0    0    0    0  0.00000000000E+00  0.00000000000E+00  0.64930732323E+04  0.65000000000E+04  0.30000000000E+03 0. -1.
        -52   -1    0    0    0    0 -0.00000000000E+00 -0.00000000000E+00 -0.64930732323E+04  0.65000000000E+04  0.30000000000E+03 0.  1.
     100001    1    1    2    0    0 -0.45027098765E+03  0.44912804601E+02  0.64824832146E+04  0.65000000000E+04  0.15050000000E+03 0. -1.
     100001    1    1    2    0    0  0.45027098765E+03 -0.44912804601E+02 -0.64824832146E+04  0.65000000000E+04  0.15050000000E+03 0.  1.
</event>
<event>
 4    1  0.4826743E-004  0.6500000E+04  0.7818608E-02  0.7223770E-01
         52   -1    0    0    0    0  0.00000000000E+00  0.00000000000E+00  0.64930732323E+04  0.65000000000E+04  0.30000000000E+03 0. -1.
        -52   -1    0    0    0    0 -0.00000000000E+00 -0.00000000000E+00 -0.64930732323E+04  0.65000000000E+04  0.30000000000E+03 0.  1.
     100001    1    1    2    0    0 -0.10775912777E+04  0.21814391591E+04 -0.60255680217E+04  0.65000000000E+04  0.15050000000E+03 0.  1.
     100001    1    1    2    0    0  0.10775912777E+04 -0.21814391591E+04  0.60255680217E+04  0.65000000000E+04  0.15050000000E+03 0. -1.
</event>
<event>
 4    1  0.4826743E-004  0.6500000E+04  0.7818608E-02  0.7223770E-01
         52   -1    0    0    0    0  0.00000000000E+00  0.00000000000E+00  0.64930732323E+04  0.65000000000E+04  0.30000000000E+03 0.  1.
        -52   -1    0    0    0    0 -0.00000000000E+00 -0.00000000000E+00 -0.64930732323E+04  0.65000000000E+04  0.30000000000E+03 0. -1.
     100001    1    1    2    0    0 -0.31228161897E+03  0.40254949335E+04 -0.50916814983E+04  0.65000000000E+04  0.15050000000E+03 0. -1.
     100001    1    1    2    0    0  0.31228161897E+03 -0.40254949335E+04  0.50916814983E+04  0.65000000000E+04  0.15050000000E+03 0.  1.
</event>
<event>
 4    1  0.4826743E-004  0.6500000E+04  0.7818608E-02  0.7223770E-01
         52   -1    0    0    0    0  0.00000000000E+00  0.00000000000E+00  0.64930732323E+04  0.65000000000E+04  0.30000000000E+03 0. -1.
        -52   -1    0    0    0    0 -0.00000000000E+00 -0.00000000000E+00 -0.64930732323E+04  0.65000000000E+04  0.30000000000E+03 0.  1.
     100001    1    1    2    0    0  0.33233400935E+03  0.28127072675E+03 -0.64836556536E+04  0.65000000000E+04  0.15050000000E+03 0.  1.
     100001    1    1    2    0    0 -0.33233400935E+03 -0.28127072675E+03  0.64836556536E+04  0.65000000000E+04  0.15050000000E+03 0. -1.
</event>
<event>
 4    1  0.4826743E-004  0.6500000E+04  0.7818608E-02  0.7223770E-01
         52   -1    0    0    0    0  0.00000000000E+00  0.00000000000E+00  0.64930732323E+04  0.65000000000E+04  0.30000000000E+03 0.  1.
        -52   -1    0    0    0    0 -0.00000000000E+00 -0.00000000000E+00 -0.64930732323E+04  0.65000000000E+04  0.30000000000E+03 0. -1.
     100001    1    1    2    0    0  0.61575496765E+04  0.23612786324E+03 -0.20630500148E+04  0.65000000000E+04  0.15050000000E+03 0. -1.
     100001    1    1    2    0    0 -0.61575496765E+04 -0.23612786324E+03  0.20630500148E+04  0.65000000000E+04  0.15050000000E+03 0.  1.
</event>
<event>
 4    1  0.4826743E-004  0.6500000E+04  0.7818608E-02  0.7223770E-01
         52   -1    0    0    0    0  0.00000000000E+00  0.00000000000E+00  0.64930732323E+04  0.65000000000E+04  0.30000000000E+03 0. -1.
        -52   -1    0    0    0    0 -0.00000000000E+00 -0.00000000000E+00 -0.64930732323E+04  0.65000000000E+04  0.30000000000E+03 0.  1.
     100001    1    1    2    0    0  0.18664112928E+03 -0.92271147026E+02  0.64949211600E+04  0.65000000000E+04  0.15050000000E+03 0. -1.
     100001    1    1    2    0    0 -0.18664112928E+03  0.92271147026E+02 -0.64949211600E+04  0.65000000000E+04  0.15050000000E+03 0.  1.
</event>
<event>
 4    1  0.4826743E-004  0.6500000E+04  0.7818608E-02  0.7223770E-01
         52   -1    0    0    0    0  0.00000000000E+00  0.00000000000E+00  0.64930732323E+04  0.65000000000E+04  0.30000000000E+03 0. -1.
        -52   -1    0    0    0    0 -0.00000000000E+00 -0.00000000000E+00 -0.64930732323E+04  0.65000000000E+04  0.30000000000E+03 0.  1.
     100001    1    1    2    0    0 -0.30448094762E+04  0.54403493675E+04 -0.18327803367E+04  0.65000000000E+04  0.15050000000E+03 0. -1.
     100001    1    1    2    0    0  0.30448094762E+04 -0.54403493675E+04  0.18327803367E+04  0.65000000000E+04  0.15050000000E+03 0.  1.
</event>
<event>
 4    1  0.4826743E-004  0.6500000E+04  0.7818608E-02  0.7223770E-01
         52   -1    0    0    0    0  0.00000000000E+00  0.00000000000E+00  0.64930732323E+04  0.65000000000E+04  0.30000000000E+03 0.  1.
        -52   -1    0    0    0    0 -0.00000000000E+00 -0.00000000000E+00 -0.64930732323E+04  0.65000000000E+04  0.30000000000E+03 0. -1.
     100001    1    1    2    0    0 -0.15478049050E+04  0.22522802658E+04 -0.58956664874E+04  0.65000000000E+04  0.15050000000E+03 0. -1.
     100001    1    1    2    0    0  0.15478049050E+04 -0.22522802658E+04  0.58956664874E+04  0.65000000000E+04  0.15050000000E+03 0.  1.
</event>
<event>
 4    1  0.4826743E-004  0.6500000E+04  0.7818608E-02  0.7223770E-01
         52   -1    0    0    0    0  0.00000000000E+00  0.00000000000E+00  0.64930732323E+04  0.65000000000E+04  0.30000000000E+03 0.  1.
        -52   -1    0    0    0    0 -0.00000000000E+00 -0.00000000000E+00 -0.64930732323E+04  0.65000000000E+04  0.30000000000E+03 0. -1.
     100001    1    1    2    0    0 -0.26254195225E+01 -0.10512255721E+04  0.64126646298E+04  0.65000000000E+04  0.15050000000E+03 0.  1.
     100001    1    1    2    0    0  0.26254195225E+01  0.10512255721E+04 -0.64126646298E+04  0.65000000000E+04  0.15050000000E+03 0. -1.
</event>
<event>
 4    1  0.4826743E-004  0.6500000E+04  0.7818608E-02  0.7223770E-01
         52   -1    0    0    0    0  0.00000000000E+00  0.00000000000E+00  0.64930732323E+04  0.65000000000E+04  0.30000000000E+03 0.  1.
        -52   -1    0    0    0    0 -0.00000000000E+00 -0.00000000000E+00 -0.64930732323E+04  0.65000000000E+04  0.30000000000E+03 0.  1.
     100001    1    1    2    0    0 -0.56729689792E+03  0.40308448004E+03 -0.64608859208E+04  0.65000000000E+04  0.15050000000E+03 0.  1.
     100001    1    1    2    0    0  0.56729689792E+03 -0.40308448004E+03  0.64608859208E+04  0.65000000000E+04  0.15050000000E+03 0.  1.
</event>
<event>
 4    1  0.6860024E-004  0.6500000E+04  0.7818608E-02  0.7223770E-01
         52   -1    0    0    0    0  0.00000000000E+00  0.00000000000E+00  0.64930732323E+04  0.65000000000E+04  0.30000000000E+03 0.  1.
        -52   -1    0    0    0    0 -0.00000000000E+00 -0.00000000000E+00 -0.64930732323E+04  0.65000000000E+04  0.30000000000E+03 0.  1.
     100001    1    1    2    0    0 -0.67711975776E+02 -0.13473329881E+02 -0.64978906814E+04  0.65000000000E+04  0.15050000000E+03 0.  1.
     100001    1    1    2    0    0  0.67711975776E+02  0.13473329881E+02  0.64978906814E+04  0.65000000000E+04  0.15050000000E+03 0.  1.
</event>
<event>
 4    1  0.4826743E-004  0.6500000E+04  0.7818608E-02  0.7223770E-01
         52   -1    0    0    0    0  0.00000000000E+00  0.00000000000E+00  0.64930732323E+04  0.65000000000E+04  0.30000000000E+03 0.  1.
        -52   -1    0    0    0    0 -0.00000000000E+00 -0.00000000000E+00 -0.64930732323E+04  0.65000000000E+04  0.30000000000E+03 0. -1.
     100001    1    1    2    0    0  0.17024480772E+04  0.13135494966E+04 -0.61321780808E+04  0.65000000000E+04  0.15050000000E+03 0. -1.
     100001    1    1    2    0    0 -0.17024480772E+04 -0.13135494966E+04  0.61321780808E+04  0.65000000000E+04  0.15050000000E+03 0.  1.
</event>
<event>
 4    1  0.4826743E-004  0.6500000E+04  0.7818608E-02  0.7223770E-01
         52   -1    0    0    0    0  0.00000000000E+00  0.00000000000E+00  0.64930732323E+04  0.65000000000E+04  0.30000000000E+03 0.  1.
        -52   -1    0    0    0    0 -0.00000000000E+00 -0.00000000000E+00 -0.64930732323E+04  0.65000000000E+04  0.30000000000E+03 0. -1.
     100001    1    1    2    0    0  0.91449408226E+03 -0.44105528524E+03  0.64184515702E+04  0.65000000000E+04  0.15050000000E+03 0.  1.
     100001    1    1    2    0    0 -0.91449408226E+03  0.44105528524E+03 -0.64184515702E+04  0.65000000000E+04  0.15050000000E+03 0. -1.
</event>
<event>
 4    1  0.4826743E-004  0.6500000E+04  0.7818608E-02  0.7223770E-01
         52   -1    0    0    0    0  0.00000000000E+00  0.00000000000E+00  0.64930732323E+04  0.65000000000E+04  0.30000000000E+03 0.  1.
        -52   -1    0    0    0    0 -0.00000000000E+00 -0.00000000000E+00 -0.64930732323E+04  0.65000000000E+04  0.30000000000E+03 0. -1.
     100001    1    1    2    0    0 -0.89930682793E+03 -0.14463755707E+03  0.64341026535E+04  0.65000000000E+04  0.15050000000E+03 0.  1.
     100001    1    1    2    0    0  0.89930682793E+03  0.14463755707E+03 -0.64341026535E+04  0.65000000000E+04  0.15050000000E+03 0. -1.
</event>
<event>
 4    1  0.4826743E-004  0.6500000E+04  0.7818608E-02  0.7223770E-01
         52   -1    0    0    0    0  0.00000000000E+00  0.00000000000E+00  0.64930732323E+04  0.65000000000E+04  0.30000000000E+03 0. -1.
        -52   -1    0    0    0    0 -0.00000000000E+00 -0.00000000000E+00 -0.64930732323E+04  0.65000000000E+04  0.30000000000E+03 0.  1.
     100001    1    1    2    0    0 -0.10475517506E+04  0.15149967372E+04 -0.62317549668E+04  0.65000000000E+04  0.15050000000E+03 0.  1.
     100001    1    1    2    0    0  0.10475517506E+04 -0.15149967372E+04  0.62317549668E+04  0.65000000000E+04  0.15050000000E+03 0. -1.
</event>
<event>
 4    1  0.4826743E-004  0.6500000E+04  0.7818608E-02  0.7223770E-01
         52   -1    0    0    0    0  0.00000000000E+00  0.00000000000E+00  0.64930732323E+04  0.65000000000E+04  0.30000000000E+03 0.  1.
        -52   -1    0    0    0    0 -0.00000000000E+00 -0.00000000000E+00 -0.64930732323E+04  0.65000000000E+04  0.30000000000E+03 0. -1.
     100001    1    1    2    0    0 -0.33800509216E+04  0.55500084944E+04  0.33510512141E+01  0.65000000000E+04  0.15050000000E+03 0.  1.
     100001    1    1    2    0    0  0.33800509216E+04 -0.55500084944E+04 -0.33510512141E+01  0.65000000000E+04  0.15050000000E+03 0. -1.
</event>
<event>
 4    1  0.4826743E-004  0.6500000E+04  0.7818608E-02  0.7223770E-01
         52   -1    0    0    0    0  0.00000000000E+00  0.00000000000E+00  0.64930732323E+04  0.65000000000E+04  0.30000000000E+03 0. -1.
        -52   -1    0    0    0    0 -0.00000000000E+00 -0.00000000000E+00 -0.64930732323E+04  0.65000000000E+04  0.30000000000E+03 0.  1.
     100001    1    1    2    0    0  0.51647125646E+03  0.13462341835E+04  0.63362655180E+04  0.65000000000E+04  0.15050000000E+03 0. -1.
     100001    1    1    2    0    0 -0.51647125646E+03 -0.13462341835E+04 -0.63362655180E+04  0.65000000000E+04  0.15050000000E+03 0.  1.
</event>
<event>
 4    1  0.4826743E-004  0.6500000E+04  0.7818608E-02  0.7223770E-01
         52   -1    0    0    0    0  0.00000000000E+00  0.00000000000E+00  0.64930732323E+04  0.65000000000E+04  0.30000000000E+03 0. -1.
        -52   -1    0    0    0    0 -0.00000000000E+00 -0.00000000000E+00 -0.64930732323E+04  0.65000000000E+04  0.30000000000E+03 0.  1.
     100001    1    1    2    0    0 -0.56130290393E+04 -0.28616444161E+04 -0.15913032364E+04  0.65000000000E+04  0.15050000000E+03 0.  1.
     100001    1    1    2    0    0  0.56130290393E+04  0.28616444161E+04  0.15913032364E+04  0.65000000000E+04  0.15050000000E+03 0. -1.
</event>
<event>
 4    1  0.4826743E-004  0.6500000E+04  0.7818608E-02  0.7223770E-01
         52   -1    0    0    0    0  0.00000000000E+00  0.00000000000E+00  0.64930732323E+04  0.65000000000E+04  0.30000000000E+03 0. -1.
        -52   -1    0    0    0    0 -0.00000000000E+00 -0.00000000000E+00 -0.64930732323E+04  0.65000000000E+04  0.30000000000E+03 0.  1.
     100001    1    1    2    0    0 -0.66870000258E+03  0.24892518295E+03  0.64589648017E+04  0.65000000000E+04  0.15050000000E+03 0. -1.
     100001    1    1    2    0    0  0.66870000258E+03 -0.24892518295E+03 -0.64589648017E+04  0.65000000000E+04  0.15050000000E+03 0.  1.
</event>
<event>
 4    1  0.4826743E-004  0.6500000E+04  0.7818608E-02  0.7223770E-01
         52   -1    0    0    0    0  0.00000000000E+00  0.00000000000E+00  0.64930732323E+04  0.65000000000E+04  0.30000000000E+03 0.  1.
        -52   -1    0    0    0    0 -0.00000000000E+00 -0.00000000000E+00 -0.64930732323E+04  0.65000000000E+04  0.30000000000E+03 0. -1.
     100001    1    1    2    0    0  0.36865839057E+04  0.33302831121E+04 -0.41887543793E+04  0.65000000000E+04  0.15050000000E+03 0. -1.
     100001    1    1    2    0    0 -0.36865839057E+04 -0.33302831121E+04  0.41887543793E+04  0.65000000000E+04  0.15050000000E+03 0.  1.
</event>
<event>
 4    1  0.4826743E-004  0.6500000E+04  0.7818608E-02  0.7223770E-01
         52   -1    0    0    0    0  0.00000000000E+00  0.00000000000E+00  0.64930732323E+04  0.65000000000E+04  0.30000000000E+03 0.  1.
        -52   -1    0    0    0    0 -0.00000000000E+00 -0.00000000000E+00 -0.64930732323E+04  0.65000000000E+04  0.30000000000E+03 0.  1.
     100001    1    1    2    0    0  0.81099280759E+03 -0.88582322814E+03 -0.63863101729E+04  0.65000000000E+04  0.15050000000E+03 0.  1.
     100001    1    1    2    0    0 -0.81099280759E+03  0.88582322814E+03  0.63863101729E+04  0.65000000000E+04  0.15050000000E+03 0.  1.
</event>
<event>
 4    1  0.4826743E-004  0.6500000E+04  0.7818608E-02  0.7223770E-01
         52   -1    0    0    0    0  0.00000000000E+00  0.00000000000E+00  0.64930732323E+04  0.65000000000E+04  0.30000000000E+03 0.  1.
        -52   -1    0    0    0    0 -0.00000000000E+00 -0.00000000000E+00 -0.64930732323E+04  0.65000000000E+04  0.30000000000E+03 0. -1.
     100001    1    1    2    0    0 -0.15682559254E+04  0.15386441216E+04 -0.61155946047E+04  0.65000000000E+04  0.15050000000E+03 0. -1.
     100001    1    1    2    0    0  0.15682559254E+04 -0.15386441216E+04  0.61155946047E+04  0.65000000000E+04  0.15050000000E+03 0.  1.
</event>
<event>
 4    1  0.4826743E-004  0.6500000E+04  0.7818608E-02  0.7223770E-01
         52   -1    0    0    0    0  0.00000000000E+00  0.00000000000E+00  0.64930732323E+04  0.65000000000E+04  0.30000000000E+03 0.  1.
        -52   -1    0    0    0    0 -0.00000000000E+00 -0.00000000000E+00 -0.64930732323E+04  0.65000000000E+04  0.30000000000E+03 0. -1.
     100001    1    1    2    0    0 -0.41560166124E+03  0.96306928561E+03  0.64130431591E+04  0.65000000000E+04  0.15050000000E+03 0.  1.
     100001    1    1    2    0    0  0.41560166124E+03 -0.96306928561E+03 -0.64130431591E+04  0.65000000000E+04  0.15050000000E+03 0. -1.
</event>
<event>
 4    1  0.4826743E-004  0.6500000E+04  0.7818608E-02  0.7223770E-01
         52   -1    0    0    0    0  0.00000000000E+00  0.00000000000E+00  0.64930732323E+04  0.65000000000E+04  0.30000000000E+03 0.  1.
        -52   -1    0    0    0    0 -0.00000000000E+00 -0.00000000000E+00 -0.64930732323E+04  0.65000000000E+04  0.30000000000E+03 0. -1.
     100001    1    1    2    0    0 -0.28681445309E+04  0.37528227380E+04  0.44628934781E+04  0.65000000000E+04  0.15050000000E+03 0.  1.
     100001    1    1    2    0    0  0.28681445309E+04 -0.37528227380E+04 -0.44628934781E+04  0.65000000000E+04  0.15050000000E+03 0. -1.
</event>
<event>
 4    1  0.7872512E-004  0.6500000E+04  0.7818608E-02  0.7223770E-01
         52   -1    0    0    0    0  0.00000000000E+00  0.00000000000E+00  0.64930732323E+04  0.65000000000E+04  0.30000000000E+03 0. -1.
        -52   -1    0    0    0    0 -0.00000000000E+00 -0.00000000000E+00 -0.64930732323E+04  0.65000000000E+04  0.30000000000E+03 0. -1.
     100001    1    1    2    0    0 -0.94825351082E+02 -0.43401574443E+02 -0.64974205810E+04  0.65000000000E+04  0.15050000000E+03 0. -1.
     100001    1    1    2    0    0  0.94825351082E+02  0.43401574443E+02  0.64974205810E+04  0.65000000000E+04  0.15050000000E+03 0. -1.
</event>
<event>
 4    1  0.4826743E-004  0.6500000E+04  0.7818608E-02  0.7223770E-01
         52   -1    0    0    0    0  0.00000000000E+00  0.00000000000E+00  0.64930732323E+04  0.65000000000E+04  0.30000000000E+03 0. -1.
        -52   -1    0    0    0    0 -0.00000000000E+00 -0.00000000000E+00 -0.64930732323E+04  0.65000000000E+04  0.30000000000E+03 0.  1.
     100001    1    1    2    0    0  0.33551494309E+04  0.15929164112E+04  0.53322546220E+04  0.65000000000E+04  0.15050000000E+03 0. -1.
     100001    1    1    2    0    0 -0.33551494309E+04 -0.15929164112E+04 -0.53322546220E+04  0.65000000000E+04  0.15050000000E+03 0.  1.
</event>
<event>
 4    1  0.4826743E-004  0.6500000E+04  0.7818608E-02  0.7223770E-01
         52   -1    0    0    0    0  0.00000000000E+00  0.00000000000E+00  0.64930732323E+04  0.65000000000E+04  0.30000000000E+03 0.  1.
        -52   -1    0    0    0    0 -0.00000000000E+00 -0.00000000000E+00 -0.64930732323E+04  0.65000000000E+04  0.30000000000E+03 0.  1.
     100001    1    1    2    0    0 -0.45453678277E+03  0.32234806534E+03 -0.64743214152E+04  0.65000000000E+04  0.15050000000E+03 0.  1.
     100001    1    1    2    0    0  0.45453678277E+03 -0.32234806534E+03  0.64743214152E+04  0.65000000000E+04  0.15050000000E+03 0.  1.
</event>
<event>
 4    1  0.4826743E-004  0.6500000E+04  0.7818608E-02  0.7223770E-01
         52   -1    0    0    0    0  0.00000000000E+00  0.00000000000E+00  0.64930732323E+04  0.65000000000E+04  0.30000000000E+03 0.  1.
        -52   -1    0    0    0    0 -0.00000000000E+00 -0.00000000000E+00 -0.64930732323E+04  0.65000000000E+04  0.30000000000E+03 0. -1.
     100001    1    1    2    0    0  0.91628222820E+03  0.10640631285E+04 -0.63447258638E+04  0.65000000000E+04  0.15050000000E+03 0. -1.
     100001    1    1    2    0    0 -0.91628222820E+03 -0.10640631285E+04  0.63447258638E+04  0.65000000000E+04  0.15050000000E+03 0.  1.
</event>
<event>
 4    1  0.4826743E-004  0.6500000E+04  0.7818608E-02  0.7223770E-01
         52   -1    0    0    0    0  0.00000000000E+00  0.00000000000E+00  0.64930732323E+04  0.65000000000E+04  0.30000000000E+03 0. -1.
        -52   -1    0    0    0    0 -0.00000000000E+00 -0.00000000000E+00 -0.64930732323E+04  0.65000000000E+04  0.30000000000E+03 0.  1.
     100001    1    1    2    0    0 -0.39290980329E+04 -0.60287726402E+03  0.51406300589E+04  0.65000000000E+04  0.15050000000E+03 0. -1.
     100001    1    1    2    0    0  0.39290980329E+04  0.60287726402E+03 -0.51406300589E+04  0.65000000000E+04  0.15050000000E+03 0.  1.
</event>
<event>
 4    1  0.4826743E-004  0.6500000E+04  0.7818608E-02  0.7223770E-01
         52   -1    0    0    0    0  0.00000000000E+00  0.00000000000E+00  0.64930732323E+04  0.65000000000E+04  0.30000000000E+03 0. -1.
        -52   -1    0    0    0    0 -0.00000000000E+00 -0.00000000000E+00 -0.64930732323E+04  0.65000000000E+04  0.30000000000E+03 0.  1.
     100001    1    1    2    0    0 -0.88408648168E+02 -0.53563249167E+03 -0.64755410195E+04  0.65000000000E+04  0.15050000000E+03 0.  1.
     100001    1    1    2    0    0  0.88408648168E+02  0.53563249167E+03  0.64755410195E+04  0.65000000000E+04  0.15050000000E+03 0. -1.
</event>
<event>
 4    1  0.4826743E-004  0.6500000E+04  0.7818608E-02  0.7223770E-01
         52   -1    0    0    0    0  0.00000000000E+00  0.00000000000E+00  0.64930732323E+04  0.65000000000E+04  0.30000000000E+03 0.  1.
        -52   -1    0    0    0    0 -0.00000000000E+00 -0.00000000000E+00 -0.64930732323E+04  0.65000000000E+04  0.30000000000E+03 0.  1.
     100001    1    1    2    0    0 -0.16437860226E+02 -0.46473301486E+03 -0.64815972392E+04  0.65000000000E+04  0.15050000000E+03 0.  1.
     100001    1    1    2    0    0  0.16437860226E+02  0.46473301486E+03  0.64815972392E+04  0.65000000000E+04  0.15050000000E+03 0.  1.
</event>
<event>
 4    1  0.4826743E-004  0.6500000E+04  0.7818608E-02  0.7223770E-01
         52   -1    0    0    0    0  0.00000000000E+00  0.00000000000E+00  0.64930732323E+04  0.65000000000E+04  0.30000000000E+03 0.  1.
        -52   -1    0    0    0    0 -0.00000000000E+00 -0.00000000000E+00 -0.64930732323E+04  0.65000000000E+04  0.30000000000E+03 0. -1.
     100001    1    1    2    0    0 -0.60323615846E+03  0.21493899957E+03  0.64666264090E+04  0.65000000000E+04  0.15050000000E+03 0.  1.
     100001    1    1    2    0    0  0.60323615846E+03 -0.21493899957E+03 -0.64666264090E+04  0.65000000000E+04  0.15050000000E+03 0. -1.
</event>
<event>
 4    1  0.4826743E-004  0.6500000E+04  0.7818608E-02  0.7223770E-01
         52   -1    0    0    0    0  0.00000000000E+00  0.00000000000E+00  0.64930732323E+04  0.65000000000E+04  0.30000000000E+03 0. -1.
        -52   -1    0    0    0    0 -0.00000000000E+00 -0.00000000000E+00 -0.64930732323E+04  0.65000000000E+04  0.30000000000E+03 0.  1.
     100001    1    1    2    0    0  0.24343691100E+04 -0.17173159132E+04 -0.57751210239E+04  0.65000000000E+04  0.15050000000E+03 0.  1.
     100001    1    1    2    0    0 -0.24343691100E+04  0.17173159132E+04  0.57751210239E+04  0.65000000000E+04  0.15050000000E+03 0. -1.
</event>
<event>
 4    1  0.4826743E-004  0.6500000E+04  0.7818608E-02  0.7223770E-01
         52   -1    0    0    0    0  0.00000000000E+00  0.00000000000E+00  0.64930732323E+04  0.65000000000E+04  0.30000000000E+03 0. -1.
        -52   -1    0    0    0    0 -0.00000000000E+00 -0.00000000000E+00 -0.64930732323E+04  0.65000000000E+04  0.30000000000E+03 0.  1.
     100001    1    1    2    0    0  0.54749582006E+04  0.10540088884E+04  0.33378507628E+04  0.65000000000E+04  0.15050000000E+03 0. -1.
     100001    1    1    2    0    0 -0.54749582006E+04 -0.10540088884E+04 -0.33378507628E+04  0.65000000000E+04  0.15050000000E+03 0.  1.
</event>
<event>
 4    1  0.4826743E-004  0.6500000E+04  0.7818608E-02  0.7223770E-01
         52   -1    0    0    0    0  0.00000000000E+00  0.00000000000E+00  0.64930732323E+04  0.65000000000E+04  0.30000000000E+03 0. -1.
        -52   -1    0    0    0    0 -0.00000000000E+00 -0.00000000000E+00 -0.64930732323E+04  0.65000000000E+04  0.30000000000E+03 0.  1.
     100001    1    1    2    0    0  0.24646509710E+03 -0.61572841098E+03  0.64643238803E+04  0.65000000000E+04  0.15050000000E+03 0. -1.
     100001    1    1    2    0    0 -0.24646509710E+03  0.61572841098E+03 -0.64643238803E+04  0.65000000000E+04  0.15050000000E+03 0.  1.
</event>
<event>
 4    1  0.4826743E-004  0.6500000E+04  0.7818608E-02  0.7223770E-01
         52   -1    0    0    0    0  0.00000000000E+00  0.00000000000E+00  0.64930732323E+04  0.65000000000E+04  0.30000000000E+03 0.  1.
        -52   -1    0    0    0    0 -0.00000000000E+00 -0.00000000000E+00 -0.64930732323E+04  0.65000000000E+04  0.30000000000E+03 0. -1.
     100001    1    1    2    0    0  0.41352398172E+03  0.26152882689E+03 -0.64798109802E+04  0.65000000000E+04  0.15050000000E+03 0. -1.
     100001    1    1    2    0    0 -0.41352398172E+03 -0.26152882689E+03  0.64798109802E+04  0.65000000000E+04  0.15050000000E+03 0.  1.
</event>
<event>
 4    1  0.4826743E-004  0.6500000E+04  0.7818608E-02  0.7223770E-01
         52   -1    0    0    0    0  0.00000000000E+00  0.00000000000E+00  0.64930732323E+04  0.65000000000E+04  0.30000000000E+03 0.  1.
        -52   -1    0    0    0    0 -0.00000000000E+00 -0.00000000000E+00 -0.64930732323E+04  0.65000000000E+04  0.30000000000E+03 0. -1.
     100001    1    1    2    0    0  0.18789273149E+04  0.37439119578E+04 -0.49679075221E+04  0.65000000000E+04  0.15050000000E+03 0. -1.
     100001    1    1    2    0    0 -0.18789273149E+04 -0.37439119578E+04  0.49679075221E+04  0.65000000000E+04  0.15050000000E+03 0.  1.
</event>
<event>
 4    1  0.4826743E-004  0.6500000E+04  0.7818608E-02  0.7223770E-01
         52   -1    0    0    0    0  0.00000000000E+00  0.00000000000E+00  0.64930732323E+04  0.65000000000E+04  0.30000000000E+03 0.  1.
        -52   -1    0    0    0    0 -0.00000000000E+00 -0.00000000000E+00 -0.64930732323E+04  0.65000000000E+04  0.30000000000E+03 0. -1.
     100001    1    1    2    0    0  0.35107527446E+03  0.97345452598E+02 -0.64880366649E+04  0.65000000000E+04  0.15050000000E+03 0. -1.
     100001    1    1    2    0    0 -0.35107527446E+03 -0.97345452598E+02  0.64880366649E+04  0.65000000000E+04  0.15050000000E+03 0.  1.
</event>
<event>
 4    1  0.4826743E-004  0.6500000E+04  0.7818608E-02  0.7223770E-01
         52   -1    0    0    0    0  0.00000000000E+00  0.00000000000E+00  0.64930732323E+04  0.65000000000E+04  0.30000000000E+03 0.  1.
        -52   -1    0    0    0    0 -0.00000000000E+00 -0.00000000000E+00 -0.64930732323E+04  0.65000000000E+04  0.30000000000E+03 0.  1.
     100001    1    1    2    0    0  0.39987988892E+03 -0.13660710594E+03 -0.64845033983E+04  0.65000000000E+04  0.15050000000E+03 0.  1.
     100001    1    1    2    0    0 -0.39987988892E+03  0.13660710594E+03  0.64845033983E+04  0.65000000000E+04  0.15050000000E+03 0.  1.
</event>
<event>
 4    1  0.4826743E-004  0.6500000E+04  0.7818608E-02  0.7223770E-01
         52   -1    0    0    0    0  0.00000000000E+00  0.00000000000E+00  0.64930732323E+04  0.65000000000E+04  0.30000000000E+03 0. -1.
        -52   -1    0    0    0    0 -0.00000000000E+00 -0.00000000000E+00 -0.64930732323E+04  0.65000000000E+04  0.30000000000E+03 0. -1.
     100001    1    1    2    0    0  0.12961833702E+02  0.48414055038E+02  0.64980641594E+04  0.65000000000E+04  0.15050000000E+03 0. -1.
     100001    1    1    2    0    0 -0.12961833702E+02 -0.48414055038E+02 -0.64980641594E+04  0.65000000000E+04  0.15050000000E+03 0. -1.
</event>
<event>
 4    1  0.4826743E-004  0.6500000E+04  0.7818608E-02  0.7223770E-01
         52   -1    0    0    0    0  0.00000000000E+00  0.00000000000E+00  0.64930732323E+04  0.65000000000E+04  0.30000000000E+03 0.  1.
        -52   -1    0    0    0    0 -0.00000000000E+00 -0.00000000000E+00 -0.64930732323E+04  0.65000000000E+04  0.30000000000E+03 0. -1.
     100001    1    1    2    0    0 -0.32242474322E+03 -0.37070147692E+04  0.53274227856E+04  0.65000000000E+04  0.15050000000E+03 0.  1.
     100001    1    1    2    0    0  0.32242474322E+03  0.37070147692E+04 -0.53274227856E+04  0.65000000000E+04  0.15050000000E+03 0. -1.
</event>
<event>
 4    1  0.4826743E-004  0.6500000E+04  0.7818608E-02  0.7223770E-01
         52   -1    0    0    0    0  0.00000000000E+00  0.00000000000E+00  0.64930732323E+04  0.65000000000E+04  0.30000000000E+03 0.  1.
        -52   -1    0    0    0    0 -0.00000000000E+00 -0.00000000000E+00 -0.64930732323E+04  0.65000000000E+04  0.30000000000E+03 0. -1.
     100001    1    1    2    0    0 -0.59693385709E+03  0.91035643804E+03 -0.64064241880E+04  0.65000000000E+04  0.15050000000E+03 0. -1.
     100001    1    1    2    0    0  0.59693385709E+03 -0.91035643804E+03  0.64064241880E+04  0.65000000000E+04  0.15050000000E+03 0.  1.
</event>
<event>
 4    1  0.4826743E-004  0.6500000E+04  0.7818608E-02  0.7223770E-01
         52   -1    0    0    0    0  0.00000000000E+00  0.00000000000E+00  0.64930732323E+04  0.65000000000E+04  0.30000000000E+03 0. -1.
        -52   -1    0    0    0    0 -0.00000000000E+00 -0.00000000000E+00 -0.64930732323E+04  0.65000000000E+04  0.30000000000E+03 0.  1.
     100001    1    1    2    0    0  0.20803906730E+04  0.98077921619E+03  0.60776143779E+04  0.65000000000E+04  0.15050000000E+03 0. -1.
     100001    1    1    2    0    0 -0.20803906730E+04 -0.98077921619E+03 -0.60776143779E+04  0.65000000000E+04  0.15050000000E+03 0.  1.
</event>
<event>
 4    1  0.4826743E-004  0.6500000E+04  0.7818608E-02  0.7223770E-01
         52   -1    0    0    0    0  0.00000000000E+00  0.00000000000E+00  0.64930732323E+04  0.65000000000E+04  0.30000000000E+03 0.  1.
        -52   -1    0    0    0    0 -0.00000000000E+00 -0.00000000000E+00 -0.64930732323E+04  0.65000000000E+04  0.30000000000E+03 0. -1.
     100001    1    1    2    0    0  0.45310574832E+03  0.29797176901E+03  0.64755893752E+04  0.65000000000E+04  0.15050000000E+03 0.  1.
     100001    1    1    2    0    0 -0.45310574832E+03 -0.29797176901E+03 -0.64755893752E+04  0.65000000000E+04  0.15050000000E+03 0. -1.
</event>
<event>
 4    1  0.4826743E-004  0.6500000E+04  0.7818608E-02  0.7223770E-01
         52   -1    0    0    0    0  0.00000000000E+00  0.00000000000E+00  0.64930732323E+04  0.65000000000E+04  0.30000000000E+03 0. -1.
        -52   -1    0    0    0    0 -0.00000000000E+00 -0.00000000000E+00 -0.64930732323E+04  0.65000000000E+04  0.30000000000E+03 0.  1.
     100001    1    1    2    0    0  0.35718476767E+03 -0.59817230806E+03  0.64608017058E+04  0.65000000000E+04  0.15050000000E+03 0. -1.
     100001    1    1    2    0    0 -0.35718476767E+03  0.59817230806E+03 -0.64608017058E+04  0.65000000000E+04  0.15050000000E+03 0.  1.
</event>
<event>
 4    1  0.4826743E-004  0.6500000E+04  0.7818608E-02  0.7223770E-01
         52   -1    0    0    0    0  0.00000000000E+00  0.00000000000E+00  0.64930732323E+04  0.65000000000E+04  0.30000000000E+03 0.  1.
        -52   -1    0    0    0    0 -0.00000000000E+00 -0.00000000000E+00 -0.64930732323E+04  0.65000000000E+04  0.30000000000E+03 0. -1.
     100001    1    1    2    0    0  0.76519037754E+03 -0.60695907104E+02  0.64527629309E+04  0.65000000000E+04  0.15050000000E+03 0.  1.
     100001    1    1    2    0    0 -0.76519037754E+03  0.60695907104E+02 -0.64527629309E+04  0.65000000000E+04  0.15050000000E+03 0. -1.
</event>
<event>
 4    1  0.4826743E-004  0.6500000E+04  0.7818608E-02  0.7223770E-01
         52   -1    0    0    0    0  0.00000000000E+00  0.00000000000E+00  0.64930732323E+04  0.65000000000E+04  0.30000000000E+03 0.  1.
        -52   -1    0    0    0    0 -0.00000000000E+00 -0.00000000000E+00 -0.64930732323E+04  0.65000000000E+04  0.30000000000E+03 0. -1.
     100001    1    1    2    0    0  0.11069701553E+04  0.10915566372E+02  0.64032685150E+04  0.65000000000E+04  0.15050000000E+03 0.  1.
     100001    1    1    2    0    0 -0.11069701553E+04 -0.10915566372E+02 -0.64032685150E+04  0.65000000000E+04  0.15050000000E+03 0. -1.
</event>
<event>
 4    1  0.4826743E-004  0.6500000E+04  0.7818608E-02  0.7223770E-01
         52   -1    0    0    0    0  0.00000000000E+00  0.00000000000E+00  0.64930732323E+04  0.65000000000E+04  0.30000000000E+03 0. -1.
        -52   -1    0    0    0    0 -0.00000000000E+00 -0.00000000000E+00 -0.64930732323E+04  0.65000000000E+04  0.30000000000E+03 0.  1.
     100001    1    1    2    0    0 -0.51962388587E+03 -0.48673764764E+02  0.64772657528E+04  0.65000000000E+04  0.15050000000E+03 0. -1.
     100001    1    1    2    0    0  0.51962388587E+03  0.48673764764E+02 -0.64772657528E+04  0.65000000000E+04  0.15050000000E+03 0.  1.
</event>
<event>
 4    1  0.4826743E-004  0.6500000E+04  0.7818608E-02  0.7223770E-01
         52   -1    0    0    0    0  0.00000000000E+00  0.00000000000E+00  0.64930732323E+04  0.65000000000E+04  0.30000000000E+03 0. -1.
        -52   -1    0    0    0    0 -0.00000000000E+00 -0.00000000000E+00 -0.64930732323E+04  0.65000000000E+04  0.30000000000E+03 0.  1.
     100001    1    1    2    0    0 -0.12017386165E+04  0.27070791790E+04  0.57840207785E+04  0.65000000000E+04  0.15050000000E+03 0. -1.
     100001    1    1    2    0    0  0.12017386165E+04 -0.27070791790E+04 -0.57840207785E+04  0.65000000000E+04  0.15050000000E+03 0.  1.
</event>
<event>
 4    1  0.4826743E-004  0.6500000E+04  0.7818608E-02  0.7223770E-01
         52   -1    0    0    0    0  0.00000000000E+00  0.00000000000E+00  0.64930732323E+04  0.65000000000E+04  0.30000000000E+03 0.  1.
        -52   -1    0    0    0    0 -0.00000000000E+00 -0.00000000000E+00 -0.64930732323E+04  0.65000000000E+04  0.30000000000E+03 0. -1.
     100001    1    1    2    0    0  0.18551362695E+03  0.13335562935E+03  0.64942398108E+04  0.65000000000E+04  0.15050000000E+03 0.  1.
     100001    1    1    2    0    0 -0.18551362695E+03 -0.13335562935E+03 -0.64942398108E+04  0.65000000000E+04  0.15050000000E+03 0. -1.
</event>
<event>
 4    1  0.4826743E-004  0.6500000E+04  0.7818608E-02  0.7223770E-01
         52   -1    0    0    0    0  0.00000000000E+00  0.00000000000E+00  0.64930732323E+04  0.65000000000E+04  0.30000000000E+03 0. -1.
        -52   -1    0    0    0    0 -0.00000000000E+00 -0.00000000000E+00 -0.64930732323E+04  0.65000000000E+04  0.30000000000E+03 0.  1.
     100001    1    1    2    0    0  0.87186577734E+03 -0.49144267845E+03  0.64207230052E+04  0.65000000000E+04  0.15050000000E+03 0. -1.
     100001    1    1    2    0    0 -0.87186577734E+03  0.49144267845E+03 -0.64207230052E+04  0.65000000000E+04  0.15050000000E+03 0.  1.
</event>
<event>
 4    1  0.4826743E-004  0.6500000E+04  0.7818608E-02  0.7223770E-01
         52   -1    0    0    0    0  0.00000000000E+00  0.00000000000E+00  0.64930732323E+04  0.65000000000E+04  0.30000000000E+03 0.  1.
        -52   -1    0    0    0    0 -0.00000000000E+00 -0.00000000000E+00 -0.64930732323E+04  0.65000000000E+04  0.30000000000E+03 0. -1.
     100001    1    1    2    0    0  0.26031085369E+03 -0.30094234183E+03 -0.64860636534E+04  0.65000000000E+04  0.15050000000E+03 0. -1.
     100001    1    1    2    0    0 -0.26031085369E+03  0.30094234183E+03  0.64860636534E+04  0.65000000000E+04  0.15050000000E+03 0.  1.
</event>
<event>
 4    1  0.4826743E-004  0.6500000E+04  0.7818608E-02  0.7223770E-01
         52   -1    0    0    0    0  0.00000000000E+00  0.00000000000E+00  0.64930732323E+04  0.65000000000E+04  0.30000000000E+03 0. -1.
        -52   -1    0    0    0    0 -0.00000000000E+00 -0.00000000000E+00 -0.64930732323E+04  0.65000000000E+04  0.30000000000E+03 0.  1.
     100001    1    1    2    0    0  0.77397244497E+03  0.14234476464E+03 -0.64504305571E+04  0.65000000000E+04  0.15050000000E+03 0.  1.
     100001    1    1    2    0    0 -0.77397244497E+03 -0.14234476464E+03  0.64504305571E+04  0.65000000000E+04  0.15050000000E+03 0. -1.
</event>
<event>
 4    1  0.4826743E-004  0.6500000E+04  0.7818608E-02  0.7223770E-01
         52   -1    0    0    0    0  0.00000000000E+00  0.00000000000E+00  0.64930732323E+04  0.65000000000E+04  0.30000000000E+03 0. -1.
        -52   -1    0    0    0    0 -0.00000000000E+00 -0.00000000000E+00 -0.64930732323E+04  0.65000000000E+04  0.30000000000E+03 0.  1.
     100001    1    1    2    0    0 -0.40466157644E+03 -0.42199431422E+03  0.64719023136E+04  0.65000000000E+04  0.15050000000E+03 0. -1.
     100001    1    1    2    0    0  0.40466157644E+03  0.42199431422E+03 -0.64719023136E+04  0.65000000000E+04  0.15050000000E+03 0.  1.
</event>
<event>
 4    1  0.4826743E-004  0.6500000E+04  0.7818608E-02  0.7223770E-01
         52   -1    0    0    0    0  0.00000000000E+00  0.00000000000E+00  0.64930732323E+04  0.65000000000E+04  0.30000000000E+03 0. -1.
        -52   -1    0    0    0    0 -0.00000000000E+00 -0.00000000000E+00 -0.64930732323E+04  0.65000000000E+04  0.30000000000E+03 0.  1.
     100001    1    1    2    0    0 -0.99053624843E+03  0.43569566650E+03  0.64075234667E+04  0.65000000000E+04  0.15050000000E+03 0. -1.
     100001    1    1    2    0    0  0.99053624843E+03 -0.43569566650E+03 -0.64075234667E+04  0.65000000000E+04  0.15050000000E+03 0.  1.
</event>
<event>
 4    1  0.4826743E-004  0.6500000E+04  0.7818608E-02  0.7223770E-01
         52   -1    0    0    0    0  0.00000000000E+00  0.00000000000E+00  0.64930732323E+04  0.65000000000E+04  0.30000000000E+03 0.  1.
        -52   -1    0    0    0    0 -0.00000000000E+00 -0.00000000000E+00 -0.64930732323E+04  0.65000000000E+04  0.30000000000E+03 0.  1.
     100001    1    1    2    0    0 -0.39094305189E+02 -0.21933938828E+03 -0.64944369747E+04  0.65000000000E+04  0.15050000000E+03 0.  1.
     100001    1    1    2    0    0  0.39094305189E+02  0.21933938828E+03  0.64944369747E+04  0.65000000000E+04  0.15050000000E+03 0.  1.
</event>
<event>
 4    1  0.4826743E-004  0.6500000E+04  0.7818608E-02  0.7223770E-01
         52   -1    0    0    0    0  0.00000000000E+00  0.00000000000E+00  0.64930732323E+04  0.65000000000E+04  0.30000000000E+03 0. -1.
        -52   -1    0    0    0    0 -0.00000000000E+00 -0.00000000000E+00 -0.64930732323E+04  0.65000000000E+04  0.30000000000E+03 0.  1.
     100001    1    1    2    0    0 -0.31842798801E+02 -0.22878155048E+04 -0.60821243001E+04  0.65000000000E+04  0.15050000000E+03 0.  1.
     100001    1    1    2    0    0  0.31842798801E+02  0.22878155048E+04  0.60821243001E+04  0.65000000000E+04  0.15050000000E+03 0. -1.
</event>
<event>
 4    1  0.4826743E-004  0.6500000E+04  0.7818608E-02  0.7223770E-01
         52   -1    0    0    0    0  0.00000000000E+00  0.00000000000E+00  0.64930732323E+04  0.65000000000E+04  0.30000000000E+03 0. -1.
        -52   -1    0    0    0    0 -0.00000000000E+00 -0.00000000000E+00 -0.64930732323E+04  0.65000000000E+04  0.30000000000E+03 0.  1.
     100001    1    1    2    0    0  0.73791110320E+03 -0.30749508784E+03  0.64488978690E+04  0.65000000000E+04  0.15050000000E+03 0. -1.
     100001    1    1    2    0    0 -0.73791110320E+03  0.30749508784E+03 -0.64488978690E+04  0.65000000000E+04  0.15050000000E+03 0.  1.
</event>
<event>
 4    1  0.4826743E-004  0.6500000E+04  0.7818608E-02  0.7223770E-01
         52   -1    0    0    0    0  0.00000000000E+00  0.00000000000E+00  0.64930732323E+04  0.65000000000E+04  0.30000000000E+03 0.  1.
        -52   -1    0    0    0    0 -0.00000000000E+00 -0.00000000000E+00 -0.64930732323E+04  0.65000000000E+04  0.30000000000E+03 0. -1.
     100001    1    1    2    0    0  0.12884130521E+03 -0.25077660387E+04 -0.59934847262E+04  0.65000000000E+04  0.15050000000E+03 0. -1.
     100001    1    1    2    0    0 -0.12884130521E+03  0.25077660387E+04  0.59934847262E+04  0.65000000000E+04  0.15050000000E+03 0.  1.
</event>
<event>
 4    1  0.4826743E-004  0.6500000E+04  0.7818608E-02  0.7223770E-01
         52   -1    0    0    0    0  0.00000000000E+00  0.00000000000E+00  0.64930732323E+04  0.65000000000E+04  0.30000000000E+03 0. -1.
        -52   -1    0    0    0    0 -0.00000000000E+00 -0.00000000000E+00 -0.64930732323E+04  0.65000000000E+04  0.30000000000E+03 0.  1.
     100001    1    1    2    0    0 -0.16780049928E+04  0.12190058544E+04 -0.61583823948E+04  0.65000000000E+04  0.15050000000E+03 0.  1.
     100001    1    1    2    0    0  0.16780049928E+04 -0.12190058544E+04  0.61583823948E+04  0.65000000000E+04  0.15050000000E+03 0. -1.
</event>
<event>
 4    1  0.4826743E-004  0.6500000E+04  0.7818608E-02  0.7223770E-01
         52   -1    0    0    0    0  0.00000000000E+00  0.00000000000E+00  0.64930732323E+04  0.65000000000E+04  0.30000000000E+03 0.  1.
        -52   -1    0    0    0    0 -0.00000000000E+00 -0.00000000000E+00 -0.64930732323E+04  0.65000000000E+04  0.30000000000E+03 0. -1.
     100001    1    1    2    0    0  0.24778348174E+03  0.85208309373E+03  0.64373835910E+04  0.65000000000E+04  0.15050000000E+03 0.  1.
     100001    1    1    2    0    0 -0.24778348174E+03 -0.85208309373E+03 -0.64373835910E+04  0.65000000000E+04  0.15050000000E+03 0. -1.
</event>
<event>
 4    1  0.4826743E-004  0.6500000E+04  0.7818608E-02  0.7223770E-01
         52   -1    0    0    0    0  0.00000000000E+00  0.00000000000E+00  0.64930732323E+04  0.65000000000E+04  0.30000000000E+03 0. -1.
        -52   -1    0    0    0    0 -0.00000000000E+00 -0.00000000000E+00 -0.64930732323E+04  0.65000000000E+04  0.30000000000E+03 0. -1.
     100001    1    1    2    0    0  0.22459148804E+03 -0.33114989105E+03 -0.64859269317E+04  0.65000000000E+04  0.15050000000E+03 0. -1.
     100001    1    1    2    0    0 -0.22459148804E+03  0.33114989105E+03  0.64859269317E+04  0.65000000000E+04  0.15050000000E+03 0. -1.
</event>
<event>
 4    1  0.4826743E-004  0.6500000E+04  0.7818608E-02  0.7223770E-01
         52   -1    0    0    0    0  0.00000000000E+00  0.00000000000E+00  0.64930732323E+04  0.65000000000E+04  0.30000000000E+03 0. -1.
        -52   -1    0    0    0    0 -0.00000000000E+00 -0.00000000000E+00 -0.64930732323E+04  0.65000000000E+04  0.30000000000E+03 0.  1.
     100001    1    1    2    0    0 -0.13763888410E+04 -0.11894859667E+04 -0.62384314249E+04  0.65000000000E+04  0.15050000000E+03 0.  1.
     100001    1    1    2    0    0  0.13763888410E+04  0.11894859667E+04  0.62384314249E+04  0.65000000000E+04  0.15050000000E+03 0. -1.
</event>
<event>
 4    1  0.5491537E-004  0.6500000E+04  0.7818608E-02  0.7223770E-01
         52   -1    0    0    0    0  0.00000000000E+00  0.00000000000E+00  0.64930732323E+04  0.65000000000E+04  0.30000000000E+03 0.  1.
        -52   -1    0    0    0    0 -0.00000000000E+00 -0.00000000000E+00 -0.64930732323E+04  0.65000000000E+04  0.30000000000E+03 0.  1.
     100001    1    1    2    0    0 -0.11428101382E+03 -0.55581194024E+02  0.64970147245E+04  0.65000000000E+04  0.15050000000E+03 0.  1.
     100001    1    1    2    0    0  0.11428101382E+03  0.55581194024E+02 -0.64970147245E+04  0.65000000000E+04  0.15050000000E+03 0.  1.
</event>
<event>
 4    1  0.4826743E-004  0.6500000E+04  0.7818608E-02  0.7223770E-01
         52   -1    0    0    0    0  0.00000000000E+00  0.00000000000E+00  0.64930732323E+04  0.65000000000E+04  0.30000000000E+03 0.  1.
        -52   -1    0    0    0    0 -0.00000000000E+00 -0.00000000000E+00 -0.64930732323E+04  0.65000000000E+04  0.30000000000E+03 0.  1.
     100001    1    1    2    0    0 -0.41484354703E+03 -0.53198675671E+03  0.64631451068E+04  0.65000000000E+04  0.15050000000E+03 0.  1.
     100001    1    1    2    0    0  0.41484354703E+03  0.53198675671E+03 -0.64631451068E+04  0.65000000000E+04  0.15050000000E+03 0.  1.
</event>
<event>
 4    1  0.4826743E-004  0.6500000E+04  0.7818608E-02  0.7223770E-01
         52   -1    0    0    0    0  0.00000000000E+00  0.00000000000E+00  0.64930732323E+04  0.65000000000E+04  0.30000000000E+03 0.  1.
        -52   -1    0    0    0    0 -0.00000000000E+00 -0.00000000000E+00 -0.64930732323E+04  0.65000000000E+04  0.30000000000E+03 0. -1.
     100001    1    1    2    0    0 -0.10865114785E+04 -0.18312267283E+04  0.61394992651E+04  0.65000000000E+04  0.15050000000E+03 0.  1.
     100001    1    1    2    0    0  0.10865114785E+04  0.18312267283E+04 -0.61394992651E+04  0.65000000000E+04  0.15050000000E+03 0. -1.
</event>
<event>
 4    1  0.6075076E-004  0.6500000E+04  0.7818608E-02  0.7223770E-01
         52   -1    0    0    0    0  0.00000000000E+00  0.00000000000E+00  0.64930732323E+04  0.65000000000E+04  0.30000000000E+03 0.  1.
        -52   -1    0    0    0    0 -0.00000000000E+00 -0.00000000000E+00 -0.64930732323E+04  0.65000000000E+04  0.30000000000E+03 0.  1.
     100001    1    1    2    0    0  0.29878261814E+02 -0.16595946603E+03  0.64960691572E+04  0.65000000000E+04  0.15050000000E+03 0.  1.
     100001    1    1    2    0    0 -0.29878261814E+02  0.16595946603E+03 -0.64960691572E+04  0.65000000000E+04  0.15050000000E+03 0.  1.
</event>
<event>
 4    1  0.4826743E-004  0.6500000E+04  0.7818608E-02  0.7223770E-01
         52   -1    0    0    0    0  0.00000000000E+00  0.00000000000E+00  0.64930732323E+04  0.65000000000E+04  0.30000000000E+03 0. -1.
        -52   -1    0    0    0    0 -0.00000000000E+00 -0.00000000000E+00 -0.64930732323E+04  0.65000000000E+04  0.30000000000E+03 0.  1.
     100001    1    1    2    0    0  0.27264596545E+03 -0.77764959310E+03 -0.64457951440E+04  0.65000000000E+04  0.15050000000E+03 0.  1.
     100001    1    1    2    0    0 -0.27264596545E+03  0.77764959310E+03  0.64457951440E+04  0.65000000000E+04  0.15050000000E+03 0. -1.
</event>
<event>
 4    1  0.4826743E-004  0.6500000E+04  0.7818608E-02  0.7223770E-01
         52   -1    0    0    0    0  0.00000000000E+00  0.00000000000E+00  0.64930732323E+04  0.65000000000E+04  0.30000000000E+03 0.  1.
        -52   -1    0    0    0    0 -0.00000000000E+00 -0.00000000000E+00 -0.64930732323E+04  0.65000000000E+04  0.30000000000E+03 0. -1.
     100001    1    1    2    0    0 -0.10614931998E+03  0.86150045419E+03  0.64400232173E+04  0.65000000000E+04  0.15050000000E+03 0.  1.
     100001    1    1    2    0    0  0.10614931998E+03 -0.86150045419E+03 -0.64400232173E+04  0.65000000000E+04  0.15050000000E+03 0. -1.
</event>
<event>
 4    1  0.4826743E-004  0.6500000E+04  0.7818608E-02  0.7223770E-01
         52   -1    0    0    0    0  0.00000000000E+00  0.00000000000E+00  0.64930732323E+04  0.65000000000E+04  0.30000000000E+03 0.  1.
        -52   -1    0    0    0    0 -0.00000000000E+00 -0.00000000000E+00 -0.64930732323E+04  0.65000000000E+04  0.30000000000E+03 0. -1.
     100001    1    1    2    0    0  0.15565675941E+04 -0.29904139248E+03 -0.63019855062E+04  0.65000000000E+04  0.15050000000E+03 0. -1.
     100001    1    1    2    0    0 -0.15565675941E+04  0.29904139248E+03  0.63019855062E+04  0.65000000000E+04  0.15050000000E+03 0.  1.
</event>
<event>
 4    1  0.4826743E-004  0.6500000E+04  0.7818608E-02  0.7223770E-01
         52   -1    0    0    0    0  0.00000000000E+00  0.00000000000E+00  0.64930732323E+04  0.65000000000E+04  0.30000000000E+03 0. -1.
        -52   -1    0    0    0    0 -0.00000000000E+00 -0.00000000000E+00 -0.64930732323E+04  0.65000000000E+04  0.30000000000E+03 0. -1.
     100001    1    1    2    0    0 -0.36995459037E+02 -0.13749802450E+04  0.63510164865E+04  0.65000000000E+04  0.15050000000E+03 0. -1.
     100001    1    1    2    0    0  0.36995459037E+02  0.13749802450E+04 -0.63510164865E+04  0.65000000000E+04  0.15050000000E+03 0. -1.
</event>
<event>
 4    1  0.4826743E-004  0.6500000E+04  0.7818608E-02  0.7223770E-01
         52   -1    0    0    0    0  0.00000000000E+00  0.00000000000E+00  0.64930732323E+04  0.65000000000E+04  0.30000000000E+03 0. -1.
        -52   -1    0    0    0    0 -0.00000000000E+00 -0.00000000000E+00 -0.64930732323E+04  0.65000000000E+04  0.30000000000E+03 0.  1.
     100001    1    1    2    0    0 -0.11269757998E+04 -0.17306182744E+03  0.63974467486E+04  0.65000000000E+04  0.15050000000E+03 0. -1.
     100001    1    1    2    0    0  0.11269757998E+04  0.17306182744E+03 -0.63974467486E+04  0.65000000000E+04  0.15050000000E+03 0.  1.
</event>
<event>
 4    1  0.4826743E-004  0.6500000E+04  0.7818608E-02  0.7223770E-01
         52   -1    0    0    0    0  0.00000000000E+00  0.00000000000E+00  0.64930732323E+04  0.65000000000E+04  0.30000000000E+03 0.  1.
        -52   -1    0    0    0    0 -0.00000000000E+00 -0.00000000000E+00 -0.64930732323E+04  0.65000000000E+04  0.30000000000E+03 0. -1.
     100001    1    1    2    0    0  0.23272984861E+04  0.92250828802E+03  0.59966665711E+04  0.65000000000E+04  0.15050000000E+03 0.  1.
     100001    1    1    2    0    0 -0.23272984861E+04 -0.92250828802E+03 -0.59966665711E+04  0.65000000000E+04  0.15050000000E+03 0. -1.
</event>
<event>
 4    1  0.4826743E-004  0.6500000E+04  0.7818608E-02  0.7223770E-01
         52   -1    0    0    0    0  0.00000000000E+00  0.00000000000E+00  0.64930732323E+04  0.65000000000E+04  0.30000000000E+03 0.  1.
        -52   -1    0    0    0    0 -0.00000000000E+00 -0.00000000000E+00 -0.64930732323E+04  0.65000000000E+04  0.30000000000E+03 0. -1.
     100001    1    1    2    0    0 -0.71477439181E+03 -0.17412634308E+03 -0.64564794846E+04  0.65000000000E+04  0.15050000000E+03 0. -1.
     100001    1    1    2    0    0  0.71477439181E+03  0.17412634308E+03  0.64564794846E+04  0.65000000000E+04  0.15050000000E+03 0.  1.
</event>
<event>
 4    1  0.4826743E-004  0.6500000E+04  0.7818608E-02  0.7223770E-01
         52   -1    0    0    0    0  0.00000000000E+00  0.00000000000E+00  0.64930732323E+04  0.65000000000E+04  0.30000000000E+03 0.  1.
        -52   -1    0    0    0    0 -0.00000000000E+00 -0.00000000000E+00 -0.64930732323E+04  0.65000000000E+04  0.30000000000E+03 0. -1.
     100001    1    1    2    0    0 -0.57832142813E+04 -0.22971527662E+04 -0.18721302026E+04  0.65000000000E+04  0.15050000000E+03 0.  1.
     100001    1    1    2    0    0  0.57832142813E+04  0.22971527662E+04  0.18721302026E+04  0.65000000000E+04  0.15050000000E+03 0. -1.
</event>
<event>
 4    1  0.4826743E-004  0.6500000E+04  0.7818608E-02  0.7223770E-01
         52   -1    0    0    0    0  0.00000000000E+00  0.00000000000E+00  0.64930732323E+04  0.65000000000E+04  0.30000000000E+03 0.  1.
        -52   -1    0    0    0    0 -0.00000000000E+00 -0.00000000000E+00 -0.64930732323E+04  0.65000000000E+04  0.30000000000E+03 0. -1.
     100001    1    1    2    0    0  0.28364576236E+04  0.59444648658E+03 -0.58162265494E+04  0.65000000000E+04  0.15050000000E+03 0. -1.
     100001    1    1    2    0    0 -0.28364576236E+04 -0.59444648658E+03  0.58162265494E+04  0.65000000000E+04  0.15050000000E+03 0.  1.
</event>
<event>
 4    1  0.4826743E-004  0.6500000E+04  0.7818608E-02  0.7223770E-01
         52   -1    0    0    0    0  0.00000000000E+00  0.00000000000E+00  0.64930732323E+04  0.65000000000E+04  0.30000000000E+03 0. -1.
        -52   -1    0    0    0    0 -0.00000000000E+00 -0.00000000000E+00 -0.64930732323E+04  0.65000000000E+04  0.30000000000E+03 0.  1.
     100001    1    1    2    0    0 -0.78760345864E+02  0.34905275274E+03  0.64883980098E+04  0.65000000000E+04  0.15050000000E+03 0. -1.
     100001    1    1    2    0    0  0.78760345864E+02 -0.34905275274E+03 -0.64883980098E+04  0.65000000000E+04  0.15050000000E+03 0.  1.
</event>
<event>
 4    1  0.4826743E-004  0.6500000E+04  0.7818608E-02  0.7223770E-01
         52   -1    0    0    0    0  0.00000000000E+00  0.00000000000E+00  0.64930732323E+04  0.65000000000E+04  0.30000000000E+03 0. -1.
        -52   -1    0    0    0    0 -0.00000000000E+00 -0.00000000000E+00 -0.64930732323E+04  0.65000000000E+04  0.30000000000E+03 0.  1.
     100001    1    1    2    0    0 -0.11554496013E+04  0.84182078931E+02 -0.63941535285E+04  0.65000000000E+04  0.15050000000E+03 0.  1.
     100001    1    1    2    0    0  0.11554496013E+04 -0.84182078931E+02  0.63941535285E+04  0.65000000000E+04  0.15050000000E+03 0. -1.
</event>
<event>
 4    1  0.6985620E-004  0.6500000E+04  0.7818608E-02  0.7223770E-01
         52   -1    0    0    0    0  0.00000000000E+00  0.00000000000E+00  0.64930732323E+04  0.65000000000E+04  0.30000000000E+03 0. -1.
        -52   -1    0    0    0    0 -0.00000000000E+00 -0.00000000000E+00 -0.64930732323E+04  0.65000000000E+04  0.30000000000E+03 0. -1.
     100001    1    1    2    0    0  0.33561157443E+02  0.76796358465E+02  0.64977169620E+04  0.65000000000E+04  0.15050000000E+03 0. -1.
     100001    1    1    2    0    0 -0.33561157443E+02 -0.76796358465E+02 -0.64977169620E+04  0.65000000000E+04  0.15050000000E+03 0. -1.
</event>
<event>
 4    1  0.4826743E-004  0.6500000E+04  0.7818608E-02  0.7223770E-01
         52   -1    0    0    0    0  0.00000000000E+00  0.00000000000E+00  0.64930732323E+04  0.65000000000E+04  0.30000000000E+03 0.  1.
        -52   -1    0    0    0    0 -0.00000000000E+00 -0.00000000000E+00 -0.64930732323E+04  0.65000000000E+04  0.30000000000E+03 0. -1.
     100001    1    1    2    0    0 -0.15940024361E+04 -0.32948749227E+04 -0.53693859265E+04  0.65000000000E+04  0.15050000000E+03 0. -1.
     100001    1    1    2    0    0  0.15940024361E+04  0.32948749227E+04  0.53693859265E+04  0.65000000000E+04  0.15050000000E+03 0.  1.
</event>
<event>
 4    1  0.4826743E-004  0.6500000E+04  0.7818608E-02  0.7223770E-01
         52   -1    0    0    0    0  0.00000000000E+00  0.00000000000E+00  0.64930732323E+04  0.65000000000E+04  0.30000000000E+03 0.  1.
        -52   -1    0    0    0    0 -0.00000000000E+00 -0.00000000000E+00 -0.64930732323E+04  0.65000000000E+04  0.30000000000E+03 0. -1.
     100001    1    1    2    0    0 -0.53209360590E+04  0.25121350628E+04  0.27575653451E+04  0.65000000000E+04  0.15050000000E+03 0.  1.
     100001    1    1    2    0    0  0.53209360590E+04 -0.25121350628E+04 -0.27575653451E+04  0.65000000000E+04  0.15050000000E+03 0. -1.
</event>
<event>
 4    1  0.4826743E-004  0.6500000E+04  0.7818608E-02  0.7223770E-01
         52   -1    0    0    0    0  0.00000000000E+00  0.00000000000E+00  0.64930732323E+04  0.65000000000E+04  0.30000000000E+03 0. -1.
        -52   -1    0    0    0    0 -0.00000000000E+00 -0.00000000000E+00 -0.64930732323E+04  0.65000000000E+04  0.30000000000E+03 0.  1.
     100001    1    1    2    0    0  0.64143209680E+02  0.10789051470E+04  0.64077452417E+04  0.65000000000E+04  0.15050000000E+03 0. -1.
     100001    1    1    2    0    0 -0.64143209680E+02 -0.10789051470E+04 -0.64077452417E+04  0.65000000000E+04  0.15050000000E+03 0.  1.
</event>
<event>
 4    1  0.4826743E-004  0.6500000E+04  0.7818608E-02  0.7223770E-01
         52   -1    0    0    0    0  0.00000000000E+00  0.00000000000E+00  0.64930732323E+04  0.65000000000E+04  0.30000000000E+03 0.  1.
        -52   -1    0    0    0    0 -0.00000000000E+00 -0.00000000000E+00 -0.64930732323E+04  0.65000000000E+04  0.30000000000E+03 0. -1.
     100001    1    1    2    0    0 -0.46207648960E+03  0.19977392596E+04 -0.61662689626E+04  0.65000000000E+04  0.15050000000E+03 0. -1.
     100001    1    1    2    0    0  0.46207648960E+03 -0.19977392596E+04  0.61662689626E+04  0.65000000000E+04  0.15050000000E+03 0.  1.
</event>
<event>
 4    1  0.4826743E-004  0.6500000E+04  0.7818608E-02  0.7223770E-01
         52   -1    0    0    0    0  0.00000000000E+00  0.00000000000E+00  0.64930732323E+04  0.65000000000E+04  0.30000000000E+03 0. -1.
        -52   -1    0    0    0    0 -0.00000000000E+00 -0.00000000000E+00 -0.64930732323E+04  0.65000000000E+04  0.30000000000E+03 0.  1.
     100001    1    1    2    0    0  0.43343029921E+03  0.13850225660E+04  0.63341298074E+04  0.65000000000E+04  0.15050000000E+03 0. -1.
     100001    1    1    2    0    0 -0.43343029921E+03 -0.13850225660E+04 -0.63341298074E+04  0.65000000000E+04  0.15050000000E+03 0.  1.
</event>
<event>
 4    1  0.4826743E-004  0.6500000E+04  0.7818608E-02  0.7223770E-01
         52   -1    0    0    0    0  0.00000000000E+00  0.00000000000E+00  0.64930732323E+04  0.65000000000E+04  0.30000000000E+03 0.  1.
        -52   -1    0    0    0    0 -0.00000000000E+00 -0.00000000000E+00 -0.64930732323E+04  0.65000000000E+04  0.30000000000E+03 0. -1.
     100001    1    1    2    0    0  0.14547239968E+04  0.89252486004E+01 -0.63333283653E+04  0.65000000000E+04  0.15050000000E+03 0. -1.
     100001    1    1    2    0    0 -0.14547239968E+04 -0.89252486004E+01  0.63333283653E+04  0.65000000000E+04  0.15050000000E+03 0.  1.
</event>
<event>
 4    1  0.4826743E-004  0.6500000E+04  0.7818608E-02  0.7223770E-01
         52   -1    0    0    0    0  0.00000000000E+00  0.00000000000E+00  0.64930732323E+04  0.65000000000E+04  0.30000000000E+03 0. -1.
        -52   -1    0    0    0    0 -0.00000000000E+00 -0.00000000000E+00 -0.64930732323E+04  0.65000000000E+04  0.30000000000E+03 0. -1.
     100001    1    1    2    0    0  0.33858681228E+03  0.54551396104E+03 -0.64664614156E+04  0.65000000000E+04  0.15050000000E+03 0. -1.
     100001    1    1    2    0    0 -0.33858681228E+03 -0.54551396104E+03  0.64664614156E+04  0.65000000000E+04  0.15050000000E+03 0. -1.
</event>
<event>
 4    1  0.4826743E-004  0.6500000E+04  0.7818608E-02  0.7223770E-01
         52   -1    0    0    0    0  0.00000000000E+00  0.00000000000E+00  0.64930732323E+04  0.65000000000E+04  0.30000000000E+03 0. -1.
        -52   -1    0    0    0    0 -0.00000000000E+00 -0.00000000000E+00 -0.64930732323E+04  0.65000000000E+04  0.30000000000E+03 0.  1.
     100001    1    1    2    0    0 -0.66513223031E+03  0.35905839087E+02 -0.64640281278E+04  0.65000000000E+04  0.15050000000E+03 0.  1.
     100001    1    1    2    0    0  0.66513223031E+03 -0.35905839087E+02  0.64640281278E+04  0.65000000000E+04  0.15050000000E+03 0. -1.
</event>
<event>
 4    1  0.4826743E-004  0.6500000E+04  0.7818608E-02  0.7223770E-01
         52   -1    0    0    0    0  0.00000000000E+00  0.00000000000E+00  0.64930732323E+04  0.65000000000E+04  0.30000000000E+03 0. -1.
        -52   -1    0    0    0    0 -0.00000000000E+00 -0.00000000000E+00 -0.64930732323E+04  0.65000000000E+04  0.30000000000E+03 0.  1.
     100001    1    1    2    0    0 -0.30813888594E+04 -0.33963882659E+04  0.46040133791E+04  0.65000000000E+04  0.15050000000E+03 0. -1.
     100001    1    1    2    0    0  0.30813888594E+04  0.33963882659E+04 -0.46040133791E+04  0.65000000000E+04  0.15050000000E+03 0.  1.
</event>
<event>
 4    1  0.4826743E-004  0.6500000E+04  0.7818608E-02  0.7223770E-01
         52   -1    0    0    0    0  0.00000000000E+00  0.00000000000E+00  0.64930732323E+04  0.65000000000E+04  0.30000000000E+03 0. -1.
        -52   -1    0    0    0    0 -0.00000000000E+00 -0.00000000000E+00 -0.64930732323E+04  0.65000000000E+04  0.30000000000E+03 0.  1.
     100001    1    1    2    0    0 -0.22692456951E+03  0.69575800847E+03  0.64569168946E+04  0.65000000000E+04  0.15050000000E+03 0. -1.
     100001    1    1    2    0    0  0.22692456951E+03 -0.69575800847E+03 -0.64569168946E+04  0.65000000000E+04  0.15050000000E+03 0.  1.
</event>
<event>
 4    1  0.4826743E-004  0.6500000E+04  0.7818608E-02  0.7223770E-01
         52   -1    0    0    0    0  0.00000000000E+00  0.00000000000E+00  0.64930732323E+04  0.65000000000E+04  0.30000000000E+03 0.  1.
        -52   -1    0    0    0    0 -0.00000000000E+00 -0.00000000000E+00 -0.64930732323E+04  0.65000000000E+04  0.30000000000E+03 0. -1.
     100001    1    1    2    0    0 -0.57369823795E+04 -0.17372048324E+04 -0.25092832238E+04  0.65000000000E+04  0.15050000000E+03 0. -1.
     100001    1    1    2    0    0  0.57369823795E+04  0.17372048324E+04  0.25092832238E+04  0.65000000000E+04  0.15050000000E+03 0.  1.
</event>
<event>
 4    1  0.4826743E-004  0.6500000E+04  0.7818608E-02  0.7223770E-01
         52   -1    0    0    0    0  0.00000000000E+00  0.00000000000E+00  0.64930732323E+04  0.65000000000E+04  0.30000000000E+03 0.  1.
        -52   -1    0    0    0    0 -0.00000000000E+00 -0.00000000000E+00 -0.64930732323E+04  0.65000000000E+04  0.30000000000E+03 0. -1.
     100001    1    1    2    0    0  0.41971178715E+03  0.50125049103E+04 -0.41141203543E+04  0.65000000000E+04  0.15050000000E+03 0. -1.
     100001    1    1    2    0    0 -0.41971178715E+03 -0.50125049103E+04  0.41141203543E+04  0.65000000000E+04  0.15050000000E+03 0.  1.
</event>
<event>
 4    1  0.4826743E-004  0.6500000E+04  0.7818608E-02  0.7223770E-01
         52   -1    0    0    0    0  0.00000000000E+00  0.00000000000E+00  0.64930732323E+04  0.65000000000E+04  0.30000000000E+03 0.  1.
        -52   -1    0    0    0    0 -0.00000000000E+00 -0.00000000000E+00 -0.64930732323E+04  0.65000000000E+04  0.30000000000E+03 0. -1.
     100001    1    1    2    0    0  0.30162409018E+03  0.44112296010E+03 -0.64762476167E+04  0.65000000000E+04  0.15050000000E+03 0. -1.
     100001    1    1    2    0    0 -0.30162409018E+03 -0.44112296010E+03  0.64762476167E+04  0.65000000000E+04  0.15050000000E+03 0.  1.
</event>
<event>
 4    1  0.4826743E-004  0.6500000E+04  0.7818608E-02  0.7223770E-01
         52   -1    0    0    0    0  0.00000000000E+00  0.00000000000E+00  0.64930732323E+04  0.65000000000E+04  0.30000000000E+03 0. -1.
        -52   -1    0    0    0    0 -0.00000000000E+00 -0.00000000000E+00 -0.64930732323E+04  0.65000000000E+04  0.30000000000E+03 0. -1.
     100001    1    1    2    0    0 -0.24299063924E+03  0.10106687138E+03 -0.64929262114E+04  0.65000000000E+04  0.15050000000E+03 0. -1.
     100001    1    1    2    0    0  0.24299063924E+03 -0.10106687138E+03  0.64929262114E+04  0.65000000000E+04  0.15050000000E+03 0. -1.
</event>
<event>
 4    1  0.4826743E-004  0.6500000E+04  0.7818608E-02  0.7223770E-01
         52   -1    0    0    0    0  0.00000000000E+00  0.00000000000E+00  0.64930732323E+04  0.65000000000E+04  0.30000000000E+03 0. -1.
        -52   -1    0    0    0    0 -0.00000000000E+00 -0.00000000000E+00 -0.64930732323E+04  0.65000000000E+04  0.30000000000E+03 0.  1.
     100001    1    1    2    0    0 -0.60642200208E+04 -0.22938054970E+04  0.43708309363E+03  0.65000000000E+04  0.15050000000E+03 0. -1.
     100001    1    1    2    0    0  0.60642200208E+04  0.22938054970E+04 -0.43708309363E+03  0.65000000000E+04  0.15050000000E+03 0.  1.
</event>
<event>
 4    1  0.4826743E-004  0.6500000E+04  0.7818608E-02  0.7223770E-01
         52   -1    0    0    0    0  0.00000000000E+00  0.00000000000E+00  0.64930732323E+04  0.65000000000E+04  0.30000000000E+03 0.  1.
        -52   -1    0    0    0    0 -0.00000000000E+00 -0.00000000000E+00 -0.64930732323E+04  0.65000000000E+04  0.30000000000E+03 0. -1.
     100001    1    1    2    0    0 -0.55451899495E+04 -0.16617247444E+04 -0.29524378144E+04  0.65000000000E+04  0.15050000000E+03 0. -1.
     100001    1    1    2    0    0  0.55451899495E+04  0.16617247444E+04  0.29524378144E+04  0.65000000000E+04  0.15050000000E+03 0.  1.
</event>
<event>
 4    1  0.4826743E-004  0.6500000E+04  0.7818608E-02  0.7223770E-01
         52   -1    0    0    0    0  0.00000000000E+00  0.00000000000E+00  0.64930732323E+04  0.65000000000E+04  0.30000000000E+03 0. -1.
        -52   -1    0    0    0    0 -0.00000000000E+00 -0.00000000000E+00 -0.64930732323E+04  0.65000000000E+04  0.30000000000E+03 0.  1.
     100001    1    1    2    0    0  0.24444615242E+03 -0.59241127825E+03  0.64665790574E+04  0.65000000000E+04  0.15050000000E+03 0. -1.
     100001    1    1    2    0    0 -0.24444615242E+03  0.59241127825E+03 -0.64665790574E+04  0.65000000000E+04  0.15050000000E+03 0.  1.
</event>
<event>
 4    1  0.4826743E-004  0.6500000E+04  0.7818608E-02  0.7223770E-01
         52   -1    0    0    0    0  0.00000000000E+00  0.00000000000E+00  0.64930732323E+04  0.65000000000E+04  0.30000000000E+03 0. -1.
        -52   -1    0    0    0    0 -0.00000000000E+00 -0.00000000000E+00 -0.64930732323E+04  0.65000000000E+04  0.30000000000E+03 0.  1.
     100001    1    1    2    0    0  0.48954907057E+03 -0.32130923283E+03 -0.64718198240E+04  0.65000000000E+04  0.15050000000E+03 0.  1.
     100001    1    1    2    0    0 -0.48954907057E+03  0.32130923283E+03  0.64718198240E+04  0.65000000000E+04  0.15050000000E+03 0. -1.
</event>
<event>
 4    1  0.4826743E-004  0.6500000E+04  0.7818608E-02  0.7223770E-01
         52   -1    0    0    0    0  0.00000000000E+00  0.00000000000E+00  0.64930732323E+04  0.65000000000E+04  0.30000000000E+03 0.  1.
        -52   -1    0    0    0    0 -0.00000000000E+00 -0.00000000000E+00 -0.64930732323E+04  0.65000000000E+04  0.30000000000E+03 0.  1.
     100001    1    1    2    0    0  0.24287532890E+03 -0.25487361355E+02  0.64936670471E+04  0.65000000000E+04  0.15050000000E+03 0.  1.
     100001    1    1    2    0    0 -0.24287532890E+03  0.25487361355E+02 -0.64936670471E+04  0.65000000000E+04  0.15050000000E+03 0.  1.
</event>
<event>
 4    1  0.4826743E-004  0.6500000E+04  0.7818608E-02  0.7223770E-01
         52   -1    0    0    0    0  0.00000000000E+00  0.00000000000E+00  0.64930732323E+04  0.65000000000E+04  0.30000000000E+03 0. -1.
        -52   -1    0    0    0    0 -0.00000000000E+00 -0.00000000000E+00 -0.64930732323E+04  0.65000000000E+04  0.30000000000E+03 0.  1.
     100001    1    1    2    0    0 -0.12650271935E+04  0.98804178705E+03  0.62968904530E+04  0.65000000000E+04  0.15050000000E+03 0. -1.
     100001    1    1    2    0    0  0.12650271935E+04 -0.98804178705E+03 -0.62968904530E+04  0.65000000000E+04  0.15050000000E+03 0.  1.
</event>
<event>
 4    1  0.4826743E-004  0.6500000E+04  0.7818608E-02  0.7223770E-01
         52   -1    0    0    0    0  0.00000000000E+00  0.00000000000E+00  0.64930732323E+04  0.65000000000E+04  0.30000000000E+03 0.  1.
        -52   -1    0    0    0    0 -0.00000000000E+00 -0.00000000000E+00 -0.64930732323E+04  0.65000000000E+04  0.30000000000E+03 0. -1.
     100001    1    1    2    0    0 -0.82327475391E+03  0.15832789422E+04  0.62484234988E+04  0.65000000000E+04  0.15050000000E+03 0.  1.
     100001    1    1    2    0    0  0.82327475391E+03 -0.15832789422E+04 -0.62484234988E+04  0.65000000000E+04  0.15050000000E+03 0. -1.
</event>
<event>
 4    1  0.4826743E-004  0.6500000E+04  0.7818608E-02  0.7223770E-01
         52   -1    0    0    0    0  0.00000000000E+00  0.00000000000E+00  0.64930732323E+04  0.65000000000E+04  0.30000000000E+03 0. -1.
        -52   -1    0    0    0    0 -0.00000000000E+00 -0.00000000000E+00 -0.64930732323E+04  0.65000000000E+04  0.30000000000E+03 0.  1.
     100001    1    1    2    0    0 -0.48756465978E+04 -0.22366175488E+04  0.36678279599E+04  0.65000000000E+04  0.15050000000E+03 0. -1.
     100001    1    1    2    0    0  0.48756465978E+04  0.22366175488E+04 -0.36678279599E+04  0.65000000000E+04  0.15050000000E+03 0.  1.
</event>
<event>
 4    1  0.4826743E-004  0.6500000E+04  0.7818608E-02  0.7223770E-01
         52   -1    0    0    0    0  0.00000000000E+00  0.00000000000E+00  0.64930732323E+04  0.65000000000E+04  0.30000000000E+03 0.  1.
        -52   -1    0    0    0    0 -0.00000000000E+00 -0.00000000000E+00 -0.64930732323E+04  0.65000000000E+04  0.30000000000E+03 0. -1.
     100001    1    1    2    0    0 -0.50708469851E+04 -0.26957817327E+04 -0.30408257847E+04  0.65000000000E+04  0.15050000000E+03 0. -1.
     100001    1    1    2    0    0  0.50708469851E+04  0.26957817327E+04  0.30408257847E+04  0.65000000000E+04  0.15050000000E+03 0.  1.
</event>
<event>
 4    1  0.4826743E-004  0.6500000E+04  0.7818608E-02  0.7223770E-01
         52   -1    0    0    0    0  0.00000000000E+00  0.00000000000E+00  0.64930732323E+04  0.65000000000E+04  0.30000000000E+03 0. -1.
        -52   -1    0    0    0    0 -0.00000000000E+00 -0.00000000000E+00 -0.64930732323E+04  0.65000000000E+04  0.30000000000E+03 0.  1.
     100001    1    1    2    0    0  0.53655262041E+04 -0.21349414915E+04  0.29800173038E+04  0.65000000000E+04  0.15050000000E+03 0. -1.
     100001    1    1    2    0    0 -0.53655262041E+04  0.21349414915E+04 -0.29800173038E+04  0.65000000000E+04  0.15050000000E+03 0.  1.
</event>
<event>
 4    1  0.4826743E-004  0.6500000E+04  0.7818608E-02  0.7223770E-01
         52   -1    0    0    0    0  0.00000000000E+00  0.00000000000E+00  0.64930732323E+04  0.65000000000E+04  0.30000000000E+03 0. -1.
        -52   -1    0    0    0    0 -0.00000000000E+00 -0.00000000000E+00 -0.64930732323E+04  0.65000000000E+04  0.30000000000E+03 0.  1.
     100001    1    1    2    0    0 -0.78461152530E+03 -0.78943533176E+03 -0.64022282341E+04  0.65000000000E+04  0.15050000000E+03 0.  1.
     100001    1    1    2    0    0  0.78461152530E+03  0.78943533176E+03  0.64022282341E+04  0.65000000000E+04  0.15050000000E+03 0. -1.
</event>
<event>
 4    1  0.4826743E-004  0.6500000E+04  0.7818608E-02  0.7223770E-01
         52   -1    0    0    0    0  0.00000000000E+00  0.00000000000E+00  0.64930732323E+04  0.65000000000E+04  0.30000000000E+03 0. -1.
        -52   -1    0    0    0    0 -0.00000000000E+00 -0.00000000000E+00 -0.64930732323E+04  0.65000000000E+04  0.30000000000E+03 0.  1.
     100001    1    1    2    0    0 -0.17514027749E+03  0.18493630153E+04  0.62270805415E+04  0.65000000000E+04  0.15050000000E+03 0. -1.
     100001    1    1    2    0    0  0.17514027749E+03 -0.18493630153E+04 -0.62270805415E+04  0.65000000000E+04  0.15050000000E+03 0.  1.
</event>
<event>
 4    1  0.4826743E-004  0.6500000E+04  0.7818608E-02  0.7223770E-01
         52   -1    0    0    0    0  0.00000000000E+00  0.00000000000E+00  0.64930732323E+04  0.65000000000E+04  0.30000000000E+03 0.  1.
        -52   -1    0    0    0    0 -0.00000000000E+00 -0.00000000000E+00 -0.64930732323E+04  0.65000000000E+04  0.30000000000E+03 0. -1.
     100001    1    1    2    0    0  0.26076892661E+03 -0.95485989680E+02 -0.64923209827E+04  0.65000000000E+04  0.15050000000E+03 0. -1.
     100001    1    1    2    0    0 -0.26076892661E+03  0.95485989680E+02  0.64923209827E+04  0.65000000000E+04  0.15050000000E+03 0.  1.
</event>
<event>
 4    1  0.4826743E-004  0.6500000E+04  0.7818608E-02  0.7223770E-01
         52   -1    0    0    0    0  0.00000000000E+00  0.00000000000E+00  0.64930732323E+04  0.65000000000E+04  0.30000000000E+03 0. -1.
        -52   -1    0    0    0    0 -0.00000000000E+00 -0.00000000000E+00 -0.64930732323E+04  0.65000000000E+04  0.30000000000E+03 0.  1.
     100001    1    1    2    0    0  0.24023177549E+04  0.19570632972E+04 -0.57119280812E+04  0.65000000000E+04  0.15050000000E+03 0.  1.
     100001    1    1    2    0    0 -0.24023177549E+04 -0.19570632972E+04  0.57119280812E+04  0.65000000000E+04  0.15050000000E+03 0. -1.
</event>
<event>
 4    1  0.4826743E-004  0.6500000E+04  0.7818608E-02  0.7223770E-01
         52   -1    0    0    0    0  0.00000000000E+00  0.00000000000E+00  0.64930732323E+04  0.65000000000E+04  0.30000000000E+03 0.  1.
        -52   -1    0    0    0    0 -0.00000000000E+00 -0.00000000000E+00 -0.64930732323E+04  0.65000000000E+04  0.30000000000E+03 0. -1.
     100001    1    1    2    0    0 -0.23639978287E+04  0.80206660451E+03  0.59996294200E+04  0.65000000000E+04  0.15050000000E+03 0.  1.
     100001    1    1    2    0    0  0.23639978287E+04 -0.80206660451E+03 -0.59996294200E+04  0.65000000000E+04  0.15050000000E+03 0. -1.
</event>
<event>
 4    1  0.4826743E-004  0.6500000E+04  0.7818608E-02  0.7223770E-01
         52   -1    0    0    0    0  0.00000000000E+00  0.00000000000E+00  0.64930732323E+04  0.65000000000E+04  0.30000000000E+03 0.  1.
        -52   -1    0    0    0    0 -0.00000000000E+00 -0.00000000000E+00 -0.64930732323E+04  0.65000000000E+04  0.30000000000E+03 0.  1.
     100001    1    1    2    0    0 -0.18677222687E+02  0.69677115455E+02 -0.64978570322E+04  0.65000000000E+04  0.15050000000E+03 0.  1.
     100001    1    1    2    0    0  0.18677222687E+02 -0.69677115455E+02  0.64978570322E+04  0.65000000000E+04  0.15050000000E+03 0.  1.
</event>
<event>
 4    1  0.4826743E-004  0.6500000E+04  0.7818608E-02  0.7223770E-01
         52   -1    0    0    0    0  0.00000000000E+00  0.00000000000E+00  0.64930732323E+04  0.65000000000E+04  0.30000000000E+03 0. -1.
        -52   -1    0    0    0    0 -0.00000000000E+00 -0.00000000000E+00 -0.64930732323E+04  0.65000000000E+04  0.30000000000E+03 0.  1.
     100001    1    1    2    0    0 -0.43026131816E+04  0.38697153019E+04  0.29563783659E+04  0.65000000000E+04  0.15050000000E+03 0. -1.
     100001    1    1    2    0    0  0.43026131816E+04 -0.38697153019E+04 -0.29563783659E+04  0.65000000000E+04  0.15050000000E+03 0.  1.
</event>
<event>
 4    1  0.4826743E-004  0.6500000E+04  0.7818608E-02  0.7223770E-01
         52   -1    0    0    0    0  0.00000000000E+00  0.00000000000E+00  0.64930732323E+04  0.65000000000E+04  0.30000000000E+03 0.  1.
        -52   -1    0    0    0    0 -0.00000000000E+00 -0.00000000000E+00 -0.64930732323E+04  0.65000000000E+04  0.30000000000E+03 0. -1.
     100001    1    1    2    0    0  0.27470481920E+04  0.31175600124E+04  0.49961881019E+04  0.65000000000E+04  0.15050000000E+03 0.  1.
     100001    1    1    2    0    0 -0.27470481920E+04 -0.31175600124E+04 -0.49961881019E+04  0.65000000000E+04  0.15050000000E+03 0. -1.
</event>
<event>
 4    1  0.4826743E-004  0.6500000E+04  0.7818608E-02  0.7223770E-01
         52   -1    0    0    0    0  0.00000000000E+00  0.00000000000E+00  0.64930732323E+04  0.65000000000E+04  0.30000000000E+03 0.  1.
        -52   -1    0    0    0    0 -0.00000000000E+00 -0.00000000000E+00 -0.64930732323E+04  0.65000000000E+04  0.30000000000E+03 0. -1.
     100001    1    1    2    0    0 -0.65679430571E+03  0.27367563525E+03 -0.64591851372E+04  0.65000000000E+04  0.15050000000E+03 0. -1.
     100001    1    1    2    0    0  0.65679430571E+03 -0.27367563525E+03  0.64591851372E+04  0.65000000000E+04  0.15050000000E+03 0.  1.
</event>
<event>
 4    1  0.4826743E-004  0.6500000E+04  0.7818608E-02  0.7223770E-01
         52   -1    0    0    0    0  0.00000000000E+00  0.00000000000E+00  0.64930732323E+04  0.65000000000E+04  0.30000000000E+03 0. -1.
        -52   -1    0    0    0    0 -0.00000000000E+00 -0.00000000000E+00 -0.64930732323E+04  0.65000000000E+04  0.30000000000E+03 0.  1.
     100001    1    1    2    0    0  0.10069222214E+04  0.17001551609E+03 -0.64175191557E+04  0.65000000000E+04  0.15050000000E+03 0.  1.
     100001    1    1    2    0    0 -0.10069222214E+04 -0.17001551609E+03  0.64175191557E+04  0.65000000000E+04  0.15050000000E+03 0. -1.
</event>
<event>
 4    1  0.4826743E-004  0.6500000E+04  0.7818608E-02  0.7223770E-01
         52   -1    0    0    0    0  0.00000000000E+00  0.00000000000E+00  0.64930732323E+04  0.65000000000E+04  0.30000000000E+03 0.  1.
        -52   -1    0    0    0    0 -0.00000000000E+00 -0.00000000000E+00 -0.64930732323E+04  0.65000000000E+04  0.30000000000E+03 0. -1.
     100001    1    1    2    0    0 -0.63709755319E+03 -0.19717821386E+03 -0.64639444003E+04  0.65000000000E+04  0.15050000000E+03 0. -1.
     100001    1    1    2    0    0  0.63709755319E+03  0.19717821386E+03  0.64639444003E+04  0.65000000000E+04  0.15050000000E+03 0.  1.
</event>
<event>
 4    1  0.4826743E-004  0.6500000E+04  0.7818608E-02  0.7223770E-01
         52   -1    0    0    0    0  0.00000000000E+00  0.00000000000E+00  0.64930732323E+04  0.65000000000E+04  0.30000000000E+03 0.  1.
        -52   -1    0    0    0    0 -0.00000000000E+00 -0.00000000000E+00 -0.64930732323E+04  0.65000000000E+04  0.30000000000E+03 0. -1.
     100001    1    1    2    0    0 -0.38043658565E+03  0.67704178706E+03  0.64516844446E+04  0.65000000000E+04  0.15050000000E+03 0.  1.
     100001    1    1    2    0    0  0.38043658565E+03 -0.67704178706E+03 -0.64516844446E+04  0.65000000000E+04  0.15050000000E+03 0. -1.
</event>
<event>
 4    1  0.4826743E-004  0.6500000E+04  0.7818608E-02  0.7223770E-01
         52   -1    0    0    0    0  0.00000000000E+00  0.00000000000E+00  0.64930732323E+04  0.65000000000E+04  0.30000000000E+03 0.  1.
        -52   -1    0    0    0    0 -0.00000000000E+00 -0.00000000000E+00 -0.64930732323E+04  0.65000000000E+04  0.30000000000E+03 0. -1.
     100001    1    1    2    0    0  0.93742120360E+03  0.15053961176E+04 -0.62515896991E+04  0.65000000000E+04  0.15050000000E+03 0. -1.
     100001    1    1    2    0    0 -0.93742120360E+03 -0.15053961176E+04  0.62515896991E+04  0.65000000000E+04  0.15050000000E+03 0.  1.
</event>
<event>
 4    1  0.4826743E-004  0.6500000E+04  0.7818608E-02  0.7223770E-01
         52   -1    0    0    0    0  0.00000000000E+00  0.00000000000E+00  0.64930732323E+04  0.65000000000E+04  0.30000000000E+03 0. -1.
        -52   -1    0    0    0    0 -0.00000000000E+00 -0.00000000000E+00 -0.64930732323E+04  0.65000000000E+04  0.30000000000E+03 0.  1.
     100001    1    1    2    0    0 -0.23942683641E+03  0.24310212319E+03 -0.64892931740E+04  0.65000000000E+04  0.15050000000E+03 0.  1.
     100001    1    1    2    0    0  0.23942683641E+03 -0.24310212319E+03  0.64892931740E+04  0.65000000000E+04  0.15050000000E+03 0. -1.
</event>
<event>
 4    1  0.4826743E-004  0.6500000E+04  0.7818608E-02  0.7223770E-01
         52   -1    0    0    0    0  0.00000000000E+00  0.00000000000E+00  0.64930732323E+04  0.65000000000E+04  0.30000000000E+03 0. -1.
        -52   -1    0    0    0    0 -0.00000000000E+00 -0.00000000000E+00 -0.64930732323E+04  0.65000000000E+04  0.30000000000E+03 0.  1.
     100001    1    1    2    0    0 -0.56687464260E+04 -0.29949950993E+04 -0.10595603160E+04  0.65000000000E+04  0.15050000000E+03 0.  1.
     100001    1    1    2    0    0  0.56687464260E+04  0.29949950993E+04  0.10595603160E+04  0.65000000000E+04  0.15050000000E+03 0. -1.
</event>
<event>
 4    1  0.4826743E-004  0.6500000E+04  0.7818608E-02  0.7223770E-01
         52   -1    0    0    0    0  0.00000000000E+00  0.00000000000E+00  0.64930732323E+04  0.65000000000E+04  0.30000000000E+03 0.  1.
        -52   -1    0    0    0    0 -0.00000000000E+00 -0.00000000000E+00 -0.64930732323E+04  0.65000000000E+04  0.30000000000E+03 0. -1.
     100001    1    1    2    0    0  0.14696560772E+03  0.78878548774E+03  0.64485322605E+04  0.65000000000E+04  0.15050000000E+03 0.  1.
     100001    1    1    2    0    0 -0.14696560772E+03 -0.78878548774E+03 -0.64485322605E+04  0.65000000000E+04  0.15050000000E+03 0. -1.
</event>
<event>
 4    1  0.4826743E-004  0.6500000E+04  0.7818608E-02  0.7223770E-01
         52   -1    0    0    0    0  0.00000000000E+00  0.00000000000E+00  0.64930732323E+04  0.65000000000E+04  0.30000000000E+03 0.  1.
        -52   -1    0    0    0    0 -0.00000000000E+00 -0.00000000000E+00 -0.64930732323E+04  0.65000000000E+04  0.30000000000E+03 0. -1.
     100001    1    1    2    0    0  0.37932824680E+04 -0.19356215497E+04 -0.49083324138E+04  0.65000000000E+04  0.15050000000E+03 0. -1.
     100001    1    1    2    0    0 -0.37932824680E+04  0.19356215497E+04  0.49083324138E+04  0.65000000000E+04  0.15050000000E+03 0.  1.
</event>
<event>
 4    1  0.4826743E-004  0.6500000E+04  0.7818608E-02  0.7223770E-01
         52   -1    0    0    0    0  0.00000000000E+00  0.00000000000E+00  0.64930732323E+04  0.65000000000E+04  0.30000000000E+03 0.  1.
        -52   -1    0    0    0    0 -0.00000000000E+00 -0.00000000000E+00 -0.64930732323E+04  0.65000000000E+04  0.30000000000E+03 0. -1.
     100001    1    1    2    0    0 -0.16596673354E+04  0.62307204588E+04  0.80683124045E+03  0.65000000000E+04  0.15050000000E+03 0. -1.
     100001    1    1    2    0    0  0.16596673354E+04 -0.62307204588E+04 -0.80683124045E+03  0.65000000000E+04  0.15050000000E+03 0.  1.
</event>
<event>
 4    1  0.4826743E-004  0.6500000E+04  0.7818608E-02  0.7223770E-01
         52   -1    0    0    0    0  0.00000000000E+00  0.00000000000E+00  0.64930732323E+04  0.65000000000E+04  0.30000000000E+03 0.  1.
        -52   -1    0    0    0    0 -0.00000000000E+00 -0.00000000000E+00 -0.64930732323E+04  0.65000000000E+04  0.30000000000E+03 0. -1.
     100001    1    1    2    0    0  0.16339631511E+04  0.21412582750E+04 -0.59137574494E+04  0.65000000000E+04  0.15050000000E+03 0.  1.
     100001    1    1    2    0    0 -0.16339631511E+04 -0.21412582750E+04  0.59137574494E+04  0.65000000000E+04  0.15050000000E+03 0. -1.
</event>
<event>
 4    1  0.4826743E-004  0.6500000E+04  0.7818608E-02  0.7223770E-01
         52   -1    0    0    0    0  0.00000000000E+00  0.00000000000E+00  0.64930732323E+04  0.65000000000E+04  0.30000000000E+03 0.  1.
        -52   -1    0    0    0    0 -0.00000000000E+00 -0.00000000000E+00 -0.64930732323E+04  0.65000000000E+04  0.30000000000E+03 0. -1.
     100001    1    1    2    0    0  0.99269379491E+03 -0.41014607815E+03 -0.64088757964E+04  0.65000000000E+04  0.15050000000E+03 0. -1.
     100001    1    1    2    0    0 -0.99269379491E+03  0.41014607815E+03  0.64088757964E+04  0.65000000000E+04  0.15050000000E+03 0.  1.
</event>
<event>
 4    1  0.4826743E-004  0.6500000E+04  0.7818608E-02  0.7223770E-01
         52   -1    0    0    0    0  0.00000000000E+00  0.00000000000E+00  0.64930732323E+04  0.65000000000E+04  0.30000000000E+03 0. -1.
        -52   -1    0    0    0    0 -0.00000000000E+00 -0.00000000000E+00 -0.64930732323E+04  0.65000000000E+04  0.30000000000E+03 0.  1.
     100001    1    1    2    0    0 -0.79559531415E+03 -0.40909212555E+03 -0.64363826393E+04  0.65000000000E+04  0.15050000000E+03 0.  1.
     100001    1    1    2    0    0  0.79559531415E+03  0.40909212555E+03  0.64363826393E+04  0.65000000000E+04  0.15050000000E+03 0. -1.
</event>
<event>
 4    1  0.4826743E-004  0.6500000E+04  0.7818608E-02  0.7223770E-01
         52   -1    0    0    0    0  0.00000000000E+00  0.00000000000E+00  0.64930732323E+04  0.65000000000E+04  0.30000000000E+03 0.  1.
        -52   -1    0    0    0    0 -0.00000000000E+00 -0.00000000000E+00 -0.64930732323E+04  0.65000000000E+04  0.30000000000E+03 0. -1.
     100001    1    1    2    0    0  0.19617398220E+04  0.14150695817E+04  0.60312937832E+04  0.65000000000E+04  0.15050000000E+03 0.  1.
     100001    1    1    2    0    0 -0.19617398220E+04 -0.14150695817E+04 -0.60312937832E+04  0.65000000000E+04  0.15050000000E+03 0. -1.
</event>
<event>
 4    1  0.4826743E-004  0.6500000E+04  0.7818608E-02  0.7223770E-01
         52   -1    0    0    0    0  0.00000000000E+00  0.00000000000E+00  0.64930732323E+04  0.65000000000E+04  0.30000000000E+03 0.  1.
        -52   -1    0    0    0    0 -0.00000000000E+00 -0.00000000000E+00 -0.64930732323E+04  0.65000000000E+04  0.30000000000E+03 0. -1.
     100001    1    1    2    0    0  0.67453652513E+03 -0.78012173327E+03 -0.64158990257E+04  0.65000000000E+04  0.15050000000E+03 0. -1.
     100001    1    1    2    0    0 -0.67453652513E+03  0.78012173327E+03  0.64158990257E+04  0.65000000000E+04  0.15050000000E+03 0.  1.
</event>
<event>
 4    1  0.4826743E-004  0.6500000E+04  0.7818608E-02  0.7223770E-01
         52   -1    0    0    0    0  0.00000000000E+00  0.00000000000E+00  0.64930732323E+04  0.65000000000E+04  0.30000000000E+03 0.  1.
        -52   -1    0    0    0    0 -0.00000000000E+00 -0.00000000000E+00 -0.64930732323E+04  0.65000000000E+04  0.30000000000E+03 0. -1.
     100001    1    1    2    0    0  0.90804822170E+03 -0.14676357737E+04 -0.62648897367E+04  0.65000000000E+04  0.15050000000E+03 0. -1.
     100001    1    1    2    0    0 -0.90804822170E+03  0.14676357737E+04  0.62648897367E+04  0.65000000000E+04  0.15050000000E+03 0.  1.
</event>
<event>
 4    1  0.6786761E-004  0.6500000E+04  0.7818608E-02  0.7223770E-01
         52   -1    0    0    0    0  0.00000000000E+00  0.00000000000E+00  0.64930732323E+04  0.65000000000E+04  0.30000000000E+03 0. -1.
        -52   -1    0    0    0    0 -0.00000000000E+00 -0.00000000000E+00 -0.64930732323E+04  0.65000000000E+04  0.30000000000E+03 0. -1.
     100001    1    1    2    0    0  0.90925127994E+02 -0.29843717578E+02  0.64975527488E+04  0.65000000000E+04  0.15050000000E+03 0. -1.
     100001    1    1    2    0    0 -0.90925127994E+02  0.29843717578E+02 -0.64975527488E+04  0.65000000000E+04  0.15050000000E+03 0. -1.
</event>
<event>
 4    1  0.4826743E-004  0.6500000E+04  0.7818608E-02  0.7223770E-01
         52   -1    0    0    0    0  0.00000000000E+00  0.00000000000E+00  0.64930732323E+04  0.65000000000E+04  0.30000000000E+03 0.  1.
        -52   -1    0    0    0    0 -0.00000000000E+00 -0.00000000000E+00 -0.64930732323E+04  0.65000000000E+04  0.30000000000E+03 0. -1.
     100001    1    1    2    0    0  0.39223428611E+02 -0.26106401508E+03  0.64928927954E+04  0.65000000000E+04  0.15050000000E+03 0.  1.
     100001    1    1    2    0    0 -0.39223428611E+02  0.26106401508E+03 -0.64928927954E+04  0.65000000000E+04  0.15050000000E+03 0. -1.
</event>
<event>
 4    1  0.4826743E-004  0.6500000E+04  0.7818608E-02  0.7223770E-01
         52   -1    0    0    0    0  0.00000000000E+00  0.00000000000E+00  0.64930732323E+04  0.65000000000E+04  0.30000000000E+03 0.  1.
        -52   -1    0    0    0    0 -0.00000000000E+00 -0.00000000000E+00 -0.64930732323E+04  0.65000000000E+04  0.30000000000E+03 0.  1.
     100001    1    1    2    0    0 -0.15682609420E+03 -0.63781982124E+02  0.64960516612E+04  0.65000000000E+04  0.15050000000E+03 0.  1.
     100001    1    1    2    0    0  0.15682609420E+03  0.63781982124E+02 -0.64960516612E+04  0.65000000000E+04  0.15050000000E+03 0.  1.
</event>
<event>
 4    1  0.4826743E-004  0.6500000E+04  0.7818608E-02  0.7223770E-01
         52   -1    0    0    0    0  0.00000000000E+00  0.00000000000E+00  0.64930732323E+04  0.65000000000E+04  0.30000000000E+03 0. -1.
        -52   -1    0    0    0    0 -0.00000000000E+00 -0.00000000000E+00 -0.64930732323E+04  0.65000000000E+04  0.30000000000E+03 0.  1.
     100001    1    1    2    0    0  0.11868069584E+04  0.89300488586E+03 -0.63262454321E+04  0.65000000000E+04  0.15050000000E+03 0.  1.
     100001    1    1    2    0    0 -0.11868069584E+04 -0.89300488586E+03  0.63262454321E+04  0.65000000000E+04  0.15050000000E+03 0. -1.
</event>
<event>
 4    1  0.4826743E-004  0.6500000E+04  0.7818608E-02  0.7223770E-01
         52   -1    0    0    0    0  0.00000000000E+00  0.00000000000E+00  0.64930732323E+04  0.65000000000E+04  0.30000000000E+03 0. -1.
        -52   -1    0    0    0    0 -0.00000000000E+00 -0.00000000000E+00 -0.64930732323E+04  0.65000000000E+04  0.30000000000E+03 0. -1.
     100001    1    1    2    0    0 -0.59201961116E+03  0.74237838044E+02  0.64708076214E+04  0.65000000000E+04  0.15050000000E+03 0. -1.
     100001    1    1    2    0    0  0.59201961116E+03 -0.74237838044E+02 -0.64708076214E+04  0.65000000000E+04  0.15050000000E+03 0. -1.
</event>
<event>
 4    1  0.4826743E-004  0.6500000E+04  0.7818608E-02  0.7223770E-01
         52   -1    0    0    0    0  0.00000000000E+00  0.00000000000E+00  0.64930732323E+04  0.65000000000E+04  0.30000000000E+03 0. -1.
        -52   -1    0    0    0    0 -0.00000000000E+00 -0.00000000000E+00 -0.64930732323E+04  0.65000000000E+04  0.30000000000E+03 0.  1.
     100001    1    1    2    0    0  0.11517839300E+04  0.90943197105E+03 -0.63303773204E+04  0.65000000000E+04  0.15050000000E+03 0.  1.
     100001    1    1    2    0    0 -0.11517839300E+04 -0.90943197105E+03  0.63303773204E+04  0.65000000000E+04  0.15050000000E+03 0. -1.
</event>
<event>
 4    1  0.4826743E-004  0.6500000E+04  0.7818608E-02  0.7223770E-01
         52   -1    0    0    0    0  0.00000000000E+00  0.00000000000E+00  0.64930732323E+04  0.65000000000E+04  0.30000000000E+03 0.  1.
        -52   -1    0    0    0    0 -0.00000000000E+00 -0.00000000000E+00 -0.64930732323E+04  0.65000000000E+04  0.30000000000E+03 0. -1.
     100001    1    1    2    0    0 -0.19183727829E+04 -0.13593356833E+04  0.60580031459E+04  0.65000000000E+04  0.15050000000E+03 0.  1.
     100001    1    1    2    0    0  0.19183727829E+04  0.13593356833E+04 -0.60580031459E+04  0.65000000000E+04  0.15050000000E+03 0. -1.
</event>
<event>
 4    1  0.4826743E-004  0.6500000E+04  0.7818608E-02  0.7223770E-01
         52   -1    0    0    0    0  0.00000000000E+00  0.00000000000E+00  0.64930732323E+04  0.65000000000E+04  0.30000000000E+03 0. -1.
        -52   -1    0    0    0    0 -0.00000000000E+00 -0.00000000000E+00 -0.64930732323E+04  0.65000000000E+04  0.30000000000E+03 0. -1.
     100001    1    1    2    0    0 -0.30620795449E+01 -0.14963266621E+03  0.64965337249E+04  0.65000000000E+04  0.15050000000E+03 0. -1.
     100001    1    1    2    0    0  0.30620795449E+01  0.14963266621E+03 -0.64965337249E+04  0.65000000000E+04  0.15050000000E+03 0. -1.
</event>
<event>
 4    1  0.4826743E-004  0.6500000E+04  0.7818608E-02  0.7223770E-01
         52   -1    0    0    0    0  0.00000000000E+00  0.00000000000E+00  0.64930732323E+04  0.65000000000E+04  0.30000000000E+03 0.  1.
        -52   -1    0    0    0    0 -0.00000000000E+00 -0.00000000000E+00 -0.64930732323E+04  0.65000000000E+04  0.30000000000E+03 0.  1.
     100001    1    1    2    0    0  0.25579492441E+03 -0.30524653411E+03 -0.64860421877E+04  0.65000000000E+04  0.15050000000E+03 0.  1.
     100001    1    1    2    0    0 -0.25579492441E+03  0.30524653411E+03  0.64860421877E+04  0.65000000000E+04  0.15050000000E+03 0.  1.
</event>
<event>
 4    1  0.4826743E-004  0.6500000E+04  0.7818608E-02  0.7223770E-01
         52   -1    0    0    0    0  0.00000000000E+00  0.00000000000E+00  0.64930732323E+04  0.65000000000E+04  0.30000000000E+03 0. -1.
        -52   -1    0    0    0    0 -0.00000000000E+00 -0.00000000000E+00 -0.64930732323E+04  0.65000000000E+04  0.30000000000E+03 0.  1.
     100001    1    1    2    0    0 -0.34047117571E+03  0.28363877764E+04 -0.58366371748E+04  0.65000000000E+04  0.15050000000E+03 0.  1.
     100001    1    1    2    0    0  0.34047117571E+03 -0.28363877764E+04  0.58366371748E+04  0.65000000000E+04  0.15050000000E+03 0. -1.
</event>
<event>
 4    1  0.4826743E-004  0.6500000E+04  0.7818608E-02  0.7223770E-01
         52   -1    0    0    0    0  0.00000000000E+00  0.00000000000E+00  0.64930732323E+04  0.65000000000E+04  0.30000000000E+03 0. -1.
        -52   -1    0    0    0    0 -0.00000000000E+00 -0.00000000000E+00 -0.64930732323E+04  0.65000000000E+04  0.30000000000E+03 0.  1.
     100001    1    1    2    0    0 -0.16251398777E+04  0.25144743120E+04 -0.57674681674E+04  0.65000000000E+04  0.15050000000E+03 0.  1.
     100001    1    1    2    0    0  0.16251398777E+04 -0.25144743120E+04  0.57674681674E+04  0.65000000000E+04  0.15050000000E+03 0. -1.
</event>
<event>
 4    1  0.4826743E-004  0.6500000E+04  0.7818608E-02  0.7223770E-01
         52   -1    0    0    0    0  0.00000000000E+00  0.00000000000E+00  0.64930732323E+04  0.65000000000E+04  0.30000000000E+03 0.  1.
        -52   -1    0    0    0    0 -0.00000000000E+00 -0.00000000000E+00 -0.64930732323E+04  0.65000000000E+04  0.30000000000E+03 0. -1.
     100001    1    1    2    0    0  0.29137865268E+03 -0.95591311520E+03  0.64209561863E+04  0.65000000000E+04  0.15050000000E+03 0.  1.
     100001    1    1    2    0    0 -0.29137865268E+03  0.95591311520E+03 -0.64209561863E+04  0.65000000000E+04  0.15050000000E+03 0. -1.
</event>
<event>
 4    1  0.4826743E-004  0.6500000E+04  0.7818608E-02  0.7223770E-01
         52   -1    0    0    0    0  0.00000000000E+00  0.00000000000E+00  0.64930732323E+04  0.65000000000E+04  0.30000000000E+03 0. -1.
        -52   -1    0    0    0    0 -0.00000000000E+00 -0.00000000000E+00 -0.64930732323E+04  0.65000000000E+04  0.30000000000E+03 0.  1.
     100001    1    1    2    0    0 -0.12520541194E+04 -0.68295842326E+03 -0.63398168762E+04  0.65000000000E+04  0.15050000000E+03 0.  1.
     100001    1    1    2    0    0  0.12520541194E+04  0.68295842326E+03  0.63398168762E+04  0.65000000000E+04  0.15050000000E+03 0. -1.
</event>
<event>
 4    1  0.4826743E-004  0.6500000E+04  0.7818608E-02  0.7223770E-01
         52   -1    0    0    0    0  0.00000000000E+00  0.00000000000E+00  0.64930732323E+04  0.65000000000E+04  0.30000000000E+03 0. -1.
        -52   -1    0    0    0    0 -0.00000000000E+00 -0.00000000000E+00 -0.64930732323E+04  0.65000000000E+04  0.30000000000E+03 0.  1.
     100001    1    1    2    0    0  0.34602739140E+04 -0.13647953069E+04  0.53283381988E+04  0.65000000000E+04  0.15050000000E+03 0. -1.
     100001    1    1    2    0    0 -0.34602739140E+04  0.13647953069E+04 -0.53283381988E+04  0.65000000000E+04  0.15050000000E+03 0.  1.
</event>
<event>
 4    1  0.6911335E-004  0.6500000E+04  0.7818608E-02  0.7223770E-01
         52   -1    0    0    0    0  0.00000000000E+00  0.00000000000E+00  0.64930732323E+04  0.65000000000E+04  0.30000000000E+03 0.  1.
        -52   -1    0    0    0    0 -0.00000000000E+00 -0.00000000000E+00 -0.64930732323E+04  0.65000000000E+04  0.30000000000E+03 0.  1.
     100001    1    1    2    0    0 -0.21498114788E+02  0.22278286331E+02 -0.64981836892E+04  0.65000000000E+04  0.15050000000E+03 0.  1.
     100001    1    1    2    0    0  0.21498114788E+02 -0.22278286331E+02  0.64981836892E+04  0.65000000000E+04  0.15050000000E+03 0.  1.
</event>
<event>
 4    1  0.4826743E-004  0.6500000E+04  0.7818608E-02  0.7223770E-01
         52   -1    0    0    0    0  0.00000000000E+00  0.00000000000E+00  0.64930732323E+04  0.65000000000E+04  0.30000000000E+03 0.  1.
        -52   -1    0    0    0    0 -0.00000000000E+00 -0.00000000000E+00 -0.64930732323E+04  0.65000000000E+04  0.30000000000E+03 0. -1.
     100001    1    1    2    0    0 -0.21421414846E+04  0.69115532635E+03 -0.60959727628E+04  0.65000000000E+04  0.15050000000E+03 0. -1.
     100001    1    1    2    0    0  0.21421414846E+04 -0.69115532635E+03  0.60959727628E+04  0.65000000000E+04  0.15050000000E+03 0.  1.
</event>
<event>
 4    1  0.4826743E-004  0.6500000E+04  0.7818608E-02  0.7223770E-01
         52   -1    0    0    0    0  0.00000000000E+00  0.00000000000E+00  0.64930732323E+04  0.65000000000E+04  0.30000000000E+03 0.  1.
        -52   -1    0    0    0    0 -0.00000000000E+00 -0.00000000000E+00 -0.64930732323E+04  0.65000000000E+04  0.30000000000E+03 0. -1.
     100001    1    1    2    0    0 -0.60182893899E+03  0.29578828081E+04 -0.57546573288E+04  0.65000000000E+04  0.15050000000E+03 0. -1.
     100001    1    1    2    0    0  0.60182893899E+03 -0.29578828081E+04  0.57546573288E+04  0.65000000000E+04  0.15050000000E+03 0.  1.
</event>
<event>
 4    1  0.4826743E-004  0.6500000E+04  0.7818608E-02  0.7223770E-01
         52   -1    0    0    0    0  0.00000000000E+00  0.00000000000E+00  0.64930732323E+04  0.65000000000E+04  0.30000000000E+03 0. -1.
        -52   -1    0    0    0    0 -0.00000000000E+00 -0.00000000000E+00 -0.64930732323E+04  0.65000000000E+04  0.30000000000E+03 0.  1.
     100001    1    1    2    0    0  0.18877583916E+04  0.10631635780E+04  0.61264509474E+04  0.65000000000E+04  0.15050000000E+03 0. -1.
     100001    1    1    2    0    0 -0.18877583916E+04 -0.10631635780E+04 -0.61264509474E+04  0.65000000000E+04  0.15050000000E+03 0.  1.
</event>
<event>
 4    1  0.4826743E-004  0.6500000E+04  0.7818608E-02  0.7223770E-01
         52   -1    0    0    0    0  0.00000000000E+00  0.00000000000E+00  0.64930732323E+04  0.65000000000E+04  0.30000000000E+03 0. -1.
        -52   -1    0    0    0    0 -0.00000000000E+00 -0.00000000000E+00 -0.64930732323E+04  0.65000000000E+04  0.30000000000E+03 0.  1.
     100001    1    1    2    0    0 -0.27919491298E+04 -0.49715520253E+03  0.58468116535E+04  0.65000000000E+04  0.15050000000E+03 0. -1.
     100001    1    1    2    0    0  0.27919491298E+04  0.49715520253E+03 -0.58468116535E+04  0.65000000000E+04  0.15050000000E+03 0.  1.
</event>
<event>
 4    1  0.4826743E-004  0.6500000E+04  0.7818608E-02  0.7223770E-01
         52   -1    0    0    0    0  0.00000000000E+00  0.00000000000E+00  0.64930732323E+04  0.65000000000E+04  0.30000000000E+03 0. -1.
        -52   -1    0    0    0    0 -0.00000000000E+00 -0.00000000000E+00 -0.64930732323E+04  0.65000000000E+04  0.30000000000E+03 0.  1.
     100001    1    1    2    0    0  0.35518503515E+03  0.75892731594E+03 -0.64440067249E+04  0.65000000000E+04  0.15050000000E+03 0.  1.
     100001    1    1    2    0    0 -0.35518503515E+03 -0.75892731594E+03  0.64440067249E+04  0.65000000000E+04  0.15050000000E+03 0. -1.
</event>
<event>
 4    1  0.4826743E-004  0.6500000E+04  0.7818608E-02  0.7223770E-01
         52   -1    0    0    0    0  0.00000000000E+00  0.00000000000E+00  0.64930732323E+04  0.65000000000E+04  0.30000000000E+03 0.  1.
        -52   -1    0    0    0    0 -0.00000000000E+00 -0.00000000000E+00 -0.64930732323E+04  0.65000000000E+04  0.30000000000E+03 0. -1.
     100001    1    1    2    0    0  0.39260739693E+04 -0.14540603913E+04  0.49698089818E+04  0.65000000000E+04  0.15050000000E+03 0.  1.
     100001    1    1    2    0    0 -0.39260739693E+04  0.14540603913E+04 -0.49698089818E+04  0.65000000000E+04  0.15050000000E+03 0. -1.
</event>
<event>
 4    1  0.4826743E-004  0.6500000E+04  0.7818608E-02  0.7223770E-01
         52   -1    0    0    0    0  0.00000000000E+00  0.00000000000E+00  0.64930732323E+04  0.65000000000E+04  0.30000000000E+03 0.  1.
        -52   -1    0    0    0    0 -0.00000000000E+00 -0.00000000000E+00 -0.64930732323E+04  0.65000000000E+04  0.30000000000E+03 0. -1.
     100001    1    1    2    0    0 -0.25808592326E+04 -0.47937677903E+03  0.59444691332E+04  0.65000000000E+04  0.15050000000E+03 0.  1.
     100001    1    1    2    0    0  0.25808592326E+04  0.47937677903E+03 -0.59444691332E+04  0.65000000000E+04  0.15050000000E+03 0. -1.
</event>
<event>
 4    1  0.4826743E-004  0.6500000E+04  0.7818608E-02  0.7223770E-01
         52   -1    0    0    0    0  0.00000000000E+00  0.00000000000E+00  0.64930732323E+04  0.65000000000E+04  0.30000000000E+03 0.  1.
        -52   -1    0    0    0    0 -0.00000000000E+00 -0.00000000000E+00 -0.64930732323E+04  0.65000000000E+04  0.30000000000E+03 0. -1.
     100001    1    1    2    0    0 -0.77922099448E+03 -0.29589868568E+03  0.64445797659E+04  0.65000000000E+04  0.15050000000E+03 0.  1.
     100001    1    1    2    0    0  0.77922099448E+03  0.29589868568E+03 -0.64445797659E+04  0.65000000000E+04  0.15050000000E+03 0. -1.
</event>
<event>
 4    1  0.4826743E-004  0.6500000E+04  0.7818608E-02  0.7223770E-01
         52   -1    0    0    0    0  0.00000000000E+00  0.00000000000E+00  0.64930732323E+04  0.65000000000E+04  0.30000000000E+03 0. -1.
        -52   -1    0    0    0    0 -0.00000000000E+00 -0.00000000000E+00 -0.64930732323E+04  0.65000000000E+04  0.30000000000E+03 0.  1.
     100001    1    1    2    0    0 -0.11819985613E+03  0.33571159772E+03  0.64885033919E+04  0.65000000000E+04  0.15050000000E+03 0. -1.
     100001    1    1    2    0    0  0.11819985613E+03 -0.33571159772E+03 -0.64885033919E+04  0.65000000000E+04  0.15050000000E+03 0.  1.
</event>
<event>
 4    1  0.4826743E-004  0.6500000E+04  0.7818608E-02  0.7223770E-01
         52   -1    0    0    0    0  0.00000000000E+00  0.00000000000E+00  0.64930732323E+04  0.65000000000E+04  0.30000000000E+03 0. -1.
        -52   -1    0    0    0    0 -0.00000000000E+00 -0.00000000000E+00 -0.64930732323E+04  0.65000000000E+04  0.30000000000E+03 0.  1.
     100001    1    1    2    0    0  0.43930614848E+04  0.14760954140E+04  0.45551622221E+04  0.65000000000E+04  0.15050000000E+03 0. -1.
     100001    1    1    2    0    0 -0.43930614848E+04 -0.14760954140E+04 -0.45551622221E+04  0.65000000000E+04  0.15050000000E+03 0.  1.
</event>
<event>
 4    1  0.5930344E-004  0.6500000E+04  0.7818608E-02  0.7223770E-01
         52   -1    0    0    0    0  0.00000000000E+00  0.00000000000E+00  0.64930732323E+04  0.65000000000E+04  0.30000000000E+03 0.  1.
        -52   -1    0    0    0    0 -0.00000000000E+00 -0.00000000000E+00 -0.64930732323E+04  0.65000000000E+04  0.30000000000E+03 0.  1.
     100001    1    1    2    0    0 -0.81603322060E+02 -0.81273407423E+02 -0.64972367420E+04  0.65000000000E+04  0.15050000000E+03 0.  1.
     100001    1    1    2    0    0  0.81603322060E+02  0.81273407423E+02  0.64972367420E+04  0.65000000000E+04  0.15050000000E+03 0.  1.
</event>
<event>
 4    1  0.4826743E-004  0.6500000E+04  0.7818608E-02  0.7223770E-01
         52   -1    0    0    0    0  0.00000000000E+00  0.00000000000E+00  0.64930732323E+04  0.65000000000E+04  0.30000000000E+03 0. -1.
        -52   -1    0    0    0    0 -0.00000000000E+00 -0.00000000000E+00 -0.64930732323E+04  0.65000000000E+04  0.30000000000E+03 0. -1.
     100001    1    1    2    0    0 -0.24259305040E+03 -0.29132337513E+03 -0.64871896113E+04  0.65000000000E+04  0.15050000000E+03 0. -1.
     100001    1    1    2    0    0  0.24259305040E+03  0.29132337513E+03  0.64871896113E+04  0.65000000000E+04  0.15050000000E+03 0. -1.
</event>
<event>
 4    1  0.5261621E-004  0.6500000E+04  0.7818608E-02  0.7223770E-01
         52   -1    0    0    0    0  0.00000000000E+00  0.00000000000E+00  0.64930732323E+04  0.65000000000E+04  0.30000000000E+03 0.  1.
        -52   -1    0    0    0    0 -0.00000000000E+00 -0.00000000000E+00 -0.64930732323E+04  0.65000000000E+04  0.30000000000E+03 0. -1.
     100001    1    1    2    0    0 -0.94033516468E+02  0.22573403787E+03  0.64936547176E+04  0.65000000000E+04  0.15050000000E+03 0.  1.
     100001    1    1    2    0    0  0.94033516468E+02 -0.22573403787E+03 -0.64936547176E+04  0.65000000000E+04  0.15050000000E+03 0. -1.
</event>
<event>
 4    1  0.4826743E-004  0.6500000E+04  0.7818608E-02  0.7223770E-01
         52   -1    0    0    0    0  0.00000000000E+00  0.00000000000E+00  0.64930732323E+04  0.65000000000E+04  0.30000000000E+03 0. -1.
        -52   -1    0    0    0    0 -0.00000000000E+00 -0.00000000000E+00 -0.64930732323E+04  0.65000000000E+04  0.30000000000E+03 0.  1.
     100001    1    1    2    0    0 -0.11678952756E+04 -0.16606634302E+03  0.63902889094E+04  0.65000000000E+04  0.15050000000E+03 0. -1.
     100001    1    1    2    0    0  0.11678952756E+04  0.16606634302E+03 -0.63902889094E+04  0.65000000000E+04  0.15050000000E+03 0.  1.
</event>
<event>
 4    1  0.4826743E-004  0.6500000E+04  0.7818608E-02  0.7223770E-01
         52   -1    0    0    0    0  0.00000000000E+00  0.00000000000E+00  0.64930732323E+04  0.65000000000E+04  0.30000000000E+03 0.  1.
        -52   -1    0    0    0    0 -0.00000000000E+00 -0.00000000000E+00 -0.64930732323E+04  0.65000000000E+04  0.30000000000E+03 0. -1.
     100001    1    1    2    0    0  0.29700487989E+04 -0.24971163914E+04  0.52125396507E+04  0.65000000000E+04  0.15050000000E+03 0.  1.
     100001    1    1    2    0    0 -0.29700487989E+04  0.24971163914E+04 -0.52125396507E+04  0.65000000000E+04  0.15050000000E+03 0. -1.
</event>
<event>
 4    1  0.4826743E-004  0.6500000E+04  0.7818608E-02  0.7223770E-01
         52   -1    0    0    0    0  0.00000000000E+00  0.00000000000E+00  0.64930732323E+04  0.65000000000E+04  0.30000000000E+03 0.  1.
        -52   -1    0    0    0    0 -0.00000000000E+00 -0.00000000000E+00 -0.64930732323E+04  0.65000000000E+04  0.30000000000E+03 0. -1.
     100001    1    1    2    0    0  0.39727818778E+02 -0.33941938998E+03 -0.64892654383E+04  0.65000000000E+04  0.15050000000E+03 0. -1.
     100001    1    1    2    0    0 -0.39727818778E+02  0.33941938998E+03  0.64892654383E+04  0.65000000000E+04  0.15050000000E+03 0.  1.
</event>
<event>
 4    1  0.4826743E-004  0.6500000E+04  0.7818608E-02  0.7223770E-01
         52   -1    0    0    0    0  0.00000000000E+00  0.00000000000E+00  0.64930732323E+04  0.65000000000E+04  0.30000000000E+03 0. -1.
        -52   -1    0    0    0    0 -0.00000000000E+00 -0.00000000000E+00 -0.64930732323E+04  0.65000000000E+04  0.30000000000E+03 0.  1.
     100001    1    1    2    0    0  0.17955405642E+04  0.44402927544E+04  0.43917176694E+04  0.65000000000E+04  0.15050000000E+03 0. -1.
     100001    1    1    2    0    0 -0.17955405642E+04 -0.44402927544E+04 -0.43917176694E+04  0.65000000000E+04  0.15050000000E+03 0.  1.
</event>
<event>
 4    1  0.4826743E-004  0.6500000E+04  0.7818608E-02  0.7223770E-01
         52   -1    0    0    0    0  0.00000000000E+00  0.00000000000E+00  0.64930732323E+04  0.65000000000E+04  0.30000000000E+03 0. -1.
        -52   -1    0    0    0    0 -0.00000000000E+00 -0.00000000000E+00 -0.64930732323E+04  0.65000000000E+04  0.30000000000E+03 0.  1.
     100001    1    1    2    0    0 -0.64959635823E+03  0.48340696029E+03 -0.64476113431E+04  0.65000000000E+04  0.15050000000E+03 0.  1.
     100001    1    1    2    0    0  0.64959635823E+03 -0.48340696029E+03  0.64476113431E+04  0.65000000000E+04  0.15050000000E+03 0. -1.
</event>
<event>
 4    1  0.4826743E-004  0.6500000E+04  0.7818608E-02  0.7223770E-01
         52   -1    0    0    0    0  0.00000000000E+00  0.00000000000E+00  0.64930732323E+04  0.65000000000E+04  0.30000000000E+03 0.  1.
        -52   -1    0    0    0    0 -0.00000000000E+00 -0.00000000000E+00 -0.64930732323E+04  0.65000000000E+04  0.30000000000E+03 0. -1.
     100001    1    1    2    0    0  0.42782959806E+03 -0.58218697967E+02 -0.64838971436E+04  0.65000000000E+04  0.15050000000E+03 0. -1.
     100001    1    1    2    0    0 -0.42782959806E+03  0.58218697967E+02  0.64838971436E+04  0.65000000000E+04  0.15050000000E+03 0.  1.
</event>
<event>
 4    1  0.4826743E-004  0.6500000E+04  0.7818608E-02  0.7223770E-01
         52   -1    0    0    0    0  0.00000000000E+00  0.00000000000E+00  0.64930732323E+04  0.65000000000E+04  0.30000000000E+03 0.  1.
        -52   -1    0    0    0    0 -0.00000000000E+00 -0.00000000000E+00 -0.64930732323E+04  0.65000000000E+04  0.30000000000E+03 0. -1.
     100001    1    1    2    0    0 -0.17073543066E+04  0.24253902569E+04  0.57818485905E+04  0.65000000000E+04  0.15050000000E+03 0.  1.
     100001    1    1    2    0    0  0.17073543066E+04 -0.24253902569E+04 -0.57818485905E+04  0.65000000000E+04  0.15050000000E+03 0. -1.
</event>
<event>
 4    1  0.4826743E-004  0.6500000E+04  0.7818608E-02  0.7223770E-01
         52   -1    0    0    0    0  0.00000000000E+00  0.00000000000E+00  0.64930732323E+04  0.65000000000E+04  0.30000000000E+03 0.  1.
        -52   -1    0    0    0    0 -0.00000000000E+00 -0.00000000000E+00 -0.64930732323E+04  0.65000000000E+04  0.30000000000E+03 0. -1.
     100001    1    1    2    0    0  0.10667838633E+04  0.24185334614E+04  0.59363303341E+04  0.65000000000E+04  0.15050000000E+03 0.  1.
     100001    1    1    2    0    0 -0.10667838633E+04 -0.24185334614E+04 -0.59363303341E+04  0.65000000000E+04  0.15050000000E+03 0. -1.
</event>
<event>
 4    1  0.4826743E-004  0.6500000E+04  0.7818608E-02  0.7223770E-01
         52   -1    0    0    0    0  0.00000000000E+00  0.00000000000E+00  0.64930732323E+04  0.65000000000E+04  0.30000000000E+03 0. -1.
        -52   -1    0    0    0    0 -0.00000000000E+00 -0.00000000000E+00 -0.64930732323E+04  0.65000000000E+04  0.30000000000E+03 0.  1.
     100001    1    1    2    0    0  0.93168936364E+03  0.16146715412E+04 -0.62251217252E+04  0.65000000000E+04  0.15050000000E+03 0.  1.
     100001    1    1    2    0    0 -0.93168936364E+03 -0.16146715412E+04  0.62251217252E+04  0.65000000000E+04  0.15050000000E+03 0. -1.
</event>
<event>
 4    1  0.4826743E-004  0.6500000E+04  0.7818608E-02  0.7223770E-01
         52   -1    0    0    0    0  0.00000000000E+00  0.00000000000E+00  0.64930732323E+04  0.65000000000E+04  0.30000000000E+03 0.  1.
        -52   -1    0    0    0    0 -0.00000000000E+00 -0.00000000000E+00 -0.64930732323E+04  0.65000000000E+04  0.30000000000E+03 0. -1.
     100001    1    1    2    0    0  0.12971683269E+04  0.51410350227E+04 -0.37569220084E+04  0.65000000000E+04  0.15050000000E+03 0. -1.
     100001    1    1    2    0    0 -0.12971683269E+04 -0.51410350227E+04  0.37569220084E+04  0.65000000000E+04  0.15050000000E+03 0.  1.
</event>
<event>
 4    1  0.4826743E-004  0.6500000E+04  0.7818608E-02  0.7223770E-01
         52   -1    0    0    0    0  0.00000000000E+00  0.00000000000E+00  0.64930732323E+04  0.65000000000E+04  0.30000000000E+03 0. -1.
        -52   -1    0    0    0    0 -0.00000000000E+00 -0.00000000000E+00 -0.64930732323E+04  0.65000000000E+04  0.30000000000E+03 0.  1.
     100001    1    1    2    0    0  0.10819256948E+04  0.63980299392E+03 -0.63755343831E+04  0.65000000000E+04  0.15050000000E+03 0.  1.
     100001    1    1    2    0    0 -0.10819256948E+04 -0.63980299392E+03  0.63755343831E+04  0.65000000000E+04  0.15050000000E+03 0. -1.
</event>
<event>
 4    1  0.4826743E-004  0.6500000E+04  0.7818608E-02  0.7223770E-01
         52   -1    0    0    0    0  0.00000000000E+00  0.00000000000E+00  0.64930732323E+04  0.65000000000E+04  0.30000000000E+03 0. -1.
        -52   -1    0    0    0    0 -0.00000000000E+00 -0.00000000000E+00 -0.64930732323E+04  0.65000000000E+04  0.30000000000E+03 0.  1.
     100001    1    1    2    0    0 -0.18599710698E+04 -0.22792814286E+04 -0.57941982654E+04  0.65000000000E+04  0.15050000000E+03 0.  1.
     100001    1    1    2    0    0  0.18599710698E+04  0.22792814286E+04  0.57941982654E+04  0.65000000000E+04  0.15050000000E+03 0. -1.
</event>
<event>
 4    1  0.4826743E-004  0.6500000E+04  0.7818608E-02  0.7223770E-01
         52   -1    0    0    0    0  0.00000000000E+00  0.00000000000E+00  0.64930732323E+04  0.65000000000E+04  0.30000000000E+03 0.  1.
        -52   -1    0    0    0    0 -0.00000000000E+00 -0.00000000000E+00 -0.64930732323E+04  0.65000000000E+04  0.30000000000E+03 0. -1.
     100001    1    1    2    0    0 -0.22276422038E+04 -0.35268867596E+04 -0.49825726033E+04  0.65000000000E+04  0.15050000000E+03 0. -1.
     100001    1    1    2    0    0  0.22276422038E+04  0.35268867596E+04  0.49825726033E+04  0.65000000000E+04  0.15050000000E+03 0.  1.
</event>
<event>
 4    1  0.4826743E-004  0.6500000E+04  0.7818608E-02  0.7223770E-01
         52   -1    0    0    0    0  0.00000000000E+00  0.00000000000E+00  0.64930732323E+04  0.65000000000E+04  0.30000000000E+03 0. -1.
        -52   -1    0    0    0    0 -0.00000000000E+00 -0.00000000000E+00 -0.64930732323E+04  0.65000000000E+04  0.30000000000E+03 0.  1.
     100001    1    1    2    0    0  0.20664555376E+04  0.36543189728E+04 -0.49601475891E+04  0.65000000000E+04  0.15050000000E+03 0.  1.
     100001    1    1    2    0    0 -0.20664555376E+04 -0.36543189728E+04  0.49601475891E+04  0.65000000000E+04  0.15050000000E+03 0. -1.
</event>
<event>
 4    1  0.4826743E-004  0.6500000E+04  0.7818608E-02  0.7223770E-01
         52   -1    0    0    0    0  0.00000000000E+00  0.00000000000E+00  0.64930732323E+04  0.65000000000E+04  0.30000000000E+03 0. -1.
        -52   -1    0    0    0    0 -0.00000000000E+00 -0.00000000000E+00 -0.64930732323E+04  0.65000000000E+04  0.30000000000E+03 0.  1.
     100001    1    1    2    0    0 -0.12240159682E+04 -0.25396439808E+04  0.58548563698E+04  0.65000000000E+04  0.15050000000E+03 0. -1.
     100001    1    1    2    0    0  0.12240159682E+04  0.25396439808E+04 -0.58548563698E+04  0.65000000000E+04  0.15050000000E+03 0.  1.
</event>
<event>
 4    1  0.4826743E-004  0.6500000E+04  0.7818608E-02  0.7223770E-01
         52   -1    0    0    0    0  0.00000000000E+00  0.00000000000E+00  0.64930732323E+04  0.65000000000E+04  0.30000000000E+03 0. -1.
        -52   -1    0    0    0    0 -0.00000000000E+00 -0.00000000000E+00 -0.64930732323E+04  0.65000000000E+04  0.30000000000E+03 0. -1.
     100001    1    1    2    0    0  0.53119678845E+03  0.97297447721E+03 -0.64030071364E+04  0.65000000000E+04  0.15050000000E+03 0. -1.
     100001    1    1    2    0    0 -0.53119678845E+03 -0.97297447721E+03  0.64030071364E+04  0.65000000000E+04  0.15050000000E+03 0. -1.
</event>
<event>
 4    1  0.4826743E-004  0.6500000E+04  0.7818608E-02  0.7223770E-01
         52   -1    0    0    0    0  0.00000000000E+00  0.00000000000E+00  0.64930732323E+04  0.65000000000E+04  0.30000000000E+03 0. -1.
        -52   -1    0    0    0    0 -0.00000000000E+00 -0.00000000000E+00 -0.64930732323E+04  0.65000000000E+04  0.30000000000E+03 0.  1.
     100001    1    1    2    0    0  0.13309363912E+04 -0.48167520342E+03  0.63422351794E+04  0.65000000000E+04  0.15050000000E+03 0. -1.
     100001    1    1    2    0    0 -0.13309363912E+04  0.48167520342E+03 -0.63422351794E+04  0.65000000000E+04  0.15050000000E+03 0.  1.
</event>
<event>
 4    1  0.4826743E-004  0.6500000E+04  0.7818608E-02  0.7223770E-01
         52   -1    0    0    0    0  0.00000000000E+00  0.00000000000E+00  0.64930732323E+04  0.65000000000E+04  0.30000000000E+03 0.  1.
        -52   -1    0    0    0    0 -0.00000000000E+00 -0.00000000000E+00 -0.64930732323E+04  0.65000000000E+04  0.30000000000E+03 0.  1.
     100001    1    1    2    0    0 -0.48152707124E+03 -0.43828138863E+03 -0.64655541800E+04  0.65000000000E+04  0.15050000000E+03 0.  1.
     100001    1    1    2    0    0  0.48152707124E+03  0.43828138863E+03  0.64655541800E+04  0.65000000000E+04  0.15050000000E+03 0.  1.
</event>
<event>
 4    1  0.4826743E-004  0.6500000E+04  0.7818608E-02  0.7223770E-01
         52   -1    0    0    0    0  0.00000000000E+00  0.00000000000E+00  0.64930732323E+04  0.65000000000E+04  0.30000000000E+03 0. -1.
        -52   -1    0    0    0    0 -0.00000000000E+00 -0.00000000000E+00 -0.64930732323E+04  0.65000000000E+04  0.30000000000E+03 0.  1.
     100001    1    1    2    0    0 -0.48095383671E+03 -0.31043837943E+04  0.56884826109E+04  0.65000000000E+04  0.15050000000E+03 0. -1.
     100001    1    1    2    0    0  0.48095383671E+03  0.31043837943E+04 -0.56884826109E+04  0.65000000000E+04  0.15050000000E+03 0.  1.
</event>
<event>
 4    1  0.5411548E-004  0.6500000E+04  0.7818608E-02  0.7223770E-01
         52   -1    0    0    0    0  0.00000000000E+00  0.00000000000E+00  0.64930732323E+04  0.65000000000E+04  0.30000000000E+03 0. -1.
        -52   -1    0    0    0    0 -0.00000000000E+00 -0.00000000000E+00 -0.64930732323E+04  0.65000000000E+04  0.30000000000E+03 0. -1.
     100001    1    1    2    0    0  0.65616735657E+02  0.92576419452E+02  0.64972666407E+04  0.65000000000E+04  0.15050000000E+03 0. -1.
     100001    1    1    2    0    0 -0.65616735657E+02 -0.92576419452E+02 -0.64972666407E+04  0.65000000000E+04  0.15050000000E+03 0. -1.
</event>
<event>
 4    1  0.4826743E-004  0.6500000E+04  0.7818608E-02  0.7223770E-01
         52   -1    0    0    0    0  0.00000000000E+00  0.00000000000E+00  0.64930732323E+04  0.65000000000E+04  0.30000000000E+03 0. -1.
        -52   -1    0    0    0    0 -0.00000000000E+00 -0.00000000000E+00 -0.64930732323E+04  0.65000000000E+04  0.30000000000E+03 0. -1.
     100001    1    1    2    0    0  0.20466597849E+03  0.75194608633E+02 -0.64945983215E+04  0.65000000000E+04  0.15050000000E+03 0. -1.
     100001    1    1    2    0    0 -0.20466597849E+03 -0.75194608633E+02  0.64945983215E+04  0.65000000000E+04  0.15050000000E+03 0. -1.
</event>
<event>
 4    1  0.4826743E-004  0.6500000E+04  0.7818608E-02  0.7223770E-01
         52   -1    0    0    0    0  0.00000000000E+00  0.00000000000E+00  0.64930732323E+04  0.65000000000E+04  0.30000000000E+03 0.  1.
        -52   -1    0    0    0    0 -0.00000000000E+00 -0.00000000000E+00 -0.64930732323E+04  0.65000000000E+04  0.30000000000E+03 0. -1.
     100001    1    1    2    0    0  0.15108437049E+04 -0.31579108705E+04 -0.54746963371E+04  0.65000000000E+04  0.15050000000E+03 0. -1.
     100001    1    1    2    0    0 -0.15108437049E+04  0.31579108705E+04  0.54746963371E+04  0.65000000000E+04  0.15050000000E+03 0.  1.
</event>
<event>
 4    1  0.4826743E-004  0.6500000E+04  0.7818608E-02  0.7223770E-01
         52   -1    0    0    0    0  0.00000000000E+00  0.00000000000E+00  0.64930732323E+04  0.65000000000E+04  0.30000000000E+03 0. -1.
        -52   -1    0    0    0    0 -0.00000000000E+00 -0.00000000000E+00 -0.64930732323E+04  0.65000000000E+04  0.30000000000E+03 0.  1.
     100001    1    1    2    0    0 -0.49407892061E+04  0.37932798168E+03  0.42038151783E+04  0.65000000000E+04  0.15050000000E+03 0. -1.
     100001    1    1    2    0    0  0.49407892061E+04 -0.37932798168E+03 -0.42038151783E+04  0.65000000000E+04  0.15050000000E+03 0.  1.
</event>
<event>
 4    1  0.4826743E-004  0.6500000E+04  0.7818608E-02  0.7223770E-01
         52   -1    0    0    0    0  0.00000000000E+00  0.00000000000E+00  0.64930732323E+04  0.65000000000E+04  0.30000000000E+03 0.  1.
        -52   -1    0    0    0    0 -0.00000000000E+00 -0.00000000000E+00 -0.64930732323E+04  0.65000000000E+04  0.30000000000E+03 0. -1.
     100001    1    1    2    0    0 -0.11746033542E+04  0.13351212101E+04 -0.62502086417E+04  0.65000000000E+04  0.15050000000E+03 0. -1.
     100001    1    1    2    0    0  0.11746033542E+04 -0.13351212101E+04  0.62502086417E+04  0.65000000000E+04  0.15050000000E+03 0.  1.
</event>
<event>
 4    1  0.4826743E-004  0.6500000E+04  0.7818608E-02  0.7223770E-01
         52   -1    0    0    0    0  0.00000000000E+00  0.00000000000E+00  0.64930732323E+04  0.65000000000E+04  0.30000000000E+03 0. -1.
        -52   -1    0    0    0    0 -0.00000000000E+00 -0.00000000000E+00 -0.64930732323E+04  0.65000000000E+04  0.30000000000E+03 0.  1.
     100001    1    1    2    0    0  0.64800090024E+03 -0.33971123790E+03  0.64569374210E+04  0.65000000000E+04  0.15050000000E+03 0. -1.
     100001    1    1    2    0    0 -0.64800090024E+03  0.33971123790E+03 -0.64569374210E+04  0.65000000000E+04  0.15050000000E+03 0.  1.
</event>
<event>
 4    1  0.4826743E-004  0.6500000E+04  0.7818608E-02  0.7223770E-01
         52   -1    0    0    0    0  0.00000000000E+00  0.00000000000E+00  0.64930732323E+04  0.65000000000E+04  0.30000000000E+03 0.  1.
        -52   -1    0    0    0    0 -0.00000000000E+00 -0.00000000000E+00 -0.64930732323E+04  0.65000000000E+04  0.30000000000E+03 0. -1.
     100001    1    1    2    0    0  0.49886560411E+03  0.44845948156E+04 -0.46762048927E+04  0.65000000000E+04  0.15050000000E+03 0. -1.
     100001    1    1    2    0    0 -0.49886560411E+03 -0.44845948156E+04  0.46762048927E+04  0.65000000000E+04  0.15050000000E+03 0.  1.
</event>
<event>
 4    1  0.4826743E-004  0.6500000E+04  0.7818608E-02  0.7223770E-01
         52   -1    0    0    0    0  0.00000000000E+00  0.00000000000E+00  0.64930732323E+04  0.65000000000E+04  0.30000000000E+03 0. -1.
        -52   -1    0    0    0    0 -0.00000000000E+00 -0.00000000000E+00 -0.64930732323E+04  0.65000000000E+04  0.30000000000E+03 0.  1.
     100001    1    1    2    0    0 -0.16467866018E+04  0.16127378191E+04 -0.60757320847E+04  0.65000000000E+04  0.15050000000E+03 0.  1.
     100001    1    1    2    0    0  0.16467866018E+04 -0.16127378191E+04  0.60757320847E+04  0.65000000000E+04  0.15050000000E+03 0. -1.
</event>
<event>
 4    1  0.4826743E-004  0.6500000E+04  0.7818608E-02  0.7223770E-01
         52   -1    0    0    0    0  0.00000000000E+00  0.00000000000E+00  0.64930732323E+04  0.65000000000E+04  0.30000000000E+03 0. -1.
        -52   -1    0    0    0    0 -0.00000000000E+00 -0.00000000000E+00 -0.64930732323E+04  0.65000000000E+04  0.30000000000E+03 0.  1.
     100001    1    1    2    0    0  0.25941376572E+04  0.12637977985E+04 -0.58224234379E+04  0.65000000000E+04  0.15050000000E+03 0.  1.
     100001    1    1    2    0    0 -0.25941376572E+04 -0.12637977985E+04  0.58224234379E+04  0.65000000000E+04  0.15050000000E+03 0. -1.
</event>
<event>
 4    1  0.4826743E-004  0.6500000E+04  0.7818608E-02  0.7223770E-01
         52   -1    0    0    0    0  0.00000000000E+00  0.00000000000E+00  0.64930732323E+04  0.65000000000E+04  0.30000000000E+03 0. -1.
        -52   -1    0    0    0    0 -0.00000000000E+00 -0.00000000000E+00 -0.64930732323E+04  0.65000000000E+04  0.30000000000E+03 0.  1.
     100001    1    1    2    0    0  0.10096654330E+04  0.11858236519E+04 -0.63088626336E+04  0.65000000000E+04  0.15050000000E+03 0.  1.
     100001    1    1    2    0    0 -0.10096654330E+04 -0.11858236519E+04  0.63088626336E+04  0.65000000000E+04  0.15050000000E+03 0. -1.
</event>
<event>
 4    1  0.4826743E-004  0.6500000E+04  0.7818608E-02  0.7223770E-01
         52   -1    0    0    0    0  0.00000000000E+00  0.00000000000E+00  0.64930732323E+04  0.65000000000E+04  0.30000000000E+03 0.  1.
        -52   -1    0    0    0    0 -0.00000000000E+00 -0.00000000000E+00 -0.64930732323E+04  0.65000000000E+04  0.30000000000E+03 0.  1.
     100001    1    1    2    0    0  0.13051047779E+03 -0.79365189344E+02 -0.64964619549E+04  0.65000000000E+04  0.15050000000E+03 0.  1.
     100001    1    1    2    0    0 -0.13051047779E+03  0.79365189344E+02  0.64964619549E+04  0.65000000000E+04  0.15050000000E+03 0.  1.
</event>
<event>
 4    1  0.4826743E-004  0.6500000E+04  0.7818608E-02  0.7223770E-01
         52   -1    0    0    0    0  0.00000000000E+00  0.00000000000E+00  0.64930732323E+04  0.65000000000E+04  0.30000000000E+03 0.  1.
        -52   -1    0    0    0    0 -0.00000000000E+00 -0.00000000000E+00 -0.64930732323E+04  0.65000000000E+04  0.30000000000E+03 0.  1.
     100001    1    1    2    0    0 -0.32488123817E+02  0.35029780720E+02 -0.64980818082E+04  0.65000000000E+04  0.15050000000E+03 0.  1.
     100001    1    1    2    0    0  0.32488123817E+02 -0.35029780720E+02  0.64980818082E+04  0.65000000000E+04  0.15050000000E+03 0.  1.
</event>
<event>
 4    1  0.4826743E-004  0.6500000E+04  0.7818608E-02  0.7223770E-01
         52   -1    0    0    0    0  0.00000000000E+00  0.00000000000E+00  0.64930732323E+04  0.65000000000E+04  0.30000000000E+03 0. -1.
        -52   -1    0    0    0    0 -0.00000000000E+00 -0.00000000000E+00 -0.64930732323E+04  0.65000000000E+04  0.30000000000E+03 0.  1.
     100001    1    1    2    0    0 -0.19456284911E+04  0.11172287778E+04  0.60986620978E+04  0.65000000000E+04  0.15050000000E+03 0. -1.
     100001    1    1    2    0    0  0.19456284911E+04 -0.11172287778E+04 -0.60986620978E+04  0.65000000000E+04  0.15050000000E+03 0.  1.
</event>
<event>
 4    1  0.4826743E-004  0.6500000E+04  0.7818608E-02  0.7223770E-01
         52   -1    0    0    0    0  0.00000000000E+00  0.00000000000E+00  0.64930732323E+04  0.65000000000E+04  0.30000000000E+03 0. -1.
        -52   -1    0    0    0    0 -0.00000000000E+00 -0.00000000000E+00 -0.64930732323E+04  0.65000000000E+04  0.30000000000E+03 0.  1.
     100001    1    1    2    0    0  0.42900985697E+04 -0.34801901489E+04 -0.34220871613E+04  0.65000000000E+04  0.15050000000E+03 0.  1.
     100001    1    1    2    0    0 -0.42900985697E+04  0.34801901489E+04  0.34220871613E+04  0.65000000000E+04  0.15050000000E+03 0. -1.
</event>
<event>
 4    1  0.4826743E-004  0.6500000E+04  0.7818608E-02  0.7223770E-01
         52   -1    0    0    0    0  0.00000000000E+00  0.00000000000E+00  0.64930732323E+04  0.65000000000E+04  0.30000000000E+03 0.  1.
        -52   -1    0    0    0    0 -0.00000000000E+00 -0.00000000000E+00 -0.64930732323E+04  0.65000000000E+04  0.30000000000E+03 0. -1.
     100001    1    1    2    0    0 -0.15628921683E+04 -0.53205641332E+03 -0.62850325213E+04  0.65000000000E+04  0.15050000000E+03 0. -1.
     100001    1    1    2    0    0  0.15628921683E+04  0.53205641332E+03  0.62850325213E+04  0.65000000000E+04  0.15050000000E+03 0.  1.
</event>
<event>
 4    1  0.4826743E-004  0.6500000E+04  0.7818608E-02  0.7223770E-01
         52   -1    0    0    0    0  0.00000000000E+00  0.00000000000E+00  0.64930732323E+04  0.65000000000E+04  0.30000000000E+03 0.  1.
        -52   -1    0    0    0    0 -0.00000000000E+00 -0.00000000000E+00 -0.64930732323E+04  0.65000000000E+04  0.30000000000E+03 0.  1.
     100001    1    1    2    0    0  0.72220100077E+02 -0.81105164368E+02 -0.64973499182E+04  0.65000000000E+04  0.15050000000E+03 0.  1.
     100001    1    1    2    0    0 -0.72220100077E+02  0.81105164368E+02  0.64973499182E+04  0.65000000000E+04  0.15050000000E+03 0.  1.
</event>
<event>
 4    1  0.4826743E-004  0.6500000E+04  0.7818608E-02  0.7223770E-01
         52   -1    0    0    0    0  0.00000000000E+00  0.00000000000E+00  0.64930732323E+04  0.65000000000E+04  0.30000000000E+03 0.  1.
        -52   -1    0    0    0    0 -0.00000000000E+00 -0.00000000000E+00 -0.64930732323E+04  0.65000000000E+04  0.30000000000E+03 0. -1.
     100001    1    1    2    0    0 -0.57373624251E+04 -0.56152481106E+03  0.29991185438E+04  0.65000000000E+04  0.15050000000E+03 0. -1.
     100001    1    1    2    0    0  0.57373624251E+04  0.56152481106E+03 -0.29991185438E+04  0.65000000000E+04  0.15050000000E+03 0.  1.
</event>
<event>
 4    1  0.4826743E-004  0.6500000E+04  0.7818608E-02  0.7223770E-01
         52   -1    0    0    0    0  0.00000000000E+00  0.00000000000E+00  0.64930732323E+04  0.65000000000E+04  0.30000000000E+03 0.  1.
        -52   -1    0    0    0    0 -0.00000000000E+00 -0.00000000000E+00 -0.64930732323E+04  0.65000000000E+04  0.30000000000E+03 0.  1.
     100001    1    1    2    0    0  0.68176002946E+03  0.87784144213E+02  0.64617990495E+04  0.65000000000E+04  0.15050000000E+03 0.  1.
     100001    1    1    2    0    0 -0.68176002946E+03 -0.87784144213E+02 -0.64617990495E+04  0.65000000000E+04  0.15050000000E+03 0.  1.
</event>
<event>
 4    1  0.4826743E-004  0.6500000E+04  0.7818608E-02  0.7223770E-01
         52   -1    0    0    0    0  0.00000000000E+00  0.00000000000E+00  0.64930732323E+04  0.65000000000E+04  0.30000000000E+03 0. -1.
        -52   -1    0    0    0    0 -0.00000000000E+00 -0.00000000000E+00 -0.64930732323E+04  0.65000000000E+04  0.30000000000E+03 0. -1.
     100001    1    1    2    0    0  0.24725642601E+03 -0.33873176037E+03 -0.64847108497E+04  0.65000000000E+04  0.15050000000E+03 0. -1.
     100001    1    1    2    0    0 -0.24725642601E+03  0.33873176037E+03  0.64847108497E+04  0.65000000000E+04  0.15050000000E+03 0. -1.
</event>
<event>
 4    1  0.4826743E-004  0.6500000E+04  0.7818608E-02  0.7223770E-01
         52   -1    0    0    0    0  0.00000000000E+00  0.00000000000E+00  0.64930732323E+04  0.65000000000E+04  0.30000000000E+03 0. -1.
        -52   -1    0    0    0    0 -0.00000000000E+00 -0.00000000000E+00 -0.64930732323E+04  0.65000000000E+04  0.30000000000E+03 0.  1.
     100001    1    1    2    0    0 -0.39723735913E+04 -0.49336632372E+04  0.14514009999E+04  0.65000000000E+04  0.15050000000E+03 0.  1.
     100001    1    1    2    0    0  0.39723735913E+04  0.49336632372E+04 -0.14514009999E+04  0.65000000000E+04  0.15050000000E+03 0. -1.
</event>
<event>
 4    1  0.4826743E-004  0.6500000E+04  0.7818608E-02  0.7223770E-01
         52   -1    0    0    0    0  0.00000000000E+00  0.00000000000E+00  0.64930732323E+04  0.65000000000E+04  0.30000000000E+03 0.  1.
        -52   -1    0    0    0    0 -0.00000000000E+00 -0.00000000000E+00 -0.64930732323E+04  0.65000000000E+04  0.30000000000E+03 0.  1.
     100001    1    1    2    0    0  0.31940538083E+02  0.25700560717E+03  0.64930946143E+04  0.65000000000E+04  0.15050000000E+03 0.  1.
     100001    1    1    2    0    0 -0.31940538083E+02 -0.25700560717E+03 -0.64930946143E+04  0.65000000000E+04  0.15050000000E+03 0.  1.
</event>
<event>
 4    1  0.4826743E-004  0.6500000E+04  0.7818608E-02  0.7223770E-01
         52   -1    0    0    0    0  0.00000000000E+00  0.00000000000E+00  0.64930732323E+04  0.65000000000E+04  0.30000000000E+03 0. -1.
        -52   -1    0    0    0    0 -0.00000000000E+00 -0.00000000000E+00 -0.64930732323E+04  0.65000000000E+04  0.30000000000E+03 0.  1.
     100001    1    1    2    0    0 -0.20999724009E+04  0.61455718501E+04 -0.22228877717E+03  0.65000000000E+04  0.15050000000E+03 0.  1.
     100001    1    1    2    0    0  0.20999724009E+04 -0.61455718501E+04  0.22228877717E+03  0.65000000000E+04  0.15050000000E+03 0. -1.
</event>
<event>
 4    1  0.4826743E-004  0.6500000E+04  0.7818608E-02  0.7223770E-01
         52   -1    0    0    0    0  0.00000000000E+00  0.00000000000E+00  0.64930732323E+04  0.65000000000E+04  0.30000000000E+03 0.  1.
        -52   -1    0    0    0    0 -0.00000000000E+00 -0.00000000000E+00 -0.64930732323E+04  0.65000000000E+04  0.30000000000E+03 0. -1.
     100001    1    1    2    0    0  0.14966065847E+03 -0.25011399359E+03  0.64917173712E+04  0.65000000000E+04  0.15050000000E+03 0.  1.
     100001    1    1    2    0    0 -0.14966065847E+03  0.25011399359E+03 -0.64917173712E+04  0.65000000000E+04  0.15050000000E+03 0. -1.
</event>
<event>
 4    1  0.6225761E-004  0.6500000E+04  0.7818608E-02  0.7223770E-01
         52   -1    0    0    0    0  0.00000000000E+00  0.00000000000E+00  0.64930732323E+04  0.65000000000E+04  0.30000000000E+03 0. -1.
        -52   -1    0    0    0    0 -0.00000000000E+00 -0.00000000000E+00 -0.64930732323E+04  0.65000000000E+04  0.30000000000E+03 0. -1.
     100001    1    1    2    0    0 -0.13619766476E+03  0.67369376259E+02 -0.64964806867E+04  0.65000000000E+04  0.15050000000E+03 0. -1.
     100001    1    1    2    0    0  0.13619766476E+03 -0.67369376259E+02  0.64964806867E+04  0.65000000000E+04  0.15050000000E+03 0. -1.
</event>
<event>
 4    1  0.4826743E-004  0.6500000E+04  0.7818608E-02  0.7223770E-01
         52   -1    0    0    0    0  0.00000000000E+00  0.00000000000E+00  0.64930732323E+04  0.65000000000E+04  0.30000000000E+03 0. -1.
        -52   -1    0    0    0    0 -0.00000000000E+00 -0.00000000000E+00 -0.64930732323E+04  0.65000000000E+04  0.30000000000E+03 0.  1.
     100001    1    1    2    0    0 -0.19365495378E+04 -0.76895601810E+03 -0.61551468122E+04  0.65000000000E+04  0.15050000000E+03 0.  1.
     100001    1    1    2    0    0  0.19365495378E+04  0.76895601810E+03  0.61551468122E+04  0.65000000000E+04  0.15050000000E+03 0. -1.
</event>
<event>
 4    1  0.4826743E-004  0.6500000E+04  0.7818608E-02  0.7223770E-01
         52   -1    0    0    0    0  0.00000000000E+00  0.00000000000E+00  0.64930732323E+04  0.65000000000E+04  0.30000000000E+03 0.  1.
        -52   -1    0    0    0    0 -0.00000000000E+00 -0.00000000000E+00 -0.64930732323E+04  0.65000000000E+04  0.30000000000E+03 0.  1.
     100001    1    1    2    0    0  0.32981131333E+03  0.14980120133E+03  0.64881533465E+04  0.65000000000E+04  0.15050000000E+03 0.  1.
     100001    1    1    2    0    0 -0.32981131333E+03 -0.14980120133E+03 -0.64881533465E+04  0.65000000000E+04  0.15050000000E+03 0.  1.
</event>
<event>
 4    1  0.4826743E-004  0.6500000E+04  0.7818608E-02  0.7223770E-01
         52   -1    0    0    0    0  0.00000000000E+00  0.00000000000E+00  0.64930732323E+04  0.65000000000E+04  0.30000000000E+03 0. -1.
        -52   -1    0    0    0    0 -0.00000000000E+00 -0.00000000000E+00 -0.64930732323E+04  0.65000000000E+04  0.30000000000E+03 0.  1.
     100001    1    1    2    0    0 -0.27425965458E+02  0.30929157736E+04  0.57149339089E+04  0.65000000000E+04  0.15050000000E+03 0. -1.
     100001    1    1    2    0    0  0.27425965458E+02 -0.30929157736E+04 -0.57149339089E+04  0.65000000000E+04  0.15050000000E+03 0.  1.
</event>
<event>
 4    1  0.4826743E-004  0.6500000E+04  0.7818608E-02  0.7223770E-01
         52   -1    0    0    0    0  0.00000000000E+00  0.00000000000E+00  0.64930732323E+04  0.65000000000E+04  0.30000000000E+03 0.  1.
        -52   -1    0    0    0    0 -0.00000000000E+00 -0.00000000000E+00 -0.64930732323E+04  0.65000000000E+04  0.30000000000E+03 0. -1.
     100001    1    1    2    0    0  0.88635281273E+03 -0.16148754702E+04  0.62316856193E+04  0.65000000000E+04  0.15050000000E+03 0.  1.
     100001    1    1    2    0    0 -0.88635281273E+03  0.16148754702E+04 -0.62316856193E+04  0.65000000000E+04  0.15050000000E+03 0. -1.
</event>
<event>
 4    1  0.4826743E-004  0.6500000E+04  0.7818608E-02  0.7223770E-01
         52   -1    0    0    0    0  0.00000000000E+00  0.00000000000E+00  0.64930732323E+04  0.65000000000E+04  0.30000000000E+03 0. -1.
        -52   -1    0    0    0    0 -0.00000000000E+00 -0.00000000000E+00 -0.64930732323E+04  0.65000000000E+04  0.30000000000E+03 0.  1.
     100001    1    1    2    0    0 -0.57652691370E+04  0.55972339195E+02 -0.29976471816E+04  0.65000000000E+04  0.15050000000E+03 0.  1.
     100001    1    1    2    0    0  0.57652691370E+04 -0.55972339195E+02  0.29976471816E+04  0.65000000000E+04  0.15050000000E+03 0. -1.
</event>
<event>
 4    1  0.4826743E-004  0.6500000E+04  0.7818608E-02  0.7223770E-01
         52   -1    0    0    0    0  0.00000000000E+00  0.00000000000E+00  0.64930732323E+04  0.65000000000E+04  0.30000000000E+03 0.  1.
        -52   -1    0    0    0    0 -0.00000000000E+00 -0.00000000000E+00 -0.64930732323E+04  0.65000000000E+04  0.30000000000E+03 0. -1.
     100001    1    1    2    0    0 -0.71139924813E+03  0.10843299393E+04 -0.63675340158E+04  0.65000000000E+04  0.15050000000E+03 0. -1.
     100001    1    1    2    0    0  0.71139924813E+03 -0.10843299393E+04  0.63675340158E+04  0.65000000000E+04  0.15050000000E+03 0.  1.
</event>
<event>
 4    1  0.4826743E-004  0.6500000E+04  0.7818608E-02  0.7223770E-01
         52   -1    0    0    0    0  0.00000000000E+00  0.00000000000E+00  0.64930732323E+04  0.65000000000E+04  0.30000000000E+03 0.  1.
        -52   -1    0    0    0    0 -0.00000000000E+00 -0.00000000000E+00 -0.64930732323E+04  0.65000000000E+04  0.30000000000E+03 0.  1.
     100001    1    1    2    0    0 -0.13401401963E+03 -0.81302621563E+02 -0.64963666673E+04  0.65000000000E+04  0.15050000000E+03 0.  1.
     100001    1    1    2    0    0  0.13401401963E+03  0.81302621563E+02  0.64963666673E+04  0.65000000000E+04  0.15050000000E+03 0.  1.
</event>
<event>
 4    1  0.6489052E-004  0.6500000E+04  0.7818608E-02  0.7223770E-01
         52   -1    0    0    0    0  0.00000000000E+00  0.00000000000E+00  0.64930732323E+04  0.65000000000E+04  0.30000000000E+03 0.  1.
        -52   -1    0    0    0    0 -0.00000000000E+00 -0.00000000000E+00 -0.64930732323E+04  0.65000000000E+04  0.30000000000E+03 0.  1.
     100001    1    1    2    0    0 -0.47809000175E+02 -0.12751652322E+03  0.64968302722E+04  0.65000000000E+04  0.15050000000E+03 0.  1.
     100001    1    1    2    0    0  0.47809000175E+02  0.12751652322E+03 -0.64968302722E+04  0.65000000000E+04  0.15050000000E+03 0.  1.
</event>
<event>
 4    1  0.4826743E-004  0.6500000E+04  0.7818608E-02  0.7223770E-01
         52   -1    0    0    0    0  0.00000000000E+00  0.00000000000E+00  0.64930732323E+04  0.65000000000E+04  0.30000000000E+03 0.  1.
        -52   -1    0    0    0    0 -0.00000000000E+00 -0.00000000000E+00 -0.64930732323E+04  0.65000000000E+04  0.30000000000E+03 0.  1.
     100001    1    1    2    0    0 -0.24644428372E+03 -0.36898061398E+03 -0.64830909504E+04  0.65000000000E+04  0.15050000000E+03 0.  1.
     100001    1    1    2    0    0  0.24644428372E+03  0.36898061398E+03  0.64830909504E+04  0.65000000000E+04  0.15050000000E+03 0.  1.
</event>
<event>
 4    1  0.4826743E-004  0.6500000E+04  0.7818608E-02  0.7223770E-01
         52   -1    0    0    0    0  0.00000000000E+00  0.00000000000E+00  0.64930732323E+04  0.65000000000E+04  0.30000000000E+03 0. -1.
        -52   -1    0    0    0    0 -0.00000000000E+00 -0.00000000000E+00 -0.64930732323E+04  0.65000000000E+04  0.30000000000E+03 0.  1.
     100001    1    1    2    0    0 -0.73117080738E+03 -0.10111925819E+03 -0.64561996481E+04  0.65000000000E+04  0.15050000000E+03 0.  1.
     100001    1    1    2    0    0  0.73117080738E+03  0.10111925819E+03  0.64561996481E+04  0.65000000000E+04  0.15050000000E+03 0. -1.
</event>
<event>
 4    1  0.4826743E-004  0.6500000E+04  0.7818608E-02  0.7223770E-01
         52   -1    0    0    0    0  0.00000000000E+00  0.00000000000E+00  0.64930732323E+04  0.65000000000E+04  0.30000000000E+03 0. -1.
        -52   -1    0    0    0    0 -0.00000000000E+00 -0.00000000000E+00 -0.64930732323E+04  0.65000000000E+04  0.30000000000E+03 0.  1.
     100001    1    1    2    0    0  0.13554176025E+04 -0.22058556373E+03 -0.63514986328E+04  0.65000000000E+04  0.15050000000E+03 0.  1.
     100001    1    1    2    0    0 -0.13554176025E+04  0.22058556373E+03  0.63514986328E+04  0.65000000000E+04  0.15050000000E+03 0. -1.
</event>
<event>
 4    1  0.4826743E-004  0.6500000E+04  0.7818608E-02  0.7223770E-01
         52   -1    0    0    0    0  0.00000000000E+00  0.00000000000E+00  0.64930732323E+04  0.65000000000E+04  0.30000000000E+03 0. -1.
        -52   -1    0    0    0    0 -0.00000000000E+00 -0.00000000000E+00 -0.64930732323E+04  0.65000000000E+04  0.30000000000E+03 0.  1.
     100001    1    1    2    0    0  0.49632031845E+04  0.34689968235E+03  0.41801464699E+04  0.65000000000E+04  0.15050000000E+03 0. -1.
     100001    1    1    2    0    0 -0.49632031845E+04 -0.34689968235E+03 -0.41801464699E+04  0.65000000000E+04  0.15050000000E+03 0.  1.
</event>
<event>
 4    1  0.4826743E-004  0.6500000E+04  0.7818608E-02  0.7223770E-01
         52   -1    0    0    0    0  0.00000000000E+00  0.00000000000E+00  0.64930732323E+04  0.65000000000E+04  0.30000000000E+03 0.  1.
        -52   -1    0    0    0    0 -0.00000000000E+00 -0.00000000000E+00 -0.64930732323E+04  0.65000000000E+04  0.30000000000E+03 0. -1.
     100001    1    1    2    0    0  0.17781748305E+04 -0.16278747547E+04  0.60345229973E+04  0.65000000000E+04  0.15050000000E+03 0.  1.
     100001    1    1    2    0    0 -0.17781748305E+04  0.16278747547E+04 -0.60345229973E+04  0.65000000000E+04  0.15050000000E+03 0. -1.
</event>
<event>
 4    1  0.4826743E-004  0.6500000E+04  0.7818608E-02  0.7223770E-01
         52   -1    0    0    0    0  0.00000000000E+00  0.00000000000E+00  0.64930732323E+04  0.65000000000E+04  0.30000000000E+03 0. -1.
        -52   -1    0    0    0    0 -0.00000000000E+00 -0.00000000000E+00 -0.64930732323E+04  0.65000000000E+04  0.30000000000E+03 0.  1.
     100001    1    1    2    0    0  0.79094723387E+03  0.11383591282E+04 -0.63486920479E+04  0.65000000000E+04  0.15050000000E+03 0.  1.
     100001    1    1    2    0    0 -0.79094723387E+03 -0.11383591282E+04  0.63486920479E+04  0.65000000000E+04  0.15050000000E+03 0. -1.
</event>
<event>
 4    1  0.4826743E-004  0.6500000E+04  0.7818608E-02  0.7223770E-01
         52   -1    0    0    0    0  0.00000000000E+00  0.00000000000E+00  0.64930732323E+04  0.65000000000E+04  0.30000000000E+03 0. -1.
        -52   -1    0    0    0    0 -0.00000000000E+00 -0.00000000000E+00 -0.64930732323E+04  0.65000000000E+04  0.30000000000E+03 0.  1.
     100001    1    1    2    0    0  0.34148151816E+04 -0.43054321237E+04  0.34683773229E+04  0.65000000000E+04  0.15050000000E+03 0. -1.
     100001    1    1    2    0    0 -0.34148151816E+04  0.43054321237E+04 -0.34683773229E+04  0.65000000000E+04  0.15050000000E+03 0.  1.
</event>
<event>
 4    1  0.4826743E-004  0.6500000E+04  0.7818608E-02  0.7223770E-01
         52   -1    0    0    0    0  0.00000000000E+00  0.00000000000E+00  0.64930732323E+04  0.65000000000E+04  0.30000000000E+03 0. -1.
        -52   -1    0    0    0    0 -0.00000000000E+00 -0.00000000000E+00 -0.64930732323E+04  0.65000000000E+04  0.30000000000E+03 0.  1.
     100001    1    1    2    0    0 -0.58538006531E+04  0.26699423412E+04  0.91201730153E+03  0.65000000000E+04  0.15050000000E+03 0. -1.
     100001    1    1    2    0    0  0.58538006531E+04 -0.26699423412E+04 -0.91201730153E+03  0.65000000000E+04  0.15050000000E+03 0.  1.
</event>
<event>
 4    1  0.4826743E-004  0.6500000E+04  0.7818608E-02  0.7223770E-01
         52   -1    0    0    0    0  0.00000000000E+00  0.00000000000E+00  0.64930732323E+04  0.65000000000E+04  0.30000000000E+03 0. -1.
        -52   -1    0    0    0    0 -0.00000000000E+00 -0.00000000000E+00 -0.64930732323E+04  0.65000000000E+04  0.30000000000E+03 0.  1.
     100001    1    1    2    0    0  0.24474452119E+04 -0.31948646224E+04  0.51019801773E+04  0.65000000000E+04  0.15050000000E+03 0. -1.
     100001    1    1    2    0    0 -0.24474452119E+04  0.31948646224E+04 -0.51019801773E+04  0.65000000000E+04  0.15050000000E+03 0.  1.
</event>
<event>
 4    1  0.4826743E-004  0.6500000E+04  0.7818608E-02  0.7223770E-01
         52   -1    0    0    0    0  0.00000000000E+00  0.00000000000E+00  0.64930732323E+04  0.65000000000E+04  0.30000000000E+03 0. -1.
        -52   -1    0    0    0    0 -0.00000000000E+00 -0.00000000000E+00 -0.64930732323E+04  0.65000000000E+04  0.30000000000E+03 0.  1.
     100001    1    1    2    0    0 -0.18337780193E+03  0.42176086198E+04  0.49401922900E+04  0.65000000000E+04  0.15050000000E+03 0. -1.
     100001    1    1    2    0    0  0.18337780193E+03 -0.42176086198E+04 -0.49401922900E+04  0.65000000000E+04  0.15050000000E+03 0.  1.
</event>
<event>
 4    1  0.4826743E-004  0.6500000E+04  0.7818608E-02  0.7223770E-01
         52   -1    0    0    0    0  0.00000000000E+00  0.00000000000E+00  0.64930732323E+04  0.65000000000E+04  0.30000000000E+03 0.  1.
        -52   -1    0    0    0    0 -0.00000000000E+00 -0.00000000000E+00 -0.64930732323E+04  0.65000000000E+04  0.30000000000E+03 0. -1.
     100001    1    1    2    0    0 -0.37858070182E+03 -0.76043542320E+03  0.64424967497E+04  0.65000000000E+04  0.15050000000E+03 0.  1.
     100001    1    1    2    0    0  0.37858070182E+03  0.76043542320E+03 -0.64424967497E+04  0.65000000000E+04  0.15050000000E+03 0. -1.
</event>
<event>
 4    1  0.4826743E-004  0.6500000E+04  0.7818608E-02  0.7223770E-01
         52   -1    0    0    0    0  0.00000000000E+00  0.00000000000E+00  0.64930732323E+04  0.65000000000E+04  0.30000000000E+03 0. -1.
        -52   -1    0    0    0    0 -0.00000000000E+00 -0.00000000000E+00 -0.64930732323E+04  0.65000000000E+04  0.30000000000E+03 0.  1.
     100001    1    1    2    0    0 -0.20051166872E+04 -0.30177078891E+04 -0.53944690116E+04  0.65000000000E+04  0.15050000000E+03 0.  1.
     100001    1    1    2    0    0  0.20051166872E+04  0.30177078891E+04  0.53944690116E+04  0.65000000000E+04  0.15050000000E+03 0. -1.
</event>
<event>
 4    1  0.4826743E-004  0.6500000E+04  0.7818608E-02  0.7223770E-01
         52   -1    0    0    0    0  0.00000000000E+00  0.00000000000E+00  0.64930732323E+04  0.65000000000E+04  0.30000000000E+03 0. -1.
        -52   -1    0    0    0    0 -0.00000000000E+00 -0.00000000000E+00 -0.64930732323E+04  0.65000000000E+04  0.30000000000E+03 0.  1.
     100001    1    1    2    0    0 -0.15643192094E+04 -0.14584765490E+04  0.61362122940E+04  0.65000000000E+04  0.15050000000E+03 0. -1.
     100001    1    1    2    0    0  0.15643192094E+04  0.14584765490E+04 -0.61362122940E+04  0.65000000000E+04  0.15050000000E+03 0.  1.
</event>
<event>
 4    1  0.4826743E-004  0.6500000E+04  0.7818608E-02  0.7223770E-01
         52   -1    0    0    0    0  0.00000000000E+00  0.00000000000E+00  0.64930732323E+04  0.65000000000E+04  0.30000000000E+03 0.  1.
        -52   -1    0    0    0    0 -0.00000000000E+00 -0.00000000000E+00 -0.64930732323E+04  0.65000000000E+04  0.30000000000E+03 0. -1.
     100001    1    1    2    0    0  0.50939017178E+03  0.57708227819E+04 -0.29437180271E+04  0.65000000000E+04  0.15050000000E+03 0. -1.
     100001    1    1    2    0    0 -0.50939017178E+03 -0.57708227819E+04  0.29437180271E+04  0.65000000000E+04  0.15050000000E+03 0.  1.
</event>
<event>
 4    1  0.4890333E-004  0.6500000E+04  0.7818608E-02  0.7223770E-01
         52   -1    0    0    0    0  0.00000000000E+00  0.00000000000E+00  0.64930732323E+04  0.65000000000E+04  0.30000000000E+03 0.  1.
        -52   -1    0    0    0    0 -0.00000000000E+00 -0.00000000000E+00 -0.64930732323E+04  0.65000000000E+04  0.30000000000E+03 0. -1.
     100001    1    1    2    0    0  0.21792126197E+03  0.56142373027E+02  0.64943597150E+04  0.65000000000E+04  0.15050000000E+03 0.  1.
     100001    1    1    2    0    0 -0.21792126197E+03 -0.56142373027E+02 -0.64943597150E+04  0.65000000000E+04  0.15050000000E+03 0. -1.
</event>
<event>
 4    1  0.4826743E-004  0.6500000E+04  0.7818608E-02  0.7223770E-01
         52   -1    0    0    0    0  0.00000000000E+00  0.00000000000E+00  0.64930732323E+04  0.65000000000E+04  0.30000000000E+03 0.  1.
        -52   -1    0    0    0    0 -0.00000000000E+00 -0.00000000000E+00 -0.64930732323E+04  0.65000000000E+04  0.30000000000E+03 0.  1.
     100001    1    1    2    0    0  0.20459990189E+02  0.12637013412E+04  0.63741658324E+04  0.65000000000E+04  0.15050000000E+03 0.  1.
     100001    1    1    2    0    0 -0.20459990189E+02 -0.12637013412E+04 -0.63741658324E+04  0.65000000000E+04  0.15050000000E+03 0.  1.
</event>
<event>
 4    1  0.4826743E-004  0.6500000E+04  0.7818608E-02  0.7223770E-01
         52   -1    0    0    0    0  0.00000000000E+00  0.00000000000E+00  0.64930732323E+04  0.65000000000E+04  0.30000000000E+03 0.  1.
        -52   -1    0    0    0    0 -0.00000000000E+00 -0.00000000000E+00 -0.64930732323E+04  0.65000000000E+04  0.30000000000E+03 0. -1.
     100001    1    1    2    0    0 -0.17526742901E+04  0.66234101484E+03 -0.62222814918E+04  0.65000000000E+04  0.15050000000E+03 0. -1.
     100001    1    1    2    0    0  0.17526742901E+04 -0.66234101484E+03  0.62222814918E+04  0.65000000000E+04  0.15050000000E+03 0.  1.
</event>
<event>
 4    1  0.4826743E-004  0.6500000E+04  0.7818608E-02  0.7223770E-01
         52   -1    0    0    0    0  0.00000000000E+00  0.00000000000E+00  0.64930732323E+04  0.65000000000E+04  0.30000000000E+03 0.  1.
        -52   -1    0    0    0    0 -0.00000000000E+00 -0.00000000000E+00 -0.64930732323E+04  0.65000000000E+04  0.30000000000E+03 0.  1.
     100001    1    1    2    0    0 -0.21142657427E+03 -0.48110568896E+03  0.64769735116E+04  0.65000000000E+04  0.15050000000E+03 0.  1.
     100001    1    1    2    0    0  0.21142657427E+03  0.48110568896E+03 -0.64769735116E+04  0.65000000000E+04  0.15050000000E+03 0.  1.
</event>
<event>
 4    1  0.4826743E-004  0.6500000E+04  0.7818608E-02  0.7223770E-01
         52   -1    0    0    0    0  0.00000000000E+00  0.00000000000E+00  0.64930732323E+04  0.65000000000E+04  0.30000000000E+03 0. -1.
        -52   -1    0    0    0    0 -0.00000000000E+00 -0.00000000000E+00 -0.64930732323E+04  0.65000000000E+04  0.30000000000E+03 0.  1.
     100001    1    1    2    0    0 -0.58275928502E+03 -0.22163210224E+04 -0.60807616703E+04  0.65000000000E+04  0.15050000000E+03 0.  1.
     100001    1    1    2    0    0  0.58275928502E+03  0.22163210224E+04  0.60807616703E+04  0.65000000000E+04  0.15050000000E+03 0. -1.
</event>
<event>
 4    1  0.4826743E-004  0.6500000E+04  0.7818608E-02  0.7223770E-01
         52   -1    0    0    0    0  0.00000000000E+00  0.00000000000E+00  0.64930732323E+04  0.65000000000E+04  0.30000000000E+03 0. -1.
        -52   -1    0    0    0    0 -0.00000000000E+00 -0.00000000000E+00 -0.64930732323E+04  0.65000000000E+04  0.30000000000E+03 0.  1.
     100001    1    1    2    0    0 -0.56706693950E+03 -0.21072176120E+04  0.61209001603E+04  0.65000000000E+04  0.15050000000E+03 0. -1.
     100001    1    1    2    0    0  0.56706693950E+03  0.21072176120E+04 -0.61209001603E+04  0.65000000000E+04  0.15050000000E+03 0.  1.
</event>
<event>
 4    1  0.4826743E-004  0.6500000E+04  0.7818608E-02  0.7223770E-01
         52   -1    0    0    0    0  0.00000000000E+00  0.00000000000E+00  0.64930732323E+04  0.65000000000E+04  0.30000000000E+03 0. -1.
        -52   -1    0    0    0    0 -0.00000000000E+00 -0.00000000000E+00 -0.64930732323E+04  0.65000000000E+04  0.30000000000E+03 0.  1.
     100001    1    1    2    0    0 -0.18010795302E+04  0.44624185371E+03  0.62277066794E+04  0.65000000000E+04  0.15050000000E+03 0. -1.
     100001    1    1    2    0    0  0.18010795302E+04 -0.44624185371E+03 -0.62277066794E+04  0.65000000000E+04  0.15050000000E+03 0.  1.
</event>
<event>
 4    1  0.4826743E-004  0.6500000E+04  0.7818608E-02  0.7223770E-01
         52   -1    0    0    0    0  0.00000000000E+00  0.00000000000E+00  0.64930732323E+04  0.65000000000E+04  0.30000000000E+03 0.  1.
        -52   -1    0    0    0    0 -0.00000000000E+00 -0.00000000000E+00 -0.64930732323E+04  0.65000000000E+04  0.30000000000E+03 0. -1.
     100001    1    1    2    0    0 -0.12265681536E+04  0.11976915068E+04  0.62680471735E+04  0.65000000000E+04  0.15050000000E+03 0.  1.
     100001    1    1    2    0    0  0.12265681536E+04 -0.11976915068E+04 -0.62680471735E+04  0.65000000000E+04  0.15050000000E+03 0. -1.
</event>
<event>
 4    1  0.4826743E-004  0.6500000E+04  0.7818608E-02  0.7223770E-01
         52   -1    0    0    0    0  0.00000000000E+00  0.00000000000E+00  0.64930732323E+04  0.65000000000E+04  0.30000000000E+03 0. -1.
        -52   -1    0    0    0    0 -0.00000000000E+00 -0.00000000000E+00 -0.64930732323E+04  0.65000000000E+04  0.30000000000E+03 0.  1.
     100001    1    1    2    0    0  0.39053199452E+04 -0.36045248857E+02 -0.51937006667E+04  0.65000000000E+04  0.15050000000E+03 0.  1.
     100001    1    1    2    0    0 -0.39053199452E+04  0.36045248857E+02  0.51937006667E+04  0.65000000000E+04  0.15050000000E+03 0. -1.
</event>
<event>
 4    1  0.4826743E-004  0.6500000E+04  0.7818608E-02  0.7223770E-01
         52   -1    0    0    0    0  0.00000000000E+00  0.00000000000E+00  0.64930732323E+04  0.65000000000E+04  0.30000000000E+03 0.  1.
        -52   -1    0    0    0    0 -0.00000000000E+00 -0.00000000000E+00 -0.64930732323E+04  0.65000000000E+04  0.30000000000E+03 0. -1.
     100001    1    1    2    0    0 -0.19222426155E+04 -0.17505387511E+04 -0.59554972217E+04  0.65000000000E+04  0.15050000000E+03 0. -1.
     100001    1    1    2    0    0  0.19222426155E+04  0.17505387511E+04  0.59554972217E+04  0.65000000000E+04  0.15050000000E+03 0.  1.
</event>
<event>
 4    1  0.4826743E-004  0.6500000E+04  0.7818608E-02  0.7223770E-01
         52   -1    0    0    0    0  0.00000000000E+00  0.00000000000E+00  0.64930732323E+04  0.65000000000E+04  0.30000000000E+03 0. -1.
        -52   -1    0    0    0    0 -0.00000000000E+00 -0.00000000000E+00 -0.64930732323E+04  0.65000000000E+04  0.30000000000E+03 0.  1.
     100001    1    1    2    0    0 -0.80192406350E+03  0.37924373163E+03  0.64374250860E+04  0.65000000000E+04  0.15050000000E+03 0. -1.
     100001    1    1    2    0    0  0.80192406350E+03 -0.37924373163E+03 -0.64374250860E+04  0.65000000000E+04  0.15050000000E+03 0.  1.
</event>
<event>
 4    1  0.4826743E-004  0.6500000E+04  0.7818608E-02  0.7223770E-01
         52   -1    0    0    0    0  0.00000000000E+00  0.00000000000E+00  0.64930732323E+04  0.65000000000E+04  0.30000000000E+03 0. -1.
        -52   -1    0    0    0    0 -0.00000000000E+00 -0.00000000000E+00 -0.64930732323E+04  0.65000000000E+04  0.30000000000E+03 0.  1.
     100001    1    1    2    0    0 -0.15920687895E+04 -0.10940183114E+04  0.62044976149E+04  0.65000000000E+04  0.15050000000E+03 0. -1.
     100001    1    1    2    0    0  0.15920687895E+04  0.10940183114E+04 -0.62044976149E+04  0.65000000000E+04  0.15050000000E+03 0.  1.
</event>
<event>
 4    1  0.4826743E-004  0.6500000E+04  0.7818608E-02  0.7223770E-01
         52   -1    0    0    0    0  0.00000000000E+00  0.00000000000E+00  0.64930732323E+04  0.65000000000E+04  0.30000000000E+03 0. -1.
        -52   -1    0    0    0    0 -0.00000000000E+00 -0.00000000000E+00 -0.64930732323E+04  0.65000000000E+04  0.30000000000E+03 0.  1.
     100001    1    1    2    0    0 -0.86909155478E+03  0.29855285183E+04 -0.57060186720E+04  0.65000000000E+04  0.15050000000E+03 0.  1.
     100001    1    1    2    0    0  0.86909155478E+03 -0.29855285183E+04  0.57060186720E+04  0.65000000000E+04  0.15050000000E+03 0. -1.
</event>
<event>
 4    1  0.4826743E-004  0.6500000E+04  0.7818608E-02  0.7223770E-01
         52   -1    0    0    0    0  0.00000000000E+00  0.00000000000E+00  0.64930732323E+04  0.65000000000E+04  0.30000000000E+03 0. -1.
        -52   -1    0    0    0    0 -0.00000000000E+00 -0.00000000000E+00 -0.64930732323E+04  0.65000000000E+04  0.30000000000E+03 0.  1.
     100001    1    1    2    0    0  0.48305430986E+03 -0.12457537910E+04  0.63594108042E+04  0.65000000000E+04  0.15050000000E+03 0. -1.
     100001    1    1    2    0    0 -0.48305430986E+03  0.12457537910E+04 -0.63594108042E+04  0.65000000000E+04  0.15050000000E+03 0.  1.
</event>
<event>
 4    1  0.4826743E-004  0.6500000E+04  0.7818608E-02  0.7223770E-01
         52   -1    0    0    0    0  0.00000000000E+00  0.00000000000E+00  0.64930732323E+04  0.65000000000E+04  0.30000000000E+03 0. -1.
        -52   -1    0    0    0    0 -0.00000000000E+00 -0.00000000000E+00 -0.64930732323E+04  0.65000000000E+04  0.30000000000E+03 0.  1.
     100001    1    1    2    0    0 -0.84615076298E+03 -0.58417544652E+04  0.27175877915E+04  0.65000000000E+04  0.15050000000E+03 0. -1.
     100001    1    1    2    0    0  0.84615076298E+03  0.58417544652E+04 -0.27175877915E+04  0.65000000000E+04  0.15050000000E+03 0.  1.
</event>
<event>
 4    1  0.4826743E-004  0.6500000E+04  0.7818608E-02  0.7223770E-01
         52   -1    0    0    0    0  0.00000000000E+00  0.00000000000E+00  0.64930732323E+04  0.65000000000E+04  0.30000000000E+03 0.  1.
        -52   -1    0    0    0    0 -0.00000000000E+00 -0.00000000000E+00 -0.64930732323E+04  0.65000000000E+04  0.30000000000E+03 0. -1.
     100001    1    1    2    0    0  0.29901642298E+03  0.13057768638E+03 -0.64900607391E+04  0.65000000000E+04  0.15050000000E+03 0. -1.
     100001    1    1    2    0    0 -0.29901642298E+03 -0.13057768638E+03  0.64900607391E+04  0.65000000000E+04  0.15050000000E+03 0.  1.
</event>
<event>
 4    1  0.4826743E-004  0.6500000E+04  0.7818608E-02  0.7223770E-01
         52   -1    0    0    0    0  0.00000000000E+00  0.00000000000E+00  0.64930732323E+04  0.65000000000E+04  0.30000000000E+03 0.  1.
        -52   -1    0    0    0    0 -0.00000000000E+00 -0.00000000000E+00 -0.64930732323E+04  0.65000000000E+04  0.30000000000E+03 0. -1.
     100001    1    1    2    0    0 -0.32727845918E+04  0.79216215469E+03 -0.55577612297E+04  0.65000000000E+04  0.15050000000E+03 0. -1.
     100001    1    1    2    0    0  0.32727845918E+04 -0.79216215469E+03  0.55577612297E+04  0.65000000000E+04  0.15050000000E+03 0.  1.
</event>
<event>
 4    1  0.4826743E-004  0.6500000E+04  0.7818608E-02  0.7223770E-01
         52   -1    0    0    0    0  0.00000000000E+00  0.00000000000E+00  0.64930732323E+04  0.65000000000E+04  0.30000000000E+03 0.  1.
        -52   -1    0    0    0    0 -0.00000000000E+00 -0.00000000000E+00 -0.64930732323E+04  0.65000000000E+04  0.30000000000E+03 0. -1.
     100001    1    1    2    0    0  0.16126841944E+03  0.24557056836E+03 -0.64916128460E+04  0.65000000000E+04  0.15050000000E+03 0. -1.
     100001    1    1    2    0    0 -0.16126841944E+03 -0.24557056836E+03  0.64916128460E+04  0.65000000000E+04  0.15050000000E+03 0.  1.
</event>
<event>
 4    1  0.4826743E-004  0.6500000E+04  0.7818608E-02  0.7223770E-01
         52   -1    0    0    0    0  0.00000000000E+00  0.00000000000E+00  0.64930732323E+04  0.65000000000E+04  0.30000000000E+03 0. -1.
        -52   -1    0    0    0    0 -0.00000000000E+00 -0.00000000000E+00 -0.64930732323E+04  0.65000000000E+04  0.30000000000E+03 0.  1.
     100001    1    1    2    0    0  0.47040234267E+03  0.38365466717E+03  0.64698439303E+04  0.65000000000E+04  0.15050000000E+03 0. -1.
     100001    1    1    2    0    0 -0.47040234267E+03 -0.38365466717E+03 -0.64698439303E+04  0.65000000000E+04  0.15050000000E+03 0.  1.
</event>
<event>
 4    1  0.4826743E-004  0.6500000E+04  0.7818608E-02  0.7223770E-01
         52   -1    0    0    0    0  0.00000000000E+00  0.00000000000E+00  0.64930732323E+04  0.65000000000E+04  0.30000000000E+03 0. -1.
        -52   -1    0    0    0    0 -0.00000000000E+00 -0.00000000000E+00 -0.64930732323E+04  0.65000000000E+04  0.30000000000E+03 0.  1.
     100001    1    1    2    0    0  0.20209943188E+03  0.78490590797E+03 -0.64475133412E+04  0.65000000000E+04  0.15050000000E+03 0.  1.
     100001    1    1    2    0    0 -0.20209943188E+03 -0.78490590797E+03  0.64475133412E+04  0.65000000000E+04  0.15050000000E+03 0. -1.
</event>
<event>
 4    1  0.4826743E-004  0.6500000E+04  0.7818608E-02  0.7223770E-01
         52   -1    0    0    0    0  0.00000000000E+00  0.00000000000E+00  0.64930732323E+04  0.65000000000E+04  0.30000000000E+03 0.  1.
        -52   -1    0    0    0    0 -0.00000000000E+00 -0.00000000000E+00 -0.64930732323E+04  0.65000000000E+04  0.30000000000E+03 0. -1.
     100001    1    1    2    0    0 -0.52802681212E+03 -0.14932174551E+03 -0.64750475251E+04  0.65000000000E+04  0.15050000000E+03 0. -1.
     100001    1    1    2    0    0  0.52802681212E+03  0.14932174551E+03  0.64750475251E+04  0.65000000000E+04  0.15050000000E+03 0.  1.
</event>
<event>
 4    1  0.4826743E-004  0.6500000E+04  0.7818608E-02  0.7223770E-01
         52   -1    0    0    0    0  0.00000000000E+00  0.00000000000E+00  0.64930732323E+04  0.65000000000E+04  0.30000000000E+03 0.  1.
        -52   -1    0    0    0    0 -0.00000000000E+00 -0.00000000000E+00 -0.64930732323E+04  0.65000000000E+04  0.30000000000E+03 0. -1.
     100001    1    1    2    0    0 -0.96614879364E+03  0.20053841455E+03  0.64229035959E+04  0.65000000000E+04  0.15050000000E+03 0.  1.
     100001    1    1    2    0    0  0.96614879364E+03 -0.20053841455E+03 -0.64229035959E+04  0.65000000000E+04  0.15050000000E+03 0. -1.
</event>
<event>
 4    1  0.4826743E-004  0.6500000E+04  0.7818608E-02  0.7223770E-01
         52   -1    0    0    0    0  0.00000000000E+00  0.00000000000E+00  0.64930732323E+04  0.65000000000E+04  0.30000000000E+03 0. -1.
        -52   -1    0    0    0    0 -0.00000000000E+00 -0.00000000000E+00 -0.64930732323E+04  0.65000000000E+04  0.30000000000E+03 0. -1.
     100001    1    1    2    0    0 -0.30184556044E+02 -0.10616958862E+03 -0.64973199599E+04  0.65000000000E+04  0.15050000000E+03 0. -1.
     100001    1    1    2    0    0  0.30184556044E+02  0.10616958862E+03  0.64973199599E+04  0.65000000000E+04  0.15050000000E+03 0. -1.
</event>
<event>
 4    1  0.4826743E-004  0.6500000E+04  0.7818608E-02  0.7223770E-01
         52   -1    0    0    0    0  0.00000000000E+00  0.00000000000E+00  0.64930732323E+04  0.65000000000E+04  0.30000000000E+03 0.  1.
        -52   -1    0    0    0    0 -0.00000000000E+00 -0.00000000000E+00 -0.64930732323E+04  0.65000000000E+04  0.30000000000E+03 0.  1.
     100001    1    1    2    0    0 -0.47122771430E+03  0.88638512158E+03  0.64202504318E+04  0.65000000000E+04  0.15050000000E+03 0.  1.
     100001    1    1    2    0    0  0.47122771430E+03 -0.88638512158E+03 -0.64202504318E+04  0.65000000000E+04  0.15050000000E+03 0.  1.
</event>
<event>
 4    1  0.4826743E-004  0.6500000E+04  0.7818608E-02  0.7223770E-01
         52   -1    0    0    0    0  0.00000000000E+00  0.00000000000E+00  0.64930732323E+04  0.65000000000E+04  0.30000000000E+03 0. -1.
        -52   -1    0    0    0    0 -0.00000000000E+00 -0.00000000000E+00 -0.64930732323E+04  0.65000000000E+04  0.30000000000E+03 0.  1.
     100001    1    1    2    0    0 -0.15381127889E+04 -0.62987362233E+04  0.43299051648E+03  0.65000000000E+04  0.15050000000E+03 0. -1.
     100001    1    1    2    0    0  0.15381127889E+04  0.62987362233E+04 -0.43299051648E+03  0.65000000000E+04  0.15050000000E+03 0.  1.
</event>
<event>
 4    1  0.4826743E-004  0.6500000E+04  0.7818608E-02  0.7223770E-01
         52   -1    0    0    0    0  0.00000000000E+00  0.00000000000E+00  0.64930732323E+04  0.65000000000E+04  0.30000000000E+03 0.  1.
        -52   -1    0    0    0    0 -0.00000000000E+00 -0.00000000000E+00 -0.64930732323E+04  0.65000000000E+04  0.30000000000E+03 0. -1.
     100001    1    1    2    0    0 -0.56586737666E+04  0.20897324223E+04 -0.24165635429E+04  0.65000000000E+04  0.15050000000E+03 0. -1.
     100001    1    1    2    0    0  0.56586737666E+04 -0.20897324223E+04  0.24165635429E+04  0.65000000000E+04  0.15050000000E+03 0.  1.
</event>
<event>
 4    1  0.4826743E-004  0.6500000E+04  0.7818608E-02  0.7223770E-01
         52   -1    0    0    0    0  0.00000000000E+00  0.00000000000E+00  0.64930732323E+04  0.65000000000E+04  0.30000000000E+03 0. -1.
        -52   -1    0    0    0    0 -0.00000000000E+00 -0.00000000000E+00 -0.64930732323E+04  0.65000000000E+04  0.30000000000E+03 0.  1.
     100001    1    1    2    0    0  0.14489496135E+04 -0.40166213023E+03 -0.63219112854E+04  0.65000000000E+04  0.15050000000E+03 0.  1.
     100001    1    1    2    0    0 -0.14489496135E+04  0.40166213023E+03  0.63219112854E+04  0.65000000000E+04  0.15050000000E+03 0. -1.
</event>
<event>
 4    1  0.4826743E-004  0.6500000E+04  0.7818608E-02  0.7223770E-01
         52   -1    0    0    0    0  0.00000000000E+00  0.00000000000E+00  0.64930732323E+04  0.65000000000E+04  0.30000000000E+03 0.  1.
        -52   -1    0    0    0    0 -0.00000000000E+00 -0.00000000000E+00 -0.64930732323E+04  0.65000000000E+04  0.30000000000E+03 0. -1.
     100001    1    1    2    0    0 -0.70195150330E+03 -0.95050358203E+01 -0.64602262725E+04  0.65000000000E+04  0.15050000000E+03 0. -1.
     100001    1    1    2    0    0  0.70195150330E+03  0.95050358203E+01  0.64602262725E+04  0.65000000000E+04  0.15050000000E+03 0.  1.
</event>
<event>
 4    1  0.4826743E-004  0.6500000E+04  0.7818608E-02  0.7223770E-01
         52   -1    0    0    0    0  0.00000000000E+00  0.00000000000E+00  0.64930732323E+04  0.65000000000E+04  0.30000000000E+03 0.  1.
        -52   -1    0    0    0    0 -0.00000000000E+00 -0.00000000000E+00 -0.64930732323E+04  0.65000000000E+04  0.30000000000E+03 0.  1.
     100001    1    1    2    0    0  0.16261396933E+02  0.22396402257E+03  0.64943764469E+04  0.65000000000E+04  0.15050000000E+03 0.  1.
     100001    1    1    2    0    0 -0.16261396933E+02 -0.22396402257E+03 -0.64943764469E+04  0.65000000000E+04  0.15050000000E+03 0.  1.
</event>
<event>
 4    1  0.4826743E-004  0.6500000E+04  0.7818608E-02  0.7223770E-01
         52   -1    0    0    0    0  0.00000000000E+00  0.00000000000E+00  0.64930732323E+04  0.65000000000E+04  0.30000000000E+03 0. -1.
        -52   -1    0    0    0    0 -0.00000000000E+00 -0.00000000000E+00 -0.64930732323E+04  0.65000000000E+04  0.30000000000E+03 0.  1.
     100001    1    1    2    0    0 -0.18238284217E+04 -0.14621835987E+03 -0.62353524222E+04  0.65000000000E+04  0.15050000000E+03 0.  1.
     100001    1    1    2    0    0  0.18238284217E+04  0.14621835987E+03  0.62353524222E+04  0.65000000000E+04  0.15050000000E+03 0. -1.
</event>
<event>
 4    1  0.4826743E-004  0.6500000E+04  0.7818608E-02  0.7223770E-01
         52   -1    0    0    0    0  0.00000000000E+00  0.00000000000E+00  0.64930732323E+04  0.65000000000E+04  0.30000000000E+03 0. -1.
        -52   -1    0    0    0    0 -0.00000000000E+00 -0.00000000000E+00 -0.64930732323E+04  0.65000000000E+04  0.30000000000E+03 0.  1.
     100001    1    1    2    0    0 -0.18461484885E+02 -0.93092786231E+03 -0.64312037939E+04  0.65000000000E+04  0.15050000000E+03 0.  1.
     100001    1    1    2    0    0  0.18461484885E+02  0.93092786231E+03  0.64312037939E+04  0.65000000000E+04  0.15050000000E+03 0. -1.
</event>
<event>
 4    1  0.4826743E-004  0.6500000E+04  0.7818608E-02  0.7223770E-01
         52   -1    0    0    0    0  0.00000000000E+00  0.00000000000E+00  0.64930732323E+04  0.65000000000E+04  0.30000000000E+03 0. -1.
        -52   -1    0    0    0    0 -0.00000000000E+00 -0.00000000000E+00 -0.64930732323E+04  0.65000000000E+04  0.30000000000E+03 0. -1.
     100001    1    1    2    0    0  0.59303128902E+04  0.21839828402E+04  0.15129301795E+04  0.65000000000E+04  0.15050000000E+03 0. -1.
     100001    1    1    2    0    0 -0.59303128902E+04 -0.21839828402E+04 -0.15129301795E+04  0.65000000000E+04  0.15050000000E+03 0.  1.
</event>
<event>
 4    1  0.4826743E-004  0.6500000E+04  0.7818608E-02  0.7223770E-01
         52   -1    0    0    0    0  0.00000000000E+00  0.00000000000E+00  0.64930732323E+04  0.65000000000E+04  0.30000000000E+03 0.  1.
        -52   -1    0    0    0    0 -0.00000000000E+00 -0.00000000000E+00 -0.64930732323E+04  0.65000000000E+04  0.30000000000E+03 0. -1.
     100001    1    1    2    0    0  0.40703503885E+03 -0.25671745185E+03  0.64804142134E+04  0.65000000000E+04  0.15050000000E+03 0.  1.
     100001    1    1    2    0    0 -0.40703503885E+03  0.25671745185E+03 -0.64804142134E+04  0.65000000000E+04  0.15050000000E+03 0. -1.
</event>
<event>
 4    1  0.8184751E-004  0.6500000E+04  0.7818608E-02  0.7223770E-01
         52   -1    0    0    0    0  0.00000000000E+00  0.00000000000E+00  0.64930732323E+04  0.65000000000E+04  0.30000000000E+03 0. -1.
        -52   -1    0    0    0    0 -0.00000000000E+00 -0.00000000000E+00 -0.64930732323E+04  0.65000000000E+04  0.30000000000E+03 0. -1.
     100001    1    1    2    0    0 -0.41074137159E+02  0.56927658253E+02 -0.64978782619E+04  0.65000000000E+04  0.15050000000E+03 0. -1.
     100001    1    1    2    0    0  0.41074137159E+02 -0.56927658253E+02  0.64978782619E+04  0.65000000000E+04  0.15050000000E+03 0. -1.
</event>
<event>
 4    1  0.4826743E-004  0.6500000E+04  0.7818608E-02  0.7223770E-01
         52   -1    0    0    0    0  0.00000000000E+00  0.00000000000E+00  0.64930732323E+04  0.65000000000E+04  0.30000000000E+03 0.  1.
        -52   -1    0    0    0    0 -0.00000000000E+00 -0.00000000000E+00 -0.64930732323E+04  0.65000000000E+04  0.30000000000E+03 0. -1.
     100001    1    1    2    0    0 -0.40837179076E+04 -0.10661504400E+04 -0.49410445293E+04  0.65000000000E+04  0.15050000000E+03 0. -1.
     100001    1    1    2    0    0  0.40837179076E+04  0.10661504400E+04  0.49410445293E+04  0.65000000000E+04  0.15050000000E+03 0.  1.
</event>
<event>
 4    1  0.4826743E-004  0.6500000E+04  0.7818608E-02  0.7223770E-01
         52   -1    0    0    0    0  0.00000000000E+00  0.00000000000E+00  0.64930732323E+04  0.65000000000E+04  0.30000000000E+03 0.  1.
        -52   -1    0    0    0    0 -0.00000000000E+00 -0.00000000000E+00 -0.64930732323E+04  0.65000000000E+04  0.30000000000E+03 0. -1.
     100001    1    1    2    0    0 -0.58966766539E+04 -0.18643416858E+04  0.19951902837E+04  0.65000000000E+04  0.15050000000E+03 0.  1.
     100001    1    1    2    0    0  0.58966766539E+04  0.18643416858E+04 -0.19951902837E+04  0.65000000000E+04  0.15050000000E+03 0. -1.
</event>
<event>
 4    1  0.4826743E-004  0.6500000E+04  0.7818608E-02  0.7223770E-01
         52   -1    0    0    0    0  0.00000000000E+00  0.00000000000E+00  0.64930732323E+04  0.65000000000E+04  0.30000000000E+03 0.  1.
        -52   -1    0    0    0    0 -0.00000000000E+00 -0.00000000000E+00 -0.64930732323E+04  0.65000000000E+04  0.30000000000E+03 0. -1.
     100001    1    1    2    0    0 -0.16182082881E+04 -0.10113480550E+04 -0.62117571425E+04  0.65000000000E+04  0.15050000000E+03 0. -1.
     100001    1    1    2    0    0  0.16182082881E+04  0.10113480550E+04  0.62117571425E+04  0.65000000000E+04  0.15050000000E+03 0.  1.
</event>
<event>
 4    1  0.4826743E-004  0.6500000E+04  0.7818608E-02  0.7223770E-01
         52   -1    0    0    0    0  0.00000000000E+00  0.00000000000E+00  0.64930732323E+04  0.65000000000E+04  0.30000000000E+03 0. -1.
        -52   -1    0    0    0    0 -0.00000000000E+00 -0.00000000000E+00 -0.64930732323E+04  0.65000000000E+04  0.30000000000E+03 0.  1.
     100001    1    1    2    0    0 -0.29719792241E+04  0.57620622069E+04  0.43969121527E+03  0.65000000000E+04  0.15050000000E+03 0. -1.
     100001    1    1    2    0    0  0.29719792241E+04 -0.57620622069E+04 -0.43969121527E+03  0.65000000000E+04  0.15050000000E+03 0.  1.
</event>
<event>
 4    1  0.4826743E-004  0.6500000E+04  0.7818608E-02  0.7223770E-01
         52   -1    0    0    0    0  0.00000000000E+00  0.00000000000E+00  0.64930732323E+04  0.65000000000E+04  0.30000000000E+03 0. -1.
        -52   -1    0    0    0    0 -0.00000000000E+00 -0.00000000000E+00 -0.64930732323E+04  0.65000000000E+04  0.30000000000E+03 0. -1.
     100001    1    1    2    0    0  0.11553728751E+03 -0.12331427659E+03 -0.64960599192E+04  0.65000000000E+04  0.15050000000E+03 0. -1.
     100001    1    1    2    0    0 -0.11553728751E+03  0.12331427659E+03  0.64960599192E+04  0.65000000000E+04  0.15050000000E+03 0. -1.
</event>
<event>
 4    1  0.4826743E-004  0.6500000E+04  0.7818608E-02  0.7223770E-01
         52   -1    0    0    0    0  0.00000000000E+00  0.00000000000E+00  0.64930732323E+04  0.65000000000E+04  0.30000000000E+03 0. -1.
        -52   -1    0    0    0    0 -0.00000000000E+00 -0.00000000000E+00 -0.64930732323E+04  0.65000000000E+04  0.30000000000E+03 0.  1.
     100001    1    1    2    0    0 -0.16437932976E+03  0.45202532688E+03 -0.64804322610E+04  0.65000000000E+04  0.15050000000E+03 0.  1.
     100001    1    1    2    0    0  0.16437932976E+03 -0.45202532688E+03  0.64804322610E+04  0.65000000000E+04  0.15050000000E+03 0. -1.
</event>
<event>
 4    1  0.4826743E-004  0.6500000E+04  0.7818608E-02  0.7223770E-01
         52   -1    0    0    0    0  0.00000000000E+00  0.00000000000E+00  0.64930732323E+04  0.65000000000E+04  0.30000000000E+03 0. -1.
        -52   -1    0    0    0    0 -0.00000000000E+00 -0.00000000000E+00 -0.64930732323E+04  0.65000000000E+04  0.30000000000E+03 0.  1.
     100001    1    1    2    0    0 -0.66339131407E+02 -0.79559609581E+03 -0.64490290527E+04  0.65000000000E+04  0.15050000000E+03 0.  1.
     100001    1    1    2    0    0  0.66339131407E+02  0.79559609581E+03  0.64490290527E+04  0.65000000000E+04  0.15050000000E+03 0. -1.
</event>
<event>
 4    1  0.4826743E-004  0.6500000E+04  0.7818608E-02  0.7223770E-01
         52   -1    0    0    0    0  0.00000000000E+00  0.00000000000E+00  0.64930732323E+04  0.65000000000E+04  0.30000000000E+03 0. -1.
        -52   -1    0    0    0    0 -0.00000000000E+00 -0.00000000000E+00 -0.64930732323E+04  0.65000000000E+04  0.30000000000E+03 0.  1.
     100001    1    1    2    0    0 -0.21656947869E+04  0.16810175734E+04 -0.58916292957E+04  0.65000000000E+04  0.15050000000E+03 0.  1.
     100001    1    1    2    0    0  0.21656947869E+04 -0.16810175734E+04  0.58916292957E+04  0.65000000000E+04  0.15050000000E+03 0. -1.
</event>
<event>
 4    1  0.4826743E-004  0.6500000E+04  0.7818608E-02  0.7223770E-01
         52   -1    0    0    0    0  0.00000000000E+00  0.00000000000E+00  0.64930732323E+04  0.65000000000E+04  0.30000000000E+03 0.  1.
        -52   -1    0    0    0    0 -0.00000000000E+00 -0.00000000000E+00 -0.64930732323E+04  0.65000000000E+04  0.30000000000E+03 0. -1.
     100001    1    1    2    0    0 -0.70618495121E+03 -0.71879992255E+03 -0.64196556945E+04  0.65000000000E+04  0.15050000000E+03 0. -1.
     100001    1    1    2    0    0  0.70618495121E+03  0.71879992255E+03  0.64196556945E+04  0.65000000000E+04  0.15050000000E+03 0.  1.
</event>
<event>
 4    1  0.4826743E-004  0.6500000E+04  0.7818608E-02  0.7223770E-01
         52   -1    0    0    0    0  0.00000000000E+00  0.00000000000E+00  0.64930732323E+04  0.65000000000E+04  0.30000000000E+03 0. -1.
        -52   -1    0    0    0    0 -0.00000000000E+00 -0.00000000000E+00 -0.64930732323E+04  0.65000000000E+04  0.30000000000E+03 0.  1.
     100001    1    1    2    0    0  0.34981250318E+04  0.27854434341E+03  0.54692672325E+04  0.65000000000E+04  0.15050000000E+03 0. -1.
     100001    1    1    2    0    0 -0.34981250318E+04 -0.27854434341E+03 -0.54692672325E+04  0.65000000000E+04  0.15050000000E+03 0.  1.
</event>
<event>
 4    1  0.4826743E-004  0.6500000E+04  0.7818608E-02  0.7223770E-01
         52   -1    0    0    0    0  0.00000000000E+00  0.00000000000E+00  0.64930732323E+04  0.65000000000E+04  0.30000000000E+03 0.  1.
        -52   -1    0    0    0    0 -0.00000000000E+00 -0.00000000000E+00 -0.64930732323E+04  0.65000000000E+04  0.30000000000E+03 0. -1.
     100001    1    1    2    0    0  0.32998385261E+03  0.23667275076E+03  0.64855567545E+04  0.65000000000E+04  0.15050000000E+03 0.  1.
     100001    1    1    2    0    0 -0.32998385261E+03 -0.23667275076E+03 -0.64855567545E+04  0.65000000000E+04  0.15050000000E+03 0. -1.
</event>
<event>
 4    1  0.4826743E-004  0.6500000E+04  0.7818608E-02  0.7223770E-01
         52   -1    0    0    0    0  0.00000000000E+00  0.00000000000E+00  0.64930732323E+04  0.65000000000E+04  0.30000000000E+03 0. -1.
        -52   -1    0    0    0    0 -0.00000000000E+00 -0.00000000000E+00 -0.64930732323E+04  0.65000000000E+04  0.30000000000E+03 0.  1.
     100001    1    1    2    0    0 -0.21983241772E+03  0.95982622704E+03 -0.64232201482E+04  0.65000000000E+04  0.15050000000E+03 0.  1.
     100001    1    1    2    0    0  0.21983241772E+03 -0.95982622704E+03  0.64232201482E+04  0.65000000000E+04  0.15050000000E+03 0. -1.
</event>
<event>
 4    1  0.4826743E-004  0.6500000E+04  0.7818608E-02  0.7223770E-01
         52   -1    0    0    0    0  0.00000000000E+00  0.00000000000E+00  0.64930732323E+04  0.65000000000E+04  0.30000000000E+03 0.  1.
        -52   -1    0    0    0    0 -0.00000000000E+00 -0.00000000000E+00 -0.64930732323E+04  0.65000000000E+04  0.30000000000E+03 0. -1.
     100001    1    1    2    0    0  0.38514089608E+02  0.57386145446E+03 -0.64727543941E+04  0.65000000000E+04  0.15050000000E+03 0. -1.
     100001    1    1    2    0    0 -0.38514089608E+02 -0.57386145446E+03  0.64727543941E+04  0.65000000000E+04  0.15050000000E+03 0.  1.
</event>
<event>
 4    1  0.4826743E-004  0.6500000E+04  0.7818608E-02  0.7223770E-01
         52   -1    0    0    0    0  0.00000000000E+00  0.00000000000E+00  0.64930732323E+04  0.65000000000E+04  0.30000000000E+03 0. -1.
        -52   -1    0    0    0    0 -0.00000000000E+00 -0.00000000000E+00 -0.64930732323E+04  0.65000000000E+04  0.30000000000E+03 0.  1.
     100001    1    1    2    0    0  0.12082768530E+04 -0.31600801994E+03  0.63771118641E+04  0.65000000000E+04  0.15050000000E+03 0. -1.
     100001    1    1    2    0    0 -0.12082768530E+04  0.31600801994E+03 -0.63771118641E+04  0.65000000000E+04  0.15050000000E+03 0.  1.
</event>
<event>
 4    1  0.4826743E-004  0.6500000E+04  0.7818608E-02  0.7223770E-01
         52   -1    0    0    0    0  0.00000000000E+00  0.00000000000E+00  0.64930732323E+04  0.65000000000E+04  0.30000000000E+03 0. -1.
        -52   -1    0    0    0    0 -0.00000000000E+00 -0.00000000000E+00 -0.64930732323E+04  0.65000000000E+04  0.30000000000E+03 0.  1.
     100001    1    1    2    0    0  0.11045516801E+04  0.78535727167E+03  0.63553543797E+04  0.65000000000E+04  0.15050000000E+03 0. -1.
     100001    1    1    2    0    0 -0.11045516801E+04 -0.78535727167E+03 -0.63553543797E+04  0.65000000000E+04  0.15050000000E+03 0.  1.
</event>
<event>
 4    1  0.4826743E-004  0.6500000E+04  0.7818608E-02  0.7223770E-01
         52   -1    0    0    0    0  0.00000000000E+00  0.00000000000E+00  0.64930732323E+04  0.65000000000E+04  0.30000000000E+03 0. -1.
        -52   -1    0    0    0    0 -0.00000000000E+00 -0.00000000000E+00 -0.64930732323E+04  0.65000000000E+04  0.30000000000E+03 0. -1.
     100001    1    1    2    0    0  0.30427876943E+03 -0.38142428867E+03 -0.64799135559E+04  0.65000000000E+04  0.15050000000E+03 0. -1.
     100001    1    1    2    0    0 -0.30427876943E+03  0.38142428867E+03  0.64799135559E+04  0.65000000000E+04  0.15050000000E+03 0. -1.
</event>
<event>
 4    1  0.4826743E-004  0.6500000E+04  0.7818608E-02  0.7223770E-01
         52   -1    0    0    0    0  0.00000000000E+00  0.00000000000E+00  0.64930732323E+04  0.65000000000E+04  0.30000000000E+03 0.  1.
        -52   -1    0    0    0    0 -0.00000000000E+00 -0.00000000000E+00 -0.64930732323E+04  0.65000000000E+04  0.30000000000E+03 0. -1.
     100001    1    1    2    0    0 -0.12610761275E+04 -0.14179437899E+04 -0.62150198841E+04  0.65000000000E+04  0.15050000000E+03 0. -1.
     100001    1    1    2    0    0  0.12610761275E+04  0.14179437899E+04  0.62150198841E+04  0.65000000000E+04  0.15050000000E+03 0.  1.
</event>
<event>
 4    1  0.4826743E-004  0.6500000E+04  0.7818608E-02  0.7223770E-01
         52   -1    0    0    0    0  0.00000000000E+00  0.00000000000E+00  0.64930732323E+04  0.65000000000E+04  0.30000000000E+03 0. -1.
        -52   -1    0    0    0    0 -0.00000000000E+00 -0.00000000000E+00 -0.64930732323E+04  0.65000000000E+04  0.30000000000E+03 0.  1.
     100001    1    1    2    0    0 -0.28506419883E+03  0.17997807835E+03 -0.64895066102E+04  0.65000000000E+04  0.15050000000E+03 0.  1.
     100001    1    1    2    0    0  0.28506419883E+03 -0.17997807835E+03  0.64895066102E+04  0.65000000000E+04  0.15050000000E+03 0. -1.
</event>
<event>
 4    1  0.4826743E-004  0.6500000E+04  0.7818608E-02  0.7223770E-01
         52   -1    0    0    0    0  0.00000000000E+00  0.00000000000E+00  0.64930732323E+04  0.65000000000E+04  0.30000000000E+03 0. -1.
        -52   -1    0    0    0    0 -0.00000000000E+00 -0.00000000000E+00 -0.64930732323E+04  0.65000000000E+04  0.30000000000E+03 0.  1.
     100001    1    1    2    0    0  0.12483561381E+04  0.15946869740E+04  0.61746198391E+04  0.65000000000E+04  0.15050000000E+03 0. -1.
     100001    1    1    2    0    0 -0.12483561381E+04 -0.15946869740E+04 -0.61746198391E+04  0.65000000000E+04  0.15050000000E+03 0.  1.
</event>
<event>
 4    1  0.4826743E-004  0.6500000E+04  0.7818608E-02  0.7223770E-01
         52   -1    0    0    0    0  0.00000000000E+00  0.00000000000E+00  0.64930732323E+04  0.65000000000E+04  0.30000000000E+03 0.  1.
        -52   -1    0    0    0    0 -0.00000000000E+00 -0.00000000000E+00 -0.64930732323E+04  0.65000000000E+04  0.30000000000E+03 0. -1.
     100001    1    1    2    0    0  0.19881373617E+03  0.12875801691E+04 -0.63663144877E+04  0.65000000000E+04  0.15050000000E+03 0. -1.
     100001    1    1    2    0    0 -0.19881373617E+03 -0.12875801691E+04  0.63663144877E+04  0.65000000000E+04  0.15050000000E+03 0.  1.
</event>
<event>
 4    1  0.4826743E-004  0.6500000E+04  0.7818608E-02  0.7223770E-01
         52   -1    0    0    0    0  0.00000000000E+00  0.00000000000E+00  0.64930732323E+04  0.65000000000E+04  0.30000000000E+03 0. -1.
        -52   -1    0    0    0    0 -0.00000000000E+00 -0.00000000000E+00 -0.64930732323E+04  0.65000000000E+04  0.30000000000E+03 0. -1.
     100001    1    1    2    0    0  0.20046628512E+03  0.25961228101E+02  0.64951127037E+04  0.65000000000E+04  0.15050000000E+03 0. -1.
     100001    1    1    2    0    0 -0.20046628512E+03 -0.25961228101E+02 -0.64951127037E+04  0.65000000000E+04  0.15050000000E+03 0. -1.
</event>
<event>
 4    1  0.4826743E-004  0.6500000E+04  0.7818608E-02  0.7223770E-01
         52   -1    0    0    0    0  0.00000000000E+00  0.00000000000E+00  0.64930732323E+04  0.65000000000E+04  0.30000000000E+03 0.  1.
        -52   -1    0    0    0    0 -0.00000000000E+00 -0.00000000000E+00 -0.64930732323E+04  0.65000000000E+04  0.30000000000E+03 0. -1.
     100001    1    1    2    0    0  0.66353269036E+03  0.46060823144E+03 -0.64478612094E+04  0.65000000000E+04  0.15050000000E+03 0. -1.
     100001    1    1    2    0    0 -0.66353269036E+03 -0.46060823144E+03  0.64478612094E+04  0.65000000000E+04  0.15050000000E+03 0.  1.
</event>
<event>
 4    1  0.4826743E-004  0.6500000E+04  0.7818608E-02  0.7223770E-01
         52   -1    0    0    0    0  0.00000000000E+00  0.00000000000E+00  0.64930732323E+04  0.65000000000E+04  0.30000000000E+03 0. -1.
        -52   -1    0    0    0    0 -0.00000000000E+00 -0.00000000000E+00 -0.64930732323E+04  0.65000000000E+04  0.30000000000E+03 0.  1.
     100001    1    1    2    0    0  0.81044167604E+02  0.24756480662E+04  0.60076574674E+04  0.65000000000E+04  0.15050000000E+03 0. -1.
     100001    1    1    2    0    0 -0.81044167604E+02 -0.24756480662E+04 -0.60076574674E+04  0.65000000000E+04  0.15050000000E+03 0.  1.
</event>
<event>
 4    1  0.4826743E-004  0.6500000E+04  0.7818608E-02  0.7223770E-01
         52   -1    0    0    0    0  0.00000000000E+00  0.00000000000E+00  0.64930732323E+04  0.65000000000E+04  0.30000000000E+03 0. -1.
        -52   -1    0    0    0    0 -0.00000000000E+00 -0.00000000000E+00 -0.64930732323E+04  0.65000000000E+04  0.30000000000E+03 0.  1.
     100001    1    1    2    0    0 -0.15161744608E+03 -0.85615145371E+03  0.64398265961E+04  0.65000000000E+04  0.15050000000E+03 0. -1.
     100001    1    1    2    0    0  0.15161744608E+03  0.85615145371E+03 -0.64398265961E+04  0.65000000000E+04  0.15050000000E+03 0.  1.
</event>
<event>
 4    1  0.4826743E-004  0.6500000E+04  0.7818608E-02  0.7223770E-01
         52   -1    0    0    0    0  0.00000000000E+00  0.00000000000E+00  0.64930732323E+04  0.65000000000E+04  0.30000000000E+03 0. -1.
        -52   -1    0    0    0    0 -0.00000000000E+00 -0.00000000000E+00 -0.64930732323E+04  0.65000000000E+04  0.30000000000E+03 0.  1.
     100001    1    1    2    0    0 -0.48353883921E+03  0.66329063934E+03 -0.64462070606E+04  0.65000000000E+04  0.15050000000E+03 0.  1.
     100001    1    1    2    0    0  0.48353883921E+03 -0.66329063934E+03  0.64462070606E+04  0.65000000000E+04  0.15050000000E+03 0. -1.
</event>
<event>
 4    1  0.4826743E-004  0.6500000E+04  0.7818608E-02  0.7223770E-01
         52   -1    0    0    0    0  0.00000000000E+00  0.00000000000E+00  0.64930732323E+04  0.65000000000E+04  0.30000000000E+03 0.  1.
        -52   -1    0    0    0    0 -0.00000000000E+00 -0.00000000000E+00 -0.64930732323E+04  0.65000000000E+04  0.30000000000E+03 0. -1.
     100001    1    1    2    0    0 -0.30481258490E+04  0.53894007476E+03 -0.57136522606E+04  0.65000000000E+04  0.15050000000E+03 0. -1.
     100001    1    1    2    0    0  0.30481258490E+04 -0.53894007476E+03  0.57136522606E+04  0.65000000000E+04  0.15050000000E+03 0.  1.
</event>
<event>
 4    1  0.4826743E-004  0.6500000E+04  0.7818608E-02  0.7223770E-01
         52   -1    0    0    0    0  0.00000000000E+00  0.00000000000E+00  0.64930732323E+04  0.65000000000E+04  0.30000000000E+03 0.  1.
        -52   -1    0    0    0    0 -0.00000000000E+00 -0.00000000000E+00 -0.64930732323E+04  0.65000000000E+04  0.30000000000E+03 0. -1.
     100001    1    1    2    0    0 -0.26288807957E+03 -0.24689218927E+03  0.64882419695E+04  0.65000000000E+04  0.15050000000E+03 0.  1.
     100001    1    1    2    0    0  0.26288807957E+03  0.24689218927E+03 -0.64882419695E+04  0.65000000000E+04  0.15050000000E+03 0. -1.
</event>
<event>
 4    1  0.4826743E-004  0.6500000E+04  0.7818608E-02  0.7223770E-01
         52   -1    0    0    0    0  0.00000000000E+00  0.00000000000E+00  0.64930732323E+04  0.65000000000E+04  0.30000000000E+03 0. -1.
        -52   -1    0    0    0    0 -0.00000000000E+00 -0.00000000000E+00 -0.64930732323E+04  0.65000000000E+04  0.30000000000E+03 0.  1.
     100001    1    1    2    0    0  0.50564841235E+04 -0.58891230815E+03  0.40388736490E+04  0.65000000000E+04  0.15050000000E+03 0. -1.
     100001    1    1    2    0    0 -0.50564841235E+04  0.58891230815E+03 -0.40388736490E+04  0.65000000000E+04  0.15050000000E+03 0.  1.
</event>
<event>
 4    1  0.4826743E-004  0.6500000E+04  0.7818608E-02  0.7223770E-01
         52   -1    0    0    0    0  0.00000000000E+00  0.00000000000E+00  0.64930732323E+04  0.65000000000E+04  0.30000000000E+03 0.  1.
        -52   -1    0    0    0    0 -0.00000000000E+00 -0.00000000000E+00 -0.64930732323E+04  0.65000000000E+04  0.30000000000E+03 0. -1.
     100001    1    1    2    0    0 -0.27652104795E+04 -0.39875256787E+04  0.43221059353E+04  0.65000000000E+04  0.15050000000E+03 0.  1.
     100001    1    1    2    0    0  0.27652104795E+04  0.39875256787E+04 -0.43221059353E+04  0.65000000000E+04  0.15050000000E+03 0. -1.
</event>
<event>
 4    1  0.4826743E-004  0.6500000E+04  0.7818608E-02  0.7223770E-01
         52   -1    0    0    0    0  0.00000000000E+00  0.00000000000E+00  0.64930732323E+04  0.65000000000E+04  0.30000000000E+03 0. -1.
        -52   -1    0    0    0    0 -0.00000000000E+00 -0.00000000000E+00 -0.64930732323E+04  0.65000000000E+04  0.30000000000E+03 0.  1.
     100001    1    1    2    0    0  0.18318994909E+04  0.68375405171E+02  0.62343258504E+04  0.65000000000E+04  0.15050000000E+03 0. -1.
     100001    1    1    2    0    0 -0.18318994909E+04 -0.68375405171E+02 -0.62343258504E+04  0.65000000000E+04  0.15050000000E+03 0.  1.
</event>
<event>
 4    1  0.4826743E-004  0.6500000E+04  0.7818608E-02  0.7223770E-01
         52   -1    0    0    0    0  0.00000000000E+00  0.00000000000E+00  0.64930732323E+04  0.65000000000E+04  0.30000000000E+03 0.  1.
        -52   -1    0    0    0    0 -0.00000000000E+00 -0.00000000000E+00 -0.64930732323E+04  0.65000000000E+04  0.30000000000E+03 0. -1.
     100001    1    1    2    0    0 -0.49954815788E+02 -0.64954426042E+04 -0.18460672368E+03  0.65000000000E+04  0.15050000000E+03 0. -1.
     100001    1    1    2    0    0  0.49954815788E+02  0.64954426042E+04  0.18460672368E+03  0.65000000000E+04  0.15050000000E+03 0.  1.
</event>
<event>
 4    1  0.4826743E-004  0.6500000E+04  0.7818608E-02  0.7223770E-01
         52   -1    0    0    0    0  0.00000000000E+00  0.00000000000E+00  0.64930732323E+04  0.65000000000E+04  0.30000000000E+03 0.  1.
        -52   -1    0    0    0    0 -0.00000000000E+00 -0.00000000000E+00 -0.64930732323E+04  0.65000000000E+04  0.30000000000E+03 0. -1.
     100001    1    1    2    0    0 -0.38826606483E+03  0.25771760309E+04  0.59527105522E+04  0.65000000000E+04  0.15050000000E+03 0.  1.
     100001    1    1    2    0    0  0.38826606483E+03 -0.25771760309E+04 -0.59527105522E+04  0.65000000000E+04  0.15050000000E+03 0. -1.
</event>
<event>
 4    1  0.4826743E-004  0.6500000E+04  0.7818608E-02  0.7223770E-01
         52   -1    0    0    0    0  0.00000000000E+00  0.00000000000E+00  0.64930732323E+04  0.65000000000E+04  0.30000000000E+03 0. -1.
        -52   -1    0    0    0    0 -0.00000000000E+00 -0.00000000000E+00 -0.64930732323E+04  0.65000000000E+04  0.30000000000E+03 0.  1.
     100001    1    1    2    0    0  0.43331566615E+04  0.37717232406E+04 -0.30373025686E+04  0.65000000000E+04  0.15050000000E+03 0.  1.
     100001    1    1    2    0    0 -0.43331566615E+04 -0.37717232406E+04  0.30373025686E+04  0.65000000000E+04  0.15050000000E+03 0. -1.
</event>
<event>
 4    1  0.4826743E-004  0.6500000E+04  0.7818608E-02  0.7223770E-01
         52   -1    0    0    0    0  0.00000000000E+00  0.00000000000E+00  0.64930732323E+04  0.65000000000E+04  0.30000000000E+03 0.  1.
        -52   -1    0    0    0    0 -0.00000000000E+00 -0.00000000000E+00 -0.64930732323E+04  0.65000000000E+04  0.30000000000E+03 0. -1.
     100001    1    1    2    0    0 -0.31807226231E+03 -0.69055092765E+03 -0.64536283750E+04  0.65000000000E+04  0.15050000000E+03 0. -1.
     100001    1    1    2    0    0  0.31807226231E+03  0.69055092765E+03  0.64536283750E+04  0.65000000000E+04  0.15050000000E+03 0.  1.
</event>
<event>
 4    1  0.4826743E-004  0.6500000E+04  0.7818608E-02  0.7223770E-01
         52   -1    0    0    0    0  0.00000000000E+00  0.00000000000E+00  0.64930732323E+04  0.65000000000E+04  0.30000000000E+03 0. -1.
        -52   -1    0    0    0    0 -0.00000000000E+00 -0.00000000000E+00 -0.64930732323E+04  0.65000000000E+04  0.30000000000E+03 0.  1.
     100001    1    1    2    0    0 -0.68954509489E+03 -0.98855530257E+03  0.63855019948E+04  0.65000000000E+04  0.15050000000E+03 0. -1.
     100001    1    1    2    0    0  0.68954509489E+03  0.98855530257E+03 -0.63855019948E+04  0.65000000000E+04  0.15050000000E+03 0.  1.
</event>
<event>
 4    1  0.4826743E-004  0.6500000E+04  0.7818608E-02  0.7223770E-01
         52   -1    0    0    0    0  0.00000000000E+00  0.00000000000E+00  0.64930732323E+04  0.65000000000E+04  0.30000000000E+03 0.  1.
        -52   -1    0    0    0    0 -0.00000000000E+00 -0.00000000000E+00 -0.64930732323E+04  0.65000000000E+04  0.30000000000E+03 0. -1.
     100001    1    1    2    0    0 -0.13447943129E+04  0.63736305291E+03  0.63255550227E+04  0.65000000000E+04  0.15050000000E+03 0.  1.
     100001    1    1    2    0    0  0.13447943129E+04 -0.63736305291E+03 -0.63255550227E+04  0.65000000000E+04  0.15050000000E+03 0. -1.
</event>
<event>
 4    1  0.4826743E-004  0.6500000E+04  0.7818608E-02  0.7223770E-01
         52   -1    0    0    0    0  0.00000000000E+00  0.00000000000E+00  0.64930732323E+04  0.65000000000E+04  0.30000000000E+03 0. -1.
        -52   -1    0    0    0    0 -0.00000000000E+00 -0.00000000000E+00 -0.64930732323E+04  0.65000000000E+04  0.30000000000E+03 0.  1.
     100001    1    1    2    0    0  0.27626540975E+03 -0.11372589917E+04 -0.63920004036E+04  0.65000000000E+04  0.15050000000E+03 0.  1.
     100001    1    1    2    0    0 -0.27626540975E+03  0.11372589917E+04  0.63920004036E+04  0.65000000000E+04  0.15050000000E+03 0. -1.
</event>
<event>
 4    1  0.4826743E-004  0.6500000E+04  0.7818608E-02  0.7223770E-01
         52   -1    0    0    0    0  0.00000000000E+00  0.00000000000E+00  0.64930732323E+04  0.65000000000E+04  0.30000000000E+03 0. -1.
        -52   -1    0    0    0    0 -0.00000000000E+00 -0.00000000000E+00 -0.64930732323E+04  0.65000000000E+04  0.30000000000E+03 0.  1.
     100001    1    1    2    0    0  0.21316100822E+04 -0.23459472580E+04  0.56727523893E+04  0.65000000000E+04  0.15050000000E+03 0. -1.
     100001    1    1    2    0    0 -0.21316100822E+04  0.23459472580E+04 -0.56727523893E+04  0.65000000000E+04  0.15050000000E+03 0.  1.
</event>
<event>
 4    1  0.4826743E-004  0.6500000E+04  0.7818608E-02  0.7223770E-01
         52   -1    0    0    0    0  0.00000000000E+00  0.00000000000E+00  0.64930732323E+04  0.65000000000E+04  0.30000000000E+03 0. -1.
        -52   -1    0    0    0    0 -0.00000000000E+00 -0.00000000000E+00 -0.64930732323E+04  0.65000000000E+04  0.30000000000E+03 0.  1.
     100001    1    1    2    0    0  0.68000748633E+03 -0.11496710832E+03 -0.64615572529E+04  0.65000000000E+04  0.15050000000E+03 0.  1.
     100001    1    1    2    0    0 -0.68000748633E+03  0.11496710832E+03  0.64615572529E+04  0.65000000000E+04  0.15050000000E+03 0. -1.
</event>
<event>
 4    1  0.4826743E-004  0.6500000E+04  0.7818608E-02  0.7223770E-01
         52   -1    0    0    0    0  0.00000000000E+00  0.00000000000E+00  0.64930732323E+04  0.65000000000E+04  0.30000000000E+03 0.  1.
        -52   -1    0    0    0    0 -0.00000000000E+00 -0.00000000000E+00 -0.64930732323E+04  0.65000000000E+04  0.30000000000E+03 0. -1.
     100001    1    1    2    0    0 -0.25213056385E+04  0.40154679744E+04  0.44436904228E+04  0.65000000000E+04  0.15050000000E+03 0.  1.
     100001    1    1    2    0    0  0.25213056385E+04 -0.40154679744E+04 -0.44436904228E+04  0.65000000000E+04  0.15050000000E+03 0. -1.
</event>
<event>
 4    1  0.4826743E-004  0.6500000E+04  0.7818608E-02  0.7223770E-01
         52   -1    0    0    0    0  0.00000000000E+00  0.00000000000E+00  0.64930732323E+04  0.65000000000E+04  0.30000000000E+03 0.  1.
        -52   -1    0    0    0    0 -0.00000000000E+00 -0.00000000000E+00 -0.64930732323E+04  0.65000000000E+04  0.30000000000E+03 0. -1.
     100001    1    1    2    0    0  0.27108768422E+03  0.30712924673E+03 -0.64853321305E+04  0.65000000000E+04  0.15050000000E+03 0. -1.
     100001    1    1    2    0    0 -0.27108768422E+03 -0.30712924673E+03  0.64853321305E+04  0.65000000000E+04  0.15050000000E+03 0.  1.
</event>
<event>
 4    1  0.4826743E-004  0.6500000E+04  0.7818608E-02  0.7223770E-01
         52   -1    0    0    0    0  0.00000000000E+00  0.00000000000E+00  0.64930732323E+04  0.65000000000E+04  0.30000000000E+03 0. -1.
        -52   -1    0    0    0    0 -0.00000000000E+00 -0.00000000000E+00 -0.64930732323E+04  0.65000000000E+04  0.30000000000E+03 0.  1.
     100001    1    1    2    0    0 -0.26512989180E+04 -0.48003387017E+04  0.34863608744E+04  0.65000000000E+04  0.15050000000E+03 0. -1.
     100001    1    1    2    0    0  0.26512989180E+04  0.48003387017E+04 -0.34863608744E+04  0.65000000000E+04  0.15050000000E+03 0.  1.
</event>
<event>
 4    1  0.4826743E-004  0.6500000E+04  0.7818608E-02  0.7223770E-01
         52   -1    0    0    0    0  0.00000000000E+00  0.00000000000E+00  0.64930732323E+04  0.65000000000E+04  0.30000000000E+03 0. -1.
        -52   -1    0    0    0    0 -0.00000000000E+00 -0.00000000000E+00 -0.64930732323E+04  0.65000000000E+04  0.30000000000E+03 0.  1.
     100001    1    1    2    0    0  0.16374245263E+03 -0.55120026026E+03  0.64727672932E+04  0.65000000000E+04  0.15050000000E+03 0. -1.
     100001    1    1    2    0    0 -0.16374245263E+03  0.55120026026E+03 -0.64727672932E+04  0.65000000000E+04  0.15050000000E+03 0.  1.
</event>
<event>
 4    1  0.4826743E-004  0.6500000E+04  0.7818608E-02  0.7223770E-01
         52   -1    0    0    0    0  0.00000000000E+00  0.00000000000E+00  0.64930732323E+04  0.65000000000E+04  0.30000000000E+03 0. -1.
        -52   -1    0    0    0    0 -0.00000000000E+00 -0.00000000000E+00 -0.64930732323E+04  0.65000000000E+04  0.30000000000E+03 0.  1.
     100001    1    1    2    0    0  0.52567586864E+03 -0.43122911925E+04 -0.48327175897E+04  0.65000000000E+04  0.15050000000E+03 0.  1.
     100001    1    1    2    0    0 -0.52567586864E+03  0.43122911925E+04  0.48327175897E+04  0.65000000000E+04  0.15050000000E+03 0. -1.
</event>
<event>
 4    1  0.4826743E-004  0.6500000E+04  0.7818608E-02  0.7223770E-01
         52   -1    0    0    0    0  0.00000000000E+00  0.00000000000E+00  0.64930732323E+04  0.65000000000E+04  0.30000000000E+03 0.  1.
        -52   -1    0    0    0    0 -0.00000000000E+00 -0.00000000000E+00 -0.64930732323E+04  0.65000000000E+04  0.30000000000E+03 0. -1.
     100001    1    1    2    0    0  0.22280768437E+03 -0.49484441754E+03  0.64755567705E+04  0.65000000000E+04  0.15050000000E+03 0.  1.
     100001    1    1    2    0    0 -0.22280768437E+03  0.49484441754E+03 -0.64755567705E+04  0.65000000000E+04  0.15050000000E+03 0. -1.
</event>
<event>
 4    1  0.4826743E-004  0.6500000E+04  0.7818608E-02  0.7223770E-01
         52   -1    0    0    0    0  0.00000000000E+00  0.00000000000E+00  0.64930732323E+04  0.65000000000E+04  0.30000000000E+03 0. -1.
        -52   -1    0    0    0    0 -0.00000000000E+00 -0.00000000000E+00 -0.64930732323E+04  0.65000000000E+04  0.30000000000E+03 0.  1.
     100001    1    1    2    0    0 -0.98158684860E+02 -0.18142074383E+04  0.62390997743E+04  0.65000000000E+04  0.15050000000E+03 0. -1.
     100001    1    1    2    0    0  0.98158684860E+02  0.18142074383E+04 -0.62390997743E+04  0.65000000000E+04  0.15050000000E+03 0.  1.
</event>
<event>
 4    1  0.4826743E-004  0.6500000E+04  0.7818608E-02  0.7223770E-01
         52   -1    0    0    0    0  0.00000000000E+00  0.00000000000E+00  0.64930732323E+04  0.65000000000E+04  0.30000000000E+03 0.  1.
        -52   -1    0    0    0    0 -0.00000000000E+00 -0.00000000000E+00 -0.64930732323E+04  0.65000000000E+04  0.30000000000E+03 0. -1.
     100001    1    1    2    0    0 -0.61009518854E+04  0.11487780696E+04 -0.19199074949E+04  0.65000000000E+04  0.15050000000E+03 0. -1.
     100001    1    1    2    0    0  0.61009518854E+04 -0.11487780696E+04  0.19199074949E+04  0.65000000000E+04  0.15050000000E+03 0.  1.
</event>
<event>
 4    1  0.4826743E-004  0.6500000E+04  0.7818608E-02  0.7223770E-01
         52   -1    0    0    0    0  0.00000000000E+00  0.00000000000E+00  0.64930732323E+04  0.65000000000E+04  0.30000000000E+03 0.  1.
        -52   -1    0    0    0    0 -0.00000000000E+00 -0.00000000000E+00 -0.64930732323E+04  0.65000000000E+04  0.30000000000E+03 0. -1.
     100001    1    1    2    0    0  0.61627047209E+04  0.20361087456E+04  0.32043946185E+03  0.65000000000E+04  0.15050000000E+03 0. -1.
     100001    1    1    2    0    0 -0.61627047209E+04 -0.20361087456E+04 -0.32043946185E+03  0.65000000000E+04  0.15050000000E+03 0.  1.
</event>
<event>
 4    1  0.4826743E-004  0.6500000E+04  0.7818608E-02  0.7223770E-01
         52   -1    0    0    0    0  0.00000000000E+00  0.00000000000E+00  0.64930732323E+04  0.65000000000E+04  0.30000000000E+03 0. -1.
        -52   -1    0    0    0    0 -0.00000000000E+00 -0.00000000000E+00 -0.64930732323E+04  0.65000000000E+04  0.30000000000E+03 0.  1.
     100001    1    1    2    0    0 -0.26828466340E+04 -0.84852668676E+03  0.58574470676E+04  0.65000000000E+04  0.15050000000E+03 0. -1.
     100001    1    1    2    0    0  0.26828466340E+04  0.84852668676E+03 -0.58574470676E+04  0.65000000000E+04  0.15050000000E+03 0.  1.
</event>
<event>
 4    1  0.4826743E-004  0.6500000E+04  0.7818608E-02  0.7223770E-01
         52   -1    0    0    0    0  0.00000000000E+00  0.00000000000E+00  0.64930732323E+04  0.65000000000E+04  0.30000000000E+03 0.  1.
        -52   -1    0    0    0    0 -0.00000000000E+00 -0.00000000000E+00 -0.64930732323E+04  0.65000000000E+04  0.30000000000E+03 0.  1.
     100001    1    1    2    0    0 -0.29567694135E+02  0.48373393407E+03  0.64801602590E+04  0.65000000000E+04  0.15050000000E+03 0.  1.
     100001    1    1    2    0    0  0.29567694135E+02 -0.48373393407E+03 -0.64801602590E+04  0.65000000000E+04  0.15050000000E+03 0.  1.
</event>
<event>
 4    1  0.5501577E-004  0.6500000E+04  0.7818608E-02  0.7223770E-01
         52   -1    0    0    0    0  0.00000000000E+00  0.00000000000E+00  0.64930732323E+04  0.65000000000E+04  0.30000000000E+03 0. -1.
        -52   -1    0    0    0    0 -0.00000000000E+00 -0.00000000000E+00 -0.64930732323E+04  0.65000000000E+04  0.30000000000E+03 0.  1.
     100001    1    1    2    0    0  0.17009083492E+03  0.13737100815E+03 -0.64945783592E+04  0.65000000000E+04  0.15050000000E+03 0.  1.
     100001    1    1    2    0    0 -0.17009083492E+03 -0.13737100815E+03  0.64945783592E+04  0.65000000000E+04  0.15050000000E+03 0. -1.
</event>
<event>
 4    1  0.4826743E-004  0.6500000E+04  0.7818608E-02  0.7223770E-01
         52   -1    0    0    0    0  0.00000000000E+00  0.00000000000E+00  0.64930732323E+04  0.65000000000E+04  0.30000000000E+03 0.  1.
        -52   -1    0    0    0    0 -0.00000000000E+00 -0.00000000000E+00 -0.64930732323E+04  0.65000000000E+04  0.30000000000E+03 0. -1.
     100001    1    1    2    0    0  0.47461140465E+04 -0.17815794958E+03 -0.44350886071E+04  0.65000000000E+04  0.15050000000E+03 0. -1.
     100001    1    1    2    0    0 -0.47461140465E+04  0.17815794958E+03  0.44350886071E+04  0.65000000000E+04  0.15050000000E+03 0.  1.
</event>
<event>
 4    1  0.4826743E-004  0.6500000E+04  0.7818608E-02  0.7223770E-01
         52   -1    0    0    0    0  0.00000000000E+00  0.00000000000E+00  0.64930732323E+04  0.65000000000E+04  0.30000000000E+03 0. -1.
        -52   -1    0    0    0    0 -0.00000000000E+00 -0.00000000000E+00 -0.64930732323E+04  0.65000000000E+04  0.30000000000E+03 0. -1.
     100001    1    1    2    0    0  0.59855490641E+03  0.43108187384E+03 -0.64562566702E+04  0.65000000000E+04  0.15050000000E+03 0. -1.
     100001    1    1    2    0    0 -0.59855490641E+03 -0.43108187384E+03  0.64562566702E+04  0.65000000000E+04  0.15050000000E+03 0. -1.
</event>
<event>
 4    1  0.4826743E-004  0.6500000E+04  0.7818608E-02  0.7223770E-01
         52   -1    0    0    0    0  0.00000000000E+00  0.00000000000E+00  0.64930732323E+04  0.65000000000E+04  0.30000000000E+03 0.  1.
        -52   -1    0    0    0    0 -0.00000000000E+00 -0.00000000000E+00 -0.64930732323E+04  0.65000000000E+04  0.30000000000E+03 0. -1.
     100001    1    1    2    0    0  0.34145197614E+04 -0.10585896285E+04 -0.54265820317E+04  0.65000000000E+04  0.15050000000E+03 0. -1.
     100001    1    1    2    0    0 -0.34145197614E+04  0.10585896285E+04  0.54265820317E+04  0.65000000000E+04  0.15050000000E+03 0.  1.
</event>
<event>
 4    1  0.4826743E-004  0.6500000E+04  0.7818608E-02  0.7223770E-01
         52   -1    0    0    0    0  0.00000000000E+00  0.00000000000E+00  0.64930732323E+04  0.65000000000E+04  0.30000000000E+03 0. -1.
        -52   -1    0    0    0    0 -0.00000000000E+00 -0.00000000000E+00 -0.64930732323E+04  0.65000000000E+04  0.30000000000E+03 0.  1.
     100001    1    1    2    0    0 -0.41795404761E+04 -0.39353701517E+03  0.49602338429E+04  0.65000000000E+04  0.15050000000E+03 0. -1.
     100001    1    1    2    0    0  0.41795404761E+04  0.39353701517E+03 -0.49602338429E+04  0.65000000000E+04  0.15050000000E+03 0.  1.
</event>
<event>
 4    1  0.4826743E-004  0.6500000E+04  0.7818608E-02  0.7223770E-01
         52   -1    0    0    0    0  0.00000000000E+00  0.00000000000E+00  0.64930732323E+04  0.65000000000E+04  0.30000000000E+03 0. -1.
        -52   -1    0    0    0    0 -0.00000000000E+00 -0.00000000000E+00 -0.64930732323E+04  0.65000000000E+04  0.30000000000E+03 0.  1.
     100001    1    1    2    0    0  0.62290131195E+04 -0.11238881337E+04 -0.14709251408E+04  0.65000000000E+04  0.15050000000E+03 0.  1.
     100001    1    1    2    0    0 -0.62290131195E+04  0.11238881337E+04  0.14709251408E+04  0.65000000000E+04  0.15050000000E+03 0. -1.
</event>
<event>
 4    1  0.4826743E-004  0.6500000E+04  0.7818608E-02  0.7223770E-01
         52   -1    0    0    0    0  0.00000000000E+00  0.00000000000E+00  0.64930732323E+04  0.65000000000E+04  0.30000000000E+03 0.  1.
        -52   -1    0    0    0    0 -0.00000000000E+00 -0.00000000000E+00 -0.64930732323E+04  0.65000000000E+04  0.30000000000E+03 0. -1.
     100001    1    1    2    0    0  0.72272522474E+03  0.42366378607E+03 -0.64440303379E+04  0.65000000000E+04  0.15050000000E+03 0. -1.
     100001    1    1    2    0    0 -0.72272522474E+03 -0.42366378607E+03  0.64440303379E+04  0.65000000000E+04  0.15050000000E+03 0.  1.
</event>
<event>
 4    1  0.4826743E-004  0.6500000E+04  0.7818608E-02  0.7223770E-01
         52   -1    0    0    0    0  0.00000000000E+00  0.00000000000E+00  0.64930732323E+04  0.65000000000E+04  0.30000000000E+03 0.  1.
        -52   -1    0    0    0    0 -0.00000000000E+00 -0.00000000000E+00 -0.64930732323E+04  0.65000000000E+04  0.30000000000E+03 0. -1.
     100001    1    1    2    0    0 -0.58626854849E+03  0.10785208297E+04  0.63812562838E+04  0.65000000000E+04  0.15050000000E+03 0.  1.
     100001    1    1    2    0    0  0.58626854849E+03 -0.10785208297E+04 -0.63812562838E+04  0.65000000000E+04  0.15050000000E+03 0. -1.
</event>
<event>
 4    1  0.4826743E-004  0.6500000E+04  0.7818608E-02  0.7223770E-01
         52   -1    0    0    0    0  0.00000000000E+00  0.00000000000E+00  0.64930732323E+04  0.65000000000E+04  0.30000000000E+03 0.  1.
        -52   -1    0    0    0    0 -0.00000000000E+00 -0.00000000000E+00 -0.64930732323E+04  0.65000000000E+04  0.30000000000E+03 0.  1.
     100001    1    1    2    0    0 -0.31398970026E+03 -0.97293874157E+03  0.64173320331E+04  0.65000000000E+04  0.15050000000E+03 0.  1.
     100001    1    1    2    0    0  0.31398970026E+03  0.97293874157E+03 -0.64173320331E+04  0.65000000000E+04  0.15050000000E+03 0.  1.
</event>
<event>
 4    1  0.4826743E-004  0.6500000E+04  0.7818608E-02  0.7223770E-01
         52   -1    0    0    0    0  0.00000000000E+00  0.00000000000E+00  0.64930732323E+04  0.65000000000E+04  0.30000000000E+03 0. -1.
        -52   -1    0    0    0    0 -0.00000000000E+00 -0.00000000000E+00 -0.64930732323E+04  0.65000000000E+04  0.30000000000E+03 0.  1.
     100001    1    1    2    0    0 -0.60700562798E+04 -0.21568015290E+04 -0.85438496837E+03  0.65000000000E+04  0.15050000000E+03 0.  1.
     100001    1    1    2    0    0  0.60700562798E+04  0.21568015290E+04  0.85438496837E+03  0.65000000000E+04  0.15050000000E+03 0. -1.
</event>
<event>
 4    1  0.4826743E-004  0.6500000E+04  0.7818608E-02  0.7223770E-01
         52   -1    0    0    0    0  0.00000000000E+00  0.00000000000E+00  0.64930732323E+04  0.65000000000E+04  0.30000000000E+03 0.  1.
        -52   -1    0    0    0    0 -0.00000000000E+00 -0.00000000000E+00 -0.64930732323E+04  0.65000000000E+04  0.30000000000E+03 0. -1.
     100001    1    1    2    0    0  0.63538460750E+03 -0.12755343481E+04  0.63400826712E+04  0.65000000000E+04  0.15050000000E+03 0.  1.
     100001    1    1    2    0    0 -0.63538460750E+03  0.12755343481E+04 -0.63400826712E+04  0.65000000000E+04  0.15050000000E+03 0. -1.
</event>
<event>
 4    1  0.4826743E-004  0.6500000E+04  0.7818608E-02  0.7223770E-01
         52   -1    0    0    0    0  0.00000000000E+00  0.00000000000E+00  0.64930732323E+04  0.65000000000E+04  0.30000000000E+03 0. -1.
        -52   -1    0    0    0    0 -0.00000000000E+00 -0.00000000000E+00 -0.64930732323E+04  0.65000000000E+04  0.30000000000E+03 0.  1.
     100001    1    1    2    0    0  0.16330782839E+04  0.38768080976E+04  0.49528541310E+04  0.65000000000E+04  0.15050000000E+03 0. -1.
     100001    1    1    2    0    0 -0.16330782839E+04 -0.38768080976E+04 -0.49528541310E+04  0.65000000000E+04  0.15050000000E+03 0.  1.
</event>
<event>
 4    1  0.4826743E-004  0.6500000E+04  0.7818608E-02  0.7223770E-01
         52   -1    0    0    0    0  0.00000000000E+00  0.00000000000E+00  0.64930732323E+04  0.65000000000E+04  0.30000000000E+03 0.  1.
        -52   -1    0    0    0    0 -0.00000000000E+00 -0.00000000000E+00 -0.64930732323E+04  0.65000000000E+04  0.30000000000E+03 0. -1.
     100001    1    1    2    0    0 -0.40060039553E+03  0.54406440281E+04  0.35307593564E+04  0.65000000000E+04  0.15050000000E+03 0.  1.
     100001    1    1    2    0    0  0.40060039553E+03 -0.54406440281E+04 -0.35307593564E+04  0.65000000000E+04  0.15050000000E+03 0. -1.
</event>
<event>
 4    1  0.4826743E-004  0.6500000E+04  0.7818608E-02  0.7223770E-01
         52   -1    0    0    0    0  0.00000000000E+00  0.00000000000E+00  0.64930732323E+04  0.65000000000E+04  0.30000000000E+03 0.  1.
        -52   -1    0    0    0    0 -0.00000000000E+00 -0.00000000000E+00 -0.64930732323E+04  0.65000000000E+04  0.30000000000E+03 0. -1.
     100001    1    1    2    0    0  0.15128905594E+04 -0.11433360675E+04  0.62154078339E+04  0.65000000000E+04  0.15050000000E+03 0.  1.
     100001    1    1    2    0    0 -0.15128905594E+04  0.11433360675E+04 -0.62154078339E+04  0.65000000000E+04  0.15050000000E+03 0. -1.
</event>
<event>
 4    1  0.4826743E-004  0.6500000E+04  0.7818608E-02  0.7223770E-01
         52   -1    0    0    0    0  0.00000000000E+00  0.00000000000E+00  0.64930732323E+04  0.65000000000E+04  0.30000000000E+03 0. -1.
        -52   -1    0    0    0    0 -0.00000000000E+00 -0.00000000000E+00 -0.64930732323E+04  0.65000000000E+04  0.30000000000E+03 0.  1.
     100001    1    1    2    0    0 -0.58737386850E+04  0.21988604026E+04 -0.17004577443E+04  0.65000000000E+04  0.15050000000E+03 0. -1.
     100001    1    1    2    0    0  0.58737386850E+04 -0.21988604026E+04  0.17004577443E+04  0.65000000000E+04  0.15050000000E+03 0.  1.
</event>
<event>
 4    1  0.4826743E-004  0.6500000E+04  0.7818608E-02  0.7223770E-01
         52   -1    0    0    0    0  0.00000000000E+00  0.00000000000E+00  0.64930732323E+04  0.65000000000E+04  0.30000000000E+03 0. -1.
        -52   -1    0    0    0    0 -0.00000000000E+00 -0.00000000000E+00 -0.64930732323E+04  0.65000000000E+04  0.30000000000E+03 0.  1.
     100001    1    1    2    0    0 -0.33221191421E+03  0.89415160715E+02  0.64891440054E+04  0.65000000000E+04  0.15050000000E+03 0. -1.
     100001    1    1    2    0    0  0.33221191421E+03 -0.89415160715E+02 -0.64891440054E+04  0.65000000000E+04  0.15050000000E+03 0.  1.
</event>
<event>
 4    1  0.4826743E-004  0.6500000E+04  0.7818608E-02  0.7223770E-01
         52   -1    0    0    0    0  0.00000000000E+00  0.00000000000E+00  0.64930732323E+04  0.65000000000E+04  0.30000000000E+03 0. -1.
        -52   -1    0    0    0    0 -0.00000000000E+00 -0.00000000000E+00 -0.64930732323E+04  0.65000000000E+04  0.30000000000E+03 0.  1.
     100001    1    1    2    0    0  0.39479089302E+03 -0.48102546329E+03 -0.64683927219E+04  0.65000000000E+04  0.15050000000E+03 0.  1.
     100001    1    1    2    0    0 -0.39479089302E+03  0.48102546329E+03  0.64683927219E+04  0.65000000000E+04  0.15050000000E+03 0. -1.
</event>
<event>
 4    1  0.4826743E-004  0.6500000E+04  0.7818608E-02  0.7223770E-01
         52   -1    0    0    0    0  0.00000000000E+00  0.00000000000E+00  0.64930732323E+04  0.65000000000E+04  0.30000000000E+03 0. -1.
        -52   -1    0    0    0    0 -0.00000000000E+00 -0.00000000000E+00 -0.64930732323E+04  0.65000000000E+04  0.30000000000E+03 0.  1.
     100001    1    1    2    0    0 -0.56561733387E+03  0.55496593049E+03  0.64497627551E+04  0.65000000000E+04  0.15050000000E+03 0. -1.
     100001    1    1    2    0    0  0.56561733387E+03 -0.55496593049E+03 -0.64497627551E+04  0.65000000000E+04  0.15050000000E+03 0.  1.
</event>
<event>
 4    1  0.4826743E-004  0.6500000E+04  0.7818608E-02  0.7223770E-01
         52   -1    0    0    0    0  0.00000000000E+00  0.00000000000E+00  0.64930732323E+04  0.65000000000E+04  0.30000000000E+03 0.  1.
        -52   -1    0    0    0    0 -0.00000000000E+00 -0.00000000000E+00 -0.64930732323E+04  0.65000000000E+04  0.30000000000E+03 0. -1.
     100001    1    1    2    0    0 -0.20571149279E+04  0.13606450555E+03  0.61625574540E+04  0.65000000000E+04  0.15050000000E+03 0.  1.
     100001    1    1    2    0    0  0.20571149279E+04 -0.13606450555E+03 -0.61625574540E+04  0.65000000000E+04  0.15050000000E+03 0. -1.
</event>
<event>
 4    1  0.4826743E-004  0.6500000E+04  0.7818608E-02  0.7223770E-01
         52   -1    0    0    0    0  0.00000000000E+00  0.00000000000E+00  0.64930732323E+04  0.65000000000E+04  0.30000000000E+03 0. -1.
        -52   -1    0    0    0    0 -0.00000000000E+00 -0.00000000000E+00 -0.64930732323E+04  0.65000000000E+04  0.30000000000E+03 0.  1.
     100001    1    1    2    0    0  0.61320643789E+04 -0.13383138452E+02  0.21505713413E+04  0.65000000000E+04  0.15050000000E+03 0. -1.
     100001    1    1    2    0    0 -0.61320643789E+04  0.13383138452E+02 -0.21505713413E+04  0.65000000000E+04  0.15050000000E+03 0.  1.
</event>
<event>
 4    1  0.4826743E-004  0.6500000E+04  0.7818608E-02  0.7223770E-01
         52   -1    0    0    0    0  0.00000000000E+00  0.00000000000E+00  0.64930732323E+04  0.65000000000E+04  0.30000000000E+03 0. -1.
        -52   -1    0    0    0    0 -0.00000000000E+00 -0.00000000000E+00 -0.64930732323E+04  0.65000000000E+04  0.30000000000E+03 0.  1.
     100001    1    1    2    0    0 -0.31239545497E+03 -0.18899534204E+03 -0.64879919536E+04  0.65000000000E+04  0.15050000000E+03 0.  1.
     100001    1    1    2    0    0  0.31239545497E+03  0.18899534204E+03  0.64879919536E+04  0.65000000000E+04  0.15050000000E+03 0. -1.
</event>
<event>
 4    1  0.4826743E-004  0.6500000E+04  0.7818608E-02  0.7223770E-01
         52   -1    0    0    0    0  0.00000000000E+00  0.00000000000E+00  0.64930732323E+04  0.65000000000E+04  0.30000000000E+03 0.  1.
        -52   -1    0    0    0    0 -0.00000000000E+00 -0.00000000000E+00 -0.64930732323E+04  0.65000000000E+04  0.30000000000E+03 0. -1.
     100001    1    1    2    0    0  0.36067035508E+04 -0.50634055398E+03 -0.53816966181E+04  0.65000000000E+04  0.15050000000E+03 0. -1.
     100001    1    1    2    0    0 -0.36067035508E+04  0.50634055398E+03  0.53816966181E+04  0.65000000000E+04  0.15050000000E+03 0.  1.
</event>
<event>
 4    1  0.4826743E-004  0.6500000E+04  0.7818608E-02  0.7223770E-01
         52   -1    0    0    0    0  0.00000000000E+00  0.00000000000E+00  0.64930732323E+04  0.65000000000E+04  0.30000000000E+03 0.  1.
        -52   -1    0    0    0    0 -0.00000000000E+00 -0.00000000000E+00 -0.64930732323E+04  0.65000000000E+04  0.30000000000E+03 0. -1.
     100001    1    1    2    0    0 -0.20259728354E+03 -0.10706714731E+04 -0.64062443512E+04  0.65000000000E+04  0.15050000000E+03 0. -1.
     100001    1    1    2    0    0  0.20259728354E+03  0.10706714731E+04  0.64062443512E+04  0.65000000000E+04  0.15050000000E+03 0.  1.
</event>
<event>
 4    1  0.4826743E-004  0.6500000E+04  0.7818608E-02  0.7223770E-01
         52   -1    0    0    0    0  0.00000000000E+00  0.00000000000E+00  0.64930732323E+04  0.65000000000E+04  0.30000000000E+03 0. -1.
        -52   -1    0    0    0    0 -0.00000000000E+00 -0.00000000000E+00 -0.64930732323E+04  0.65000000000E+04  0.30000000000E+03 0.  1.
     100001    1    1    2    0    0  0.13460525232E+04  0.39895028760E+03  0.63447877051E+04  0.65000000000E+04  0.15050000000E+03 0. -1.
     100001    1    1    2    0    0 -0.13460525232E+04 -0.39895028760E+03 -0.63447877051E+04  0.65000000000E+04  0.15050000000E+03 0.  1.
</event>
<event>
 4    1  0.4826743E-004  0.6500000E+04  0.7818608E-02  0.7223770E-01
         52   -1    0    0    0    0  0.00000000000E+00  0.00000000000E+00  0.64930732323E+04  0.65000000000E+04  0.30000000000E+03 0.  1.
        -52   -1    0    0    0    0 -0.00000000000E+00 -0.00000000000E+00 -0.64930732323E+04  0.65000000000E+04  0.30000000000E+03 0. -1.
     100001    1    1    2    0    0 -0.10494927910E+04  0.53761003572E+03  0.63903747997E+04  0.65000000000E+04  0.15050000000E+03 0.  1.
     100001    1    1    2    0    0  0.10494927910E+04 -0.53761003572E+03 -0.63903747997E+04  0.65000000000E+04  0.15050000000E+03 0. -1.
</event>
<event>
 4    1  0.4826743E-004  0.6500000E+04  0.7818608E-02  0.7223770E-01
         52   -1    0    0    0    0  0.00000000000E+00  0.00000000000E+00  0.64930732323E+04  0.65000000000E+04  0.30000000000E+03 0. -1.
        -52   -1    0    0    0    0 -0.00000000000E+00 -0.00000000000E+00 -0.64930732323E+04  0.65000000000E+04  0.30000000000E+03 0.  1.
     100001    1    1    2    0    0  0.20692028843E+03  0.26921169060E+03  0.64893804643E+04  0.65000000000E+04  0.15050000000E+03 0. -1.
     100001    1    1    2    0    0 -0.20692028843E+03 -0.26921169060E+03 -0.64893804643E+04  0.65000000000E+04  0.15050000000E+03 0.  1.
</event>
<event>
 4    1  0.4826743E-004  0.6500000E+04  0.7818608E-02  0.7223770E-01
         52   -1    0    0    0    0  0.00000000000E+00  0.00000000000E+00  0.64930732323E+04  0.65000000000E+04  0.30000000000E+03 0. -1.
        -52   -1    0    0    0    0 -0.00000000000E+00 -0.00000000000E+00 -0.64930732323E+04  0.65000000000E+04  0.30000000000E+03 0.  1.
     100001    1    1    2    0    0  0.28978169565E+03 -0.11314202486E+03  0.64908069761E+04  0.65000000000E+04  0.15050000000E+03 0. -1.
     100001    1    1    2    0    0 -0.28978169565E+03  0.11314202486E+03 -0.64908069761E+04  0.65000000000E+04  0.15050000000E+03 0.  1.
</event>
<event>
 4    1  0.4826743E-004  0.6500000E+04  0.7818608E-02  0.7223770E-01
         52   -1    0    0    0    0  0.00000000000E+00  0.00000000000E+00  0.64930732323E+04  0.65000000000E+04  0.30000000000E+03 0. -1.
        -52   -1    0    0    0    0 -0.00000000000E+00 -0.00000000000E+00 -0.64930732323E+04  0.65000000000E+04  0.30000000000E+03 0.  1.
     100001    1    1    2    0    0  0.22935933100E+04  0.22733603813E+04  0.56390258073E+04  0.65000000000E+04  0.15050000000E+03 0. -1.
     100001    1    1    2    0    0 -0.22935933100E+04 -0.22733603813E+04 -0.56390258073E+04  0.65000000000E+04  0.15050000000E+03 0.  1.
</event>
<event>
 4    1  0.4826743E-004  0.6500000E+04  0.7818608E-02  0.7223770E-01
         52   -1    0    0    0    0  0.00000000000E+00  0.00000000000E+00  0.64930732323E+04  0.65000000000E+04  0.30000000000E+03 0. -1.
        -52   -1    0    0    0    0 -0.00000000000E+00 -0.00000000000E+00 -0.64930732323E+04  0.65000000000E+04  0.30000000000E+03 0.  1.
     100001    1    1    2    0    0  0.19648380898E+04  0.39968448852E+02  0.61939618625E+04  0.65000000000E+04  0.15050000000E+03 0. -1.
     100001    1    1    2    0    0 -0.19648380898E+04 -0.39968448852E+02 -0.61939618625E+04  0.65000000000E+04  0.15050000000E+03 0.  1.
</event>
<event>
 4    1  0.4826743E-004  0.6500000E+04  0.7818608E-02  0.7223770E-01
         52   -1    0    0    0    0  0.00000000000E+00  0.00000000000E+00  0.64930732323E+04  0.65000000000E+04  0.30000000000E+03 0. -1.
        -52   -1    0    0    0    0 -0.00000000000E+00 -0.00000000000E+00 -0.64930732323E+04  0.65000000000E+04  0.30000000000E+03 0.  1.
     100001    1    1    2    0    0  0.38849894334E+04 -0.20575380887E+04 -0.47854721675E+04  0.65000000000E+04  0.15050000000E+03 0.  1.
     100001    1    1    2    0    0 -0.38849894334E+04  0.20575380887E+04  0.47854721675E+04  0.65000000000E+04  0.15050000000E+03 0. -1.
</event>
<event>
 4    1  0.4826743E-004  0.6500000E+04  0.7818608E-02  0.7223770E-01
         52   -1    0    0    0    0  0.00000000000E+00  0.00000000000E+00  0.64930732323E+04  0.65000000000E+04  0.30000000000E+03 0. -1.
        -52   -1    0    0    0    0 -0.00000000000E+00 -0.00000000000E+00 -0.64930732323E+04  0.65000000000E+04  0.30000000000E+03 0.  1.
     100001    1    1    2    0    0 -0.39050975211E+03  0.32840597531E+03  0.64781943008E+04  0.65000000000E+04  0.15050000000E+03 0. -1.
     100001    1    1    2    0    0  0.39050975211E+03 -0.32840597531E+03 -0.64781943008E+04  0.65000000000E+04  0.15050000000E+03 0.  1.
</event>
<event>
 4    1  0.4826743E-004  0.6500000E+04  0.7818608E-02  0.7223770E-01
         52   -1    0    0    0    0  0.00000000000E+00  0.00000000000E+00  0.64930732323E+04  0.65000000000E+04  0.30000000000E+03 0.  1.
        -52   -1    0    0    0    0 -0.00000000000E+00 -0.00000000000E+00 -0.64930732323E+04  0.65000000000E+04  0.30000000000E+03 0. -1.
     100001    1    1    2    0    0  0.26226156013E+04  0.10152672354E+04  0.58581967873E+04  0.65000000000E+04  0.15050000000E+03 0.  1.
     100001    1    1    2    0    0 -0.26226156013E+04 -0.10152672354E+04 -0.58581967873E+04  0.65000000000E+04  0.15050000000E+03 0. -1.
</event>
<event>
 4    1  0.4826743E-004  0.6500000E+04  0.7818608E-02  0.7223770E-01
         52   -1    0    0    0    0  0.00000000000E+00  0.00000000000E+00  0.64930732323E+04  0.65000000000E+04  0.30000000000E+03 0.  1.
        -52   -1    0    0    0    0 -0.00000000000E+00 -0.00000000000E+00 -0.64930732323E+04  0.65000000000E+04  0.30000000000E+03 0. -1.
     100001    1    1    2    0    0 -0.15109490268E+04 -0.13410128765E+04 -0.61762502583E+04  0.65000000000E+04  0.15050000000E+03 0. -1.
     100001    1    1    2    0    0  0.15109490268E+04  0.13410128765E+04  0.61762502583E+04  0.65000000000E+04  0.15050000000E+03 0.  1.
</event>
<event>
 4    1  0.4826743E-004  0.6500000E+04  0.7818608E-02  0.7223770E-01
         52   -1    0    0    0    0  0.00000000000E+00  0.00000000000E+00  0.64930732323E+04  0.65000000000E+04  0.30000000000E+03 0. -1.
        -52   -1    0    0    0    0 -0.00000000000E+00 -0.00000000000E+00 -0.64930732323E+04  0.65000000000E+04  0.30000000000E+03 0.  1.
     100001    1    1    2    0    0  0.40995928974E+03 -0.56546670925E+04 -0.31755351051E+04  0.65000000000E+04  0.15050000000E+03 0.  1.
     100001    1    1    2    0    0 -0.40995928974E+03  0.56546670925E+04  0.31755351051E+04  0.65000000000E+04  0.15050000000E+03 0. -1.
</event>
<event>
 4    1  0.4826743E-004  0.6500000E+04  0.7818608E-02  0.7223770E-01
         52   -1    0    0    0    0  0.00000000000E+00  0.00000000000E+00  0.64930732323E+04  0.65000000000E+04  0.30000000000E+03 0. -1.
        -52   -1    0    0    0    0 -0.00000000000E+00 -0.00000000000E+00 -0.64930732323E+04  0.65000000000E+04  0.30000000000E+03 0.  1.
     100001    1    1    2    0    0 -0.48238999157E+03  0.23696116537E+03 -0.64759940590E+04  0.65000000000E+04  0.15050000000E+03 0.  1.
     100001    1    1    2    0    0  0.48238999157E+03 -0.23696116537E+03  0.64759940590E+04  0.65000000000E+04  0.15050000000E+03 0. -1.
</event>
<event>
 4    1  0.4826743E-004  0.6500000E+04  0.7818608E-02  0.7223770E-01
         52   -1    0    0    0    0  0.00000000000E+00  0.00000000000E+00  0.64930732323E+04  0.65000000000E+04  0.30000000000E+03 0.  1.
        -52   -1    0    0    0    0 -0.00000000000E+00 -0.00000000000E+00 -0.64930732323E+04  0.65000000000E+04  0.30000000000E+03 0. -1.
     100001    1    1    2    0    0 -0.54519579610E+04 -0.34034540280E+04 -0.95916881766E+03  0.65000000000E+04  0.15050000000E+03 0. -1.
     100001    1    1    2    0    0  0.54519579610E+04  0.34034540280E+04  0.95916881766E+03  0.65000000000E+04  0.15050000000E+03 0.  1.
</event>
<event>
 4    1  0.4826743E-004  0.6500000E+04  0.7818608E-02  0.7223770E-01
         52   -1    0    0    0    0  0.00000000000E+00  0.00000000000E+00  0.64930732323E+04  0.65000000000E+04  0.30000000000E+03 0. -1.
        -52   -1    0    0    0    0 -0.00000000000E+00 -0.00000000000E+00 -0.64930732323E+04  0.65000000000E+04  0.30000000000E+03 0. -1.
     100001    1    1    2    0    0 -0.13152652101E+03  0.81215264191E+03 -0.64459645214E+04  0.65000000000E+04  0.15050000000E+03 0. -1.
     100001    1    1    2    0    0  0.13152652101E+03 -0.81215264191E+03  0.64459645214E+04  0.65000000000E+04  0.15050000000E+03 0. -1.
</event>
<event>
 4    1  0.6310427E-004  0.6500000E+04  0.7818608E-02  0.7223770E-01
         52   -1    0    0    0    0  0.00000000000E+00  0.00000000000E+00  0.64930732323E+04  0.65000000000E+04  0.30000000000E+03 0.  1.
        -52   -1    0    0    0    0 -0.00000000000E+00 -0.00000000000E+00 -0.64930732323E+04  0.65000000000E+04  0.30000000000E+03 0.  1.
     100001    1    1    2    0    0 -0.14226530507E+03  0.52969951887E+01 -0.64966977977E+04  0.65000000000E+04  0.15050000000E+03 0.  1.
     100001    1    1    2    0    0  0.14226530507E+03 -0.52969951887E+01  0.64966977977E+04  0.65000000000E+04  0.15050000000E+03 0.  1.
</event>
<event>
 4    1  0.4826743E-004  0.6500000E+04  0.7818608E-02  0.7223770E-01
         52   -1    0    0    0    0  0.00000000000E+00  0.00000000000E+00  0.64930732323E+04  0.65000000000E+04  0.30000000000E+03 0. -1.
        -52   -1    0    0    0    0 -0.00000000000E+00 -0.00000000000E+00 -0.64930732323E+04  0.65000000000E+04  0.30000000000E+03 0.  1.
     100001    1    1    2    0    0  0.10858621370E+04  0.93656000835E+02  0.64062065002E+04  0.65000000000E+04  0.15050000000E+03 0. -1.
     100001    1    1    2    0    0 -0.10858621370E+04 -0.93656000835E+02 -0.64062065002E+04  0.65000000000E+04  0.15050000000E+03 0.  1.
</event>
<event>
 4    1  0.4826743E-004  0.6500000E+04  0.7818608E-02  0.7223770E-01
         52   -1    0    0    0    0  0.00000000000E+00  0.00000000000E+00  0.64930732323E+04  0.65000000000E+04  0.30000000000E+03 0.  1.
        -52   -1    0    0    0    0 -0.00000000000E+00 -0.00000000000E+00 -0.64930732323E+04  0.65000000000E+04  0.30000000000E+03 0. -1.
     100001    1    1    2    0    0 -0.12940009717E+04  0.59885152395E+04  0.21657784887E+04  0.65000000000E+04  0.15050000000E+03 0.  1.
     100001    1    1    2    0    0  0.12940009717E+04 -0.59885152395E+04 -0.21657784887E+04  0.65000000000E+04  0.15050000000E+03 0. -1.
</event>
<event>
 4    1  0.4826743E-004  0.6500000E+04  0.7818608E-02  0.7223770E-01
         52   -1    0    0    0    0  0.00000000000E+00  0.00000000000E+00  0.64930732323E+04  0.65000000000E+04  0.30000000000E+03 0.  1.
        -52   -1    0    0    0    0 -0.00000000000E+00 -0.00000000000E+00 -0.64930732323E+04  0.65000000000E+04  0.30000000000E+03 0. -1.
     100001    1    1    2    0    0 -0.21586368589E+03  0.70041360956E+03 -0.64567928103E+04  0.65000000000E+04  0.15050000000E+03 0. -1.
     100001    1    1    2    0    0  0.21586368589E+03 -0.70041360956E+03  0.64567928103E+04  0.65000000000E+04  0.15050000000E+03 0.  1.
</event>
<event>
 4    1  0.4826743E-004  0.6500000E+04  0.7818608E-02  0.7223770E-01
         52   -1    0    0    0    0  0.00000000000E+00  0.00000000000E+00  0.64930732323E+04  0.65000000000E+04  0.30000000000E+03 0.  1.
        -52   -1    0    0    0    0 -0.00000000000E+00 -0.00000000000E+00 -0.64930732323E+04  0.65000000000E+04  0.30000000000E+03 0.  1.
     100001    1    1    2    0    0 -0.15841969790E+03  0.75363911841E+02 -0.64958889484E+04  0.65000000000E+04  0.15050000000E+03 0.  1.
     100001    1    1    2    0    0  0.15841969790E+03 -0.75363911841E+02  0.64958889484E+04  0.65000000000E+04  0.15050000000E+03 0.  1.
</event>
<event>
 4    1  0.4826743E-004  0.6500000E+04  0.7818608E-02  0.7223770E-01
         52   -1    0    0    0    0  0.00000000000E+00  0.00000000000E+00  0.64930732323E+04  0.65000000000E+04  0.30000000000E+03 0.  1.
        -52   -1    0    0    0    0 -0.00000000000E+00 -0.00000000000E+00 -0.64930732323E+04  0.65000000000E+04  0.30000000000E+03 0. -1.
     100001    1    1    2    0    0 -0.97955886393E+01 -0.42673550578E+04  0.49007075619E+04  0.65000000000E+04  0.15050000000E+03 0.  1.
     100001    1    1    2    0    0  0.97955886393E+01  0.42673550578E+04 -0.49007075619E+04  0.65000000000E+04  0.15050000000E+03 0. -1.
</event>
<event>
 4    1  0.4826743E-004  0.6500000E+04  0.7818608E-02  0.7223770E-01
         52   -1    0    0    0    0  0.00000000000E+00  0.00000000000E+00  0.64930732323E+04  0.65000000000E+04  0.30000000000E+03 0. -1.
        -52   -1    0    0    0    0 -0.00000000000E+00 -0.00000000000E+00 -0.64930732323E+04  0.65000000000E+04  0.30000000000E+03 0.  1.
     100001    1    1    2    0    0 -0.87963898064E+03  0.61001027236E+03 -0.64094830120E+04  0.65000000000E+04  0.15050000000E+03 0.  1.
     100001    1    1    2    0    0  0.87963898064E+03 -0.61001027236E+03  0.64094830120E+04  0.65000000000E+04  0.15050000000E+03 0. -1.
</event>
<event>
 4    1  0.4826743E-004  0.6500000E+04  0.7818608E-02  0.7223770E-01
         52   -1    0    0    0    0  0.00000000000E+00  0.00000000000E+00  0.64930732323E+04  0.65000000000E+04  0.30000000000E+03 0. -1.
        -52   -1    0    0    0    0 -0.00000000000E+00 -0.00000000000E+00 -0.64930732323E+04  0.65000000000E+04  0.30000000000E+03 0.  1.
     100001    1    1    2    0    0 -0.44120317219E+03  0.16332395592E+04  0.62741707064E+04  0.65000000000E+04  0.15050000000E+03 0. -1.
     100001    1    1    2    0    0  0.44120317219E+03 -0.16332395592E+04 -0.62741707064E+04  0.65000000000E+04  0.15050000000E+03 0.  1.
</event>
<event>
 4    1  0.4826743E-004  0.6500000E+04  0.7818608E-02  0.7223770E-01
         52   -1    0    0    0    0  0.00000000000E+00  0.00000000000E+00  0.64930732323E+04  0.65000000000E+04  0.30000000000E+03 0.  1.
        -52   -1    0    0    0    0 -0.00000000000E+00 -0.00000000000E+00 -0.64930732323E+04  0.65000000000E+04  0.30000000000E+03 0. -1.
     100001    1    1    2    0    0 -0.43561156514E+03  0.35923571485E+04 -0.53974588866E+04  0.65000000000E+04  0.15050000000E+03 0. -1.
     100001    1    1    2    0    0  0.43561156514E+03 -0.35923571485E+04  0.53974588866E+04  0.65000000000E+04  0.15050000000E+03 0.  1.
</event>
<event>
 4    1  0.4826743E-004  0.6500000E+04  0.7818608E-02  0.7223770E-01
         52   -1    0    0    0    0  0.00000000000E+00  0.00000000000E+00  0.64930732323E+04  0.65000000000E+04  0.30000000000E+03 0.  1.
        -52   -1    0    0    0    0 -0.00000000000E+00 -0.00000000000E+00 -0.64930732323E+04  0.65000000000E+04  0.30000000000E+03 0. -1.
     100001    1    1    2    0    0 -0.60057974349E+03  0.40861892088E+03  0.64575292720E+04  0.65000000000E+04  0.15050000000E+03 0.  1.
     100001    1    1    2    0    0  0.60057974349E+03 -0.40861892088E+03 -0.64575292720E+04  0.65000000000E+04  0.15050000000E+03 0. -1.
</event>
<event>
 4    1  0.4826743E-004  0.6500000E+04  0.7818608E-02  0.7223770E-01
         52   -1    0    0    0    0  0.00000000000E+00  0.00000000000E+00  0.64930732323E+04  0.65000000000E+04  0.30000000000E+03 0.  1.
        -52   -1    0    0    0    0 -0.00000000000E+00 -0.00000000000E+00 -0.64930732323E+04  0.65000000000E+04  0.30000000000E+03 0. -1.
     100001    1    1    2    0    0 -0.26895655840E+03 -0.63204394561E+03  0.64618521006E+04  0.65000000000E+04  0.15050000000E+03 0.  1.
     100001    1    1    2    0    0  0.26895655840E+03  0.63204394561E+03 -0.64618521006E+04  0.65000000000E+04  0.15050000000E+03 0. -1.
</event>
<event>
 4    1  0.4826743E-004  0.6500000E+04  0.7818608E-02  0.7223770E-01
         52   -1    0    0    0    0  0.00000000000E+00  0.00000000000E+00  0.64930732323E+04  0.65000000000E+04  0.30000000000E+03 0.  1.
        -52   -1    0    0    0    0 -0.00000000000E+00 -0.00000000000E+00 -0.64930732323E+04  0.65000000000E+04  0.30000000000E+03 0. -1.
     100001    1    1    2    0    0 -0.68249184143E+03  0.94097677178E+03  0.63934433095E+04  0.65000000000E+04  0.15050000000E+03 0.  1.
     100001    1    1    2    0    0  0.68249184143E+03 -0.94097677178E+03 -0.63934433095E+04  0.65000000000E+04  0.15050000000E+03 0. -1.
</event>
<event>
 4    1  0.4826743E-004  0.6500000E+04  0.7818608E-02  0.7223770E-01
         52   -1    0    0    0    0  0.00000000000E+00  0.00000000000E+00  0.64930732323E+04  0.65000000000E+04  0.30000000000E+03 0.  1.
        -52   -1    0    0    0    0 -0.00000000000E+00 -0.00000000000E+00 -0.64930732323E+04  0.65000000000E+04  0.30000000000E+03 0. -1.
     100001    1    1    2    0    0  0.39031713571E+03 -0.55652274932E+02  0.64862859255E+04  0.65000000000E+04  0.15050000000E+03 0.  1.
     100001    1    1    2    0    0 -0.39031713571E+03  0.55652274932E+02 -0.64862859255E+04  0.65000000000E+04  0.15050000000E+03 0. -1.
</event>
<event>
 4    1  0.4826743E-004  0.6500000E+04  0.7818608E-02  0.7223770E-01
         52   -1    0    0    0    0  0.00000000000E+00  0.00000000000E+00  0.64930732323E+04  0.65000000000E+04  0.30000000000E+03 0. -1.
        -52   -1    0    0    0    0 -0.00000000000E+00 -0.00000000000E+00 -0.64930732323E+04  0.65000000000E+04  0.30000000000E+03 0.  1.
     100001    1    1    2    0    0  0.19570982639E+03  0.21521463327E+04 -0.61284022042E+04  0.65000000000E+04  0.15050000000E+03 0.  1.
     100001    1    1    2    0    0 -0.19570982639E+03 -0.21521463327E+04  0.61284022042E+04  0.65000000000E+04  0.15050000000E+03 0. -1.
</event>
<event>
 4    1  0.4826743E-004  0.6500000E+04  0.7818608E-02  0.7223770E-01
         52   -1    0    0    0    0  0.00000000000E+00  0.00000000000E+00  0.64930732323E+04  0.65000000000E+04  0.30000000000E+03 0. -1.
        -52   -1    0    0    0    0 -0.00000000000E+00 -0.00000000000E+00 -0.64930732323E+04  0.65000000000E+04  0.30000000000E+03 0.  1.
     100001    1    1    2    0    0  0.52377377685E+03 -0.24673336977E+03 -0.64724132613E+04  0.65000000000E+04  0.15050000000E+03 0.  1.
     100001    1    1    2    0    0 -0.52377377685E+03  0.24673336977E+03  0.64724132613E+04  0.65000000000E+04  0.15050000000E+03 0. -1.
</event>
<event>
 4    1  0.4826743E-004  0.6500000E+04  0.7818608E-02  0.7223770E-01
         52   -1    0    0    0    0  0.00000000000E+00  0.00000000000E+00  0.64930732323E+04  0.65000000000E+04  0.30000000000E+03 0.  1.
        -52   -1    0    0    0    0 -0.00000000000E+00 -0.00000000000E+00 -0.64930732323E+04  0.65000000000E+04  0.30000000000E+03 0. -1.
     100001    1    1    2    0    0  0.15131687563E+04  0.16848628724E+04  0.60908872233E+04  0.65000000000E+04  0.15050000000E+03 0.  1.
     100001    1    1    2    0    0 -0.15131687563E+04 -0.16848628724E+04 -0.60908872233E+04  0.65000000000E+04  0.15050000000E+03 0. -1.
</event>
<event>
 4    1  0.4826743E-004  0.6500000E+04  0.7818608E-02  0.7223770E-01
         52   -1    0    0    0    0  0.00000000000E+00  0.00000000000E+00  0.64930732323E+04  0.65000000000E+04  0.30000000000E+03 0. -1.
        -52   -1    0    0    0    0 -0.00000000000E+00 -0.00000000000E+00 -0.64930732323E+04  0.65000000000E+04  0.30000000000E+03 0.  1.
     100001    1    1    2    0    0  0.55368386233E+03 -0.37569172743E+03  0.64637171702E+04  0.65000000000E+04  0.15050000000E+03 0. -1.
     100001    1    1    2    0    0 -0.55368386233E+03  0.37569172743E+03 -0.64637171702E+04  0.65000000000E+04  0.15050000000E+03 0.  1.
</event>
<event>
 4    1  0.4826743E-004  0.6500000E+04  0.7818608E-02  0.7223770E-01
         52   -1    0    0    0    0  0.00000000000E+00  0.00000000000E+00  0.64930732323E+04  0.65000000000E+04  0.30000000000E+03 0. -1.
        -52   -1    0    0    0    0 -0.00000000000E+00 -0.00000000000E+00 -0.64930732323E+04  0.65000000000E+04  0.30000000000E+03 0.  1.
     100001    1    1    2    0    0  0.66035317200E+03  0.26148457084E+04  0.59121794086E+04  0.65000000000E+04  0.15050000000E+03 0. -1.
     100001    1    1    2    0    0 -0.66035317200E+03 -0.26148457084E+04 -0.59121794086E+04  0.65000000000E+04  0.15050000000E+03 0.  1.
</event>
<event>
 4    1  0.4826743E-004  0.6500000E+04  0.7818608E-02  0.7223770E-01
         52   -1    0    0    0    0  0.00000000000E+00  0.00000000000E+00  0.64930732323E+04  0.65000000000E+04  0.30000000000E+03 0.  1.
        -52   -1    0    0    0    0 -0.00000000000E+00 -0.00000000000E+00 -0.64930732323E+04  0.65000000000E+04  0.30000000000E+03 0. -1.
     100001    1    1    2    0    0 -0.97070431724E+03  0.12795570629E+03 -0.64240727125E+04  0.65000000000E+04  0.15050000000E+03 0. -1.
     100001    1    1    2    0    0  0.97070431724E+03 -0.12795570629E+03  0.64240727125E+04  0.65000000000E+04  0.15050000000E+03 0.  1.
</event>
<event>
 4    1  0.4826743E-004  0.6500000E+04  0.7818608E-02  0.7223770E-01
         52   -1    0    0    0    0  0.00000000000E+00  0.00000000000E+00  0.64930732323E+04  0.65000000000E+04  0.30000000000E+03 0. -1.
        -52   -1    0    0    0    0 -0.00000000000E+00 -0.00000000000E+00 -0.64930732323E+04  0.65000000000E+04  0.30000000000E+03 0.  1.
     100001    1    1    2    0    0 -0.11211320570E+04  0.13651949365E+04 -0.62535314380E+04  0.65000000000E+04  0.15050000000E+03 0.  1.
     100001    1    1    2    0    0  0.11211320570E+04 -0.13651949365E+04  0.62535314380E+04  0.65000000000E+04  0.15050000000E+03 0. -1.
</event>
<event>
 4    1  0.4826743E-004  0.6500000E+04  0.7818608E-02  0.7223770E-01
         52   -1    0    0    0    0  0.00000000000E+00  0.00000000000E+00  0.64930732323E+04  0.65000000000E+04  0.30000000000E+03 0. -1.
        -52   -1    0    0    0    0 -0.00000000000E+00 -0.00000000000E+00 -0.64930732323E+04  0.65000000000E+04  0.30000000000E+03 0.  1.
     100001    1    1    2    0    0  0.14365641327E+04  0.51883910391E+04 -0.36392625170E+04  0.65000000000E+04  0.15050000000E+03 0.  1.
     100001    1    1    2    0    0 -0.14365641327E+04 -0.51883910391E+04  0.36392625170E+04  0.65000000000E+04  0.15050000000E+03 0. -1.
</event>
<event>
 4    1  0.4826743E-004  0.6500000E+04  0.7818608E-02  0.7223770E-01
         52   -1    0    0    0    0  0.00000000000E+00  0.00000000000E+00  0.64930732323E+04  0.65000000000E+04  0.30000000000E+03 0. -1.
        -52   -1    0    0    0    0 -0.00000000000E+00 -0.00000000000E+00 -0.64930732323E+04  0.65000000000E+04  0.30000000000E+03 0.  1.
     100001    1    1    2    0    0  0.69956688431E+03 -0.30360506524E+04 -0.57026618662E+04  0.65000000000E+04  0.15050000000E+03 0.  1.
     100001    1    1    2    0    0 -0.69956688431E+03  0.30360506524E+04  0.57026618662E+04  0.65000000000E+04  0.15050000000E+03 0. -1.
</event>
<event>
 4    1  0.4826743E-004  0.6500000E+04  0.7818608E-02  0.7223770E-01
         52   -1    0    0    0    0  0.00000000000E+00  0.00000000000E+00  0.64930732323E+04  0.65000000000E+04  0.30000000000E+03 0. -1.
        -52   -1    0    0    0    0 -0.00000000000E+00 -0.00000000000E+00 -0.64930732323E+04  0.65000000000E+04  0.30000000000E+03 0.  1.
     100001    1    1    2    0    0 -0.14233963336E+04 -0.26998015199E+04  0.57369298741E+04  0.65000000000E+04  0.15050000000E+03 0. -1.
     100001    1    1    2    0    0  0.14233963336E+04  0.26998015199E+04 -0.57369298741E+04  0.65000000000E+04  0.15050000000E+03 0.  1.
</event>
<event>
 4    1  0.4826743E-004  0.6500000E+04  0.7818608E-02  0.7223770E-01
         52   -1    0    0    0    0  0.00000000000E+00  0.00000000000E+00  0.64930732323E+04  0.65000000000E+04  0.30000000000E+03 0. -1.
        -52   -1    0    0    0    0 -0.00000000000E+00 -0.00000000000E+00 -0.64930732323E+04  0.65000000000E+04  0.30000000000E+03 0. -1.
     100001    1    1    2    0    0 -0.37552251832E+03 -0.67856968472E+02 -0.64870430876E+04  0.65000000000E+04  0.15050000000E+03 0. -1.
     100001    1    1    2    0    0  0.37552251832E+03  0.67856968472E+02  0.64870430876E+04  0.65000000000E+04  0.15050000000E+03 0. -1.
</event>
<event>
 4    1  0.4826743E-004  0.6500000E+04  0.7818608E-02  0.7223770E-01
         52   -1    0    0    0    0  0.00000000000E+00  0.00000000000E+00  0.64930732323E+04  0.65000000000E+04  0.30000000000E+03 0.  1.
        -52   -1    0    0    0    0 -0.00000000000E+00 -0.00000000000E+00 -0.64930732323E+04  0.65000000000E+04  0.30000000000E+03 0. -1.
     100001    1    1    2    0    0  0.92627096591E+03  0.71384081115E+03  0.63921673276E+04  0.65000000000E+04  0.15050000000E+03 0.  1.
     100001    1    1    2    0    0 -0.92627096591E+03 -0.71384081115E+03 -0.63921673276E+04  0.65000000000E+04  0.15050000000E+03 0. -1.
</event>
<event>
 4    1  0.4826743E-004  0.6500000E+04  0.7818608E-02  0.7223770E-01
         52   -1    0    0    0    0  0.00000000000E+00  0.00000000000E+00  0.64930732323E+04  0.65000000000E+04  0.30000000000E+03 0.  1.
        -52   -1    0    0    0    0 -0.00000000000E+00 -0.00000000000E+00 -0.64930732323E+04  0.65000000000E+04  0.30000000000E+03 0. -1.
     100001    1    1    2    0    0 -0.10268656892E+04 -0.23365581283E+04  0.59760683329E+04  0.65000000000E+04  0.15050000000E+03 0.  1.
     100001    1    1    2    0    0  0.10268656892E+04  0.23365581283E+04 -0.59760683329E+04  0.65000000000E+04  0.15050000000E+03 0. -1.
</event>
<event>
 4    1  0.4826743E-004  0.6500000E+04  0.7818608E-02  0.7223770E-01
         52   -1    0    0    0    0  0.00000000000E+00  0.00000000000E+00  0.64930732323E+04  0.65000000000E+04  0.30000000000E+03 0.  1.
        -52   -1    0    0    0    0 -0.00000000000E+00 -0.00000000000E+00 -0.64930732323E+04  0.65000000000E+04  0.30000000000E+03 0. -1.
     100001    1    1    2    0    0  0.44521837164E+02 -0.18203589321E+04  0.62379212013E+04  0.65000000000E+04  0.15050000000E+03 0.  1.
     100001    1    1    2    0    0 -0.44521837164E+02  0.18203589321E+04 -0.62379212013E+04  0.65000000000E+04  0.15050000000E+03 0. -1.
</event>
<event>
 4    1  0.4826743E-004  0.6500000E+04  0.7818608E-02  0.7223770E-01
         52   -1    0    0    0    0  0.00000000000E+00  0.00000000000E+00  0.64930732323E+04  0.65000000000E+04  0.30000000000E+03 0. -1.
        -52   -1    0    0    0    0 -0.00000000000E+00 -0.00000000000E+00 -0.64930732323E+04  0.65000000000E+04  0.30000000000E+03 0.  1.
     100001    1    1    2    0    0  0.13948959304E+04 -0.64964766790E+03 -0.63134438305E+04  0.65000000000E+04  0.15050000000E+03 0.  1.
     100001    1    1    2    0    0 -0.13948959304E+04  0.64964766790E+03  0.63134438305E+04  0.65000000000E+04  0.15050000000E+03 0. -1.
</event>
<event>
 4    1  0.4826743E-004  0.6500000E+04  0.7818608E-02  0.7223770E-01
         52   -1    0    0    0    0  0.00000000000E+00  0.00000000000E+00  0.64930732323E+04  0.65000000000E+04  0.30000000000E+03 0.  1.
        -52   -1    0    0    0    0 -0.00000000000E+00 -0.00000000000E+00 -0.64930732323E+04  0.65000000000E+04  0.30000000000E+03 0. -1.
     100001    1    1    2    0    0  0.18419525336E+03  0.13613857050E+04  0.63513818041E+04  0.65000000000E+04  0.15050000000E+03 0.  1.
     100001    1    1    2    0    0 -0.18419525336E+03 -0.13613857050E+04 -0.63513818041E+04  0.65000000000E+04  0.15050000000E+03 0. -1.
</event>
<event>
 4    1  0.4826743E-004  0.6500000E+04  0.7818608E-02  0.7223770E-01
         52   -1    0    0    0    0  0.00000000000E+00  0.00000000000E+00  0.64930732323E+04  0.65000000000E+04  0.30000000000E+03 0. -1.
        -52   -1    0    0    0    0 -0.00000000000E+00 -0.00000000000E+00 -0.64930732323E+04  0.65000000000E+04  0.30000000000E+03 0.  1.
     100001    1    1    2    0    0  0.16228358134E+04  0.25683997500E+04  0.57443081739E+04  0.65000000000E+04  0.15050000000E+03 0. -1.
     100001    1    1    2    0    0 -0.16228358134E+04 -0.25683997500E+04 -0.57443081739E+04  0.65000000000E+04  0.15050000000E+03 0.  1.
</event>
<event>
 4    1  0.4826743E-004  0.6500000E+04  0.7818608E-02  0.7223770E-01
         52   -1    0    0    0    0  0.00000000000E+00  0.00000000000E+00  0.64930732323E+04  0.65000000000E+04  0.30000000000E+03 0. -1.
        -52   -1    0    0    0    0 -0.00000000000E+00 -0.00000000000E+00 -0.64930732323E+04  0.65000000000E+04  0.30000000000E+03 0. -1.
     100001    1    1    2    0    0 -0.15337735894E+04  0.46436156348E+04 -0.42792198077E+04  0.65000000000E+04  0.15050000000E+03 0.  1.
     100001    1    1    2    0    0  0.15337735894E+04 -0.46436156348E+04  0.42792198077E+04  0.65000000000E+04  0.15050000000E+03 0. -1.
</event>
<event>
 4    1  0.4826743E-004  0.6500000E+04  0.7818608E-02  0.7223770E-01
         52   -1    0    0    0    0  0.00000000000E+00  0.00000000000E+00  0.64930732323E+04  0.65000000000E+04  0.30000000000E+03 0. -1.
        -52   -1    0    0    0    0 -0.00000000000E+00 -0.00000000000E+00 -0.64930732323E+04  0.65000000000E+04  0.30000000000E+03 0.  1.
     100001    1    1    2    0    0 -0.42788066947E+03 -0.12352420456E+03  0.64829784554E+04  0.65000000000E+04  0.15050000000E+03 0. -1.
     100001    1    1    2    0    0  0.42788066947E+03  0.12352420456E+03 -0.64829784554E+04  0.65000000000E+04  0.15050000000E+03 0.  1.
</event>
<event>
 4    1  0.4826743E-004  0.6500000E+04  0.7818608E-02  0.7223770E-01
         52   -1    0    0    0    0  0.00000000000E+00  0.00000000000E+00  0.64930732323E+04  0.65000000000E+04  0.30000000000E+03 0.  1.
        -52   -1    0    0    0    0 -0.00000000000E+00 -0.00000000000E+00 -0.64930732323E+04  0.65000000000E+04  0.30000000000E+03 0. -1.
     100001    1    1    2    0    0  0.31362151182E+04 -0.12790402958E+04 -0.55457695953E+04  0.65000000000E+04  0.15050000000E+03 0. -1.
     100001    1    1    2    0    0 -0.31362151182E+04  0.12790402958E+04  0.55457695953E+04  0.65000000000E+04  0.15050000000E+03 0.  1.
</event>
<event>
 4    1  0.4826743E-004  0.6500000E+04  0.7818608E-02  0.7223770E-01
         52   -1    0    0    0    0  0.00000000000E+00  0.00000000000E+00  0.64930732323E+04  0.65000000000E+04  0.30000000000E+03 0. -1.
        -52   -1    0    0    0    0 -0.00000000000E+00 -0.00000000000E+00 -0.64930732323E+04  0.65000000000E+04  0.30000000000E+03 0.  1.
     100001    1    1    2    0    0 -0.11127915323E+04 -0.47378165205E+04  0.43060584499E+04  0.65000000000E+04  0.15050000000E+03 0. -1.
     100001    1    1    2    0    0  0.11127915323E+04  0.47378165205E+04 -0.43060584499E+04  0.65000000000E+04  0.15050000000E+03 0.  1.
</event>
<event>
 4    1  0.4826743E-004  0.6500000E+04  0.7818608E-02  0.7223770E-01
         52   -1    0    0    0    0  0.00000000000E+00  0.00000000000E+00  0.64930732323E+04  0.65000000000E+04  0.30000000000E+03 0.  1.
        -52   -1    0    0    0    0 -0.00000000000E+00 -0.00000000000E+00 -0.64930732323E+04  0.65000000000E+04  0.30000000000E+03 0. -1.
     100001    1    1    2    0    0 -0.14074330283E+04 -0.99643104177E+03  0.62652699223E+04  0.65000000000E+04  0.15050000000E+03 0.  1.
     100001    1    1    2    0    0  0.14074330283E+04  0.99643104177E+03 -0.62652699223E+04  0.65000000000E+04  0.15050000000E+03 0. -1.
</event>
<event>
 4    1  0.4826743E-004  0.6500000E+04  0.7818608E-02  0.7223770E-01
         52   -1    0    0    0    0  0.00000000000E+00  0.00000000000E+00  0.64930732323E+04  0.65000000000E+04  0.30000000000E+03 0.  1.
        -52   -1    0    0    0    0 -0.00000000000E+00 -0.00000000000E+00 -0.64930732323E+04  0.65000000000E+04  0.30000000000E+03 0. -1.
     100001    1    1    2    0    0 -0.38328325222E+04  0.61673342963E+03  0.52111787998E+04  0.65000000000E+04  0.15050000000E+03 0.  1.
     100001    1    1    2    0    0  0.38328325222E+04 -0.61673342963E+03 -0.52111787998E+04  0.65000000000E+04  0.15050000000E+03 0. -1.
</event>
<event>
 4    1  0.4826743E-004  0.6500000E+04  0.7818608E-02  0.7223770E-01
         52   -1    0    0    0    0  0.00000000000E+00  0.00000000000E+00  0.64930732323E+04  0.65000000000E+04  0.30000000000E+03 0. -1.
        -52   -1    0    0    0    0 -0.00000000000E+00 -0.00000000000E+00 -0.64930732323E+04  0.65000000000E+04  0.30000000000E+03 0.  1.
     100001    1    1    2    0    0  0.17769804068E+04  0.39982326123E+04  0.48045630771E+04  0.65000000000E+04  0.15050000000E+03 0. -1.
     100001    1    1    2    0    0 -0.17769804068E+04 -0.39982326123E+04 -0.48045630771E+04  0.65000000000E+04  0.15050000000E+03 0.  1.
</event>
<event>
 4    1  0.4826743E-004  0.6500000E+04  0.7818608E-02  0.7223770E-01
         52   -1    0    0    0    0  0.00000000000E+00  0.00000000000E+00  0.64930732323E+04  0.65000000000E+04  0.30000000000E+03 0. -1.
        -52   -1    0    0    0    0 -0.00000000000E+00 -0.00000000000E+00 -0.64930732323E+04  0.65000000000E+04  0.30000000000E+03 0.  1.
     100001    1    1    2    0    0  0.45132691702E+03  0.69131572086E+03 -0.64455982141E+04  0.65000000000E+04  0.15050000000E+03 0.  1.
     100001    1    1    2    0    0 -0.45132691702E+03 -0.69131572086E+03  0.64455982141E+04  0.65000000000E+04  0.15050000000E+03 0. -1.
</event>
<event>
 4    1  0.4826743E-004  0.6500000E+04  0.7818608E-02  0.7223770E-01
         52   -1    0    0    0    0  0.00000000000E+00  0.00000000000E+00  0.64930732323E+04  0.65000000000E+04  0.30000000000E+03 0. -1.
        -52   -1    0    0    0    0 -0.00000000000E+00 -0.00000000000E+00 -0.64930732323E+04  0.65000000000E+04  0.30000000000E+03 0. -1.
     100001    1    1    2    0    0  0.17537597512E+03 -0.21329648281E+04  0.61357195226E+04  0.65000000000E+04  0.15050000000E+03 0. -1.
     100001    1    1    2    0    0 -0.17537597512E+03  0.21329648281E+04 -0.61357195226E+04  0.65000000000E+04  0.15050000000E+03 0. -1.
</event>
<event>
 4    1  0.4826743E-004  0.6500000E+04  0.7818608E-02  0.7223770E-01
         52   -1    0    0    0    0  0.00000000000E+00  0.00000000000E+00  0.64930732323E+04  0.65000000000E+04  0.30000000000E+03 0.  1.
        -52   -1    0    0    0    0 -0.00000000000E+00 -0.00000000000E+00 -0.64930732323E+04  0.65000000000E+04  0.30000000000E+03 0. -1.
     100001    1    1    2    0    0 -0.26536927324E+04 -0.36523647715E+03  0.59204617174E+04  0.65000000000E+04  0.15050000000E+03 0.  1.
     100001    1    1    2    0    0  0.26536927324E+04  0.36523647715E+03 -0.59204617174E+04  0.65000000000E+04  0.15050000000E+03 0. -1.
</event>
<event>
 4    1  0.4826743E-004  0.6500000E+04  0.7818608E-02  0.7223770E-01
         52   -1    0    0    0    0  0.00000000000E+00  0.00000000000E+00  0.64930732323E+04  0.65000000000E+04  0.30000000000E+03 0.  1.
        -52   -1    0    0    0    0 -0.00000000000E+00 -0.00000000000E+00 -0.64930732323E+04  0.65000000000E+04  0.30000000000E+03 0. -1.
     100001    1    1    2    0    0 -0.17969682799E+03  0.17618089702E+03 -0.64933827156E+04  0.65000000000E+04  0.15050000000E+03 0. -1.
     100001    1    1    2    0    0  0.17969682799E+03 -0.17618089702E+03  0.64933827156E+04  0.65000000000E+04  0.15050000000E+03 0.  1.
</event>
<event>
 4    1  0.4826743E-004  0.6500000E+04  0.7818608E-02  0.7223770E-01
         52   -1    0    0    0    0  0.00000000000E+00  0.00000000000E+00  0.64930732323E+04  0.65000000000E+04  0.30000000000E+03 0.  1.
        -52   -1    0    0    0    0 -0.00000000000E+00 -0.00000000000E+00 -0.64930732323E+04  0.65000000000E+04  0.30000000000E+03 0. -1.
     100001    1    1    2    0    0  0.26631558751E+03 -0.53398590134E+04 -0.36935526901E+04  0.65000000000E+04  0.15050000000E+03 0. -1.
     100001    1    1    2    0    0 -0.26631558751E+03  0.53398590134E+04  0.36935526901E+04  0.65000000000E+04  0.15050000000E+03 0.  1.
</event>
<event>
 4    1  0.4826743E-004  0.6500000E+04  0.7818608E-02  0.7223770E-01
         52   -1    0    0    0    0  0.00000000000E+00  0.00000000000E+00  0.64930732323E+04  0.65000000000E+04  0.30000000000E+03 0.  1.
        -52   -1    0    0    0    0 -0.00000000000E+00 -0.00000000000E+00 -0.64930732323E+04  0.65000000000E+04  0.30000000000E+03 0.  1.
     100001    1    1    2    0    0 -0.26570017854E+03 -0.82902515854E+02  0.64922939196E+04  0.65000000000E+04  0.15050000000E+03 0.  1.
     100001    1    1    2    0    0  0.26570017854E+03  0.82902515854E+02 -0.64922939196E+04  0.65000000000E+04  0.15050000000E+03 0.  1.
</event>
<event>
 4    1  0.4826743E-004  0.6500000E+04  0.7818608E-02  0.7223770E-01
         52   -1    0    0    0    0  0.00000000000E+00  0.00000000000E+00  0.64930732323E+04  0.65000000000E+04  0.30000000000E+03 0.  1.
        -52   -1    0    0    0    0 -0.00000000000E+00 -0.00000000000E+00 -0.64930732323E+04  0.65000000000E+04  0.30000000000E+03 0. -1.
     100001    1    1    2    0    0  0.64705951194E+03 -0.55686452751E+04  0.32861609118E+04  0.65000000000E+04  0.15050000000E+03 0.  1.
     100001    1    1    2    0    0 -0.64705951194E+03  0.55686452751E+04 -0.32861609118E+04  0.65000000000E+04  0.15050000000E+03 0. -1.
</event>
<event>
 4    1  0.4826743E-004  0.6500000E+04  0.7818608E-02  0.7223770E-01
         52   -1    0    0    0    0  0.00000000000E+00  0.00000000000E+00  0.64930732323E+04  0.65000000000E+04  0.30000000000E+03 0.  1.
        -52   -1    0    0    0    0 -0.00000000000E+00 -0.00000000000E+00 -0.64930732323E+04  0.65000000000E+04  0.30000000000E+03 0. -1.
     100001    1    1    2    0    0 -0.50632330798E+04 -0.37078619767E+04  0.16860545933E+04  0.65000000000E+04  0.15050000000E+03 0.  1.
     100001    1    1    2    0    0  0.50632330798E+04  0.37078619767E+04 -0.16860545933E+04  0.65000000000E+04  0.15050000000E+03 0. -1.
</event>
<event>
 4    1  0.4826743E-004  0.6500000E+04  0.7818608E-02  0.7223770E-01
         52   -1    0    0    0    0  0.00000000000E+00  0.00000000000E+00  0.64930732323E+04  0.65000000000E+04  0.30000000000E+03 0.  1.
        -52   -1    0    0    0    0 -0.00000000000E+00 -0.00000000000E+00 -0.64930732323E+04  0.65000000000E+04  0.30000000000E+03 0. -1.
     100001    1    1    2    0    0  0.51398369643E+03  0.11648585494E+04 -0.63723053183E+04  0.65000000000E+04  0.15050000000E+03 0. -1.
     100001    1    1    2    0    0 -0.51398369643E+03 -0.11648585494E+04  0.63723053183E+04  0.65000000000E+04  0.15050000000E+03 0.  1.
</event>
<event>
 4    1  0.4826743E-004  0.6500000E+04  0.7818608E-02  0.7223770E-01
         52   -1    0    0    0    0  0.00000000000E+00  0.00000000000E+00  0.64930732323E+04  0.65000000000E+04  0.30000000000E+03 0.  1.
        -52   -1    0    0    0    0 -0.00000000000E+00 -0.00000000000E+00 -0.64930732323E+04  0.65000000000E+04  0.30000000000E+03 0. -1.
     100001    1    1    2    0    0  0.19373569325E+03  0.23643396564E+03 -0.64910642587E+04  0.65000000000E+04  0.15050000000E+03 0. -1.
     100001    1    1    2    0    0 -0.19373569325E+03 -0.23643396564E+03  0.64910642587E+04  0.65000000000E+04  0.15050000000E+03 0.  1.
</event>
<event>
 4    1  0.4826743E-004  0.6500000E+04  0.7818608E-02  0.7223770E-01
         52   -1    0    0    0    0  0.00000000000E+00  0.00000000000E+00  0.64930732323E+04  0.65000000000E+04  0.30000000000E+03 0. -1.
        -52   -1    0    0    0    0 -0.00000000000E+00 -0.00000000000E+00 -0.64930732323E+04  0.65000000000E+04  0.30000000000E+03 0.  1.
     100001    1    1    2    0    0  0.45069989533E+03  0.60986741041E+03  0.64538578460E+04  0.65000000000E+04  0.15050000000E+03 0. -1.
     100001    1    1    2    0    0 -0.45069989533E+03 -0.60986741041E+03 -0.64538578460E+04  0.65000000000E+04  0.15050000000E+03 0.  1.
</event>
<event>
 4    1  0.4826743E-004  0.6500000E+04  0.7818608E-02  0.7223770E-01
         52   -1    0    0    0    0  0.00000000000E+00  0.00000000000E+00  0.64930732323E+04  0.65000000000E+04  0.30000000000E+03 0.  1.
        -52   -1    0    0    0    0 -0.00000000000E+00 -0.00000000000E+00 -0.64930732323E+04  0.65000000000E+04  0.30000000000E+03 0. -1.
     100001    1    1    2    0    0 -0.36390896882E+03 -0.10304427747E+04  0.64057089928E+04  0.65000000000E+04  0.15050000000E+03 0.  1.
     100001    1    1    2    0    0  0.36390896882E+03  0.10304427747E+04 -0.64057089928E+04  0.65000000000E+04  0.15050000000E+03 0. -1.
</event>
<event>
 4    1  0.4826743E-004  0.6500000E+04  0.7818608E-02  0.7223770E-01
         52   -1    0    0    0    0  0.00000000000E+00  0.00000000000E+00  0.64930732323E+04  0.65000000000E+04  0.30000000000E+03 0.  1.
        -52   -1    0    0    0    0 -0.00000000000E+00 -0.00000000000E+00 -0.64930732323E+04  0.65000000000E+04  0.30000000000E+03 0. -1.
     100001    1    1    2    0    0  0.22288188269E+04 -0.10332720292E+04 -0.60159841506E+04  0.65000000000E+04  0.15050000000E+03 0. -1.
     100001    1    1    2    0    0 -0.22288188269E+04  0.10332720292E+04  0.60159841506E+04  0.65000000000E+04  0.15050000000E+03 0.  1.
</event>
<event>
 4    1  0.4826743E-004  0.6500000E+04  0.7818608E-02  0.7223770E-01
         52   -1    0    0    0    0  0.00000000000E+00  0.00000000000E+00  0.64930732323E+04  0.65000000000E+04  0.30000000000E+03 0. -1.
        -52   -1    0    0    0    0 -0.00000000000E+00 -0.00000000000E+00 -0.64930732323E+04  0.65000000000E+04  0.30000000000E+03 0. -1.
     100001    1    1    2    0    0  0.30165406962E+03  0.93966477572E+02 -0.64905719989E+04  0.65000000000E+04  0.15050000000E+03 0. -1.
     100001    1    1    2    0    0 -0.30165406962E+03 -0.93966477572E+02  0.64905719989E+04  0.65000000000E+04  0.15050000000E+03 0. -1.
</event>
<event>
 4    1  0.4826743E-004  0.6500000E+04  0.7818608E-02  0.7223770E-01
         52   -1    0    0    0    0  0.00000000000E+00  0.00000000000E+00  0.64930732323E+04  0.65000000000E+04  0.30000000000E+03 0. -1.
        -52   -1    0    0    0    0 -0.00000000000E+00 -0.00000000000E+00 -0.64930732323E+04  0.65000000000E+04  0.30000000000E+03 0.  1.
     100001    1    1    2    0    0  0.14422278643E+04  0.12878935232E+03  0.63348829382E+04  0.65000000000E+04  0.15050000000E+03 0. -1.
     100001    1    1    2    0    0 -0.14422278643E+04 -0.12878935232E+03 -0.63348829382E+04  0.65000000000E+04  0.15050000000E+03 0.  1.
</event>
<event>
 4    1  0.4826743E-004  0.6500000E+04  0.7818608E-02  0.7223770E-01
         52   -1    0    0    0    0  0.00000000000E+00  0.00000000000E+00  0.64930732323E+04  0.65000000000E+04  0.30000000000E+03 0. -1.
        -52   -1    0    0    0    0 -0.00000000000E+00 -0.00000000000E+00 -0.64930732323E+04  0.65000000000E+04  0.30000000000E+03 0. -1.
     100001    1    1    2    0    0 -0.30272700028E+03  0.40210709862E+03  0.64787356787E+04  0.65000000000E+04  0.15050000000E+03 0. -1.
     100001    1    1    2    0    0  0.30272700028E+03 -0.40210709862E+03 -0.64787356787E+04  0.65000000000E+04  0.15050000000E+03 0. -1.
</event>
<event>
 4    1  0.5659529E-004  0.6500000E+04  0.7818608E-02  0.7223770E-01
         52   -1    0    0    0    0  0.00000000000E+00  0.00000000000E+00  0.64930732323E+04  0.65000000000E+04  0.30000000000E+03 0. -1.
        -52   -1    0    0    0    0 -0.00000000000E+00 -0.00000000000E+00 -0.64930732323E+04  0.65000000000E+04  0.30000000000E+03 0. -1.
     100001    1    1    2    0    0 -0.38446226304E+02  0.21771316971E+03  0.64944955627E+04  0.65000000000E+04  0.15050000000E+03 0. -1.
     100001    1    1    2    0    0  0.38446226304E+02 -0.21771316971E+03 -0.64944955627E+04  0.65000000000E+04  0.15050000000E+03 0. -1.
</event>
<event>
 4    1  0.4826743E-004  0.6500000E+04  0.7818608E-02  0.7223770E-01
         52   -1    0    0    0    0  0.00000000000E+00  0.00000000000E+00  0.64930732323E+04  0.65000000000E+04  0.30000000000E+03 0.  1.
        -52   -1    0    0    0    0 -0.00000000000E+00 -0.00000000000E+00 -0.64930732323E+04  0.65000000000E+04  0.30000000000E+03 0. -1.
     100001    1    1    2    0    0 -0.49818550305E+03  0.47366008652E+03 -0.64617959637E+04  0.65000000000E+04  0.15050000000E+03 0. -1.
     100001    1    1    2    0    0  0.49818550305E+03 -0.47366008652E+03  0.64617959637E+04  0.65000000000E+04  0.15050000000E+03 0.  1.
</event>
<event>
 4    1  0.4826743E-004  0.6500000E+04  0.7818608E-02  0.7223770E-01
         52   -1    0    0    0    0  0.00000000000E+00  0.00000000000E+00  0.64930732323E+04  0.65000000000E+04  0.30000000000E+03 0. -1.
        -52   -1    0    0    0    0 -0.00000000000E+00 -0.00000000000E+00 -0.64930732323E+04  0.65000000000E+04  0.30000000000E+03 0.  1.
     100001    1    1    2    0    0 -0.27783553821E+04  0.55633571403E+04  0.18860404159E+04  0.65000000000E+04  0.15050000000E+03 0.  1.
     100001    1    1    2    0    0  0.27783553821E+04 -0.55633571403E+04 -0.18860404159E+04  0.65000000000E+04  0.15050000000E+03 0. -1.
</event>
<event>
 4    1  0.4826743E-004  0.6500000E+04  0.7818608E-02  0.7223770E-01
         52   -1    0    0    0    0  0.00000000000E+00  0.00000000000E+00  0.64930732323E+04  0.65000000000E+04  0.30000000000E+03 0. -1.
        -52   -1    0    0    0    0 -0.00000000000E+00 -0.00000000000E+00 -0.64930732323E+04  0.65000000000E+04  0.30000000000E+03 0.  1.
     100001    1    1    2    0    0  0.26522742844E+03 -0.37792727010E+03 -0.64818342419E+04  0.65000000000E+04  0.15050000000E+03 0.  1.
     100001    1    1    2    0    0 -0.26522742844E+03  0.37792727010E+03  0.64818342419E+04  0.65000000000E+04  0.15050000000E+03 0. -1.
</event>
<event>
 4    1  0.4826743E-004  0.6500000E+04  0.7818608E-02  0.7223770E-01
         52   -1    0    0    0    0  0.00000000000E+00  0.00000000000E+00  0.64930732323E+04  0.65000000000E+04  0.30000000000E+03 0. -1.
        -52   -1    0    0    0    0 -0.00000000000E+00 -0.00000000000E+00 -0.64930732323E+04  0.65000000000E+04  0.30000000000E+03 0. -1.
     100001    1    1    2    0    0  0.29880899947E+03 -0.29004868633E+03 -0.64849005152E+04  0.65000000000E+04  0.15050000000E+03 0. -1.
     100001    1    1    2    0    0 -0.29880899947E+03  0.29004868633E+03  0.64849005152E+04  0.65000000000E+04  0.15050000000E+03 0. -1.
</event>
<event>
 4    1  0.4826743E-004  0.6500000E+04  0.7818608E-02  0.7223770E-01
         52   -1    0    0    0    0  0.00000000000E+00  0.00000000000E+00  0.64930732323E+04  0.65000000000E+04  0.30000000000E+03 0.  1.
        -52   -1    0    0    0    0 -0.00000000000E+00 -0.00000000000E+00 -0.64930732323E+04  0.65000000000E+04  0.30000000000E+03 0. -1.
     100001    1    1    2    0    0  0.10925885577E+04  0.53084235538E+03  0.63837141530E+04  0.65000000000E+04  0.15050000000E+03 0.  1.
     100001    1    1    2    0    0 -0.10925885577E+04 -0.53084235538E+03 -0.63837141530E+04  0.65000000000E+04  0.15050000000E+03 0. -1.
</event>
<event>
 4    1  0.4826743E-004  0.6500000E+04  0.7818608E-02  0.7223770E-01
         52   -1    0    0    0    0  0.00000000000E+00  0.00000000000E+00  0.64930732323E+04  0.65000000000E+04  0.30000000000E+03 0. -1.
        -52   -1    0    0    0    0 -0.00000000000E+00 -0.00000000000E+00 -0.64930732323E+04  0.65000000000E+04  0.30000000000E+03 0.  1.
     100001    1    1    2    0    0  0.34733319673E+03 -0.18419124376E+03  0.64863535971E+04  0.65000000000E+04  0.15050000000E+03 0. -1.
     100001    1    1    2    0    0 -0.34733319673E+03  0.18419124376E+03 -0.64863535971E+04  0.65000000000E+04  0.15050000000E+03 0.  1.
</event>
<event>
 4    1  0.4826743E-004  0.6500000E+04  0.7818608E-02  0.7223770E-01
         52   -1    0    0    0    0  0.00000000000E+00  0.00000000000E+00  0.64930732323E+04  0.65000000000E+04  0.30000000000E+03 0.  1.
        -52   -1    0    0    0    0 -0.00000000000E+00 -0.00000000000E+00 -0.64930732323E+04  0.65000000000E+04  0.30000000000E+03 0. -1.
     100001    1    1    2    0    0  0.86053532287E+03 -0.81755102592E+03 -0.63889309769E+04  0.65000000000E+04  0.15050000000E+03 0. -1.
     100001    1    1    2    0    0 -0.86053532287E+03  0.81755102592E+03  0.63889309769E+04  0.65000000000E+04  0.15050000000E+03 0.  1.
</event>
<event>
 4    1  0.4826743E-004  0.6500000E+04  0.7818608E-02  0.7223770E-01
         52   -1    0    0    0    0  0.00000000000E+00  0.00000000000E+00  0.64930732323E+04  0.65000000000E+04  0.30000000000E+03 0.  1.
        -52   -1    0    0    0    0 -0.00000000000E+00 -0.00000000000E+00 -0.64930732323E+04  0.65000000000E+04  0.30000000000E+03 0. -1.
     100001    1    1    2    0    0  0.22354225967E+03 -0.59092684625E+03  0.64674712269E+04  0.65000000000E+04  0.15050000000E+03 0.  1.
     100001    1    1    2    0    0 -0.22354225967E+03  0.59092684625E+03 -0.64674712269E+04  0.65000000000E+04  0.15050000000E+03 0. -1.
</event>
<event>
 4    1  0.4826743E-004  0.6500000E+04  0.7818608E-02  0.7223770E-01
         52   -1    0    0    0    0  0.00000000000E+00  0.00000000000E+00  0.64930732323E+04  0.65000000000E+04  0.30000000000E+03 0.  1.
        -52   -1    0    0    0    0 -0.00000000000E+00 -0.00000000000E+00 -0.64930732323E+04  0.65000000000E+04  0.30000000000E+03 0. -1.
     100001    1    1    2    0    0 -0.21605790240E+03  0.82801075495E+02 -0.64941367952E+04  0.65000000000E+04  0.15050000000E+03 0. -1.
     100001    1    1    2    0    0  0.21605790240E+03 -0.82801075495E+02  0.64941367952E+04  0.65000000000E+04  0.15050000000E+03 0.  1.
</event>
<event>
 4    1  0.4826743E-004  0.6500000E+04  0.7818608E-02  0.7223770E-01
         52   -1    0    0    0    0  0.00000000000E+00  0.00000000000E+00  0.64930732323E+04  0.65000000000E+04  0.30000000000E+03 0.  1.
        -52   -1    0    0    0    0 -0.00000000000E+00 -0.00000000000E+00 -0.64930732323E+04  0.65000000000E+04  0.30000000000E+03 0. -1.
     100001    1    1    2    0    0 -0.15574111623E+04 -0.67430616682E+03  0.62727291839E+04  0.65000000000E+04  0.15050000000E+03 0.  1.
     100001    1    1    2    0    0  0.15574111623E+04  0.67430616682E+03 -0.62727291839E+04  0.65000000000E+04  0.15050000000E+03 0. -1.
</event>
<event>
 4    1  0.4826743E-004  0.6500000E+04  0.7818608E-02  0.7223770E-01
         52   -1    0    0    0    0  0.00000000000E+00  0.00000000000E+00  0.64930732323E+04  0.65000000000E+04  0.30000000000E+03 0.  1.
        -52   -1    0    0    0    0 -0.00000000000E+00 -0.00000000000E+00 -0.64930732323E+04  0.65000000000E+04  0.30000000000E+03 0.  1.
     100001    1    1    2    0    0  0.12157558233E+04 -0.52824583382E+03  0.63616227385E+04  0.65000000000E+04  0.15050000000E+03 0.  1.
     100001    1    1    2    0    0 -0.12157558233E+04  0.52824583382E+03 -0.63616227385E+04  0.65000000000E+04  0.15050000000E+03 0.  1.
</event>
<event>
 4    1  0.4826743E-004  0.6500000E+04  0.7818608E-02  0.7223770E-01
         52   -1    0    0    0    0  0.00000000000E+00  0.00000000000E+00  0.64930732323E+04  0.65000000000E+04  0.30000000000E+03 0.  1.
        -52   -1    0    0    0    0 -0.00000000000E+00 -0.00000000000E+00 -0.64930732323E+04  0.65000000000E+04  0.30000000000E+03 0.  1.
     100001    1    1    2    0    0  0.49575799278E+02  0.26179146215E+03 -0.64927927135E+04  0.65000000000E+04  0.15050000000E+03 0.  1.
     100001    1    1    2    0    0 -0.49575799278E+02 -0.26179146215E+03  0.64927927135E+04  0.65000000000E+04  0.15050000000E+03 0.  1.
</event>
<event>
 4    1  0.4826743E-004  0.6500000E+04  0.7818608E-02  0.7223770E-01
         52   -1    0    0    0    0  0.00000000000E+00  0.00000000000E+00  0.64930732323E+04  0.65000000000E+04  0.30000000000E+03 0.  1.
        -52   -1    0    0    0    0 -0.00000000000E+00 -0.00000000000E+00 -0.64930732323E+04  0.65000000000E+04  0.30000000000E+03 0. -1.
     100001    1    1    2    0    0 -0.13175595680E+04  0.14786072935E+04 -0.61891119724E+04  0.65000000000E+04  0.15050000000E+03 0. -1.
     100001    1    1    2    0    0  0.13175595680E+04 -0.14786072935E+04  0.61891119724E+04  0.65000000000E+04  0.15050000000E+03 0.  1.
</event>
<event>
 4    1  0.4826743E-004  0.6500000E+04  0.7818608E-02  0.7223770E-01
         52   -1    0    0    0    0  0.00000000000E+00  0.00000000000E+00  0.64930732323E+04  0.65000000000E+04  0.30000000000E+03 0.  1.
        -52   -1    0    0    0    0 -0.00000000000E+00 -0.00000000000E+00 -0.64930732323E+04  0.65000000000E+04  0.30000000000E+03 0. -1.
     100001    1    1    2    0    0 -0.23960094755E+03  0.12278059670E+04 -0.63767102524E+04  0.65000000000E+04  0.15050000000E+03 0. -1.
     100001    1    1    2    0    0  0.23960094755E+03 -0.12278059670E+04  0.63767102524E+04  0.65000000000E+04  0.15050000000E+03 0.  1.
</event>
<event>
 4    1  0.4826743E-004  0.6500000E+04  0.7818608E-02  0.7223770E-01
         52   -1    0    0    0    0  0.00000000000E+00  0.00000000000E+00  0.64930732323E+04  0.65000000000E+04  0.30000000000E+03 0. -1.
        -52   -1    0    0    0    0 -0.00000000000E+00 -0.00000000000E+00 -0.64930732323E+04  0.65000000000E+04  0.30000000000E+03 0.  1.
     100001    1    1    2    0    0  0.45909787227E+02  0.28246601887E+03  0.64919530951E+04  0.65000000000E+04  0.15050000000E+03 0. -1.
     100001    1    1    2    0    0 -0.45909787227E+02 -0.28246601887E+03 -0.64919530951E+04  0.65000000000E+04  0.15050000000E+03 0.  1.
</event>
<event>
 4    1  0.4826743E-004  0.6500000E+04  0.7818608E-02  0.7223770E-01
         52   -1    0    0    0    0  0.00000000000E+00  0.00000000000E+00  0.64930732323E+04  0.65000000000E+04  0.30000000000E+03 0.  1.
        -52   -1    0    0    0    0 -0.00000000000E+00 -0.00000000000E+00 -0.64930732323E+04  0.65000000000E+04  0.30000000000E+03 0. -1.
     100001    1    1    2    0    0  0.68008587979E+03  0.11874595462E+04  0.63525406549E+04  0.65000000000E+04  0.15050000000E+03 0.  1.
     100001    1    1    2    0    0 -0.68008587979E+03 -0.11874595462E+04 -0.63525406549E+04  0.65000000000E+04  0.15050000000E+03 0. -1.
</event>
<event>
 4    1  0.4826743E-004  0.6500000E+04  0.7818608E-02  0.7223770E-01
         52   -1    0    0    0    0  0.00000000000E+00  0.00000000000E+00  0.64930732323E+04  0.65000000000E+04  0.30000000000E+03 0.  1.
        -52   -1    0    0    0    0 -0.00000000000E+00 -0.00000000000E+00 -0.64930732323E+04  0.65000000000E+04  0.30000000000E+03 0. -1.
     100001    1    1    2    0    0  0.37833694291E+03 -0.99375951596E+01 -0.64872268460E+04  0.65000000000E+04  0.15050000000E+03 0. -1.
     100001    1    1    2    0    0 -0.37833694291E+03  0.99375951596E+01  0.64872268460E+04  0.65000000000E+04  0.15050000000E+03 0.  1.
</event>
<event>
 4    1  0.4826743E-004  0.6500000E+04  0.7818608E-02  0.7223770E-01
         52   -1    0    0    0    0  0.00000000000E+00  0.00000000000E+00  0.64930732323E+04  0.65000000000E+04  0.30000000000E+03 0.  1.
        -52   -1    0    0    0    0 -0.00000000000E+00 -0.00000000000E+00 -0.64930732323E+04  0.65000000000E+04  0.30000000000E+03 0. -1.
     100001    1    1    2    0    0 -0.10693254869E+04 -0.24395385646E+04 -0.59272712393E+04  0.65000000000E+04  0.15050000000E+03 0. -1.
     100001    1    1    2    0    0  0.10693254869E+04  0.24395385646E+04  0.59272712393E+04  0.65000000000E+04  0.15050000000E+03 0.  1.
</event>
<event>
 4    1  0.4826743E-004  0.6500000E+04  0.7818608E-02  0.7223770E-01
         52   -1    0    0    0    0  0.00000000000E+00  0.00000000000E+00  0.64930732323E+04  0.65000000000E+04  0.30000000000E+03 0.  1.
        -52   -1    0    0    0    0 -0.00000000000E+00 -0.00000000000E+00 -0.64930732323E+04  0.65000000000E+04  0.30000000000E+03 0. -1.
     100001    1    1    2    0    0  0.56050807972E+03  0.18545401558E+03  0.64713821747E+04  0.65000000000E+04  0.15050000000E+03 0.  1.
     100001    1    1    2    0    0 -0.56050807972E+03 -0.18545401558E+03 -0.64713821747E+04  0.65000000000E+04  0.15050000000E+03 0. -1.
</event>
<event>
 4    1  0.4826743E-004  0.6500000E+04  0.7818608E-02  0.7223770E-01
         52   -1    0    0    0    0  0.00000000000E+00  0.00000000000E+00  0.64930732323E+04  0.65000000000E+04  0.30000000000E+03 0.  1.
        -52   -1    0    0    0    0 -0.00000000000E+00 -0.00000000000E+00 -0.64930732323E+04  0.65000000000E+04  0.30000000000E+03 0. -1.
     100001    1    1    2    0    0  0.35362346078E+04  0.25343046084E+04 -0.48269757303E+04  0.65000000000E+04  0.15050000000E+03 0. -1.
     100001    1    1    2    0    0 -0.35362346078E+04 -0.25343046084E+04  0.48269757303E+04  0.65000000000E+04  0.15050000000E+03 0.  1.
</event>
<event>
 4    1  0.4826743E-004  0.6500000E+04  0.7818608E-02  0.7223770E-01
         52   -1    0    0    0    0  0.00000000000E+00  0.00000000000E+00  0.64930732323E+04  0.65000000000E+04  0.30000000000E+03 0. -1.
        -52   -1    0    0    0    0 -0.00000000000E+00 -0.00000000000E+00 -0.64930732323E+04  0.65000000000E+04  0.30000000000E+03 0.  1.
     100001    1    1    2    0    0  0.13580439209E+03  0.54286440365E+03 -0.64741180987E+04  0.65000000000E+04  0.15050000000E+03 0.  1.
     100001    1    1    2    0    0 -0.13580439209E+03 -0.54286440365E+03  0.64741180987E+04  0.65000000000E+04  0.15050000000E+03 0. -1.
</event>
<event>
 4    1  0.4826743E-004  0.6500000E+04  0.7818608E-02  0.7223770E-01
         52   -1    0    0    0    0  0.00000000000E+00  0.00000000000E+00  0.64930732323E+04  0.65000000000E+04  0.30000000000E+03 0. -1.
        -52   -1    0    0    0    0 -0.00000000000E+00 -0.00000000000E+00 -0.64930732323E+04  0.65000000000E+04  0.30000000000E+03 0.  1.
     100001    1    1    2    0    0  0.48599829855E+02  0.13362691493E+04 -0.63591959057E+04  0.65000000000E+04  0.15050000000E+03 0.  1.
     100001    1    1    2    0    0 -0.48599829855E+02 -0.13362691493E+04  0.63591959057E+04  0.65000000000E+04  0.15050000000E+03 0. -1.
</event>
<event>
 4    1  0.4826743E-004  0.6500000E+04  0.7818608E-02  0.7223770E-01
         52   -1    0    0    0    0  0.00000000000E+00  0.00000000000E+00  0.64930732323E+04  0.65000000000E+04  0.30000000000E+03 0.  1.
        -52   -1    0    0    0    0 -0.00000000000E+00 -0.00000000000E+00 -0.64930732323E+04  0.65000000000E+04  0.30000000000E+03 0. -1.
     100001    1    1    2    0    0  0.50076840668E+03  0.59809574176E+02  0.64786575436E+04  0.65000000000E+04  0.15050000000E+03 0.  1.
     100001    1    1    2    0    0 -0.50076840668E+03 -0.59809574176E+02 -0.64786575436E+04  0.65000000000E+04  0.15050000000E+03 0. -1.
</event>
<event>
 4    1  0.4826743E-004  0.6500000E+04  0.7818608E-02  0.7223770E-01
         52   -1    0    0    0    0  0.00000000000E+00  0.00000000000E+00  0.64930732323E+04  0.65000000000E+04  0.30000000000E+03 0.  1.
        -52   -1    0    0    0    0 -0.00000000000E+00 -0.00000000000E+00 -0.64930732323E+04  0.65000000000E+04  0.30000000000E+03 0. -1.
     100001    1    1    2    0    0  0.27207196616E+04 -0.40247359983E+04 -0.43158468946E+04  0.65000000000E+04  0.15050000000E+03 0. -1.
     100001    1    1    2    0    0 -0.27207196616E+04  0.40247359983E+04  0.43158468946E+04  0.65000000000E+04  0.15050000000E+03 0.  1.
</event>
<event>
 4    1  0.4826743E-004  0.6500000E+04  0.7818608E-02  0.7223770E-01
         52   -1    0    0    0    0  0.00000000000E+00  0.00000000000E+00  0.64930732323E+04  0.65000000000E+04  0.30000000000E+03 0.  1.
        -52   -1    0    0    0    0 -0.00000000000E+00 -0.00000000000E+00 -0.64930732323E+04  0.65000000000E+04  0.30000000000E+03 0. -1.
     100001    1    1    2    0    0 -0.20509838131E+03 -0.72915246047E+03  0.64539616588E+04  0.65000000000E+04  0.15050000000E+03 0.  1.
     100001    1    1    2    0    0  0.20509838131E+03  0.72915246047E+03 -0.64539616588E+04  0.65000000000E+04  0.15050000000E+03 0. -1.
</event>
<event>
 4    1  0.4826743E-004  0.6500000E+04  0.7818608E-02  0.7223770E-01
         52   -1    0    0    0    0  0.00000000000E+00  0.00000000000E+00  0.64930732323E+04  0.65000000000E+04  0.30000000000E+03 0.  1.
        -52   -1    0    0    0    0 -0.00000000000E+00 -0.00000000000E+00 -0.64930732323E+04  0.65000000000E+04  0.30000000000E+03 0. -1.
     100001    1    1    2    0    0 -0.39155349886E+03  0.14355849760E+04  0.63255933622E+04  0.65000000000E+04  0.15050000000E+03 0.  1.
     100001    1    1    2    0    0  0.39155349886E+03 -0.14355849760E+04 -0.63255933622E+04  0.65000000000E+04  0.15050000000E+03 0. -1.
</event>
<event>
 4    1  0.4826743E-004  0.6500000E+04  0.7818608E-02  0.7223770E-01
         52   -1    0    0    0    0  0.00000000000E+00  0.00000000000E+00  0.64930732323E+04  0.65000000000E+04  0.30000000000E+03 0.  1.
        -52   -1    0    0    0    0 -0.00000000000E+00 -0.00000000000E+00 -0.64930732323E+04  0.65000000000E+04  0.30000000000E+03 0. -1.
     100001    1    1    2    0    0  0.19901329687E+04 -0.93357730502E+03  0.61151577194E+04  0.65000000000E+04  0.15050000000E+03 0.  1.
     100001    1    1    2    0    0 -0.19901329687E+04  0.93357730502E+03 -0.61151577194E+04  0.65000000000E+04  0.15050000000E+03 0. -1.
</event>
<event>
 4    1  0.4826743E-004  0.6500000E+04  0.7818608E-02  0.7223770E-01
         52   -1    0    0    0    0  0.00000000000E+00  0.00000000000E+00  0.64930732323E+04  0.65000000000E+04  0.30000000000E+03 0. -1.
        -52   -1    0    0    0    0 -0.00000000000E+00 -0.00000000000E+00 -0.64930732323E+04  0.65000000000E+04  0.30000000000E+03 0.  1.
     100001    1    1    2    0    0 -0.17391368916E+04 -0.30294760242E+03 -0.62538768274E+04  0.65000000000E+04  0.15050000000E+03 0.  1.
     100001    1    1    2    0    0  0.17391368916E+04  0.30294760242E+03  0.62538768274E+04  0.65000000000E+04  0.15050000000E+03 0. -1.
</event>
<event>
 4    1  0.4826743E-004  0.6500000E+04  0.7818608E-02  0.7223770E-01
         52   -1    0    0    0    0  0.00000000000E+00  0.00000000000E+00  0.64930732323E+04  0.65000000000E+04  0.30000000000E+03 0. -1.
        -52   -1    0    0    0    0 -0.00000000000E+00 -0.00000000000E+00 -0.64930732323E+04  0.65000000000E+04  0.30000000000E+03 0.  1.
     100001    1    1    2    0    0  0.26771913333E+04 -0.12631771686E+04 -0.57848405126E+04  0.65000000000E+04  0.15050000000E+03 0.  1.
     100001    1    1    2    0    0 -0.26771913333E+04  0.12631771686E+04  0.57848405126E+04  0.65000000000E+04  0.15050000000E+03 0. -1.
</event>
<event>
 4    1  0.4826743E-004  0.6500000E+04  0.7818608E-02  0.7223770E-01
         52   -1    0    0    0    0  0.00000000000E+00  0.00000000000E+00  0.64930732323E+04  0.65000000000E+04  0.30000000000E+03 0.  1.
        -52   -1    0    0    0    0 -0.00000000000E+00 -0.00000000000E+00 -0.64930732323E+04  0.65000000000E+04  0.30000000000E+03 0. -1.
     100001    1    1    2    0    0  0.49133042643E+04 -0.27337572857E+03 -0.42440613412E+04  0.65000000000E+04  0.15050000000E+03 0. -1.
     100001    1    1    2    0    0 -0.49133042643E+04  0.27337572857E+03  0.42440613412E+04  0.65000000000E+04  0.15050000000E+03 0.  1.
</event>
<event>
 4    1  0.4826743E-004  0.6500000E+04  0.7818608E-02  0.7223770E-01
         52   -1    0    0    0    0  0.00000000000E+00  0.00000000000E+00  0.64930732323E+04  0.65000000000E+04  0.30000000000E+03 0. -1.
        -52   -1    0    0    0    0 -0.00000000000E+00 -0.00000000000E+00 -0.64930732323E+04  0.65000000000E+04  0.30000000000E+03 0.  1.
     100001    1    1    2    0    0 -0.10823590437E+04  0.76139306999E+02  0.64070314075E+04  0.65000000000E+04  0.15050000000E+03 0. -1.
     100001    1    1    2    0    0  0.10823590437E+04 -0.76139306999E+02 -0.64070314075E+04  0.65000000000E+04  0.15050000000E+03 0.  1.
</event>
<event>
 4    1  0.4826743E-004  0.6500000E+04  0.7818608E-02  0.7223770E-01
         52   -1    0    0    0    0  0.00000000000E+00  0.00000000000E+00  0.64930732323E+04  0.65000000000E+04  0.30000000000E+03 0.  1.
        -52   -1    0    0    0    0 -0.00000000000E+00 -0.00000000000E+00 -0.64930732323E+04  0.65000000000E+04  0.30000000000E+03 0. -1.
     100001    1    1    2    0    0  0.33791952312E+04 -0.40476082387E+03  0.55357527054E+04  0.65000000000E+04  0.15050000000E+03 0.  1.
     100001    1    1    2    0    0 -0.33791952312E+04  0.40476082387E+03 -0.55357527054E+04  0.65000000000E+04  0.15050000000E+03 0. -1.
</event>
<event>
 4    1  0.4826743E-004  0.6500000E+04  0.7818608E-02  0.7223770E-01
         52   -1    0    0    0    0  0.00000000000E+00  0.00000000000E+00  0.64930732323E+04  0.65000000000E+04  0.30000000000E+03 0. -1.
        -52   -1    0    0    0    0 -0.00000000000E+00 -0.00000000000E+00 -0.64930732323E+04  0.65000000000E+04  0.30000000000E+03 0. -1.
     100001    1    1    2    0    0  0.63906624881E+03  0.25039993779E+03  0.64619071450E+04  0.65000000000E+04  0.15050000000E+03 0. -1.
     100001    1    1    2    0    0 -0.63906624881E+03 -0.25039993779E+03 -0.64619071450E+04  0.65000000000E+04  0.15050000000E+03 0. -1.
</event>
<event>
 4    1  0.4826743E-004  0.6500000E+04  0.7818608E-02  0.7223770E-01
         52   -1    0    0    0    0  0.00000000000E+00  0.00000000000E+00  0.64930732323E+04  0.65000000000E+04  0.30000000000E+03 0.  1.
        -52   -1    0    0    0    0 -0.00000000000E+00 -0.00000000000E+00 -0.64930732323E+04  0.65000000000E+04  0.30000000000E+03 0. -1.
     100001    1    1    2    0    0 -0.10367115660E+04  0.27463404380E+04  0.57974298683E+04  0.65000000000E+04  0.15050000000E+03 0.  1.
     100001    1    1    2    0    0  0.10367115660E+04 -0.27463404380E+04 -0.57974298683E+04  0.65000000000E+04  0.15050000000E+03 0. -1.
</event>
<event>
 4    1  0.4826743E-004  0.6500000E+04  0.7818608E-02  0.7223770E-01
         52   -1    0    0    0    0  0.00000000000E+00  0.00000000000E+00  0.64930732323E+04  0.65000000000E+04  0.30000000000E+03 0. -1.
        -52   -1    0    0    0    0 -0.00000000000E+00 -0.00000000000E+00 -0.64930732323E+04  0.65000000000E+04  0.30000000000E+03 0.  1.
     100001    1    1    2    0    0  0.11588084655E+03  0.34146118718E+03  0.64882451893E+04  0.65000000000E+04  0.15050000000E+03 0. -1.
     100001    1    1    2    0    0 -0.11588084655E+03 -0.34146118718E+03 -0.64882451893E+04  0.65000000000E+04  0.15050000000E+03 0.  1.
</event>
<event>
 4    1  0.4826743E-004  0.6500000E+04  0.7818608E-02  0.7223770E-01
         52   -1    0    0    0    0  0.00000000000E+00  0.00000000000E+00  0.64930732323E+04  0.65000000000E+04  0.30000000000E+03 0.  1.
        -52   -1    0    0    0    0 -0.00000000000E+00 -0.00000000000E+00 -0.64930732323E+04  0.65000000000E+04  0.30000000000E+03 0. -1.
     100001    1    1    2    0    0  0.40194252631E+03 -0.11025035349E+04 -0.63914222135E+04  0.65000000000E+04  0.15050000000E+03 0. -1.
     100001    1    1    2    0    0 -0.40194252631E+03  0.11025035349E+04  0.63914222135E+04  0.65000000000E+04  0.15050000000E+03 0.  1.
</event>
<event>
 4    1  0.4826743E-004  0.6500000E+04  0.7818608E-02  0.7223770E-01
         52   -1    0    0    0    0  0.00000000000E+00  0.00000000000E+00  0.64930732323E+04  0.65000000000E+04  0.30000000000E+03 0.  1.
        -52   -1    0    0    0    0 -0.00000000000E+00 -0.00000000000E+00 -0.64930732323E+04  0.65000000000E+04  0.30000000000E+03 0. -1.
     100001    1    1    2    0    0  0.46194654847E+04  0.33819769894E+04 -0.30741047524E+04  0.65000000000E+04  0.15050000000E+03 0.  1.
     100001    1    1    2    0    0 -0.46194654847E+04 -0.33819769894E+04  0.30741047524E+04  0.65000000000E+04  0.15050000000E+03 0. -1.
</event>
<event>
 4    1  0.4826743E-004  0.6500000E+04  0.7818608E-02  0.7223770E-01
         52   -1    0    0    0    0  0.00000000000E+00  0.00000000000E+00  0.64930732323E+04  0.65000000000E+04  0.30000000000E+03 0. -1.
        -52   -1    0    0    0    0 -0.00000000000E+00 -0.00000000000E+00 -0.64930732323E+04  0.65000000000E+04  0.30000000000E+03 0.  1.
     100001    1    1    2    0    0  0.68324535386E+03  0.30367107416E+04 -0.57042890362E+04  0.65000000000E+04  0.15050000000E+03 0.  1.
     100001    1    1    2    0    0 -0.68324535386E+03 -0.30367107416E+04  0.57042890362E+04  0.65000000000E+04  0.15050000000E+03 0. -1.
</event>
<event>
 4    1  0.4826743E-004  0.6500000E+04  0.7818608E-02  0.7223770E-01
         52   -1    0    0    0    0  0.00000000000E+00  0.00000000000E+00  0.64930732323E+04  0.65000000000E+04  0.30000000000E+03 0. -1.
        -52   -1    0    0    0    0 -0.00000000000E+00 -0.00000000000E+00 -0.64930732323E+04  0.65000000000E+04  0.30000000000E+03 0. -1.
     100001    1    1    2    0    0  0.69645365463E+02  0.53328780439E+02 -0.64976653741E+04  0.65000000000E+04  0.15050000000E+03 0. -1.
     100001    1    1    2    0    0 -0.69645365463E+02 -0.53328780439E+02  0.64976653741E+04  0.65000000000E+04  0.15050000000E+03 0. -1.
</event>
<event>
 4    1  0.4826743E-004  0.6500000E+04  0.7818608E-02  0.7223770E-01
         52   -1    0    0    0    0  0.00000000000E+00  0.00000000000E+00  0.64930732323E+04  0.65000000000E+04  0.30000000000E+03 0. -1.
        -52   -1    0    0    0    0 -0.00000000000E+00 -0.00000000000E+00 -0.64930732323E+04  0.65000000000E+04  0.30000000000E+03 0.  1.
     100001    1    1    2    0    0 -0.60939340960E+03 -0.14173451663E+04 -0.63124576911E+04  0.65000000000E+04  0.15050000000E+03 0.  1.
     100001    1    1    2    0    0  0.60939340960E+03  0.14173451663E+04  0.63124576911E+04  0.65000000000E+04  0.15050000000E+03 0. -1.
</event>
<event>
 4    1  0.4826743E-004  0.6500000E+04  0.7818608E-02  0.7223770E-01
         52   -1    0    0    0    0  0.00000000000E+00  0.00000000000E+00  0.64930732323E+04  0.65000000000E+04  0.30000000000E+03 0.  1.
        -52   -1    0    0    0    0 -0.00000000000E+00 -0.00000000000E+00 -0.64930732323E+04  0.65000000000E+04  0.30000000000E+03 0.  1.
     100001    1    1    2    0    0 -0.42014324447E+03 -0.23775656247E+03  0.64803010132E+04  0.65000000000E+04  0.15050000000E+03 0.  1.
     100001    1    1    2    0    0  0.42014324447E+03  0.23775656247E+03 -0.64803010132E+04  0.65000000000E+04  0.15050000000E+03 0.  1.
</event>
<event>
 4    1  0.4826743E-004  0.6500000E+04  0.7818608E-02  0.7223770E-01
         52   -1    0    0    0    0  0.00000000000E+00  0.00000000000E+00  0.64930732323E+04  0.65000000000E+04  0.30000000000E+03 0. -1.
        -52   -1    0    0    0    0 -0.00000000000E+00 -0.00000000000E+00 -0.64930732323E+04  0.65000000000E+04  0.30000000000E+03 0.  1.
     100001    1    1    2    0    0  0.13961045990E+04  0.10906999403E+04 -0.62520888780E+04  0.65000000000E+04  0.15050000000E+03 0.  1.
     100001    1    1    2    0    0 -0.13961045990E+04 -0.10906999403E+04  0.62520888780E+04  0.65000000000E+04  0.15050000000E+03 0. -1.
</event>
<event>
 4    1  0.4826743E-004  0.6500000E+04  0.7818608E-02  0.7223770E-01
         52   -1    0    0    0    0  0.00000000000E+00  0.00000000000E+00  0.64930732323E+04  0.65000000000E+04  0.30000000000E+03 0.  1.
        -52   -1    0    0    0    0 -0.00000000000E+00 -0.00000000000E+00 -0.64930732323E+04  0.65000000000E+04  0.30000000000E+03 0. -1.
     100001    1    1    2    0    0 -0.53118586045E+04 -0.32776474467E+04 -0.18079090494E+04  0.65000000000E+04  0.15050000000E+03 0. -1.
     100001    1    1    2    0    0  0.53118586045E+04  0.32776474467E+04  0.18079090494E+04  0.65000000000E+04  0.15050000000E+03 0.  1.
</event>
<event>
 4    1  0.4826743E-004  0.6500000E+04  0.7818608E-02  0.7223770E-01
         52   -1    0    0    0    0  0.00000000000E+00  0.00000000000E+00  0.64930732323E+04  0.65000000000E+04  0.30000000000E+03 0.  1.
        -52   -1    0    0    0    0 -0.00000000000E+00 -0.00000000000E+00 -0.64930732323E+04  0.65000000000E+04  0.30000000000E+03 0.  1.
     100001    1    1    2    0    0  0.72580403677E+02  0.34474230497E+03 -0.64887005308E+04  0.65000000000E+04  0.15050000000E+03 0.  1.
     100001    1    1    2    0    0 -0.72580403677E+02 -0.34474230497E+03  0.64887005308E+04  0.65000000000E+04  0.15050000000E+03 0.  1.
</event>
<event>
 4    1  0.4826743E-004  0.6500000E+04  0.7818608E-02  0.7223770E-01
         52   -1    0    0    0    0  0.00000000000E+00  0.00000000000E+00  0.64930732323E+04  0.65000000000E+04  0.30000000000E+03 0. -1.
        -52   -1    0    0    0    0 -0.00000000000E+00 -0.00000000000E+00 -0.64930732323E+04  0.65000000000E+04  0.30000000000E+03 0.  1.
     100001    1    1    2    0    0 -0.15951095659E+04  0.20205905957E+04 -0.59665893831E+04  0.65000000000E+04  0.15050000000E+03 0.  1.
     100001    1    1    2    0    0  0.15951095659E+04 -0.20205905957E+04  0.59665893831E+04  0.65000000000E+04  0.15050000000E+03 0. -1.
</event>
<event>
 4    1  0.4826743E-004  0.6500000E+04  0.7818608E-02  0.7223770E-01
         52   -1    0    0    0    0  0.00000000000E+00  0.00000000000E+00  0.64930732323E+04  0.65000000000E+04  0.30000000000E+03 0.  1.
        -52   -1    0    0    0    0 -0.00000000000E+00 -0.00000000000E+00 -0.64930732323E+04  0.65000000000E+04  0.30000000000E+03 0. -1.
     100001    1    1    2    0    0 -0.71020865566E+03  0.35559335058E+04 -0.53924289812E+04  0.65000000000E+04  0.15050000000E+03 0. -1.
     100001    1    1    2    0    0  0.71020865566E+03 -0.35559335058E+04  0.53924289812E+04  0.65000000000E+04  0.15050000000E+03 0.  1.
</event>
<event>
 4    1  0.4826743E-004  0.6500000E+04  0.7818608E-02  0.7223770E-01
         52   -1    0    0    0    0  0.00000000000E+00  0.00000000000E+00  0.64930732323E+04  0.65000000000E+04  0.30000000000E+03 0.  1.
        -52   -1    0    0    0    0 -0.00000000000E+00 -0.00000000000E+00 -0.64930732323E+04  0.65000000000E+04  0.30000000000E+03 0. -1.
     100001    1    1    2    0    0  0.16966876551E+04  0.54188595587E+03 -0.62493967998E+04  0.65000000000E+04  0.15050000000E+03 0. -1.
     100001    1    1    2    0    0 -0.16966876551E+04 -0.54188595587E+03  0.62493967998E+04  0.65000000000E+04  0.15050000000E+03 0.  1.
</event>
<event>
 4    1  0.4826743E-004  0.6500000E+04  0.7818608E-02  0.7223770E-01
         52   -1    0    0    0    0  0.00000000000E+00  0.00000000000E+00  0.64930732323E+04  0.65000000000E+04  0.30000000000E+03 0.  1.
        -52   -1    0    0    0    0 -0.00000000000E+00 -0.00000000000E+00 -0.64930732323E+04  0.65000000000E+04  0.30000000000E+03 0.  1.
     100001    1    1    2    0    0 -0.34814328352E+01 -0.27108239412E+03 -0.64925997848E+04  0.65000000000E+04  0.15050000000E+03 0.  1.
     100001    1    1    2    0    0  0.34814328352E+01  0.27108239412E+03  0.64925997848E+04  0.65000000000E+04  0.15050000000E+03 0.  1.
</event>
<event>
 4    1  0.4826743E-004  0.6500000E+04  0.7818608E-02  0.7223770E-01
         52   -1    0    0    0    0  0.00000000000E+00  0.00000000000E+00  0.64930732323E+04  0.65000000000E+04  0.30000000000E+03 0.  1.
        -52   -1    0    0    0    0 -0.00000000000E+00 -0.00000000000E+00 -0.64930732323E+04  0.65000000000E+04  0.30000000000E+03 0. -1.
     100001    1    1    2    0    0 -0.49332865316E+04  0.25549574466E+04 -0.33707901438E+04  0.65000000000E+04  0.15050000000E+03 0. -1.
     100001    1    1    2    0    0  0.49332865316E+04 -0.25549574466E+04  0.33707901438E+04  0.65000000000E+04  0.15050000000E+03 0.  1.
</event>
<event>
 4    1  0.4826743E-004  0.6500000E+04  0.7818608E-02  0.7223770E-01
         52   -1    0    0    0    0  0.00000000000E+00  0.00000000000E+00  0.64930732323E+04  0.65000000000E+04  0.30000000000E+03 0.  1.
        -52   -1    0    0    0    0 -0.00000000000E+00 -0.00000000000E+00 -0.64930732323E+04  0.65000000000E+04  0.30000000000E+03 0. -1.
     100001    1    1    2    0    0  0.32023082629E+03 -0.82663413091E+03  0.64375055714E+04  0.65000000000E+04  0.15050000000E+03 0.  1.
     100001    1    1    2    0    0 -0.32023082629E+03  0.82663413091E+03 -0.64375055714E+04  0.65000000000E+04  0.15050000000E+03 0. -1.
</event>
<event>
 4    1  0.4826743E-004  0.6500000E+04  0.7818608E-02  0.7223770E-01
         52   -1    0    0    0    0  0.00000000000E+00  0.00000000000E+00  0.64930732323E+04  0.65000000000E+04  0.30000000000E+03 0. -1.
        -52   -1    0    0    0    0 -0.00000000000E+00 -0.00000000000E+00 -0.64930732323E+04  0.65000000000E+04  0.30000000000E+03 0.  1.
     100001    1    1    2    0    0 -0.40413005518E+04 -0.40276424320E+04  0.31101987139E+04  0.65000000000E+04  0.15050000000E+03 0. -1.
     100001    1    1    2    0    0  0.40413005518E+04  0.40276424320E+04 -0.31101987139E+04  0.65000000000E+04  0.15050000000E+03 0.  1.
</event>
<event>
 4    1  0.4826743E-004  0.6500000E+04  0.7818608E-02  0.7223770E-01
         52   -1    0    0    0    0  0.00000000000E+00  0.00000000000E+00  0.64930732323E+04  0.65000000000E+04  0.30000000000E+03 0.  1.
        -52   -1    0    0    0    0 -0.00000000000E+00 -0.00000000000E+00 -0.64930732323E+04  0.65000000000E+04  0.30000000000E+03 0. -1.
     100001    1    1    2    0    0 -0.34575290570E+04 -0.29768348286E+04 -0.46272342683E+04  0.65000000000E+04  0.15050000000E+03 0. -1.
     100001    1    1    2    0    0  0.34575290570E+04  0.29768348286E+04  0.46272342683E+04  0.65000000000E+04  0.15050000000E+03 0.  1.
</event>
<event>
 4    1  0.4826743E-004  0.6500000E+04  0.7818608E-02  0.7223770E-01
         52   -1    0    0    0    0  0.00000000000E+00  0.00000000000E+00  0.64930732323E+04  0.65000000000E+04  0.30000000000E+03 0. -1.
        -52   -1    0    0    0    0 -0.00000000000E+00 -0.00000000000E+00 -0.64930732323E+04  0.65000000000E+04  0.30000000000E+03 0.  1.
     100001    1    1    2    0    0  0.32333492464E+04 -0.92284268381E+03 -0.55606801546E+04  0.65000000000E+04  0.15050000000E+03 0.  1.
     100001    1    1    2    0    0 -0.32333492464E+04  0.92284268381E+03  0.55606801546E+04  0.65000000000E+04  0.15050000000E+03 0. -1.
</event>
<event>
 4    1  0.4826743E-004  0.6500000E+04  0.7818608E-02  0.7223770E-01
         52   -1    0    0    0    0  0.00000000000E+00  0.00000000000E+00  0.64930732323E+04  0.65000000000E+04  0.30000000000E+03 0. -1.
        -52   -1    0    0    0    0 -0.00000000000E+00 -0.00000000000E+00 -0.64930732323E+04  0.65000000000E+04  0.30000000000E+03 0.  1.
     100001    1    1    2    0    0 -0.27532988387E+04  0.23187777952E+04  0.54101723440E+04  0.65000000000E+04  0.15050000000E+03 0. -1.
     100001    1    1    2    0    0  0.27532988387E+04 -0.23187777952E+04 -0.54101723440E+04  0.65000000000E+04  0.15050000000E+03 0.  1.
</event>
<event>
 4    1  0.4826743E-004  0.6500000E+04  0.7818608E-02  0.7223770E-01
         52   -1    0    0    0    0  0.00000000000E+00  0.00000000000E+00  0.64930732323E+04  0.65000000000E+04  0.30000000000E+03 0. -1.
        -52   -1    0    0    0    0 -0.00000000000E+00 -0.00000000000E+00 -0.64930732323E+04  0.65000000000E+04  0.30000000000E+03 0.  1.
     100001    1    1    2    0    0 -0.34325784109E+04 -0.43969396571E+04  0.33334181939E+04  0.65000000000E+04  0.15050000000E+03 0. -1.
     100001    1    1    2    0    0  0.34325784109E+04  0.43969396571E+04 -0.33334181939E+04  0.65000000000E+04  0.15050000000E+03 0.  1.
</event>
<event>
 4    1  0.4826743E-004  0.6500000E+04  0.7818608E-02  0.7223770E-01
         52   -1    0    0    0    0  0.00000000000E+00  0.00000000000E+00  0.64930732323E+04  0.65000000000E+04  0.30000000000E+03 0.  1.
        -52   -1    0    0    0    0 -0.00000000000E+00 -0.00000000000E+00 -0.64930732323E+04  0.65000000000E+04  0.30000000000E+03 0. -1.
     100001    1    1    2    0    0  0.50367564180E+04  0.31931612908E+04  0.25811151672E+04  0.65000000000E+04  0.15050000000E+03 0.  1.
     100001    1    1    2    0    0 -0.50367564180E+04 -0.31931612908E+04 -0.25811151672E+04  0.65000000000E+04  0.15050000000E+03 0. -1.
</event>
<event>
 4    1  0.4826743E-004  0.6500000E+04  0.7818608E-02  0.7223770E-01
         52   -1    0    0    0    0  0.00000000000E+00  0.00000000000E+00  0.64930732323E+04  0.65000000000E+04  0.30000000000E+03 0. -1.
        -52   -1    0    0    0    0 -0.00000000000E+00 -0.00000000000E+00 -0.64930732323E+04  0.65000000000E+04  0.30000000000E+03 0.  1.
     100001    1    1    2    0    0 -0.18751530632E+04 -0.59566551395E+04 -0.17970560060E+04  0.65000000000E+04  0.15050000000E+03 0.  1.
     100001    1    1    2    0    0  0.18751530632E+04  0.59566551395E+04  0.17970560060E+04  0.65000000000E+04  0.15050000000E+03 0. -1.
</event>
<event>
 4    1  0.4826743E-004  0.6500000E+04  0.7818608E-02  0.7223770E-01
         52   -1    0    0    0    0  0.00000000000E+00  0.00000000000E+00  0.64930732323E+04  0.65000000000E+04  0.30000000000E+03 0. -1.
        -52   -1    0    0    0    0 -0.00000000000E+00 -0.00000000000E+00 -0.64930732323E+04  0.65000000000E+04  0.30000000000E+03 0.  1.
     100001    1    1    2    0    0 -0.43506360403E+04  0.65552035339E+03  0.47822179856E+04  0.65000000000E+04  0.15050000000E+03 0. -1.
     100001    1    1    2    0    0  0.43506360403E+04 -0.65552035339E+03 -0.47822179856E+04  0.65000000000E+04  0.15050000000E+03 0.  1.
</event>
<event>
 4    1  0.4826743E-004  0.6500000E+04  0.7818608E-02  0.7223770E-01
         52   -1    0    0    0    0  0.00000000000E+00  0.00000000000E+00  0.64930732323E+04  0.65000000000E+04  0.30000000000E+03 0. -1.
        -52   -1    0    0    0    0 -0.00000000000E+00 -0.00000000000E+00 -0.64930732323E+04  0.65000000000E+04  0.30000000000E+03 0. -1.
     100001    1    1    2    0    0 -0.13710357948E+03  0.99202118570E+02 -0.64960535172E+04  0.65000000000E+04  0.15050000000E+03 0. -1.
     100001    1    1    2    0    0  0.13710357948E+03 -0.99202118570E+02  0.64960535172E+04  0.65000000000E+04  0.15050000000E+03 0. -1.
</event>
<event>
 4    1  0.4826743E-004  0.6500000E+04  0.7818608E-02  0.7223770E-01
         52   -1    0    0    0    0  0.00000000000E+00  0.00000000000E+00  0.64930732323E+04  0.65000000000E+04  0.30000000000E+03 0.  1.
        -52   -1    0    0    0    0 -0.00000000000E+00 -0.00000000000E+00 -0.64930732323E+04  0.65000000000E+04  0.30000000000E+03 0. -1.
     100001    1    1    2    0    0  0.73030246317E+03  0.30015288827E+02  0.64570199895E+04  0.65000000000E+04  0.15050000000E+03 0.  1.
     100001    1    1    2    0    0 -0.73030246317E+03 -0.30015288827E+02 -0.64570199895E+04  0.65000000000E+04  0.15050000000E+03 0. -1.
</event>
<event>
 4    1  0.4826743E-004  0.6500000E+04  0.7818608E-02  0.7223770E-01
         52   -1    0    0    0    0  0.00000000000E+00  0.00000000000E+00  0.64930732323E+04  0.65000000000E+04  0.30000000000E+03 0.  1.
        -52   -1    0    0    0    0 -0.00000000000E+00 -0.00000000000E+00 -0.64930732323E+04  0.65000000000E+04  0.30000000000E+03 0. -1.
     100001    1    1    2    0    0 -0.30219669937E+04 -0.66300537887E+03 -0.57144981500E+04  0.65000000000E+04  0.15050000000E+03 0. -1.
     100001    1    1    2    0    0  0.30219669937E+04  0.66300537887E+03  0.57144981500E+04  0.65000000000E+04  0.15050000000E+03 0.  1.
</event>
<event>
 4    1  0.4826743E-004  0.6500000E+04  0.7818608E-02  0.7223770E-01
         52   -1    0    0    0    0  0.00000000000E+00  0.00000000000E+00  0.64930732323E+04  0.65000000000E+04  0.30000000000E+03 0. -1.
        -52   -1    0    0    0    0 -0.00000000000E+00 -0.00000000000E+00 -0.64930732323E+04  0.65000000000E+04  0.30000000000E+03 0. -1.
     100001    1    1    2    0    0  0.23359348661E+03  0.51835123285E+02 -0.64938507030E+04  0.65000000000E+04  0.15050000000E+03 0. -1.
     100001    1    1    2    0    0 -0.23359348661E+03 -0.51835123285E+02  0.64938507030E+04  0.65000000000E+04  0.15050000000E+03 0. -1.
</event>
<event>
 4    1  0.4826743E-004  0.6500000E+04  0.7818608E-02  0.7223770E-01
         52   -1    0    0    0    0  0.00000000000E+00  0.00000000000E+00  0.64930732323E+04  0.65000000000E+04  0.30000000000E+03 0. -1.
        -52   -1    0    0    0    0 -0.00000000000E+00 -0.00000000000E+00 -0.64930732323E+04  0.65000000000E+04  0.30000000000E+03 0.  1.
     100001    1    1    2    0    0  0.79672159151E+02 -0.63203142185E+03 -0.64669574283E+04  0.65000000000E+04  0.15050000000E+03 0.  1.
     100001    1    1    2    0    0 -0.79672159151E+02  0.63203142185E+03  0.64669574283E+04  0.65000000000E+04  0.15050000000E+03 0. -1.
</event>
<event>
 4    1  0.4826743E-004  0.6500000E+04  0.7818608E-02  0.7223770E-01
         52   -1    0    0    0    0  0.00000000000E+00  0.00000000000E+00  0.64930732323E+04  0.65000000000E+04  0.30000000000E+03 0.  1.
        -52   -1    0    0    0    0 -0.00000000000E+00 -0.00000000000E+00 -0.64930732323E+04  0.65000000000E+04  0.30000000000E+03 0. -1.
     100001    1    1    2    0    0 -0.80243987203E+03  0.67469418515E+03  0.64131293265E+04  0.65000000000E+04  0.15050000000E+03 0.  1.
     100001    1    1    2    0    0  0.80243987203E+03 -0.67469418515E+03 -0.64131293265E+04  0.65000000000E+04  0.15050000000E+03 0. -1.
</event>
<event>
 4    1  0.4826743E-004  0.6500000E+04  0.7818608E-02  0.7223770E-01
         52   -1    0    0    0    0  0.00000000000E+00  0.00000000000E+00  0.64930732323E+04  0.65000000000E+04  0.30000000000E+03 0.  1.
        -52   -1    0    0    0    0 -0.00000000000E+00 -0.00000000000E+00 -0.64930732323E+04  0.65000000000E+04  0.30000000000E+03 0. -1.
     100001    1    1    2    0    0 -0.16369255895E+04 -0.20973826396E+03 -0.62852075722E+04  0.65000000000E+04  0.15050000000E+03 0. -1.
     100001    1    1    2    0    0  0.16369255895E+04  0.20973826396E+03  0.62852075722E+04  0.65000000000E+04  0.15050000000E+03 0.  1.
</event>
<event>
 4    1  0.4826743E-004  0.6500000E+04  0.7818608E-02  0.7223770E-01
         52   -1    0    0    0    0  0.00000000000E+00  0.00000000000E+00  0.64930732323E+04  0.65000000000E+04  0.30000000000E+03 0. -1.
        -52   -1    0    0    0    0 -0.00000000000E+00 -0.00000000000E+00 -0.64930732323E+04  0.65000000000E+04  0.30000000000E+03 0.  1.
     100001    1    1    2    0    0  0.15894538784E+04  0.33197435856E+04 -0.53553980846E+04  0.65000000000E+04  0.15050000000E+03 0.  1.
     100001    1    1    2    0    0 -0.15894538784E+04 -0.33197435856E+04  0.53553980846E+04  0.65000000000E+04  0.15050000000E+03 0. -1.
</event>
<event>
 4    1  0.4826743E-004  0.6500000E+04  0.7818608E-02  0.7223770E-01
         52   -1    0    0    0    0  0.00000000000E+00  0.00000000000E+00  0.64930732323E+04  0.65000000000E+04  0.30000000000E+03 0. -1.
        -52   -1    0    0    0    0 -0.00000000000E+00 -0.00000000000E+00 -0.64930732323E+04  0.65000000000E+04  0.30000000000E+03 0. -1.
     100001    1    1    2    0    0 -0.34639868374E+03 -0.99121851469E+02  0.64882611353E+04  0.65000000000E+04  0.15050000000E+03 0. -1.
     100001    1    1    2    0    0  0.34639868374E+03  0.99121851469E+02 -0.64882611353E+04  0.65000000000E+04  0.15050000000E+03 0. -1.
</event>
<event>
 4    1  0.4826743E-004  0.6500000E+04  0.7818608E-02  0.7223770E-01
         52   -1    0    0    0    0  0.00000000000E+00  0.00000000000E+00  0.64930732323E+04  0.65000000000E+04  0.30000000000E+03 0. -1.
        -52   -1    0    0    0    0 -0.00000000000E+00 -0.00000000000E+00 -0.64930732323E+04  0.65000000000E+04  0.30000000000E+03 0.  1.
     100001    1    1    2    0    0  0.54874294580E+02  0.57587457867E+03 -0.64724575728E+04  0.65000000000E+04  0.15050000000E+03 0.  1.
     100001    1    1    2    0    0 -0.54874294580E+02 -0.57587457867E+03  0.64724575728E+04  0.65000000000E+04  0.15050000000E+03 0. -1.
</event>
<event>
 4    1  0.4826743E-004  0.6500000E+04  0.7818608E-02  0.7223770E-01
         52   -1    0    0    0    0  0.00000000000E+00  0.00000000000E+00  0.64930732323E+04  0.65000000000E+04  0.30000000000E+03 0.  1.
        -52   -1    0    0    0    0 -0.00000000000E+00 -0.00000000000E+00 -0.64930732323E+04  0.65000000000E+04  0.30000000000E+03 0. -1.
     100001    1    1    2    0    0  0.23974920326E+03 -0.68626009513E+03  0.64574698723E+04  0.65000000000E+04  0.15050000000E+03 0.  1.
     100001    1    1    2    0    0 -0.23974920326E+03  0.68626009513E+03 -0.64574698723E+04  0.65000000000E+04  0.15050000000E+03 0. -1.
</event>
<event>
 4    1  0.4826743E-004  0.6500000E+04  0.7818608E-02  0.7223770E-01
         52   -1    0    0    0    0  0.00000000000E+00  0.00000000000E+00  0.64930732323E+04  0.65000000000E+04  0.30000000000E+03 0.  1.
        -52   -1    0    0    0    0 -0.00000000000E+00 -0.00000000000E+00 -0.64930732323E+04  0.65000000000E+04  0.30000000000E+03 0. -1.
     100001    1    1    2    0    0  0.57620746820E+03 -0.18770492336E+04 -0.61945153869E+04  0.65000000000E+04  0.15050000000E+03 0. -1.
     100001    1    1    2    0    0 -0.57620746820E+03  0.18770492336E+04  0.61945153869E+04  0.65000000000E+04  0.15050000000E+03 0.  1.
</event>
<event>
 4    1  0.4826743E-004  0.6500000E+04  0.7818608E-02  0.7223770E-01
         52   -1    0    0    0    0  0.00000000000E+00  0.00000000000E+00  0.64930732323E+04  0.65000000000E+04  0.30000000000E+03 0.  1.
        -52   -1    0    0    0    0 -0.00000000000E+00 -0.00000000000E+00 -0.64930732323E+04  0.65000000000E+04  0.30000000000E+03 0. -1.
     100001    1    1    2    0    0  0.20597896522E+04  0.12689060046E+04  0.60311270829E+04  0.65000000000E+04  0.15050000000E+03 0.  1.
     100001    1    1    2    0    0 -0.20597896522E+04 -0.12689060046E+04 -0.60311270829E+04  0.65000000000E+04  0.15050000000E+03 0. -1.
</event>
<event>
 4    1  0.4826743E-004  0.6500000E+04  0.7818608E-02  0.7223770E-01
         52   -1    0    0    0    0  0.00000000000E+00  0.00000000000E+00  0.64930732323E+04  0.65000000000E+04  0.30000000000E+03 0. -1.
        -52   -1    0    0    0    0 -0.00000000000E+00 -0.00000000000E+00 -0.64930732323E+04  0.65000000000E+04  0.30000000000E+03 0.  1.
     100001    1    1    2    0    0  0.89811079273E+02 -0.11532180579E+04 -0.63944797936E+04  0.65000000000E+04  0.15050000000E+03 0.  1.
     100001    1    1    2    0    0 -0.89811079273E+02  0.11532180579E+04  0.63944797936E+04  0.65000000000E+04  0.15050000000E+03 0. -1.
</event>
<event>
 4    1  0.4826743E-004  0.6500000E+04  0.7818608E-02  0.7223770E-01
         52   -1    0    0    0    0  0.00000000000E+00  0.00000000000E+00  0.64930732323E+04  0.65000000000E+04  0.30000000000E+03 0.  1.
        -52   -1    0    0    0    0 -0.00000000000E+00 -0.00000000000E+00 -0.64930732323E+04  0.65000000000E+04  0.30000000000E+03 0. -1.
     100001    1    1    2    0    0 -0.48975610635E+04 -0.13656360486E+04  0.40467621085E+04  0.65000000000E+04  0.15050000000E+03 0.  1.
     100001    1    1    2    0    0  0.48975610635E+04  0.13656360486E+04 -0.40467621085E+04  0.65000000000E+04  0.15050000000E+03 0. -1.
</event>
<event>
 4    1  0.4826743E-004  0.6500000E+04  0.7818608E-02  0.7223770E-01
         52   -1    0    0    0    0  0.00000000000E+00  0.00000000000E+00  0.64930732323E+04  0.65000000000E+04  0.30000000000E+03 0.  1.
        -52   -1    0    0    0    0 -0.00000000000E+00 -0.00000000000E+00 -0.64930732323E+04  0.65000000000E+04  0.30000000000E+03 0. -1.
     100001    1    1    2    0    0  0.95269663679E+03 -0.38960499977E+04  0.51127794089E+04  0.65000000000E+04  0.15050000000E+03 0.  1.
     100001    1    1    2    0    0 -0.95269663679E+03  0.38960499977E+04 -0.51127794089E+04  0.65000000000E+04  0.15050000000E+03 0. -1.
</event>
<event>
 4    1  0.4826743E-004  0.6500000E+04  0.7818608E-02  0.7223770E-01
         52   -1    0    0    0    0  0.00000000000E+00  0.00000000000E+00  0.64930732323E+04  0.65000000000E+04  0.30000000000E+03 0.  1.
        -52   -1    0    0    0    0 -0.00000000000E+00 -0.00000000000E+00 -0.64930732323E+04  0.65000000000E+04  0.30000000000E+03 0. -1.
     100001    1    1    2    0    0  0.42052570904E+03  0.39026748875E+03  0.64728818285E+04  0.65000000000E+04  0.15050000000E+03 0.  1.
     100001    1    1    2    0    0 -0.42052570904E+03 -0.39026748875E+03 -0.64728818285E+04  0.65000000000E+04  0.15050000000E+03 0. -1.
</event>
<event>
 4    1  0.4826743E-004  0.6500000E+04  0.7818608E-02  0.7223770E-01
         52   -1    0    0    0    0  0.00000000000E+00  0.00000000000E+00  0.64930732323E+04  0.65000000000E+04  0.30000000000E+03 0.  1.
        -52   -1    0    0    0    0 -0.00000000000E+00 -0.00000000000E+00 -0.64930732323E+04  0.65000000000E+04  0.30000000000E+03 0. -1.
     100001    1    1    2    0    0  0.24383698276E+04 -0.30913043816E+04 -0.51696749950E+04  0.65000000000E+04  0.15050000000E+03 0. -1.
     100001    1    1    2    0    0 -0.24383698276E+04  0.30913043816E+04  0.51696749950E+04  0.65000000000E+04  0.15050000000E+03 0.  1.
</event>
<event>
 4    1  0.4826743E-004  0.6500000E+04  0.7818608E-02  0.7223770E-01
         52   -1    0    0    0    0  0.00000000000E+00  0.00000000000E+00  0.64930732323E+04  0.65000000000E+04  0.30000000000E+03 0.  1.
        -52   -1    0    0    0    0 -0.00000000000E+00 -0.00000000000E+00 -0.64930732323E+04  0.65000000000E+04  0.30000000000E+03 0. -1.
     100001    1    1    2    0    0 -0.21599065414E+04 -0.25610708395E+03 -0.61234436916E+04  0.65000000000E+04  0.15050000000E+03 0. -1.
     100001    1    1    2    0    0  0.21599065414E+04  0.25610708395E+03  0.61234436916E+04  0.65000000000E+04  0.15050000000E+03 0.  1.
</event>
<event>
 4    1  0.4826743E-004  0.6500000E+04  0.7818608E-02  0.7223770E-01
         52   -1    0    0    0    0  0.00000000000E+00  0.00000000000E+00  0.64930732323E+04  0.65000000000E+04  0.30000000000E+03 0. -1.
        -52   -1    0    0    0    0 -0.00000000000E+00 -0.00000000000E+00 -0.64930732323E+04  0.65000000000E+04  0.30000000000E+03 0.  1.
     100001    1    1    2    0    0  0.54898627231E+03 -0.45246125289E+03 -0.64591982968E+04  0.65000000000E+04  0.15050000000E+03 0.  1.
     100001    1    1    2    0    0 -0.54898627231E+03  0.45246125289E+03  0.64591982968E+04  0.65000000000E+04  0.15050000000E+03 0. -1.
</event>
<event>
 4    1  0.4826743E-004  0.6500000E+04  0.7818608E-02  0.7223770E-01
         52   -1    0    0    0    0  0.00000000000E+00  0.00000000000E+00  0.64930732323E+04  0.65000000000E+04  0.30000000000E+03 0.  1.
        -52   -1    0    0    0    0 -0.00000000000E+00 -0.00000000000E+00 -0.64930732323E+04  0.65000000000E+04  0.30000000000E+03 0. -1.
     100001    1    1    2    0    0  0.14366574175E+04  0.72786163809E+03 -0.62955208403E+04  0.65000000000E+04  0.15050000000E+03 0. -1.
     100001    1    1    2    0    0 -0.14366574175E+04 -0.72786163809E+03  0.62955208403E+04  0.65000000000E+04  0.15050000000E+03 0.  1.
</event>
<event>
 4    1  0.4826743E-004  0.6500000E+04  0.7818608E-02  0.7223770E-01
         52   -1    0    0    0    0  0.00000000000E+00  0.00000000000E+00  0.64930732323E+04  0.65000000000E+04  0.30000000000E+03 0.  1.
        -52   -1    0    0    0    0 -0.00000000000E+00 -0.00000000000E+00 -0.64930732323E+04  0.65000000000E+04  0.30000000000E+03 0. -1.
     100001    1    1    2    0    0  0.11632994505E+04 -0.19249064025E+04  0.60966236131E+04  0.65000000000E+04  0.15050000000E+03 0.  1.
     100001    1    1    2    0    0 -0.11632994505E+04  0.19249064025E+04 -0.60966236131E+04  0.65000000000E+04  0.15050000000E+03 0. -1.
</event>
<event>
 4    1  0.4826743E-004  0.6500000E+04  0.7818608E-02  0.7223770E-01
         52   -1    0    0    0    0  0.00000000000E+00  0.00000000000E+00  0.64930732323E+04  0.65000000000E+04  0.30000000000E+03 0. -1.
        -52   -1    0    0    0    0 -0.00000000000E+00 -0.00000000000E+00 -0.64930732323E+04  0.65000000000E+04  0.30000000000E+03 0.  1.
     100001    1    1    2    0    0 -0.55628375906E+03 -0.13996525565E+03 -0.64728902244E+04  0.65000000000E+04  0.15050000000E+03 0.  1.
     100001    1    1    2    0    0  0.55628375906E+03  0.13996525565E+03  0.64728902244E+04  0.65000000000E+04  0.15050000000E+03 0. -1.
</event>
<event>
 4    1  0.4826743E-004  0.6500000E+04  0.7818608E-02  0.7223770E-01
         52   -1    0    0    0    0  0.00000000000E+00  0.00000000000E+00  0.64930732323E+04  0.65000000000E+04  0.30000000000E+03 0. -1.
        -52   -1    0    0    0    0 -0.00000000000E+00 -0.00000000000E+00 -0.64930732323E+04  0.65000000000E+04  0.30000000000E+03 0. -1.
     100001    1    1    2    0    0  0.10347631558E+03 -0.29149620686E+02 -0.64973681365E+04  0.65000000000E+04  0.15050000000E+03 0. -1.
     100001    1    1    2    0    0 -0.10347631558E+03  0.29149620686E+02  0.64973681365E+04  0.65000000000E+04  0.15050000000E+03 0. -1.
</event>
<event>
 4    1  0.4826743E-004  0.6500000E+04  0.7818608E-02  0.7223770E-01
         52   -1    0    0    0    0  0.00000000000E+00  0.00000000000E+00  0.64930732323E+04  0.65000000000E+04  0.30000000000E+03 0. -1.
        -52   -1    0    0    0    0 -0.00000000000E+00 -0.00000000000E+00 -0.64930732323E+04  0.65000000000E+04  0.30000000000E+03 0.  1.
     100001    1    1    2    0    0  0.11206788977E+04  0.45651995716E+04 -0.44866893618E+04  0.65000000000E+04  0.15050000000E+03 0.  1.
     100001    1    1    2    0    0 -0.11206788977E+04 -0.45651995716E+04  0.44866893618E+04  0.65000000000E+04  0.15050000000E+03 0. -1.
</event>
<event>
 4    1  0.4826743E-004  0.6500000E+04  0.7818608E-02  0.7223770E-01
         52   -1    0    0    0    0  0.00000000000E+00  0.00000000000E+00  0.64930732323E+04  0.65000000000E+04  0.30000000000E+03 0. -1.
        -52   -1    0    0    0    0 -0.00000000000E+00 -0.00000000000E+00 -0.64930732323E+04  0.65000000000E+04  0.30000000000E+03 0.  1.
     100001    1    1    2    0    0  0.29995540762E+04 -0.30787620723E+04 -0.48735253356E+04  0.65000000000E+04  0.15050000000E+03 0.  1.
     100001    1    1    2    0    0 -0.29995540762E+04  0.30787620723E+04  0.48735253356E+04  0.65000000000E+04  0.15050000000E+03 0. -1.
</event>
<event>
 4    1  0.4826743E-004  0.6500000E+04  0.7818608E-02  0.7223770E-01
         52   -1    0    0    0    0  0.00000000000E+00  0.00000000000E+00  0.64930732323E+04  0.65000000000E+04  0.30000000000E+03 0. -1.
        -52   -1    0    0    0    0 -0.00000000000E+00 -0.00000000000E+00 -0.64930732323E+04  0.65000000000E+04  0.30000000000E+03 0.  1.
     100001    1    1    2    0    0  0.89526047475E+03 -0.85927814242E+03 -0.63786753724E+04  0.65000000000E+04  0.15050000000E+03 0.  1.
     100001    1    1    2    0    0 -0.89526047475E+03  0.85927814242E+03  0.63786753724E+04  0.65000000000E+04  0.15050000000E+03 0. -1.
</event>
<event>
 4    1  0.5322864E-004  0.6500000E+04  0.7818608E-02  0.7223770E-01
         52   -1    0    0    0    0  0.00000000000E+00  0.00000000000E+00  0.64930732323E+04  0.65000000000E+04  0.30000000000E+03 0.  1.
        -52   -1    0    0    0    0 -0.00000000000E+00 -0.00000000000E+00 -0.64930732323E+04  0.65000000000E+04  0.30000000000E+03 0.  1.
     100001    1    1    2    0    0  0.89219369566E+01  0.22271981179E+03  0.64944334652E+04  0.65000000000E+04  0.15050000000E+03 0.  1.
     100001    1    1    2    0    0 -0.89219369566E+01 -0.22271981179E+03 -0.64944334652E+04  0.65000000000E+04  0.15050000000E+03 0.  1.
</event>
<event>
 4    1  0.4826743E-004  0.6500000E+04  0.7818608E-02  0.7223770E-01
         52   -1    0    0    0    0  0.00000000000E+00  0.00000000000E+00  0.64930732323E+04  0.65000000000E+04  0.30000000000E+03 0. -1.
        -52   -1    0    0    0    0 -0.00000000000E+00 -0.00000000000E+00 -0.64930732323E+04  0.65000000000E+04  0.30000000000E+03 0.  1.
     100001    1    1    2    0    0 -0.47884077968E+04 -0.17663641645E+04 -0.40222454127E+04  0.65000000000E+04  0.15050000000E+03 0.  1.
     100001    1    1    2    0    0  0.47884077968E+04  0.17663641645E+04  0.40222454127E+04  0.65000000000E+04  0.15050000000E+03 0. -1.
</event>
<event>
 4    1  0.4826743E-004  0.6500000E+04  0.7818608E-02  0.7223770E-01
         52   -1    0    0    0    0  0.00000000000E+00  0.00000000000E+00  0.64930732323E+04  0.65000000000E+04  0.30000000000E+03 0.  1.
        -52   -1    0    0    0    0 -0.00000000000E+00 -0.00000000000E+00 -0.64930732323E+04  0.65000000000E+04  0.30000000000E+03 0. -1.
     100001    1    1    2    0    0 -0.80617300336E+03  0.17743984219E+04 -0.61991084100E+04  0.65000000000E+04  0.15050000000E+03 0. -1.
     100001    1    1    2    0    0  0.80617300336E+03 -0.17743984219E+04  0.61991084100E+04  0.65000000000E+04  0.15050000000E+03 0.  1.
</event>
<event>
 4    1  0.4826743E-004  0.6500000E+04  0.7818608E-02  0.7223770E-01
         52   -1    0    0    0    0  0.00000000000E+00  0.00000000000E+00  0.64930732323E+04  0.65000000000E+04  0.30000000000E+03 0. -1.
        -52   -1    0    0    0    0 -0.00000000000E+00 -0.00000000000E+00 -0.64930732323E+04  0.65000000000E+04  0.30000000000E+03 0.  1.
     100001    1    1    2    0    0  0.29906610389E+04  0.11128906044E+04 -0.56608100837E+04  0.65000000000E+04  0.15050000000E+03 0.  1.
     100001    1    1    2    0    0 -0.29906610389E+04 -0.11128906044E+04  0.56608100837E+04  0.65000000000E+04  0.15050000000E+03 0. -1.
</event>
<event>
 4    1  0.4826743E-004  0.6500000E+04  0.7818608E-02  0.7223770E-01
         52   -1    0    0    0    0  0.00000000000E+00  0.00000000000E+00  0.64930732323E+04  0.65000000000E+04  0.30000000000E+03 0. -1.
        -52   -1    0    0    0    0 -0.00000000000E+00 -0.00000000000E+00 -0.64930732323E+04  0.65000000000E+04  0.30000000000E+03 0.  1.
     100001    1    1    2    0    0  0.25785459456E+04 -0.29234329243E+04 -0.51992297981E+04  0.65000000000E+04  0.15050000000E+03 0.  1.
     100001    1    1    2    0    0 -0.25785459456E+04  0.29234329243E+04  0.51992297981E+04  0.65000000000E+04  0.15050000000E+03 0. -1.
</event>
<event>
 4    1  0.4826743E-004  0.6500000E+04  0.7818608E-02  0.7223770E-01
         52   -1    0    0    0    0  0.00000000000E+00  0.00000000000E+00  0.64930732323E+04  0.65000000000E+04  0.30000000000E+03 0. -1.
        -52   -1    0    0    0    0 -0.00000000000E+00 -0.00000000000E+00 -0.64930732323E+04  0.65000000000E+04  0.30000000000E+03 0.  1.
     100001    1    1    2    0    0  0.40745308015E+03  0.79273539900E+03 -0.64368394671E+04  0.65000000000E+04  0.15050000000E+03 0.  1.
     100001    1    1    2    0    0 -0.40745308015E+03 -0.79273539900E+03  0.64368394671E+04  0.65000000000E+04  0.15050000000E+03 0. -1.
</event>
<event>
 4    1  0.4826743E-004  0.6500000E+04  0.7818608E-02  0.7223770E-01
         52   -1    0    0    0    0  0.00000000000E+00  0.00000000000E+00  0.64930732323E+04  0.65000000000E+04  0.30000000000E+03 0.  1.
        -52   -1    0    0    0    0 -0.00000000000E+00 -0.00000000000E+00 -0.64930732323E+04  0.65000000000E+04  0.30000000000E+03 0. -1.
     100001    1    1    2    0    0 -0.12846314039E+04 -0.90406673625E+03  0.63055321141E+04  0.65000000000E+04  0.15050000000E+03 0.  1.
     100001    1    1    2    0    0  0.12846314039E+04  0.90406673625E+03 -0.63055321141E+04  0.65000000000E+04  0.15050000000E+03 0. -1.
</event>
<event>
 4    1  0.4826743E-004  0.6500000E+04  0.7818608E-02  0.7223770E-01
         52   -1    0    0    0    0  0.00000000000E+00  0.00000000000E+00  0.64930732323E+04  0.65000000000E+04  0.30000000000E+03 0. -1.
        -52   -1    0    0    0    0 -0.00000000000E+00 -0.00000000000E+00 -0.64930732323E+04  0.65000000000E+04  0.30000000000E+03 0.  1.
     100001    1    1    2    0    0 -0.21090051170E+04 -0.99270812494E+03  0.60658039653E+04  0.65000000000E+04  0.15050000000E+03 0. -1.
     100001    1    1    2    0    0  0.21090051170E+04  0.99270812494E+03 -0.60658039653E+04  0.65000000000E+04  0.15050000000E+03 0.  1.
</event>
<event>
 4    1  0.4826743E-004  0.6500000E+04  0.7818608E-02  0.7223770E-01
         52   -1    0    0    0    0  0.00000000000E+00  0.00000000000E+00  0.64930732323E+04  0.65000000000E+04  0.30000000000E+03 0. -1.
        -52   -1    0    0    0    0 -0.00000000000E+00 -0.00000000000E+00 -0.64930732323E+04  0.65000000000E+04  0.30000000000E+03 0.  1.
     100001    1    1    2    0    0 -0.38046486926E+04  0.47718190090E+04 -0.22319815010E+04  0.65000000000E+04  0.15050000000E+03 0.  1.
     100001    1    1    2    0    0  0.38046486926E+04 -0.47718190090E+04  0.22319815010E+04  0.65000000000E+04  0.15050000000E+03 0. -1.
</event>
<event>
 4    1  0.4826743E-004  0.6500000E+04  0.7818608E-02  0.7223770E-01
         52   -1    0    0    0    0  0.00000000000E+00  0.00000000000E+00  0.64930732323E+04  0.65000000000E+04  0.30000000000E+03 0. -1.
        -52   -1    0    0    0    0 -0.00000000000E+00 -0.00000000000E+00 -0.64930732323E+04  0.65000000000E+04  0.30000000000E+03 0.  1.
     100001    1    1    2    0    0  0.90764218046E+03  0.33225541785E+04  0.55103692393E+04  0.65000000000E+04  0.15050000000E+03 0. -1.
     100001    1    1    2    0    0 -0.90764218046E+03 -0.33225541785E+04 -0.55103692393E+04  0.65000000000E+04  0.15050000000E+03 0.  1.
</event>
<event>
 4    1  0.4826743E-004  0.6500000E+04  0.7818608E-02  0.7223770E-01
         52   -1    0    0    0    0  0.00000000000E+00  0.00000000000E+00  0.64930732323E+04  0.65000000000E+04  0.30000000000E+03 0.  1.
        -52   -1    0    0    0    0 -0.00000000000E+00 -0.00000000000E+00 -0.64930732323E+04  0.65000000000E+04  0.30000000000E+03 0. -1.
     100001    1    1    2    0    0 -0.20597023050E+04  0.42727072760E+03  0.61483669287E+04  0.65000000000E+04  0.15050000000E+03 0.  1.
     100001    1    1    2    0    0  0.20597023050E+04 -0.42727072760E+03 -0.61483669287E+04  0.65000000000E+04  0.15050000000E+03 0. -1.
</event>
<event>
 4    1  0.4826743E-004  0.6500000E+04  0.7818608E-02  0.7223770E-01
         52   -1    0    0    0    0  0.00000000000E+00  0.00000000000E+00  0.64930732323E+04  0.65000000000E+04  0.30000000000E+03 0. -1.
        -52   -1    0    0    0    0 -0.00000000000E+00 -0.00000000000E+00 -0.64930732323E+04  0.65000000000E+04  0.30000000000E+03 0.  1.
     100001    1    1    2    0    0  0.31582387639E+03 -0.88212539214E+02 -0.64899787039E+04  0.65000000000E+04  0.15050000000E+03 0.  1.
     100001    1    1    2    0    0 -0.31582387639E+03  0.88212539214E+02  0.64899787039E+04  0.65000000000E+04  0.15050000000E+03 0. -1.
</event>
<event>
 4    1  0.4826743E-004  0.6500000E+04  0.7818608E-02  0.7223770E-01
         52   -1    0    0    0    0  0.00000000000E+00  0.00000000000E+00  0.64930732323E+04  0.65000000000E+04  0.30000000000E+03 0. -1.
        -52   -1    0    0    0    0 -0.00000000000E+00 -0.00000000000E+00 -0.64930732323E+04  0.65000000000E+04  0.30000000000E+03 0.  1.
     100001    1    1    2    0    0 -0.73548836289E+03 -0.58751113211E+03  0.64297151794E+04  0.65000000000E+04  0.15050000000E+03 0. -1.
     100001    1    1    2    0    0  0.73548836289E+03  0.58751113211E+03 -0.64297151794E+04  0.65000000000E+04  0.15050000000E+03 0.  1.
</event>
<event>
 4    1  0.4826743E-004  0.6500000E+04  0.7818608E-02  0.7223770E-01
         52   -1    0    0    0    0  0.00000000000E+00  0.00000000000E+00  0.64930732323E+04  0.65000000000E+04  0.30000000000E+03 0. -1.
        -52   -1    0    0    0    0 -0.00000000000E+00 -0.00000000000E+00 -0.64930732323E+04  0.65000000000E+04  0.30000000000E+03 0.  1.
     100001    1    1    2    0    0  0.25238374385E+03  0.58159358920E+03  0.64672560714E+04  0.65000000000E+04  0.15050000000E+03 0. -1.
     100001    1    1    2    0    0 -0.25238374385E+03 -0.58159358920E+03 -0.64672560714E+04  0.65000000000E+04  0.15050000000E+03 0.  1.
</event>
<event>
 4    1  0.4826743E-004  0.6500000E+04  0.7818608E-02  0.7223770E-01
         52   -1    0    0    0    0  0.00000000000E+00  0.00000000000E+00  0.64930732323E+04  0.65000000000E+04  0.30000000000E+03 0. -1.
        -52   -1    0    0    0    0 -0.00000000000E+00 -0.00000000000E+00 -0.64930732323E+04  0.65000000000E+04  0.30000000000E+03 0.  1.
     100001    1    1    2    0    0 -0.14883963625E+04  0.51221303009E+02 -0.63252986013E+04  0.65000000000E+04  0.15050000000E+03 0.  1.
     100001    1    1    2    0    0  0.14883963625E+04 -0.51221303009E+02  0.63252986013E+04  0.65000000000E+04  0.15050000000E+03 0. -1.
</event>
<event>
 4    1  0.4826743E-004  0.6500000E+04  0.7818608E-02  0.7223770E-01
         52   -1    0    0    0    0  0.00000000000E+00  0.00000000000E+00  0.64930732323E+04  0.65000000000E+04  0.30000000000E+03 0. -1.
        -52   -1    0    0    0    0 -0.00000000000E+00 -0.00000000000E+00 -0.64930732323E+04  0.65000000000E+04  0.30000000000E+03 0.  1.
     100001    1    1    2    0    0 -0.27131231709E+04 -0.19087939129E+04  0.55877382014E+04  0.65000000000E+04  0.15050000000E+03 0. -1.
     100001    1    1    2    0    0  0.27131231709E+04  0.19087939129E+04 -0.55877382014E+04  0.65000000000E+04  0.15050000000E+03 0.  1.
</event>
<event>
 4    1  0.4826743E-004  0.6500000E+04  0.7818608E-02  0.7223770E-01
         52   -1    0    0    0    0  0.00000000000E+00  0.00000000000E+00  0.64930732323E+04  0.65000000000E+04  0.30000000000E+03 0.  1.
        -52   -1    0    0    0    0 -0.00000000000E+00 -0.00000000000E+00 -0.64930732323E+04  0.65000000000E+04  0.30000000000E+03 0.  1.
     100001    1    1    2    0    0 -0.23593779237E+03 -0.41020075312E+04  0.50344033730E+04  0.65000000000E+04  0.15050000000E+03 0.  1.
     100001    1    1    2    0    0  0.23593779237E+03  0.41020075312E+04 -0.50344033730E+04  0.65000000000E+04  0.15050000000E+03 0.  1.
</event>
<event>
 4    1  0.4826743E-004  0.6500000E+04  0.7818608E-02  0.7223770E-01
         52   -1    0    0    0    0  0.00000000000E+00  0.00000000000E+00  0.64930732323E+04  0.65000000000E+04  0.30000000000E+03 0. -1.
        -52   -1    0    0    0    0 -0.00000000000E+00 -0.00000000000E+00 -0.64930732323E+04  0.65000000000E+04  0.30000000000E+03 0.  1.
     100001    1    1    2    0    0  0.19032493777E+04 -0.51376868055E+04  0.34941616798E+04  0.65000000000E+04  0.15050000000E+03 0. -1.
     100001    1    1    2    0    0 -0.19032493777E+04  0.51376868055E+04 -0.34941616798E+04  0.65000000000E+04  0.15050000000E+03 0.  1.
</event>
<event>
 4    1  0.4826743E-004  0.6500000E+04  0.7818608E-02  0.7223770E-01
         52   -1    0    0    0    0  0.00000000000E+00  0.00000000000E+00  0.64930732323E+04  0.65000000000E+04  0.30000000000E+03 0. -1.
        -52   -1    0    0    0    0 -0.00000000000E+00 -0.00000000000E+00 -0.64930732323E+04  0.65000000000E+04  0.30000000000E+03 0.  1.
     100001    1    1    2    0    0 -0.37501764184E+04 -0.14729155135E+04  0.50984356886E+04  0.65000000000E+04  0.15050000000E+03 0. -1.
     100001    1    1    2    0    0  0.37501764184E+04  0.14729155135E+04 -0.50984356886E+04  0.65000000000E+04  0.15050000000E+03 0.  1.
</event>
<event>
 4    1  0.4826743E-004  0.6500000E+04  0.7818608E-02  0.7223770E-01
         52   -1    0    0    0    0  0.00000000000E+00  0.00000000000E+00  0.64930732323E+04  0.65000000000E+04  0.30000000000E+03 0.  1.
        -52   -1    0    0    0    0 -0.00000000000E+00 -0.00000000000E+00 -0.64930732323E+04  0.65000000000E+04  0.30000000000E+03 0. -1.
     100001    1    1    2    0    0  0.11836899523E+04 -0.28398794761E+04  0.57237498555E+04  0.65000000000E+04  0.15050000000E+03 0.  1.
     100001    1    1    2    0    0 -0.11836899523E+04  0.28398794761E+04 -0.57237498555E+04  0.65000000000E+04  0.15050000000E+03 0. -1.
</event>
<event>
 4    1  0.4826743E-004  0.6500000E+04  0.7818608E-02  0.7223770E-01
         52   -1    0    0    0    0  0.00000000000E+00  0.00000000000E+00  0.64930732323E+04  0.65000000000E+04  0.30000000000E+03 0.  1.
        -52   -1    0    0    0    0 -0.00000000000E+00 -0.00000000000E+00 -0.64930732323E+04  0.65000000000E+04  0.30000000000E+03 0. -1.
     100001    1    1    2    0    0  0.95744014671E+03 -0.29445335104E+04  0.57131760450E+04  0.65000000000E+04  0.15050000000E+03 0.  1.
     100001    1    1    2    0    0 -0.95744014671E+03  0.29445335104E+04 -0.57131760450E+04  0.65000000000E+04  0.15050000000E+03 0. -1.
</event>
<event>
 4    1  0.4826743E-004  0.6500000E+04  0.7818608E-02  0.7223770E-01
         52   -1    0    0    0    0  0.00000000000E+00  0.00000000000E+00  0.64930732323E+04  0.65000000000E+04  0.30000000000E+03 0.  1.
        -52   -1    0    0    0    0 -0.00000000000E+00 -0.00000000000E+00 -0.64930732323E+04  0.65000000000E+04  0.30000000000E+03 0. -1.
     100001    1    1    2    0    0 -0.27975611693E+03  0.10336524683E+04 -0.64094187599E+04  0.65000000000E+04  0.15050000000E+03 0. -1.
     100001    1    1    2    0    0  0.27975611693E+03 -0.10336524683E+04  0.64094187599E+04  0.65000000000E+04  0.15050000000E+03 0.  1.
</event>
<event>
 4    1  0.4826743E-004  0.6500000E+04  0.7818608E-02  0.7223770E-01
         52   -1    0    0    0    0  0.00000000000E+00  0.00000000000E+00  0.64930732323E+04  0.65000000000E+04  0.30000000000E+03 0. -1.
        -52   -1    0    0    0    0 -0.00000000000E+00 -0.00000000000E+00 -0.64930732323E+04  0.65000000000E+04  0.30000000000E+03 0.  1.
     100001    1    1    2    0    0 -0.23244198598E+04  0.47222291450E+03 -0.60499113700E+04  0.65000000000E+04  0.15050000000E+03 0.  1.
     100001    1    1    2    0    0  0.23244198598E+04 -0.47222291450E+03  0.60499113700E+04  0.65000000000E+04  0.15050000000E+03 0. -1.
</event>
<event>
 4    1  0.4826743E-004  0.6500000E+04  0.7818608E-02  0.7223770E-01
         52   -1    0    0    0    0  0.00000000000E+00  0.00000000000E+00  0.64930732323E+04  0.65000000000E+04  0.30000000000E+03 0.  1.
        -52   -1    0    0    0    0 -0.00000000000E+00 -0.00000000000E+00 -0.64930732323E+04  0.65000000000E+04  0.30000000000E+03 0. -1.
     100001    1    1    2    0    0 -0.13767952893E+04 -0.25158083084E+03  0.63457459425E+04  0.65000000000E+04  0.15050000000E+03 0.  1.
     100001    1    1    2    0    0  0.13767952893E+04  0.25158083084E+03 -0.63457459425E+04  0.65000000000E+04  0.15050000000E+03 0. -1.
</event>
<event>
 4    1  0.4826743E-004  0.6500000E+04  0.7818608E-02  0.7223770E-01
         52   -1    0    0    0    0  0.00000000000E+00  0.00000000000E+00  0.64930732323E+04  0.65000000000E+04  0.30000000000E+03 0. -1.
        -52   -1    0    0    0    0 -0.00000000000E+00 -0.00000000000E+00 -0.64930732323E+04  0.65000000000E+04  0.30000000000E+03 0.  1.
     100001    1    1    2    0    0  0.55596424638E+04 -0.32781450359E+04 -0.75596993911E+03  0.65000000000E+04  0.15050000000E+03 0.  1.
     100001    1    1    2    0    0 -0.55596424638E+04  0.32781450359E+04  0.75596993911E+03  0.65000000000E+04  0.15050000000E+03 0. -1.
</event>
<event>
 4    1  0.4826743E-004  0.6500000E+04  0.7818608E-02  0.7223770E-01
         52   -1    0    0    0    0  0.00000000000E+00  0.00000000000E+00  0.64930732323E+04  0.65000000000E+04  0.30000000000E+03 0. -1.
        -52   -1    0    0    0    0 -0.00000000000E+00 -0.00000000000E+00 -0.64930732323E+04  0.65000000000E+04  0.30000000000E+03 0.  1.
     100001    1    1    2    0    0  0.12381620430E+04  0.18007881337E+03  0.63766665372E+04  0.65000000000E+04  0.15050000000E+03 0. -1.
     100001    1    1    2    0    0 -0.12381620430E+04 -0.18007881337E+03 -0.63766665372E+04  0.65000000000E+04  0.15050000000E+03 0.  1.
</event>
<event>
 4    1  0.4826743E-004  0.6500000E+04  0.7818608E-02  0.7223770E-01
         52   -1    0    0    0    0  0.00000000000E+00  0.00000000000E+00  0.64930732323E+04  0.65000000000E+04  0.30000000000E+03 0. -1.
        -52   -1    0    0    0    0 -0.00000000000E+00 -0.00000000000E+00 -0.64930732323E+04  0.65000000000E+04  0.30000000000E+03 0. -1.
     100001    1    1    2    0    0 -0.82601635719E+03  0.12881680624E+03  0.64442573628E+04  0.65000000000E+04  0.15050000000E+03 0. -1.
     100001    1    1    2    0    0  0.82601635719E+03 -0.12881680624E+03 -0.64442573628E+04  0.65000000000E+04  0.15050000000E+03 0. -1.
</event>
<event>
 4    1  0.4826743E-004  0.6500000E+04  0.7818608E-02  0.7223770E-01
         52   -1    0    0    0    0  0.00000000000E+00  0.00000000000E+00  0.64930732323E+04  0.65000000000E+04  0.30000000000E+03 0. -1.
        -52   -1    0    0    0    0 -0.00000000000E+00 -0.00000000000E+00 -0.64930732323E+04  0.65000000000E+04  0.30000000000E+03 0.  1.
     100001    1    1    2    0    0  0.63878707438E+03  0.23336391093E+04 -0.60310388269E+04  0.65000000000E+04  0.15050000000E+03 0.  1.
     100001    1    1    2    0    0 -0.63878707438E+03 -0.23336391093E+04  0.60310388269E+04  0.65000000000E+04  0.15050000000E+03 0. -1.
</event>
<event>
 4    1  0.5634102E-004  0.6500000E+04  0.7818608E-02  0.7223770E-01
         52   -1    0    0    0    0  0.00000000000E+00  0.00000000000E+00  0.64930732323E+04  0.65000000000E+04  0.30000000000E+03 0. -1.
        -52   -1    0    0    0    0 -0.00000000000E+00 -0.00000000000E+00 -0.64930732323E+04  0.65000000000E+04  0.30000000000E+03 0.  1.
     100001    1    1    2    0    0  0.20685779532E+03 -0.51084727508E+02 -0.64947632715E+04  0.65000000000E+04  0.15050000000E+03 0.  1.
     100001    1    1    2    0    0 -0.20685779532E+03  0.51084727508E+02  0.64947632715E+04  0.65000000000E+04  0.15050000000E+03 0. -1.
</event>
<event>
 4    1  0.5755732E-004  0.6500000E+04  0.7818608E-02  0.7223770E-01
         52   -1    0    0    0    0  0.00000000000E+00  0.00000000000E+00  0.64930732323E+04  0.65000000000E+04  0.30000000000E+03 0.  1.
        -52   -1    0    0    0    0 -0.00000000000E+00 -0.00000000000E+00 -0.64930732323E+04  0.65000000000E+04  0.30000000000E+03 0. -1.
     100001    1    1    2    0    0 -0.82987845996E+02  0.17864556489E+03 -0.64952712437E+04  0.65000000000E+04  0.15050000000E+03 0. -1.
     100001    1    1    2    0    0  0.82987845996E+02 -0.17864556489E+03  0.64952712437E+04  0.65000000000E+04  0.15050000000E+03 0.  1.
</event>
<event>
 4    1  0.4826743E-004  0.6500000E+04  0.7818608E-02  0.7223770E-01
         52   -1    0    0    0    0  0.00000000000E+00  0.00000000000E+00  0.64930732323E+04  0.65000000000E+04  0.30000000000E+03 0.  1.
        -52   -1    0    0    0    0 -0.00000000000E+00 -0.00000000000E+00 -0.64930732323E+04  0.65000000000E+04  0.30000000000E+03 0. -1.
     100001    1    1    2    0    0  0.37777211069E+03  0.21546420926E+02  0.64872315925E+04  0.65000000000E+04  0.15050000000E+03 0.  1.
     100001    1    1    2    0    0 -0.37777211069E+03 -0.21546420926E+02 -0.64872315925E+04  0.65000000000E+04  0.15050000000E+03 0. -1.
</event>
<event>
 4    1  0.4826743E-004  0.6500000E+04  0.7818608E-02  0.7223770E-01
         52   -1    0    0    0    0  0.00000000000E+00  0.00000000000E+00  0.64930732323E+04  0.65000000000E+04  0.30000000000E+03 0.  1.
        -52   -1    0    0    0    0 -0.00000000000E+00 -0.00000000000E+00 -0.64930732323E+04  0.65000000000E+04  0.30000000000E+03 0. -1.
     100001    1    1    2    0    0 -0.58641107078E+04 -0.13866846326E+03 -0.27964846529E+04  0.65000000000E+04  0.15050000000E+03 0.  1.
     100001    1    1    2    0    0  0.58641107078E+04  0.13866846326E+03  0.27964846529E+04  0.65000000000E+04  0.15050000000E+03 0. -1.
</event>
<event>
 4    1  0.4826743E-004  0.6500000E+04  0.7818608E-02  0.7223770E-01
         52   -1    0    0    0    0  0.00000000000E+00  0.00000000000E+00  0.64930732323E+04  0.65000000000E+04  0.30000000000E+03 0. -1.
        -52   -1    0    0    0    0 -0.00000000000E+00 -0.00000000000E+00 -0.64930732323E+04  0.65000000000E+04  0.30000000000E+03 0.  1.
     100001    1    1    2    0    0 -0.38437688889E+04  0.38271627350E+04 -0.35784935209E+04  0.65000000000E+04  0.15050000000E+03 0.  1.
     100001    1    1    2    0    0  0.38437688889E+04 -0.38271627350E+04  0.35784935209E+04  0.65000000000E+04  0.15050000000E+03 0. -1.
</event>
<event>
 4    1  0.4826743E-004  0.6500000E+04  0.7818608E-02  0.7223770E-01
         52   -1    0    0    0    0  0.00000000000E+00  0.00000000000E+00  0.64930732323E+04  0.65000000000E+04  0.30000000000E+03 0.  1.
        -52   -1    0    0    0    0 -0.00000000000E+00 -0.00000000000E+00 -0.64930732323E+04  0.65000000000E+04  0.30000000000E+03 0. -1.
     100001    1    1    2    0    0  0.90837750656E+03 -0.38795067806E+03 -0.64227481912E+04  0.65000000000E+04  0.15050000000E+03 0. -1.
     100001    1    1    2    0    0 -0.90837750656E+03  0.38795067806E+03  0.64227481912E+04  0.65000000000E+04  0.15050000000E+03 0.  1.
</event>
<event>
 4    1  0.4826743E-004  0.6500000E+04  0.7818608E-02  0.7223770E-01
         52   -1    0    0    0    0  0.00000000000E+00  0.00000000000E+00  0.64930732323E+04  0.65000000000E+04  0.30000000000E+03 0. -1.
        -52   -1    0    0    0    0 -0.00000000000E+00 -0.00000000000E+00 -0.64930732323E+04  0.65000000000E+04  0.30000000000E+03 0.  1.
     100001    1    1    2    0    0  0.10099640713E+04  0.44226353308E+04  0.46527001897E+04  0.65000000000E+04  0.15050000000E+03 0. -1.
     100001    1    1    2    0    0 -0.10099640713E+04 -0.44226353308E+04 -0.46527001897E+04  0.65000000000E+04  0.15050000000E+03 0.  1.
</event>
<event>
 4    1  0.4826743E-004  0.6500000E+04  0.7818608E-02  0.7223770E-01
         52   -1    0    0    0    0  0.00000000000E+00  0.00000000000E+00  0.64930732323E+04  0.65000000000E+04  0.30000000000E+03 0. -1.
        -52   -1    0    0    0    0 -0.00000000000E+00 -0.00000000000E+00 -0.64930732323E+04  0.65000000000E+04  0.30000000000E+03 0.  1.
     100001    1    1    2    0    0 -0.94556851430E+03 -0.63006512178E+04 -0.12786884555E+04  0.65000000000E+04  0.15050000000E+03 0. -1.
     100001    1    1    2    0    0  0.94556851430E+03  0.63006512178E+04  0.12786884555E+04  0.65000000000E+04  0.15050000000E+03 0.  1.
</event>
<event>
 4    1  0.4826743E-004  0.6500000E+04  0.7818608E-02  0.7223770E-01
         52   -1    0    0    0    0  0.00000000000E+00  0.00000000000E+00  0.64930732323E+04  0.65000000000E+04  0.30000000000E+03 0.  1.
        -52   -1    0    0    0    0 -0.00000000000E+00 -0.00000000000E+00 -0.64930732323E+04  0.65000000000E+04  0.30000000000E+03 0. -1.
     100001    1    1    2    0    0 -0.40263508841E+04 -0.17884279910E+04 -0.47767534612E+04  0.65000000000E+04  0.15050000000E+03 0. -1.
     100001    1    1    2    0    0  0.40263508841E+04  0.17884279910E+04  0.47767534612E+04  0.65000000000E+04  0.15050000000E+03 0.  1.
</event>
<event>
 4    1  0.4826743E-004  0.6500000E+04  0.7818608E-02  0.7223770E-01
         52   -1    0    0    0    0  0.00000000000E+00  0.00000000000E+00  0.64930732323E+04  0.65000000000E+04  0.30000000000E+03 0. -1.
        -52   -1    0    0    0    0 -0.00000000000E+00 -0.00000000000E+00 -0.64930732323E+04  0.65000000000E+04  0.30000000000E+03 0.  1.
     100001    1    1    2    0    0  0.68423587444E+03  0.11562114222E+04  0.63578570419E+04  0.65000000000E+04  0.15050000000E+03 0. -1.
     100001    1    1    2    0    0 -0.68423587444E+03 -0.11562114222E+04 -0.63578570419E+04  0.65000000000E+04  0.15050000000E+03 0.  1.
</event>
<event>
 4    1  0.4826743E-004  0.6500000E+04  0.7818608E-02  0.7223770E-01
         52   -1    0    0    0    0  0.00000000000E+00  0.00000000000E+00  0.64930732323E+04  0.65000000000E+04  0.30000000000E+03 0. -1.
        -52   -1    0    0    0    0 -0.00000000000E+00 -0.00000000000E+00 -0.64930732323E+04  0.65000000000E+04  0.30000000000E+03 0.  1.
     100001    1    1    2    0    0 -0.52307700835E+04  0.38452260647E+04 -0.28395526908E+03  0.65000000000E+04  0.15050000000E+03 0. -1.
     100001    1    1    2    0    0  0.52307700835E+04 -0.38452260647E+04  0.28395526908E+03  0.65000000000E+04  0.15050000000E+03 0.  1.
</event>
<event>
 4    1  0.4826743E-004  0.6500000E+04  0.7818608E-02  0.7223770E-01
         52   -1    0    0    0    0  0.00000000000E+00  0.00000000000E+00  0.64930732323E+04  0.65000000000E+04  0.30000000000E+03 0.  1.
        -52   -1    0    0    0    0 -0.00000000000E+00 -0.00000000000E+00 -0.64930732323E+04  0.65000000000E+04  0.30000000000E+03 0. -1.
     100001    1    1    2    0    0  0.14174728605E+03  0.32544996537E+04 -0.56227652859E+04  0.65000000000E+04  0.15050000000E+03 0. -1.
     100001    1    1    2    0    0 -0.14174728605E+03 -0.32544996537E+04  0.56227652859E+04  0.65000000000E+04  0.15050000000E+03 0.  1.
</event>
<event>
 4    1  0.4826743E-004  0.6500000E+04  0.7818608E-02  0.7223770E-01
         52   -1    0    0    0    0  0.00000000000E+00  0.00000000000E+00  0.64930732323E+04  0.65000000000E+04  0.30000000000E+03 0. -1.
        -52   -1    0    0    0    0 -0.00000000000E+00 -0.00000000000E+00 -0.64930732323E+04  0.65000000000E+04  0.30000000000E+03 0.  1.
     100001    1    1    2    0    0 -0.34544027371E+04 -0.31352143023E+03  0.54951028919E+04  0.65000000000E+04  0.15050000000E+03 0. -1.
     100001    1    1    2    0    0  0.34544027371E+04  0.31352143023E+03 -0.54951028919E+04  0.65000000000E+04  0.15050000000E+03 0.  1.
</event>
<event>
 4    1  0.4826743E-004  0.6500000E+04  0.7818608E-02  0.7223770E-01
         52   -1    0    0    0    0  0.00000000000E+00  0.00000000000E+00  0.64930732323E+04  0.65000000000E+04  0.30000000000E+03 0. -1.
        -52   -1    0    0    0    0 -0.00000000000E+00 -0.00000000000E+00 -0.64930732323E+04  0.65000000000E+04  0.30000000000E+03 0.  1.
     100001    1    1    2    0    0  0.20385980908E+03  0.86722887131E+03 -0.64369018179E+04  0.65000000000E+04  0.15050000000E+03 0.  1.
     100001    1    1    2    0    0 -0.20385980908E+03 -0.86722887131E+03  0.64369018179E+04  0.65000000000E+04  0.15050000000E+03 0. -1.
</event>
<event>
 4    1  0.4826743E-004  0.6500000E+04  0.7818608E-02  0.7223770E-01
         52   -1    0    0    0    0  0.00000000000E+00  0.00000000000E+00  0.64930732323E+04  0.65000000000E+04  0.30000000000E+03 0.  1.
        -52   -1    0    0    0    0 -0.00000000000E+00 -0.00000000000E+00 -0.64930732323E+04  0.65000000000E+04  0.30000000000E+03 0. -1.
     100001    1    1    2    0    0  0.32311955832E+04 -0.28368530752E+04 -0.48722673862E+04  0.65000000000E+04  0.15050000000E+03 0. -1.
     100001    1    1    2    0    0 -0.32311955832E+04  0.28368530752E+04  0.48722673862E+04  0.65000000000E+04  0.15050000000E+03 0.  1.
</event>
<event>
 4    1  0.4826743E-004  0.6500000E+04  0.7818608E-02  0.7223770E-01
         52   -1    0    0    0    0  0.00000000000E+00  0.00000000000E+00  0.64930732323E+04  0.65000000000E+04  0.30000000000E+03 0.  1.
        -52   -1    0    0    0    0 -0.00000000000E+00 -0.00000000000E+00 -0.64930732323E+04  0.65000000000E+04  0.30000000000E+03 0. -1.
     100001    1    1    2    0    0  0.70040577227E+03 -0.50215961055E+03 -0.64408553182E+04  0.65000000000E+04  0.15050000000E+03 0. -1.
     100001    1    1    2    0    0 -0.70040577227E+03  0.50215961055E+03  0.64408553182E+04  0.65000000000E+04  0.15050000000E+03 0.  1.
</event>
<event>
 4    1  0.4826743E-004  0.6500000E+04  0.7818608E-02  0.7223770E-01
         52   -1    0    0    0    0  0.00000000000E+00  0.00000000000E+00  0.64930732323E+04  0.65000000000E+04  0.30000000000E+03 0.  1.
        -52   -1    0    0    0    0 -0.00000000000E+00 -0.00000000000E+00 -0.64930732323E+04  0.65000000000E+04  0.30000000000E+03 0. -1.
     100001    1    1    2    0    0 -0.14557144479E+04  0.57390394966E+04  0.26779975453E+04  0.65000000000E+04  0.15050000000E+03 0.  1.
     100001    1    1    2    0    0  0.14557144479E+04 -0.57390394966E+04 -0.26779975453E+04  0.65000000000E+04  0.15050000000E+03 0. -1.
</event>
<event>
 4    1  0.4826743E-004  0.6500000E+04  0.7818608E-02  0.7223770E-01
         52   -1    0    0    0    0  0.00000000000E+00  0.00000000000E+00  0.64930732323E+04  0.65000000000E+04  0.30000000000E+03 0. -1.
        -52   -1    0    0    0    0 -0.00000000000E+00 -0.00000000000E+00 -0.64930732323E+04  0.65000000000E+04  0.30000000000E+03 0.  1.
     100001    1    1    2    0    0  0.31647250542E+03 -0.50446931477E+04 -0.40839032737E+04  0.65000000000E+04  0.15050000000E+03 0.  1.
     100001    1    1    2    0    0 -0.31647250542E+03  0.50446931477E+04  0.40839032737E+04  0.65000000000E+04  0.15050000000E+03 0. -1.
</event>
<event>
 4    1  0.4826743E-004  0.6500000E+04  0.7818608E-02  0.7223770E-01
         52   -1    0    0    0    0  0.00000000000E+00  0.00000000000E+00  0.64930732323E+04  0.65000000000E+04  0.30000000000E+03 0. -1.
        -52   -1    0    0    0    0 -0.00000000000E+00 -0.00000000000E+00 -0.64930732323E+04  0.65000000000E+04  0.30000000000E+03 0.  1.
     100001    1    1    2    0    0 -0.61695275864E+03 -0.24742223526E+02  0.64688566892E+04  0.65000000000E+04  0.15050000000E+03 0. -1.
     100001    1    1    2    0    0  0.61695275864E+03  0.24742223526E+02 -0.64688566892E+04  0.65000000000E+04  0.15050000000E+03 0.  1.
</event>
<event>
 4    1  0.4826743E-004  0.6500000E+04  0.7818608E-02  0.7223770E-01
         52   -1    0    0    0    0  0.00000000000E+00  0.00000000000E+00  0.64930732323E+04  0.65000000000E+04  0.30000000000E+03 0. -1.
        -52   -1    0    0    0    0 -0.00000000000E+00 -0.00000000000E+00 -0.64930732323E+04  0.65000000000E+04  0.30000000000E+03 0.  1.
     100001    1    1    2    0    0 -0.51425044000E+03  0.99608757988E+03  0.64008363335E+04  0.65000000000E+04  0.15050000000E+03 0. -1.
     100001    1    1    2    0    0  0.51425044000E+03 -0.99608757988E+03 -0.64008363335E+04  0.65000000000E+04  0.15050000000E+03 0.  1.
</event>
<event>
 4    1  0.4826743E-004  0.6500000E+04  0.7818608E-02  0.7223770E-01
         52   -1    0    0    0    0  0.00000000000E+00  0.00000000000E+00  0.64930732323E+04  0.65000000000E+04  0.30000000000E+03 0. -1.
        -52   -1    0    0    0    0 -0.00000000000E+00 -0.00000000000E+00 -0.64930732323E+04  0.65000000000E+04  0.30000000000E+03 0.  1.
     100001    1    1    2    0    0 -0.57303101281E+03  0.11229280323E+04  0.63747955138E+04  0.65000000000E+04  0.15050000000E+03 0. -1.
     100001    1    1    2    0    0  0.57303101281E+03 -0.11229280323E+04 -0.63747955138E+04  0.65000000000E+04  0.15050000000E+03 0.  1.
</event>
<event>
 4    1  0.4826743E-004  0.6500000E+04  0.7818608E-02  0.7223770E-01
         52   -1    0    0    0    0  0.00000000000E+00  0.00000000000E+00  0.64930732323E+04  0.65000000000E+04  0.30000000000E+03 0. -1.
        -52   -1    0    0    0    0 -0.00000000000E+00 -0.00000000000E+00 -0.64930732323E+04  0.65000000000E+04  0.30000000000E+03 0.  1.
     100001    1    1    2    0    0 -0.15137345468E+04  0.61397669817E+03 -0.62895937934E+04  0.65000000000E+04  0.15050000000E+03 0.  1.
     100001    1    1    2    0    0  0.15137345468E+04 -0.61397669817E+03  0.62895937934E+04  0.65000000000E+04  0.15050000000E+03 0. -1.
</event>
<event>
 4    1  0.4826743E-004  0.6500000E+04  0.7818608E-02  0.7223770E-01
         52   -1    0    0    0    0  0.00000000000E+00  0.00000000000E+00  0.64930732323E+04  0.65000000000E+04  0.30000000000E+03 0.  1.
        -52   -1    0    0    0    0 -0.00000000000E+00 -0.00000000000E+00 -0.64930732323E+04  0.65000000000E+04  0.30000000000E+03 0. -1.
     100001    1    1    2    0    0  0.57264068143E+03  0.13000504819E+03  0.64716714292E+04  0.65000000000E+04  0.15050000000E+03 0.  1.
     100001    1    1    2    0    0 -0.57264068143E+03 -0.13000504819E+03 -0.64716714292E+04  0.65000000000E+04  0.15050000000E+03 0. -1.
</event>
<event>
 4    1  0.4826743E-004  0.6500000E+04  0.7818608E-02  0.7223770E-01
         52   -1    0    0    0    0  0.00000000000E+00  0.00000000000E+00  0.64930732323E+04  0.65000000000E+04  0.30000000000E+03 0. -1.
        -52   -1    0    0    0    0 -0.00000000000E+00 -0.00000000000E+00 -0.64930732323E+04  0.65000000000E+04  0.30000000000E+03 0.  1.
     100001    1    1    2    0    0 -0.68843411130E+03  0.18876820702E+04  0.61798110510E+04  0.65000000000E+04  0.15050000000E+03 0. -1.
     100001    1    1    2    0    0  0.68843411130E+03 -0.18876820702E+04 -0.61798110510E+04  0.65000000000E+04  0.15050000000E+03 0.  1.
</event>
<event>
 4    1  0.4826743E-004  0.6500000E+04  0.7818608E-02  0.7223770E-01
         52   -1    0    0    0    0  0.00000000000E+00  0.00000000000E+00  0.64930732323E+04  0.65000000000E+04  0.30000000000E+03 0.  1.
        -52   -1    0    0    0    0 -0.00000000000E+00 -0.00000000000E+00 -0.64930732323E+04  0.65000000000E+04  0.30000000000E+03 0. -1.
     100001    1    1    2    0    0  0.56055909249E+04 -0.28338417164E+04  0.16655453338E+04  0.65000000000E+04  0.15050000000E+03 0. -1.
     100001    1    1    2    0    0 -0.56055909249E+04  0.28338417164E+04 -0.16655453338E+04  0.65000000000E+04  0.15050000000E+03 0.  1.
</event>
<event>
 4    1  0.4826743E-004  0.6500000E+04  0.7818608E-02  0.7223770E-01
         52   -1    0    0    0    0  0.00000000000E+00  0.00000000000E+00  0.64930732323E+04  0.65000000000E+04  0.30000000000E+03 0.  1.
        -52   -1    0    0    0    0 -0.00000000000E+00 -0.00000000000E+00 -0.64930732323E+04  0.65000000000E+04  0.30000000000E+03 0. -1.
     100001    1    1    2    0    0  0.45609199013E+04  0.33092062396E+04  0.32364353026E+04  0.65000000000E+04  0.15050000000E+03 0.  1.
     100001    1    1    2    0    0 -0.45609199013E+04 -0.33092062396E+04 -0.32364353026E+04  0.65000000000E+04  0.15050000000E+03 0. -1.
</event>
<event>
 4    1  0.4826743E-004  0.6500000E+04  0.7818608E-02  0.7223770E-01
         52   -1    0    0    0    0  0.00000000000E+00  0.00000000000E+00  0.64930732323E+04  0.65000000000E+04  0.30000000000E+03 0.  1.
        -52   -1    0    0    0    0 -0.00000000000E+00 -0.00000000000E+00 -0.64930732323E+04  0.65000000000E+04  0.30000000000E+03 0. -1.
     100001    1    1    2    0    0 -0.28461469429E+04 -0.31344899412E+04 -0.49296825596E+04  0.65000000000E+04  0.15050000000E+03 0. -1.
     100001    1    1    2    0    0  0.28461469429E+04  0.31344899412E+04  0.49296825596E+04  0.65000000000E+04  0.15050000000E+03 0.  1.
</event>
<event>
 4    1  0.4826743E-004  0.6500000E+04  0.7818608E-02  0.7223770E-01
         52   -1    0    0    0    0  0.00000000000E+00  0.00000000000E+00  0.64930732323E+04  0.65000000000E+04  0.30000000000E+03 0.  1.
        -52   -1    0    0    0    0 -0.00000000000E+00 -0.00000000000E+00 -0.64930732323E+04  0.65000000000E+04  0.30000000000E+03 0.  1.
     100001    1    1    2    0    0 -0.15390137217E+03 -0.63736678710E+02  0.64961220550E+04  0.65000000000E+04  0.15050000000E+03 0.  1.
     100001    1    1    2    0    0  0.15390137217E+03  0.63736678710E+02 -0.64961220550E+04  0.65000000000E+04  0.15050000000E+03 0.  1.
</event>
<event>
 4    1  0.4826743E-004  0.6500000E+04  0.7818608E-02  0.7223770E-01
         52   -1    0    0    0    0  0.00000000000E+00  0.00000000000E+00  0.64930732323E+04  0.65000000000E+04  0.30000000000E+03 0.  1.
        -52   -1    0    0    0    0 -0.00000000000E+00 -0.00000000000E+00 -0.64930732323E+04  0.65000000000E+04  0.30000000000E+03 0.  1.
     100001    1    1    2    0    0 -0.35255801439E+03  0.48940969669E+02 -0.64885019363E+04  0.65000000000E+04  0.15050000000E+03 0.  1.
     100001    1    1    2    0    0  0.35255801439E+03 -0.48940969669E+02  0.64885019363E+04  0.65000000000E+04  0.15050000000E+03 0.  1.
</event>
<event>
 4    1  0.4826743E-004  0.6500000E+04  0.7818608E-02  0.7223770E-01
         52   -1    0    0    0    0  0.00000000000E+00  0.00000000000E+00  0.64930732323E+04  0.65000000000E+04  0.30000000000E+03 0. -1.
        -52   -1    0    0    0    0 -0.00000000000E+00 -0.00000000000E+00 -0.64930732323E+04  0.65000000000E+04  0.30000000000E+03 0.  1.
     100001    1    1    2    0    0 -0.12444402102E+04  0.53267741561E+04  0.35077336562E+04  0.65000000000E+04  0.15050000000E+03 0. -1.
     100001    1    1    2    0    0  0.12444402102E+04 -0.53267741561E+04 -0.35077336562E+04  0.65000000000E+04  0.15050000000E+03 0.  1.
</event>
<event>
 4    1  0.4826743E-004  0.6500000E+04  0.7818608E-02  0.7223770E-01
         52   -1    0    0    0    0  0.00000000000E+00  0.00000000000E+00  0.64930732323E+04  0.65000000000E+04  0.30000000000E+03 0.  1.
        -52   -1    0    0    0    0 -0.00000000000E+00 -0.00000000000E+00 -0.64930732323E+04  0.65000000000E+04  0.30000000000E+03 0. -1.
     100001    1    1    2    0    0  0.19009150824E+04 -0.33956950180E+03 -0.62047211181E+04  0.65000000000E+04  0.15050000000E+03 0. -1.
     100001    1    1    2    0    0 -0.19009150824E+04  0.33956950180E+03  0.62047211181E+04  0.65000000000E+04  0.15050000000E+03 0.  1.
</event>
<event>
 4    1  0.4826743E-004  0.6500000E+04  0.7818608E-02  0.7223770E-01
         52   -1    0    0    0    0  0.00000000000E+00  0.00000000000E+00  0.64930732323E+04  0.65000000000E+04  0.30000000000E+03 0.  1.
        -52   -1    0    0    0    0 -0.00000000000E+00 -0.00000000000E+00 -0.64930732323E+04  0.65000000000E+04  0.30000000000E+03 0.  1.
     100001    1    1    2    0    0 -0.14936322291E+02  0.27706961863E+02 -0.64981812056E+04  0.65000000000E+04  0.15050000000E+03 0.  1.
     100001    1    1    2    0    0  0.14936322291E+02 -0.27706961863E+02  0.64981812056E+04  0.65000000000E+04  0.15050000000E+03 0.  1.
</event>
<event>
 4    1  0.4826743E-004  0.6500000E+04  0.7818608E-02  0.7223770E-01
         52   -1    0    0    0    0  0.00000000000E+00  0.00000000000E+00  0.64930732323E+04  0.65000000000E+04  0.30000000000E+03 0.  1.
        -52   -1    0    0    0    0 -0.00000000000E+00 -0.00000000000E+00 -0.64930732323E+04  0.65000000000E+04  0.30000000000E+03 0. -1.
     100001    1    1    2    0    0 -0.21859070493E+04  0.33688802374E+02  0.61194791597E+04  0.65000000000E+04  0.15050000000E+03 0.  1.
     100001    1    1    2    0    0  0.21859070493E+04 -0.33688802374E+02 -0.61194791597E+04  0.65000000000E+04  0.15050000000E+03 0. -1.
</event>
<event>
 4    1  0.4826743E-004  0.6500000E+04  0.7818608E-02  0.7223770E-01
         52   -1    0    0    0    0  0.00000000000E+00  0.00000000000E+00  0.64930732323E+04  0.65000000000E+04  0.30000000000E+03 0. -1.
        -52   -1    0    0    0    0 -0.00000000000E+00 -0.00000000000E+00 -0.64930732323E+04  0.65000000000E+04  0.30000000000E+03 0. -1.
     100001    1    1    2    0    0  0.22831897467E+03 -0.20921089931E+03  0.64908744400E+04  0.65000000000E+04  0.15050000000E+03 0. -1.
     100001    1    1    2    0    0 -0.22831897467E+03  0.20921089931E+03 -0.64908744400E+04  0.65000000000E+04  0.15050000000E+03 0. -1.
</event>
<event>
 4    1  0.4826743E-004  0.6500000E+04  0.7818608E-02  0.7223770E-01
         52   -1    0    0    0    0  0.00000000000E+00  0.00000000000E+00  0.64930732323E+04  0.65000000000E+04  0.30000000000E+03 0. -1.
        -52   -1    0    0    0    0 -0.00000000000E+00 -0.00000000000E+00 -0.64930732323E+04  0.65000000000E+04  0.30000000000E+03 0. -1.
     100001    1    1    2    0    0 -0.43051741588E+03 -0.29324621200E+03  0.64773459969E+04  0.65000000000E+04  0.15050000000E+03 0. -1.
     100001    1    1    2    0    0  0.43051741588E+03  0.29324621200E+03 -0.64773459969E+04  0.65000000000E+04  0.15050000000E+03 0. -1.
</event>
<event>
 4    1  0.4826743E-004  0.6500000E+04  0.7818608E-02  0.7223770E-01
         52   -1    0    0    0    0  0.00000000000E+00  0.00000000000E+00  0.64930732323E+04  0.65000000000E+04  0.30000000000E+03 0.  1.
        -52   -1    0    0    0    0 -0.00000000000E+00 -0.00000000000E+00 -0.64930732323E+04  0.65000000000E+04  0.30000000000E+03 0. -1.
     100001    1    1    2    0    0  0.20384749033E+04 -0.79970732445E+02 -0.61697305047E+04  0.65000000000E+04  0.15050000000E+03 0. -1.
     100001    1    1    2    0    0 -0.20384749033E+04  0.79970732445E+02  0.61697305047E+04  0.65000000000E+04  0.15050000000E+03 0.  1.
</event>
<event>
 4    1  0.4826743E-004  0.6500000E+04  0.7818608E-02  0.7223770E-01
         52   -1    0    0    0    0  0.00000000000E+00  0.00000000000E+00  0.64930732323E+04  0.65000000000E+04  0.30000000000E+03 0.  1.
        -52   -1    0    0    0    0 -0.00000000000E+00 -0.00000000000E+00 -0.64930732323E+04  0.65000000000E+04  0.30000000000E+03 0. -1.
     100001    1    1    2    0    0  0.14964300975E+04  0.84641853005E+03  0.62667074597E+04  0.65000000000E+04  0.15050000000E+03 0.  1.
     100001    1    1    2    0    0 -0.14964300975E+04 -0.84641853005E+03 -0.62667074597E+04  0.65000000000E+04  0.15050000000E+03 0. -1.
</event>
<event>
 4    1  0.4826743E-004  0.6500000E+04  0.7818608E-02  0.7223770E-01
         52   -1    0    0    0    0  0.00000000000E+00  0.00000000000E+00  0.64930732323E+04  0.65000000000E+04  0.30000000000E+03 0. -1.
        -52   -1    0    0    0    0 -0.00000000000E+00 -0.00000000000E+00 -0.64930732323E+04  0.65000000000E+04  0.30000000000E+03 0.  1.
     100001    1    1    2    0    0  0.25556612109E+04  0.56508344274E+04 -0.19401071619E+04  0.65000000000E+04  0.15050000000E+03 0. -1.
     100001    1    1    2    0    0 -0.25556612109E+04 -0.56508344274E+04  0.19401071619E+04  0.65000000000E+04  0.15050000000E+03 0.  1.
</event>
<event>
 4    1  0.4826743E-004  0.6500000E+04  0.7818608E-02  0.7223770E-01
         52   -1    0    0    0    0  0.00000000000E+00  0.00000000000E+00  0.64930732323E+04  0.65000000000E+04  0.30000000000E+03 0. -1.
        -52   -1    0    0    0    0 -0.00000000000E+00 -0.00000000000E+00 -0.64930732323E+04  0.65000000000E+04  0.30000000000E+03 0.  1.
     100001    1    1    2    0    0 -0.31209441474E+03 -0.78005435866E+02 -0.64902898224E+04  0.65000000000E+04  0.15050000000E+03 0.  1.
     100001    1    1    2    0    0  0.31209441474E+03  0.78005435866E+02  0.64902898224E+04  0.65000000000E+04  0.15050000000E+03 0. -1.
</event>
<event>
 4    1  0.4826743E-004  0.6500000E+04  0.7818608E-02  0.7223770E-01
         52   -1    0    0    0    0  0.00000000000E+00  0.00000000000E+00  0.64930732323E+04  0.65000000000E+04  0.30000000000E+03 0. -1.
        -52   -1    0    0    0    0 -0.00000000000E+00 -0.00000000000E+00 -0.64930732323E+04  0.65000000000E+04  0.30000000000E+03 0. -1.
     100001    1    1    2    0    0 -0.41148061026E+01  0.34209005262E+02 -0.64981660922E+04  0.65000000000E+04  0.15050000000E+03 0. -1.
     100001    1    1    2    0    0  0.41148061026E+01 -0.34209005262E+02  0.64981660922E+04  0.65000000000E+04  0.15050000000E+03 0. -1.
</event>
<event>
 4    1  0.4826743E-004  0.6500000E+04  0.7818608E-02  0.7223770E-01
         52   -1    0    0    0    0  0.00000000000E+00  0.00000000000E+00  0.64930732323E+04  0.65000000000E+04  0.30000000000E+03 0.  1.
        -52   -1    0    0    0    0 -0.00000000000E+00 -0.00000000000E+00 -0.64930732323E+04  0.65000000000E+04  0.30000000000E+03 0.  1.
     100001    1    1    2    0    0 -0.39959436358E+03 -0.60255135323E+03  0.64579103401E+04  0.65000000000E+04  0.15050000000E+03 0.  1.
     100001    1    1    2    0    0  0.39959436358E+03  0.60255135323E+03 -0.64579103401E+04  0.65000000000E+04  0.15050000000E+03 0.  1.
</event>
<event>
 4    1  0.4826743E-004  0.6500000E+04  0.7818608E-02  0.7223770E-01
         52   -1    0    0    0    0  0.00000000000E+00  0.00000000000E+00  0.64930732323E+04  0.65000000000E+04  0.30000000000E+03 0. -1.
        -52   -1    0    0    0    0 -0.00000000000E+00 -0.00000000000E+00 -0.64930732323E+04  0.65000000000E+04  0.30000000000E+03 0.  1.
     100001    1    1    2    0    0 -0.36962083237E+03  0.24719798180E+03  0.64830257865E+04  0.65000000000E+04  0.15050000000E+03 0. -1.
     100001    1    1    2    0    0  0.36962083237E+03 -0.24719798180E+03 -0.64830257865E+04  0.65000000000E+04  0.15050000000E+03 0.  1.
</event>
<event>
 4    1  0.4826743E-004  0.6500000E+04  0.7818608E-02  0.7223770E-01
         52   -1    0    0    0    0  0.00000000000E+00  0.00000000000E+00  0.64930732323E+04  0.65000000000E+04  0.30000000000E+03 0. -1.
        -52   -1    0    0    0    0 -0.00000000000E+00 -0.00000000000E+00 -0.64930732323E+04  0.65000000000E+04  0.30000000000E+03 0.  1.
     100001    1    1    2    0    0  0.45758343651E+03 -0.41369573822E+03  0.64689120403E+04  0.65000000000E+04  0.15050000000E+03 0. -1.
     100001    1    1    2    0    0 -0.45758343651E+03  0.41369573822E+03 -0.64689120403E+04  0.65000000000E+04  0.15050000000E+03 0.  1.
</event>
<event>
 4    1  0.4826743E-004  0.6500000E+04  0.7818608E-02  0.7223770E-01
         52   -1    0    0    0    0  0.00000000000E+00  0.00000000000E+00  0.64930732323E+04  0.65000000000E+04  0.30000000000E+03 0. -1.
        -52   -1    0    0    0    0 -0.00000000000E+00 -0.00000000000E+00 -0.64930732323E+04  0.65000000000E+04  0.30000000000E+03 0. -1.
     100001    1    1    2    0    0  0.26617211244E+03 -0.39009803862E+03 -0.64810744230E+04  0.65000000000E+04  0.15050000000E+03 0. -1.
     100001    1    1    2    0    0 -0.26617211244E+03  0.39009803862E+03  0.64810744230E+04  0.65000000000E+04  0.15050000000E+03 0. -1.
</event>
<event>
 4    1  0.4826743E-004  0.6500000E+04  0.7818608E-02  0.7223770E-01
         52   -1    0    0    0    0  0.00000000000E+00  0.00000000000E+00  0.64930732323E+04  0.65000000000E+04  0.30000000000E+03 0.  1.
        -52   -1    0    0    0    0 -0.00000000000E+00 -0.00000000000E+00 -0.64930732323E+04  0.65000000000E+04  0.30000000000E+03 0. -1.
     100001    1    1    2    0    0 -0.36002358432E+03  0.39642211502E+03 -0.64761548990E+04  0.65000000000E+04  0.15050000000E+03 0. -1.
     100001    1    1    2    0    0  0.36002358432E+03 -0.39642211502E+03  0.64761548990E+04  0.65000000000E+04  0.15050000000E+03 0.  1.
</event>
<event>
 4    1  0.4826743E-004  0.6500000E+04  0.7818608E-02  0.7223770E-01
         52   -1    0    0    0    0  0.00000000000E+00  0.00000000000E+00  0.64930732323E+04  0.65000000000E+04  0.30000000000E+03 0. -1.
        -52   -1    0    0    0    0 -0.00000000000E+00 -0.00000000000E+00 -0.64930732323E+04  0.65000000000E+04  0.30000000000E+03 0.  1.
     100001    1    1    2    0    0 -0.17574960597E+03 -0.29143490775E+03  0.64893395288E+04  0.65000000000E+04  0.15050000000E+03 0. -1.
     100001    1    1    2    0    0  0.17574960597E+03  0.29143490775E+03 -0.64893395288E+04  0.65000000000E+04  0.15050000000E+03 0.  1.
</event>
<event>
 4    1  0.4826743E-004  0.6500000E+04  0.7818608E-02  0.7223770E-01
         52   -1    0    0    0    0  0.00000000000E+00  0.00000000000E+00  0.64930732323E+04  0.65000000000E+04  0.30000000000E+03 0.  1.
        -52   -1    0    0    0    0 -0.00000000000E+00 -0.00000000000E+00 -0.64930732323E+04  0.65000000000E+04  0.30000000000E+03 0. -1.
     100001    1    1    2    0    0  0.36512498361E+04 -0.52964699769E+04  0.91822119795E+03  0.65000000000E+04  0.15050000000E+03 0. -1.
     100001    1    1    2    0    0 -0.36512498361E+04  0.52964699769E+04 -0.91822119795E+03  0.65000000000E+04  0.15050000000E+03 0.  1.
</event>
<event>
 4    1  0.4826743E-004  0.6500000E+04  0.7818608E-02  0.7223770E-01
         52   -1    0    0    0    0  0.00000000000E+00  0.00000000000E+00  0.64930732323E+04  0.65000000000E+04  0.30000000000E+03 0. -1.
        -52   -1    0    0    0    0 -0.00000000000E+00 -0.00000000000E+00 -0.64930732323E+04  0.65000000000E+04  0.30000000000E+03 0. -1.
     100001    1    1    2    0    0 -0.45226485503E+03 -0.24514023185E+03  0.64778632679E+04  0.65000000000E+04  0.15050000000E+03 0. -1.
     100001    1    1    2    0    0  0.45226485503E+03  0.24514023185E+03 -0.64778632679E+04  0.65000000000E+04  0.15050000000E+03 0. -1.
</event>
<event>
 4    1  0.4826743E-004  0.6500000E+04  0.7818608E-02  0.7223770E-01
         52   -1    0    0    0    0  0.00000000000E+00  0.00000000000E+00  0.64930732323E+04  0.65000000000E+04  0.30000000000E+03 0. -1.
        -52   -1    0    0    0    0 -0.00000000000E+00 -0.00000000000E+00 -0.64930732323E+04  0.65000000000E+04  0.30000000000E+03 0.  1.
     100001    1    1    2    0    0  0.56195984400E+03 -0.15505528971E+03  0.64720559902E+04  0.65000000000E+04  0.15050000000E+03 0. -1.
     100001    1    1    2    0    0 -0.56195984400E+03  0.15505528971E+03 -0.64720559902E+04  0.65000000000E+04  0.15050000000E+03 0.  1.
</event>
<event>
 4    1  0.4826743E-004  0.6500000E+04  0.7818608E-02  0.7223770E-01
         52   -1    0    0    0    0  0.00000000000E+00  0.00000000000E+00  0.64930732323E+04  0.65000000000E+04  0.30000000000E+03 0. -1.
        -52   -1    0    0    0    0 -0.00000000000E+00 -0.00000000000E+00 -0.64930732323E+04  0.65000000000E+04  0.30000000000E+03 0.  1.
     100001    1    1    2    0    0  0.26691438779E+04 -0.22515621135E+04 -0.54802818138E+04  0.65000000000E+04  0.15050000000E+03 0.  1.
     100001    1    1    2    0    0 -0.26691438779E+04  0.22515621135E+04  0.54802818138E+04  0.65000000000E+04  0.15050000000E+03 0. -1.
</event>
<event>
 4    1  0.4826743E-004  0.6500000E+04  0.7818608E-02  0.7223770E-01
         52   -1    0    0    0    0  0.00000000000E+00  0.00000000000E+00  0.64930732323E+04  0.65000000000E+04  0.30000000000E+03 0. -1.
        -52   -1    0    0    0    0 -0.00000000000E+00 -0.00000000000E+00 -0.64930732323E+04  0.65000000000E+04  0.30000000000E+03 0.  1.
     100001    1    1    2    0    0 -0.78267837665E+03 -0.58810728535E+04 -0.26509897020E+04  0.65000000000E+04  0.15050000000E+03 0.  1.
     100001    1    1    2    0    0  0.78267837665E+03  0.58810728535E+04  0.26509897020E+04  0.65000000000E+04  0.15050000000E+03 0. -1.
</event>
<event>
 4    1  0.4826743E-004  0.6500000E+04  0.7818608E-02  0.7223770E-01
         52   -1    0    0    0    0  0.00000000000E+00  0.00000000000E+00  0.64930732323E+04  0.65000000000E+04  0.30000000000E+03 0.  1.
        -52   -1    0    0    0    0 -0.00000000000E+00 -0.00000000000E+00 -0.64930732323E+04  0.65000000000E+04  0.30000000000E+03 0. -1.
     100001    1    1    2    0    0 -0.25958625607E+04 -0.32160889503E+04  0.50145407746E+04  0.65000000000E+04  0.15050000000E+03 0.  1.
     100001    1    1    2    0    0  0.25958625607E+04  0.32160889503E+04 -0.50145407746E+04  0.65000000000E+04  0.15050000000E+03 0. -1.
</event>
<event>
 4    1  0.4826743E-004  0.6500000E+04  0.7818608E-02  0.7223770E-01
         52   -1    0    0    0    0  0.00000000000E+00  0.00000000000E+00  0.64930732323E+04  0.65000000000E+04  0.30000000000E+03 0. -1.
        -52   -1    0    0    0    0 -0.00000000000E+00 -0.00000000000E+00 -0.64930732323E+04  0.65000000000E+04  0.30000000000E+03 0.  1.
     100001    1    1    2    0    0  0.82358140261E+03 -0.19221238965E+03 -0.64429898200E+04  0.65000000000E+04  0.15050000000E+03 0.  1.
     100001    1    1    2    0    0 -0.82358140261E+03  0.19221238965E+03  0.64429898200E+04  0.65000000000E+04  0.15050000000E+03 0. -1.
</event>
<event>
 4    1  0.4826743E-004  0.6500000E+04  0.7818608E-02  0.7223770E-01
         52   -1    0    0    0    0  0.00000000000E+00  0.00000000000E+00  0.64930732323E+04  0.65000000000E+04  0.30000000000E+03 0. -1.
        -52   -1    0    0    0    0 -0.00000000000E+00 -0.00000000000E+00 -0.64930732323E+04  0.65000000000E+04  0.30000000000E+03 0. -1.
     100001    1    1    2    0    0  0.26125891647E+03 -0.31148625649E+02  0.64929287145E+04  0.65000000000E+04  0.15050000000E+03 0. -1.
     100001    1    1    2    0    0 -0.26125891647E+03  0.31148625649E+02 -0.64929287145E+04  0.65000000000E+04  0.15050000000E+03 0. -1.
</event>
<event>
 4    1  0.4826743E-004  0.6500000E+04  0.7818608E-02  0.7223770E-01
         52   -1    0    0    0    0  0.00000000000E+00  0.00000000000E+00  0.64930732323E+04  0.65000000000E+04  0.30000000000E+03 0. -1.
        -52   -1    0    0    0    0 -0.00000000000E+00 -0.00000000000E+00 -0.64930732323E+04  0.65000000000E+04  0.30000000000E+03 0. -1.
     100001    1    1    2    0    0 -0.74492846118E+03  0.13603617207E+02  0.64554044241E+04  0.65000000000E+04  0.15050000000E+03 0. -1.
     100001    1    1    2    0    0  0.74492846118E+03 -0.13603617207E+02 -0.64554044241E+04  0.65000000000E+04  0.15050000000E+03 0. -1.
</event>
<event>
 4    1  0.4826743E-004  0.6500000E+04  0.7818608E-02  0.7223770E-01
         52   -1    0    0    0    0  0.00000000000E+00  0.00000000000E+00  0.64930732323E+04  0.65000000000E+04  0.30000000000E+03 0. -1.
        -52   -1    0    0    0    0 -0.00000000000E+00 -0.00000000000E+00 -0.64930732323E+04  0.65000000000E+04  0.30000000000E+03 0.  1.
     100001    1    1    2    0    0 -0.47762530785E+04 -0.95624343481E+03  0.43012038749E+04  0.65000000000E+04  0.15050000000E+03 0. -1.
     100001    1    1    2    0    0  0.47762530785E+04  0.95624343481E+03 -0.43012038749E+04  0.65000000000E+04  0.15050000000E+03 0.  1.
</event>
<event>
 4    1  0.4826743E-004  0.6500000E+04  0.7818608E-02  0.7223770E-01
         52   -1    0    0    0    0  0.00000000000E+00  0.00000000000E+00  0.64930732323E+04  0.65000000000E+04  0.30000000000E+03 0.  1.
        -52   -1    0    0    0    0 -0.00000000000E+00 -0.00000000000E+00 -0.64930732323E+04  0.65000000000E+04  0.30000000000E+03 0. -1.
     100001    1    1    2    0    0  0.20780121080E+04  0.99204165447E+03  0.60766001008E+04  0.65000000000E+04  0.15050000000E+03 0.  1.
     100001    1    1    2    0    0 -0.20780121080E+04 -0.99204165447E+03 -0.60766001008E+04  0.65000000000E+04  0.15050000000E+03 0. -1.
</event>
<event>
 4    1  0.4826743E-004  0.6500000E+04  0.7818608E-02  0.7223770E-01
         52   -1    0    0    0    0  0.00000000000E+00  0.00000000000E+00  0.64930732323E+04  0.65000000000E+04  0.30000000000E+03 0. -1.
        -52   -1    0    0    0    0 -0.00000000000E+00 -0.00000000000E+00 -0.64930732323E+04  0.65000000000E+04  0.30000000000E+03 0. -1.
     100001    1    1    2    0    0  0.18224520345E+02  0.94845314170E+03 -0.64286432670E+04  0.65000000000E+04  0.15050000000E+03 0. -1.
     100001    1    1    2    0    0 -0.18224520345E+02 -0.94845314170E+03  0.64286432670E+04  0.65000000000E+04  0.15050000000E+03 0. -1.
</event>
<event>
 4    1  0.4826743E-004  0.6500000E+04  0.7818608E-02  0.7223770E-01
         52   -1    0    0    0    0  0.00000000000E+00  0.00000000000E+00  0.64930732323E+04  0.65000000000E+04  0.30000000000E+03 0.  1.
        -52   -1    0    0    0    0 -0.00000000000E+00 -0.00000000000E+00 -0.64930732323E+04  0.65000000000E+04  0.30000000000E+03 0.  1.
     100001    1    1    2    0    0 -0.17784436655E+03  0.25688493313E+03  0.64907419655E+04  0.65000000000E+04  0.15050000000E+03 0.  1.
     100001    1    1    2    0    0  0.17784436655E+03 -0.25688493313E+03 -0.64907419655E+04  0.65000000000E+04  0.15050000000E+03 0.  1.
</event>
<event>
 4    1  0.4826743E-004  0.6500000E+04  0.7818608E-02  0.7223770E-01
         52   -1    0    0    0    0  0.00000000000E+00  0.00000000000E+00  0.64930732323E+04  0.65000000000E+04  0.30000000000E+03 0.  1.
        -52   -1    0    0    0    0 -0.00000000000E+00 -0.00000000000E+00 -0.64930732323E+04  0.65000000000E+04  0.30000000000E+03 0. -1.
     100001    1    1    2    0    0  0.58727795748E+04  0.23837852039E+04  0.14336589265E+04  0.65000000000E+04  0.15050000000E+03 0. -1.
     100001    1    1    2    0    0 -0.58727795748E+04 -0.23837852039E+04 -0.14336589265E+04  0.65000000000E+04  0.15050000000E+03 0.  1.
</event>
<event>
 4    1  0.4826743E-004  0.6500000E+04  0.7818608E-02  0.7223770E-01
         52   -1    0    0    0    0  0.00000000000E+00  0.00000000000E+00  0.64930732323E+04  0.65000000000E+04  0.30000000000E+03 0. -1.
        -52   -1    0    0    0    0 -0.00000000000E+00 -0.00000000000E+00 -0.64930732323E+04  0.65000000000E+04  0.30000000000E+03 0. -1.
     100001    1    1    2    0    0  0.26299513773E+03  0.43972754805E+02 -0.64927844338E+04  0.65000000000E+04  0.15050000000E+03 0. -1.
     100001    1    1    2    0    0 -0.26299513773E+03 -0.43972754805E+02  0.64927844338E+04  0.65000000000E+04  0.15050000000E+03 0. -1.
</event>
<event>
 4    1  0.4826743E-004  0.6500000E+04  0.7818608E-02  0.7223770E-01
         52   -1    0    0    0    0  0.00000000000E+00  0.00000000000E+00  0.64930732323E+04  0.65000000000E+04  0.30000000000E+03 0. -1.
        -52   -1    0    0    0    0 -0.00000000000E+00 -0.00000000000E+00 -0.64930732323E+04  0.65000000000E+04  0.30000000000E+03 0.  1.
     100001    1    1    2    0    0  0.17110711033E+04 -0.52950872272E+04 -0.33558362125E+04  0.65000000000E+04  0.15050000000E+03 0.  1.
     100001    1    1    2    0    0 -0.17110711033E+04  0.52950872272E+04  0.33558362125E+04  0.65000000000E+04  0.15050000000E+03 0. -1.
</event>
<event>
 4    1  0.4826743E-004  0.6500000E+04  0.7818608E-02  0.7223770E-01
         52   -1    0    0    0    0  0.00000000000E+00  0.00000000000E+00  0.64930732323E+04  0.65000000000E+04  0.30000000000E+03 0. -1.
        -52   -1    0    0    0    0 -0.00000000000E+00 -0.00000000000E+00 -0.64930732323E+04  0.65000000000E+04  0.30000000000E+03 0.  1.
     100001    1    1    2    0    0  0.28812326109E+03 -0.33563648296E+03  0.64831846255E+04  0.65000000000E+04  0.15050000000E+03 0. -1.
     100001    1    1    2    0    0 -0.28812326109E+03  0.33563648296E+03 -0.64831846255E+04  0.65000000000E+04  0.15050000000E+03 0.  1.
</event>
<event>
 4    1  0.4826743E-004  0.6500000E+04  0.7818608E-02  0.7223770E-01
         52   -1    0    0    0    0  0.00000000000E+00  0.00000000000E+00  0.64930732323E+04  0.65000000000E+04  0.30000000000E+03 0. -1.
        -52   -1    0    0    0    0 -0.00000000000E+00 -0.00000000000E+00 -0.64930732323E+04  0.65000000000E+04  0.30000000000E+03 0.  1.
     100001    1    1    2    0    0  0.70594743866E+02 -0.12404374490E+04 -0.63783760525E+04  0.65000000000E+04  0.15050000000E+03 0.  1.
     100001    1    1    2    0    0 -0.70594743866E+02  0.12404374490E+04  0.63783760525E+04  0.65000000000E+04  0.15050000000E+03 0. -1.
</event>
<event>
 4    1  0.4826743E-004  0.6500000E+04  0.7818608E-02  0.7223770E-01
         52   -1    0    0    0    0  0.00000000000E+00  0.00000000000E+00  0.64930732323E+04  0.65000000000E+04  0.30000000000E+03 0.  1.
        -52   -1    0    0    0    0 -0.00000000000E+00 -0.00000000000E+00 -0.64930732323E+04  0.65000000000E+04  0.30000000000E+03 0. -1.
     100001    1    1    2    0    0  0.68127616440E+03  0.43695016129E+03 -0.64476574889E+04  0.65000000000E+04  0.15050000000E+03 0. -1.
     100001    1    1    2    0    0 -0.68127616440E+03 -0.43695016129E+03  0.64476574889E+04  0.65000000000E+04  0.15050000000E+03 0.  1.
</event>
<event>
 4    1  0.4826743E-004  0.6500000E+04  0.7818608E-02  0.7223770E-01
         52   -1    0    0    0    0  0.00000000000E+00  0.00000000000E+00  0.64930732323E+04  0.65000000000E+04  0.30000000000E+03 0.  1.
        -52   -1    0    0    0    0 -0.00000000000E+00 -0.00000000000E+00 -0.64930732323E+04  0.65000000000E+04  0.30000000000E+03 0. -1.
     100001    1    1    2    0    0 -0.39434330431E+03 -0.21215573213E+04  0.61295054972E+04  0.65000000000E+04  0.15050000000E+03 0.  1.
     100001    1    1    2    0    0  0.39434330431E+03  0.21215573213E+04 -0.61295054972E+04  0.65000000000E+04  0.15050000000E+03 0. -1.
</event>
<event>
 4    1  0.4826743E-004  0.6500000E+04  0.7818608E-02  0.7223770E-01
         52   -1    0    0    0    0  0.00000000000E+00  0.00000000000E+00  0.64930732323E+04  0.65000000000E+04  0.30000000000E+03 0. -1.
        -52   -1    0    0    0    0 -0.00000000000E+00 -0.00000000000E+00 -0.64930732323E+04  0.65000000000E+04  0.30000000000E+03 0.  1.
     100001    1    1    2    0    0 -0.99542339665E+03  0.14729678473E+04 -0.62503478089E+04  0.65000000000E+04  0.15050000000E+03 0.  1.
     100001    1    1    2    0    0  0.99542339665E+03 -0.14729678473E+04  0.62503478089E+04  0.65000000000E+04  0.15050000000E+03 0. -1.
</event>
<event>
 4    1  0.4826743E-004  0.6500000E+04  0.7818608E-02  0.7223770E-01
         52   -1    0    0    0    0  0.00000000000E+00  0.00000000000E+00  0.64930732323E+04  0.65000000000E+04  0.30000000000E+03 0. -1.
        -52   -1    0    0    0    0 -0.00000000000E+00 -0.00000000000E+00 -0.64930732323E+04  0.65000000000E+04  0.30000000000E+03 0.  1.
     100001    1    1    2    0    0  0.13229407890E+04  0.44900444839E+04  0.45074025725E+04  0.65000000000E+04  0.15050000000E+03 0. -1.
     100001    1    1    2    0    0 -0.13229407890E+04 -0.44900444839E+04 -0.45074025725E+04  0.65000000000E+04  0.15050000000E+03 0.  1.
</event>
<event>
 4    1  0.4826743E-004  0.6500000E+04  0.7818608E-02  0.7223770E-01
         52   -1    0    0    0    0  0.00000000000E+00  0.00000000000E+00  0.64930732323E+04  0.65000000000E+04  0.30000000000E+03 0.  1.
        -52   -1    0    0    0    0 -0.00000000000E+00 -0.00000000000E+00 -0.64930732323E+04  0.65000000000E+04  0.30000000000E+03 0. -1.
     100001    1    1    2    0    0 -0.11344819323E+04 -0.26985303740E+04 -0.58015717108E+04  0.65000000000E+04  0.15050000000E+03 0. -1.
     100001    1    1    2    0    0  0.11344819323E+04  0.26985303740E+04  0.58015717108E+04  0.65000000000E+04  0.15050000000E+03 0.  1.
</event>
<event>
 4    1  0.4826743E-004  0.6500000E+04  0.7818608E-02  0.7223770E-01
         52   -1    0    0    0    0  0.00000000000E+00  0.00000000000E+00  0.64930732323E+04  0.65000000000E+04  0.30000000000E+03 0.  1.
        -52   -1    0    0    0    0 -0.00000000000E+00 -0.00000000000E+00 -0.64930732323E+04  0.65000000000E+04  0.30000000000E+03 0. -1.
     100001    1    1    2    0    0 -0.68052702139E+03  0.17183129827E+03  0.64602404544E+04  0.65000000000E+04  0.15050000000E+03 0.  1.
     100001    1    1    2    0    0  0.68052702139E+03 -0.17183129827E+03 -0.64602404544E+04  0.65000000000E+04  0.15050000000E+03 0. -1.
</event>
<event>
 4    1  0.4826743E-004  0.6500000E+04  0.7818608E-02  0.7223770E-01
         52   -1    0    0    0    0  0.00000000000E+00  0.00000000000E+00  0.64930732323E+04  0.65000000000E+04  0.30000000000E+03 0.  1.
        -52   -1    0    0    0    0 -0.00000000000E+00 -0.00000000000E+00 -0.64930732323E+04  0.65000000000E+04  0.30000000000E+03 0. -1.
     100001    1    1    2    0    0  0.43602791859E+04 -0.24510518375E+04 -0.41482116702E+04  0.65000000000E+04  0.15050000000E+03 0. -1.
     100001    1    1    2    0    0 -0.43602791859E+04  0.24510518375E+04  0.41482116702E+04  0.65000000000E+04  0.15050000000E+03 0.  1.
</event>
<event>
 4    1  0.4826743E-004  0.6500000E+04  0.7818608E-02  0.7223770E-01
         52   -1    0    0    0    0  0.00000000000E+00  0.00000000000E+00  0.64930732323E+04  0.65000000000E+04  0.30000000000E+03 0. -1.
        -52   -1    0    0    0    0 -0.00000000000E+00 -0.00000000000E+00 -0.64930732323E+04  0.65000000000E+04  0.30000000000E+03 0.  1.
     100001    1    1    2    0    0  0.26732316253E+03 -0.63759222900E+03 -0.64613747938E+04  0.65000000000E+04  0.15050000000E+03 0.  1.
     100001    1    1    2    0    0 -0.26732316253E+03  0.63759222900E+03  0.64613747938E+04  0.65000000000E+04  0.15050000000E+03 0. -1.
</event>
<event>
 4    1  0.4826743E-004  0.6500000E+04  0.7818608E-02  0.7223770E-01
         52   -1    0    0    0    0  0.00000000000E+00  0.00000000000E+00  0.64930732323E+04  0.65000000000E+04  0.30000000000E+03 0.  1.
        -52   -1    0    0    0    0 -0.00000000000E+00 -0.00000000000E+00 -0.64930732323E+04  0.65000000000E+04  0.30000000000E+03 0.  1.
     100001    1    1    2    0    0  0.37908653580E+03 -0.25503877335E+03  0.64821754352E+04  0.65000000000E+04  0.15050000000E+03 0.  1.
     100001    1    1    2    0    0 -0.37908653580E+03  0.25503877335E+03 -0.64821754352E+04  0.65000000000E+04  0.15050000000E+03 0.  1.
</event>
<event>
 4    1  0.4826743E-004  0.6500000E+04  0.7818608E-02  0.7223770E-01
         52   -1    0    0    0    0  0.00000000000E+00  0.00000000000E+00  0.64930732323E+04  0.65000000000E+04  0.30000000000E+03 0. -1.
        -52   -1    0    0    0    0 -0.00000000000E+00 -0.00000000000E+00 -0.64930732323E+04  0.65000000000E+04  0.30000000000E+03 0.  1.
     100001    1    1    2    0    0  0.52113208463E+03  0.17108878575E+04  0.62472901197E+04  0.65000000000E+04  0.15050000000E+03 0. -1.
     100001    1    1    2    0    0 -0.52113208463E+03 -0.17108878575E+04 -0.62472901197E+04  0.65000000000E+04  0.15050000000E+03 0.  1.
</event>
<event>
 4    1  0.4826743E-004  0.6500000E+04  0.7818608E-02  0.7223770E-01
         52   -1    0    0    0    0  0.00000000000E+00  0.00000000000E+00  0.64930732323E+04  0.65000000000E+04  0.30000000000E+03 0.  1.
        -52   -1    0    0    0    0 -0.00000000000E+00 -0.00000000000E+00 -0.64930732323E+04  0.65000000000E+04  0.30000000000E+03 0. -1.
     100001    1    1    2    0    0 -0.25479160856E+03 -0.17700582109E+04 -0.62473454296E+04  0.65000000000E+04  0.15050000000E+03 0. -1.
     100001    1    1    2    0    0  0.25479160856E+03  0.17700582109E+04  0.62473454296E+04  0.65000000000E+04  0.15050000000E+03 0.  1.
</event>
<event>
 4    1  0.4826743E-004  0.6500000E+04  0.7818608E-02  0.7223770E-01
         52   -1    0    0    0    0  0.00000000000E+00  0.00000000000E+00  0.64930732323E+04  0.65000000000E+04  0.30000000000E+03 0.  1.
        -52   -1    0    0    0    0 -0.00000000000E+00 -0.00000000000E+00 -0.64930732323E+04  0.65000000000E+04  0.30000000000E+03 0. -1.
     100001    1    1    2    0    0  0.39482615099E+04 -0.50077690756E+04  0.12493316950E+04  0.65000000000E+04  0.15050000000E+03 0.  1.
     100001    1    1    2    0    0 -0.39482615099E+04  0.50077690756E+04 -0.12493316950E+04  0.65000000000E+04  0.15050000000E+03 0. -1.
</event>
<event>
 4    1  0.4826743E-004  0.6500000E+04  0.7818608E-02  0.7223770E-01
         52   -1    0    0    0    0  0.00000000000E+00  0.00000000000E+00  0.64930732323E+04  0.65000000000E+04  0.30000000000E+03 0. -1.
        -52   -1    0    0    0    0 -0.00000000000E+00 -0.00000000000E+00 -0.64930732323E+04  0.65000000000E+04  0.30000000000E+03 0.  1.
     100001    1    1    2    0    0  0.47025474839E+04  0.38051679081E+04  0.23736246760E+04  0.65000000000E+04  0.15050000000E+03 0. -1.
     100001    1    1    2    0    0 -0.47025474839E+04 -0.38051679081E+04 -0.23736246760E+04  0.65000000000E+04  0.15050000000E+03 0.  1.
</event>
<event>
 4    1  0.4826743E-004  0.6500000E+04  0.7818608E-02  0.7223770E-01
         52   -1    0    0    0    0  0.00000000000E+00  0.00000000000E+00  0.64930732323E+04  0.65000000000E+04  0.30000000000E+03 0. -1.
        -52   -1    0    0    0    0 -0.00000000000E+00 -0.00000000000E+00 -0.64930732323E+04  0.65000000000E+04  0.30000000000E+03 0.  1.
     100001    1    1    2    0    0 -0.15140816432E+04 -0.52444890593E+03  0.62976074721E+04  0.65000000000E+04  0.15050000000E+03 0. -1.
     100001    1    1    2    0    0  0.15140816432E+04  0.52444890593E+03 -0.62976074721E+04  0.65000000000E+04  0.15050000000E+03 0.  1.
</event>
<event>
 4    1  0.4826743E-004  0.6500000E+04  0.7818608E-02  0.7223770E-01
         52   -1    0    0    0    0  0.00000000000E+00  0.00000000000E+00  0.64930732323E+04  0.65000000000E+04  0.30000000000E+03 0.  1.
        -52   -1    0    0    0    0 -0.00000000000E+00 -0.00000000000E+00 -0.64930732323E+04  0.65000000000E+04  0.30000000000E+03 0. -1.
     100001    1    1    2    0    0  0.17497203151E+04  0.96381661962E+03  0.61835981510E+04  0.65000000000E+04  0.15050000000E+03 0.  1.
     100001    1    1    2    0    0 -0.17497203151E+04 -0.96381661962E+03 -0.61835981510E+04  0.65000000000E+04  0.15050000000E+03 0. -1.
</event>
<event>
 4    1  0.4826743E-004  0.6500000E+04  0.7818608E-02  0.7223770E-01
         52   -1    0    0    0    0  0.00000000000E+00  0.00000000000E+00  0.64930732323E+04  0.65000000000E+04  0.30000000000E+03 0.  1.
        -52   -1    0    0    0    0 -0.00000000000E+00 -0.00000000000E+00 -0.64930732323E+04  0.65000000000E+04  0.30000000000E+03 0. -1.
     100001    1    1    2    0    0 -0.10020350892E+04 -0.19754317116E+04  0.61090870826E+04  0.65000000000E+04  0.15050000000E+03 0.  1.
     100001    1    1    2    0    0  0.10020350892E+04  0.19754317116E+04 -0.61090870826E+04  0.65000000000E+04  0.15050000000E+03 0. -1.
</event>
<event>
 4    1  0.4826743E-004  0.6500000E+04  0.7818608E-02  0.7223770E-01
         52   -1    0    0    0    0  0.00000000000E+00  0.00000000000E+00  0.64930732323E+04  0.65000000000E+04  0.30000000000E+03 0. -1.
        -52   -1    0    0    0    0 -0.00000000000E+00 -0.00000000000E+00 -0.64930732323E+04  0.65000000000E+04  0.30000000000E+03 0.  1.
     100001    1    1    2    0    0 -0.43846926759E+03  0.14411542458E+04  0.63212474158E+04  0.65000000000E+04  0.15050000000E+03 0. -1.
     100001    1    1    2    0    0  0.43846926759E+03 -0.14411542458E+04 -0.63212474158E+04  0.65000000000E+04  0.15050000000E+03 0.  1.
</event>
<event>
 4    1  0.4826743E-004  0.6500000E+04  0.7818608E-02  0.7223770E-01
         52   -1    0    0    0    0  0.00000000000E+00  0.00000000000E+00  0.64930732323E+04  0.65000000000E+04  0.30000000000E+03 0. -1.
        -52   -1    0    0    0    0 -0.00000000000E+00 -0.00000000000E+00 -0.64930732323E+04  0.65000000000E+04  0.30000000000E+03 0.  1.
     100001    1    1    2    0    0  0.58014439656E+04  0.28679838781E+04 -0.58759351473E+03  0.65000000000E+04  0.15050000000E+03 0. -1.
     100001    1    1    2    0    0 -0.58014439656E+04 -0.28679838781E+04  0.58759351473E+03  0.65000000000E+04  0.15050000000E+03 0.  1.
</event>
<event>
 4    1  0.4826743E-004  0.6500000E+04  0.7818608E-02  0.7223770E-01
         52   -1    0    0    0    0  0.00000000000E+00  0.00000000000E+00  0.64930732323E+04  0.65000000000E+04  0.30000000000E+03 0. -1.
        -52   -1    0    0    0    0 -0.00000000000E+00 -0.00000000000E+00 -0.64930732323E+04  0.65000000000E+04  0.30000000000E+03 0. -1.
     100001    1    1    2    0    0 -0.17257374163E+02  0.15842973212E+03 -0.64963029450E+04  0.65000000000E+04  0.15050000000E+03 0. -1.
     100001    1    1    2    0    0  0.17257374163E+02 -0.15842973212E+03  0.64963029450E+04  0.65000000000E+04  0.15050000000E+03 0. -1.
</event>
<event>
 4    1  0.4826743E-004  0.6500000E+04  0.7818608E-02  0.7223770E-01
         52   -1    0    0    0    0  0.00000000000E+00  0.00000000000E+00  0.64930732323E+04  0.65000000000E+04  0.30000000000E+03 0. -1.
        -52   -1    0    0    0    0 -0.00000000000E+00 -0.00000000000E+00 -0.64930732323E+04  0.65000000000E+04  0.30000000000E+03 0. -1.
     100001    1    1    2    0    0  0.10633669252E+03 -0.30197632342E+03 -0.64903661344E+04  0.65000000000E+04  0.15050000000E+03 0. -1.
     100001    1    1    2    0    0 -0.10633669252E+03  0.30197632342E+03  0.64903661344E+04  0.65000000000E+04  0.15050000000E+03 0. -1.
</event>
<event>
 4    1  0.4826743E-004  0.6500000E+04  0.7818608E-02  0.7223770E-01
         52   -1    0    0    0    0  0.00000000000E+00  0.00000000000E+00  0.64930732323E+04  0.65000000000E+04  0.30000000000E+03 0. -1.
        -52   -1    0    0    0    0 -0.00000000000E+00 -0.00000000000E+00 -0.64930732323E+04  0.65000000000E+04  0.30000000000E+03 0.  1.
     100001    1    1    2    0    0 -0.33832476586E+03 -0.27401738469E+03 -0.64836564202E+04  0.65000000000E+04  0.15050000000E+03 0.  1.
     100001    1    1    2    0    0  0.33832476586E+03  0.27401738469E+03  0.64836564202E+04  0.65000000000E+04  0.15050000000E+03 0. -1.
</event>
<event>
 4    1  0.4826743E-004  0.6500000E+04  0.7818608E-02  0.7223770E-01
         52   -1    0    0    0    0  0.00000000000E+00  0.00000000000E+00  0.64930732323E+04  0.65000000000E+04  0.30000000000E+03 0.  1.
        -52   -1    0    0    0    0 -0.00000000000E+00 -0.00000000000E+00 -0.64930732323E+04  0.65000000000E+04  0.30000000000E+03 0.  1.
     100001    1    1    2    0    0 -0.74988239732E+02  0.13513684318E+03 -0.64964193636E+04  0.65000000000E+04  0.15050000000E+03 0.  1.
     100001    1    1    2    0    0  0.74988239732E+02 -0.13513684318E+03  0.64964193636E+04  0.65000000000E+04  0.15050000000E+03 0.  1.
</event>
<event>
 4    1  0.4826743E-004  0.6500000E+04  0.7818608E-02  0.7223770E-01
         52   -1    0    0    0    0  0.00000000000E+00  0.00000000000E+00  0.64930732323E+04  0.65000000000E+04  0.30000000000E+03 0.  1.
        -52   -1    0    0    0    0 -0.00000000000E+00 -0.00000000000E+00 -0.64930732323E+04  0.65000000000E+04  0.30000000000E+03 0. -1.
     100001    1    1    2    0    0 -0.84147534966E+03  0.62640599197E+03 -0.64130245999E+04  0.65000000000E+04  0.15050000000E+03 0. -1.
     100001    1    1    2    0    0  0.84147534966E+03 -0.62640599197E+03  0.64130245999E+04  0.65000000000E+04  0.15050000000E+03 0.  1.
</event>
<event>
 4    1  0.4826743E-004  0.6500000E+04  0.7818608E-02  0.7223770E-01
         52   -1    0    0    0    0  0.00000000000E+00  0.00000000000E+00  0.64930732323E+04  0.65000000000E+04  0.30000000000E+03 0. -1.
        -52   -1    0    0    0    0 -0.00000000000E+00 -0.00000000000E+00 -0.64930732323E+04  0.65000000000E+04  0.30000000000E+03 0.  1.
     100001    1    1    2    0    0 -0.27982068111E+04  0.26735600176E+04 -0.52201020320E+04  0.65000000000E+04  0.15050000000E+03 0.  1.
     100001    1    1    2    0    0  0.27982068111E+04 -0.26735600176E+04  0.52201020320E+04  0.65000000000E+04  0.15050000000E+03 0. -1.
</event>
<event>
 4    1  0.4826743E-004  0.6500000E+04  0.7818608E-02  0.7223770E-01
         52   -1    0    0    0    0  0.00000000000E+00  0.00000000000E+00  0.64930732323E+04  0.65000000000E+04  0.30000000000E+03 0.  1.
        -52   -1    0    0    0    0 -0.00000000000E+00 -0.00000000000E+00 -0.64930732323E+04  0.65000000000E+04  0.30000000000E+03 0. -1.
     100001    1    1    2    0    0 -0.21462040104E+03 -0.58277226577E+03 -0.64685133006E+04  0.65000000000E+04  0.15050000000E+03 0. -1.
     100001    1    1    2    0    0  0.21462040104E+03  0.58277226577E+03  0.64685133006E+04  0.65000000000E+04  0.15050000000E+03 0.  1.
</event>
<event>
 4    1  0.4946883E-004  0.6500000E+04  0.7818608E-02  0.7223770E-01
         52   -1    0    0    0    0  0.00000000000E+00  0.00000000000E+00  0.64930732323E+04  0.65000000000E+04  0.30000000000E+03 0. -1.
        -52   -1    0    0    0    0 -0.00000000000E+00 -0.00000000000E+00 -0.64930732323E+04  0.65000000000E+04  0.30000000000E+03 0. -1.
     100001    1    1    2    0    0  0.16952038038E+03  0.18896712835E+03 -0.64932968525E+04  0.65000000000E+04  0.15050000000E+03 0. -1.
     100001    1    1    2    0    0 -0.16952038038E+03 -0.18896712835E+03  0.64932968525E+04  0.65000000000E+04  0.15050000000E+03 0. -1.
</event>
<event>
 4    1  0.4826743E-004  0.6500000E+04  0.7818608E-02  0.7223770E-01
         52   -1    0    0    0    0  0.00000000000E+00  0.00000000000E+00  0.64930732323E+04  0.65000000000E+04  0.30000000000E+03 0. -1.
        -52   -1    0    0    0    0 -0.00000000000E+00 -0.00000000000E+00 -0.64930732323E+04  0.65000000000E+04  0.30000000000E+03 0.  1.
     100001    1    1    2    0    0 -0.30461819600E+03  0.44618262535E+03  0.64757608487E+04  0.65000000000E+04  0.15050000000E+03 0. -1.
     100001    1    1    2    0    0  0.30461819600E+03 -0.44618262535E+03 -0.64757608487E+04  0.65000000000E+04  0.15050000000E+03 0.  1.
</event>
<event>
 4    1  0.4826743E-004  0.6500000E+04  0.7818608E-02  0.7223770E-01
         52   -1    0    0    0    0  0.00000000000E+00  0.00000000000E+00  0.64930732323E+04  0.65000000000E+04  0.30000000000E+03 0.  1.
        -52   -1    0    0    0    0 -0.00000000000E+00 -0.00000000000E+00 -0.64930732323E+04  0.65000000000E+04  0.30000000000E+03 0.  1.
     100001    1    1    2    0    0  0.11063540502E+03  0.23426950082E+03 -0.64930907400E+04  0.65000000000E+04  0.15050000000E+03 0.  1.
     100001    1    1    2    0    0 -0.11063540502E+03 -0.23426950082E+03  0.64930907400E+04  0.65000000000E+04  0.15050000000E+03 0.  1.
</event>
<event>
 4    1  0.4826743E-004  0.6500000E+04  0.7818608E-02  0.7223770E-01
         52   -1    0    0    0    0  0.00000000000E+00  0.00000000000E+00  0.64930732323E+04  0.65000000000E+04  0.30000000000E+03 0.  1.
        -52   -1    0    0    0    0 -0.00000000000E+00 -0.00000000000E+00 -0.64930732323E+04  0.65000000000E+04  0.30000000000E+03 0. -1.
     100001    1    1    2    0    0  0.78828549132E+03 -0.26761348294E+04 -0.58689230791E+04  0.65000000000E+04  0.15050000000E+03 0. -1.
     100001    1    1    2    0    0 -0.78828549132E+03  0.26761348294E+04  0.58689230791E+04  0.65000000000E+04  0.15050000000E+03 0.  1.
</event>
<event>
 4    1  0.4826743E-004  0.6500000E+04  0.7818608E-02  0.7223770E-01
         52   -1    0    0    0    0  0.00000000000E+00  0.00000000000E+00  0.64930732323E+04  0.65000000000E+04  0.30000000000E+03 0.  1.
        -52   -1    0    0    0    0 -0.00000000000E+00 -0.00000000000E+00 -0.64930732323E+04  0.65000000000E+04  0.30000000000E+03 0. -1.
     100001    1    1    2    0    0 -0.29462985851E+03 -0.12361033037E+04  0.63728009242E+04  0.65000000000E+04  0.15050000000E+03 0.  1.
     100001    1    1    2    0    0  0.29462985851E+03  0.12361033037E+04 -0.63728009242E+04  0.65000000000E+04  0.15050000000E+03 0. -1.
</event>
<event>
 4    1  0.4826743E-004  0.6500000E+04  0.7818608E-02  0.7223770E-01
         52   -1    0    0    0    0  0.00000000000E+00  0.00000000000E+00  0.64930732323E+04  0.65000000000E+04  0.30000000000E+03 0.  1.
        -52   -1    0    0    0    0 -0.00000000000E+00 -0.00000000000E+00 -0.64930732323E+04  0.65000000000E+04  0.30000000000E+03 0. -1.
     100001    1    1    2    0    0  0.15033717336E+03  0.31961646170E+04  0.56559066670E+04  0.65000000000E+04  0.15050000000E+03 0.  1.
     100001    1    1    2    0    0 -0.15033717336E+03 -0.31961646170E+04 -0.56559066670E+04  0.65000000000E+04  0.15050000000E+03 0. -1.
</event>
<event>
 4    1  0.4826743E-004  0.6500000E+04  0.7818608E-02  0.7223770E-01
         52   -1    0    0    0    0  0.00000000000E+00  0.00000000000E+00  0.64930732323E+04  0.65000000000E+04  0.30000000000E+03 0.  1.
        -52   -1    0    0    0    0 -0.00000000000E+00 -0.00000000000E+00 -0.64930732323E+04  0.65000000000E+04  0.30000000000E+03 0. -1.
     100001    1    1    2    0    0  0.78871082838E+03 -0.13350660060E+03  0.64488340781E+04  0.65000000000E+04  0.15050000000E+03 0.  1.
     100001    1    1    2    0    0 -0.78871082838E+03  0.13350660060E+03 -0.64488340781E+04  0.65000000000E+04  0.15050000000E+03 0. -1.
</event>
<event>
 4    1  0.4826743E-004  0.6500000E+04  0.7818608E-02  0.7223770E-01
         52   -1    0    0    0    0  0.00000000000E+00  0.00000000000E+00  0.64930732323E+04  0.65000000000E+04  0.30000000000E+03 0. -1.
        -52   -1    0    0    0    0 -0.00000000000E+00 -0.00000000000E+00 -0.64930732323E+04  0.65000000000E+04  0.30000000000E+03 0.  1.
     100001    1    1    2    0    0 -0.28984808677E+04 -0.31160015068E+04 -0.49108749749E+04  0.65000000000E+04  0.15050000000E+03 0.  1.
     100001    1    1    2    0    0  0.28984808677E+04  0.31160015068E+04  0.49108749749E+04  0.65000000000E+04  0.15050000000E+03 0. -1.
</event>
<event>
 4    1  0.4826743E-004  0.6500000E+04  0.7818608E-02  0.7223770E-01
         52   -1    0    0    0    0  0.00000000000E+00  0.00000000000E+00  0.64930732323E+04  0.65000000000E+04  0.30000000000E+03 0.  1.
        -52   -1    0    0    0    0 -0.00000000000E+00 -0.00000000000E+00 -0.64930732323E+04  0.65000000000E+04  0.30000000000E+03 0. -1.
     100001    1    1    2    0    0  0.39342468572E+03 -0.20098692201E+03  0.64832222717E+04  0.65000000000E+04  0.15050000000E+03 0.  1.
     100001    1    1    2    0    0 -0.39342468572E+03  0.20098692201E+03 -0.64832222717E+04  0.65000000000E+04  0.15050000000E+03 0. -1.
</event>
<event>
 4    1  0.4826743E-004  0.6500000E+04  0.7818608E-02  0.7223770E-01
         52   -1    0    0    0    0  0.00000000000E+00  0.00000000000E+00  0.64930732323E+04  0.65000000000E+04  0.30000000000E+03 0.  1.
        -52   -1    0    0    0    0 -0.00000000000E+00 -0.00000000000E+00 -0.64930732323E+04  0.65000000000E+04  0.30000000000E+03 0. -1.
     100001    1    1    2    0    0 -0.10260205684E+04 -0.27189955180E+03 -0.64109829338E+04  0.65000000000E+04  0.15050000000E+03 0. -1.
     100001    1    1    2    0    0  0.10260205684E+04  0.27189955180E+03  0.64109829338E+04  0.65000000000E+04  0.15050000000E+03 0.  1.
</event>
<event>
 4    1  0.4826743E-004  0.6500000E+04  0.7818608E-02  0.7223770E-01
         52   -1    0    0    0    0  0.00000000000E+00  0.00000000000E+00  0.64930732323E+04  0.65000000000E+04  0.30000000000E+03 0. -1.
        -52   -1    0    0    0    0 -0.00000000000E+00 -0.00000000000E+00 -0.64930732323E+04  0.65000000000E+04  0.30000000000E+03 0.  1.
     100001    1    1    2    0    0 -0.20218720093E+04  0.58985348230E+04  0.18293906827E+04  0.65000000000E+04  0.15050000000E+03 0. -1.
     100001    1    1    2    0    0  0.20218720093E+04 -0.58985348230E+04 -0.18293906827E+04  0.65000000000E+04  0.15050000000E+03 0.  1.
</event>
<event>
 4    1  0.4826743E-004  0.6500000E+04  0.7818608E-02  0.7223770E-01
         52   -1    0    0    0    0  0.00000000000E+00  0.00000000000E+00  0.64930732323E+04  0.65000000000E+04  0.30000000000E+03 0. -1.
        -52   -1    0    0    0    0 -0.00000000000E+00 -0.00000000000E+00 -0.64930732323E+04  0.65000000000E+04  0.30000000000E+03 0.  1.
     100001    1    1    2    0    0  0.76161663650E+02  0.35257227467E+03 -0.64882387396E+04  0.65000000000E+04  0.15050000000E+03 0.  1.
     100001    1    1    2    0    0 -0.76161663650E+02 -0.35257227467E+03  0.64882387396E+04  0.65000000000E+04  0.15050000000E+03 0. -1.
</event>
<event>
 4    1  0.4826743E-004  0.6500000E+04  0.7818608E-02  0.7223770E-01
         52   -1    0    0    0    0  0.00000000000E+00  0.00000000000E+00  0.64930732323E+04  0.65000000000E+04  0.30000000000E+03 0. -1.
        -52   -1    0    0    0    0 -0.00000000000E+00 -0.00000000000E+00 -0.64930732323E+04  0.65000000000E+04  0.30000000000E+03 0. -1.
     100001    1    1    2    0    0  0.10900574702E+03 -0.27727679252E+03 -0.64914239638E+04  0.65000000000E+04  0.15050000000E+03 0. -1.
     100001    1    1    2    0    0 -0.10900574702E+03  0.27727679252E+03  0.64914239638E+04  0.65000000000E+04  0.15050000000E+03 0. -1.
</event>
<event>
 4    1  0.4826743E-004  0.6500000E+04  0.7818608E-02  0.7223770E-01
         52   -1    0    0    0    0  0.00000000000E+00  0.00000000000E+00  0.64930732323E+04  0.65000000000E+04  0.30000000000E+03 0. -1.
        -52   -1    0    0    0    0 -0.00000000000E+00 -0.00000000000E+00 -0.64930732323E+04  0.65000000000E+04  0.30000000000E+03 0.  1.
     100001    1    1    2    0    0 -0.50066402726E+04 -0.28442233296E+04  0.30118593231E+04  0.65000000000E+04  0.15050000000E+03 0. -1.
     100001    1    1    2    0    0  0.50066402726E+04  0.28442233296E+04 -0.30118593231E+04  0.65000000000E+04  0.15050000000E+03 0.  1.
</event>
<event>
 4    1  0.4826743E-004  0.6500000E+04  0.7818608E-02  0.7223770E-01
         52   -1    0    0    0    0  0.00000000000E+00  0.00000000000E+00  0.64930732323E+04  0.65000000000E+04  0.30000000000E+03 0.  1.
        -52   -1    0    0    0    0 -0.00000000000E+00 -0.00000000000E+00 -0.64930732323E+04  0.65000000000E+04  0.30000000000E+03 0. -1.
     100001    1    1    2    0    0 -0.15709354925E+04 -0.62561596225E+04  0.78738694855E+03  0.65000000000E+04  0.15050000000E+03 0.  1.
     100001    1    1    2    0    0  0.15709354925E+04  0.62561596225E+04 -0.78738694855E+03  0.65000000000E+04  0.15050000000E+03 0. -1.
</event>
<event>
 4    1  0.4826743E-004  0.6500000E+04  0.7818608E-02  0.7223770E-01
         52   -1    0    0    0    0  0.00000000000E+00  0.00000000000E+00  0.64930732323E+04  0.65000000000E+04  0.30000000000E+03 0.  1.
        -52   -1    0    0    0    0 -0.00000000000E+00 -0.00000000000E+00 -0.64930732323E+04  0.65000000000E+04  0.30000000000E+03 0. -1.
     100001    1    1    2    0    0  0.55305597354E+04  0.33149925946E+04  0.80689705694E+03  0.65000000000E+04  0.15050000000E+03 0.  1.
     100001    1    1    2    0    0 -0.55305597354E+04 -0.33149925946E+04 -0.80689705694E+03  0.65000000000E+04  0.15050000000E+03 0. -1.
</event>
<event>
 4    1  0.4826743E-004  0.6500000E+04  0.7818608E-02  0.7223770E-01
         52   -1    0    0    0    0  0.00000000000E+00  0.00000000000E+00  0.64930732323E+04  0.65000000000E+04  0.30000000000E+03 0.  1.
        -52   -1    0    0    0    0 -0.00000000000E+00 -0.00000000000E+00 -0.64930732323E+04  0.65000000000E+04  0.30000000000E+03 0. -1.
     100001    1    1    2    0    0 -0.28060735703E+04 -0.15374676208E+04 -0.56559255815E+04  0.65000000000E+04  0.15050000000E+03 0. -1.
     100001    1    1    2    0    0  0.28060735703E+04  0.15374676208E+04  0.56559255815E+04  0.65000000000E+04  0.15050000000E+03 0.  1.
</event>
<event>
 4    1  0.4826743E-004  0.6500000E+04  0.7818608E-02  0.7223770E-01
         52   -1    0    0    0    0  0.00000000000E+00  0.00000000000E+00  0.64930732323E+04  0.65000000000E+04  0.30000000000E+03 0.  1.
        -52   -1    0    0    0    0 -0.00000000000E+00 -0.00000000000E+00 -0.64930732323E+04  0.65000000000E+04  0.30000000000E+03 0. -1.
     100001    1    1    2    0    0  0.30476866203E+04 -0.23137422942E+04  0.52521950278E+04  0.65000000000E+04  0.15050000000E+03 0.  1.
     100001    1    1    2    0    0 -0.30476866203E+04  0.23137422942E+04 -0.52521950278E+04  0.65000000000E+04  0.15050000000E+03 0. -1.
</event>
<event>
 4    1  0.4826743E-004  0.6500000E+04  0.7818608E-02  0.7223770E-01
         52   -1    0    0    0    0  0.00000000000E+00  0.00000000000E+00  0.64930732323E+04  0.65000000000E+04  0.30000000000E+03 0. -1.
        -52   -1    0    0    0    0 -0.00000000000E+00 -0.00000000000E+00 -0.64930732323E+04  0.65000000000E+04  0.30000000000E+03 0.  1.
     100001    1    1    2    0    0  0.24468400986E+03 -0.39055264673E+04  0.51879034781E+04  0.65000000000E+04  0.15050000000E+03 0. -1.
     100001    1    1    2    0    0 -0.24468400986E+03  0.39055264673E+04 -0.51879034781E+04  0.65000000000E+04  0.15050000000E+03 0.  1.
</event>
<event>
 4    1  0.4826743E-004  0.6500000E+04  0.7818608E-02  0.7223770E-01
         52   -1    0    0    0    0  0.00000000000E+00  0.00000000000E+00  0.64930732323E+04  0.65000000000E+04  0.30000000000E+03 0.  1.
        -52   -1    0    0    0    0 -0.00000000000E+00 -0.00000000000E+00 -0.64930732323E+04  0.65000000000E+04  0.30000000000E+03 0. -1.
     100001    1    1    2    0    0  0.13778199433E+04 -0.12945651144E+04 -0.62171587657E+04  0.65000000000E+04  0.15050000000E+03 0. -1.
     100001    1    1    2    0    0 -0.13778199433E+04  0.12945651144E+04  0.62171587657E+04  0.65000000000E+04  0.15050000000E+03 0.  1.
</event>
<event>
 4    1  0.4826743E-004  0.6500000E+04  0.7818608E-02  0.7223770E-01
         52   -1    0    0    0    0  0.00000000000E+00  0.00000000000E+00  0.64930732323E+04  0.65000000000E+04  0.30000000000E+03 0. -1.
        -52   -1    0    0    0    0 -0.00000000000E+00 -0.00000000000E+00 -0.64930732323E+04  0.65000000000E+04  0.30000000000E+03 0.  1.
     100001    1    1    2    0    0  0.14378303839E+03  0.10285841997E+04 -0.64147245250E+04  0.65000000000E+04  0.15050000000E+03 0.  1.
     100001    1    1    2    0    0 -0.14378303839E+03 -0.10285841997E+04  0.64147245250E+04  0.65000000000E+04  0.15050000000E+03 0. -1.
</event>
<event>
 4    1  0.4826743E-004  0.6500000E+04  0.7818608E-02  0.7223770E-01
         52   -1    0    0    0    0  0.00000000000E+00  0.00000000000E+00  0.64930732323E+04  0.65000000000E+04  0.30000000000E+03 0.  1.
        -52   -1    0    0    0    0 -0.00000000000E+00 -0.00000000000E+00 -0.64930732323E+04  0.65000000000E+04  0.30000000000E+03 0. -1.
     100001    1    1    2    0    0  0.87450212263E+03  0.13842453547E+03 -0.64376575270E+04  0.65000000000E+04  0.15050000000E+03 0. -1.
     100001    1    1    2    0    0 -0.87450212263E+03 -0.13842453547E+03  0.64376575270E+04  0.65000000000E+04  0.15050000000E+03 0.  1.
</event>
<event>
 4    1  0.4826743E-004  0.6500000E+04  0.7818608E-02  0.7223770E-01
         52   -1    0    0    0    0  0.00000000000E+00  0.00000000000E+00  0.64930732323E+04  0.65000000000E+04  0.30000000000E+03 0.  1.
        -52   -1    0    0    0    0 -0.00000000000E+00 -0.00000000000E+00 -0.64930732323E+04  0.65000000000E+04  0.30000000000E+03 0. -1.
     100001    1    1    2    0    0 -0.17694980807E+04  0.46728864512E+03  0.62352119142E+04  0.65000000000E+04  0.15050000000E+03 0.  1.
     100001    1    1    2    0    0  0.17694980807E+04 -0.46728864512E+03 -0.62352119142E+04  0.65000000000E+04  0.15050000000E+03 0. -1.
</event>
<event>
 4    1  0.4826743E-004  0.6500000E+04  0.7818608E-02  0.7223770E-01
         52   -1    0    0    0    0  0.00000000000E+00  0.00000000000E+00  0.64930732323E+04  0.65000000000E+04  0.30000000000E+03 0.  1.
        -52   -1    0    0    0    0 -0.00000000000E+00 -0.00000000000E+00 -0.64930732323E+04  0.65000000000E+04  0.30000000000E+03 0. -1.
     100001    1    1    2    0    0  0.16824615688E+04  0.15455570459E+04  0.60834140281E+04  0.65000000000E+04  0.15050000000E+03 0.  1.
     100001    1    1    2    0    0 -0.16824615688E+04 -0.15455570459E+04 -0.60834140281E+04  0.65000000000E+04  0.15050000000E+03 0. -1.
</event>
<event>
 4    1  0.4826743E-004  0.6500000E+04  0.7818608E-02  0.7223770E-01
         52   -1    0    0    0    0  0.00000000000E+00  0.00000000000E+00  0.64930732323E+04  0.65000000000E+04  0.30000000000E+03 0. -1.
        -52   -1    0    0    0    0 -0.00000000000E+00 -0.00000000000E+00 -0.64930732323E+04  0.65000000000E+04  0.30000000000E+03 0.  1.
     100001    1    1    2    0    0 -0.49716635774E+03  0.20107400443E+04 -0.61593100131E+04  0.65000000000E+04  0.15050000000E+03 0.  1.
     100001    1    1    2    0    0  0.49716635774E+03 -0.20107400443E+04  0.61593100131E+04  0.65000000000E+04  0.15050000000E+03 0. -1.
</event>
<event>
 4    1  0.4826743E-004  0.6500000E+04  0.7818608E-02  0.7223770E-01
         52   -1    0    0    0    0  0.00000000000E+00  0.00000000000E+00  0.64930732323E+04  0.65000000000E+04  0.30000000000E+03 0. -1.
        -52   -1    0    0    0    0 -0.00000000000E+00 -0.00000000000E+00 -0.64930732323E+04  0.65000000000E+04  0.30000000000E+03 0.  1.
     100001    1    1    2    0    0 -0.15110162418E+04  0.59167054439E+03  0.62923847335E+04  0.65000000000E+04  0.15050000000E+03 0. -1.
     100001    1    1    2    0    0  0.15110162418E+04 -0.59167054439E+03 -0.62923847335E+04  0.65000000000E+04  0.15050000000E+03 0.  1.
</event>
<event>
 4    1  0.4826743E-004  0.6500000E+04  0.7818608E-02  0.7223770E-01
         52   -1    0    0    0    0  0.00000000000E+00  0.00000000000E+00  0.64930732323E+04  0.65000000000E+04  0.30000000000E+03 0.  1.
        -52   -1    0    0    0    0 -0.00000000000E+00 -0.00000000000E+00 -0.64930732323E+04  0.65000000000E+04  0.30000000000E+03 0.  1.
     100001    1    1    2    0    0  0.39216341855E+02 -0.26338288071E+03 -0.64927991873E+04  0.65000000000E+04  0.15050000000E+03 0.  1.
     100001    1    1    2    0    0 -0.39216341855E+02  0.26338288071E+03  0.64927991873E+04  0.65000000000E+04  0.15050000000E+03 0.  1.
</event>
<event>
 4    1  0.4826743E-004  0.6500000E+04  0.7818608E-02  0.7223770E-01
         52   -1    0    0    0    0  0.00000000000E+00  0.00000000000E+00  0.64930732323E+04  0.65000000000E+04  0.30000000000E+03 0.  1.
        -52   -1    0    0    0    0 -0.00000000000E+00 -0.00000000000E+00 -0.64930732323E+04  0.65000000000E+04  0.30000000000E+03 0. -1.
     100001    1    1    2    0    0 -0.14113394863E+03 -0.13059308950E+04  0.63641162353E+04  0.65000000000E+04  0.15050000000E+03 0.  1.
     100001    1    1    2    0    0  0.14113394863E+03  0.13059308950E+04 -0.63641162353E+04  0.65000000000E+04  0.15050000000E+03 0. -1.
</event>
<event>
 4    1  0.4826743E-004  0.6500000E+04  0.7818608E-02  0.7223770E-01
         52   -1    0    0    0    0  0.00000000000E+00  0.00000000000E+00  0.64930732323E+04  0.65000000000E+04  0.30000000000E+03 0.  1.
        -52   -1    0    0    0    0 -0.00000000000E+00 -0.00000000000E+00 -0.64930732323E+04  0.65000000000E+04  0.30000000000E+03 0. -1.
     100001    1    1    2    0    0 -0.49229803415E+04  0.83036825180E+03  0.41595796510E+04  0.65000000000E+04  0.15050000000E+03 0.  1.
     100001    1    1    2    0    0  0.49229803415E+04 -0.83036825180E+03 -0.41595796510E+04  0.65000000000E+04  0.15050000000E+03 0. -1.
</event>
<event>
 4    1  0.4826743E-004  0.6500000E+04  0.7818608E-02  0.7223770E-01
         52   -1    0    0    0    0  0.00000000000E+00  0.00000000000E+00  0.64930732323E+04  0.65000000000E+04  0.30000000000E+03 0. -1.
        -52   -1    0    0    0    0 -0.00000000000E+00 -0.00000000000E+00 -0.64930732323E+04  0.65000000000E+04  0.30000000000E+03 0.  1.
     100001    1    1    2    0    0 -0.22276952093E+04 -0.80340917393E+03  0.60513847592E+04  0.65000000000E+04  0.15050000000E+03 0. -1.
     100001    1    1    2    0    0  0.22276952093E+04  0.80340917393E+03 -0.60513847592E+04  0.65000000000E+04  0.15050000000E+03 0.  1.
</event>
<event>
 4    1  0.4826743E-004  0.6500000E+04  0.7818608E-02  0.7223770E-01
         52   -1    0    0    0    0  0.00000000000E+00  0.00000000000E+00  0.64930732323E+04  0.65000000000E+04  0.30000000000E+03 0. -1.
        -52   -1    0    0    0    0 -0.00000000000E+00 -0.00000000000E+00 -0.64930732323E+04  0.65000000000E+04  0.30000000000E+03 0.  1.
     100001    1    1    2    0    0  0.27635341198E+03 -0.33453465700E+03  0.64837539362E+04  0.65000000000E+04  0.15050000000E+03 0. -1.
     100001    1    1    2    0    0 -0.27635341198E+03  0.33453465700E+03 -0.64837539362E+04  0.65000000000E+04  0.15050000000E+03 0.  1.
</event>
<event>
 4    1  0.4826743E-004  0.6500000E+04  0.7818608E-02  0.7223770E-01
         52   -1    0    0    0    0  0.00000000000E+00  0.00000000000E+00  0.64930732323E+04  0.65000000000E+04  0.30000000000E+03 0. -1.
        -52   -1    0    0    0    0 -0.00000000000E+00 -0.00000000000E+00 -0.64930732323E+04  0.65000000000E+04  0.30000000000E+03 0.  1.
     100001    1    1    2    0    0 -0.38299124920E+04  0.48414826960E+02  0.52494548344E+04  0.65000000000E+04  0.15050000000E+03 0. -1.
     100001    1    1    2    0    0  0.38299124920E+04 -0.48414826960E+02 -0.52494548344E+04  0.65000000000E+04  0.15050000000E+03 0.  1.
</event>
<event>
 4    1  0.4826743E-004  0.6500000E+04  0.7818608E-02  0.7223770E-01
         52   -1    0    0    0    0  0.00000000000E+00  0.00000000000E+00  0.64930732323E+04  0.65000000000E+04  0.30000000000E+03 0. -1.
        -52   -1    0    0    0    0 -0.00000000000E+00 -0.00000000000E+00 -0.64930732323E+04  0.65000000000E+04  0.30000000000E+03 0.  1.
     100001    1    1    2    0    0 -0.10759536538E+04  0.15057549870E+04  0.62291552721E+04  0.65000000000E+04  0.15050000000E+03 0. -1.
     100001    1    1    2    0    0  0.10759536538E+04 -0.15057549870E+04 -0.62291552721E+04  0.65000000000E+04  0.15050000000E+03 0.  1.
</event>
<event>
 4    1  0.4826743E-004  0.6500000E+04  0.7818608E-02  0.7223770E-01
         52   -1    0    0    0    0  0.00000000000E+00  0.00000000000E+00  0.64930732323E+04  0.65000000000E+04  0.30000000000E+03 0.  1.
        -52   -1    0    0    0    0 -0.00000000000E+00 -0.00000000000E+00 -0.64930732323E+04  0.65000000000E+04  0.30000000000E+03 0. -1.
     100001    1    1    2    0    0  0.24080120659E+03  0.90434404865E+02  0.64931645711E+04  0.65000000000E+04  0.15050000000E+03 0.  1.
     100001    1    1    2    0    0 -0.24080120659E+03 -0.90434404865E+02 -0.64931645711E+04  0.65000000000E+04  0.15050000000E+03 0. -1.
</event>
<event>
 4    1  0.4826743E-004  0.6500000E+04  0.7818608E-02  0.7223770E-01
         52   -1    0    0    0    0  0.00000000000E+00  0.00000000000E+00  0.64930732323E+04  0.65000000000E+04  0.30000000000E+03 0. -1.
        -52   -1    0    0    0    0 -0.00000000000E+00 -0.00000000000E+00 -0.64930732323E+04  0.65000000000E+04  0.30000000000E+03 0.  1.
     100001    1    1    2    0    0 -0.16269955973E+04  0.19415135662E+03  0.62882859610E+04  0.65000000000E+04  0.15050000000E+03 0. -1.
     100001    1    1    2    0    0  0.16269955973E+04 -0.19415135662E+03 -0.62882859610E+04  0.65000000000E+04  0.15050000000E+03 0.  1.
</event>
<event>
 4    1  0.4826743E-004  0.6500000E+04  0.7818608E-02  0.7223770E-01
         52   -1    0    0    0    0  0.00000000000E+00  0.00000000000E+00  0.64930732323E+04  0.65000000000E+04  0.30000000000E+03 0. -1.
        -52   -1    0    0    0    0 -0.00000000000E+00 -0.00000000000E+00 -0.64930732323E+04  0.65000000000E+04  0.30000000000E+03 0.  1.
     100001    1    1    2    0    0  0.20600237821E+03  0.23571524235E+03 -0.64907126800E+04  0.65000000000E+04  0.15050000000E+03 0.  1.
     100001    1    1    2    0    0 -0.20600237821E+03 -0.23571524235E+03  0.64907126800E+04  0.65000000000E+04  0.15050000000E+03 0. -1.
</event>
<event>
 4    1  0.4826743E-004  0.6500000E+04  0.7818608E-02  0.7223770E-01
         52   -1    0    0    0    0  0.00000000000E+00  0.00000000000E+00  0.64930732323E+04  0.65000000000E+04  0.30000000000E+03 0.  1.
        -52   -1    0    0    0    0 -0.00000000000E+00 -0.00000000000E+00 -0.64930732323E+04  0.65000000000E+04  0.30000000000E+03 0. -1.
     100001    1    1    2    0    0  0.16360130925E+03  0.19441210403E+04 -0.61984657571E+04  0.65000000000E+04  0.15050000000E+03 0. -1.
     100001    1    1    2    0    0 -0.16360130925E+03 -0.19441210403E+04  0.61984657571E+04  0.65000000000E+04  0.15050000000E+03 0.  1.
</event>
<event>
 4    1  0.4826743E-004  0.6500000E+04  0.7818608E-02  0.7223770E-01
         52   -1    0    0    0    0  0.00000000000E+00  0.00000000000E+00  0.64930732323E+04  0.65000000000E+04  0.30000000000E+03 0.  1.
        -52   -1    0    0    0    0 -0.00000000000E+00 -0.00000000000E+00 -0.64930732323E+04  0.65000000000E+04  0.30000000000E+03 0.  1.
     100001    1    1    2    0    0  0.33692940556E+03  0.56790590207E+03 -0.64646199588E+04  0.65000000000E+04  0.15050000000E+03 0.  1.
     100001    1    1    2    0    0 -0.33692940556E+03 -0.56790590207E+03  0.64646199588E+04  0.65000000000E+04  0.15050000000E+03 0.  1.
</event>
<event>
 4    1  0.4826743E-004  0.6500000E+04  0.7818608E-02  0.7223770E-01
         52   -1    0    0    0    0  0.00000000000E+00  0.00000000000E+00  0.64930732323E+04  0.65000000000E+04  0.30000000000E+03 0. -1.
        -52   -1    0    0    0    0 -0.00000000000E+00 -0.00000000000E+00 -0.64930732323E+04  0.65000000000E+04  0.30000000000E+03 0. -1.
     100001    1    1    2    0    0  0.13963013816E+04 -0.52510643211E+03  0.63247099093E+04  0.65000000000E+04  0.15050000000E+03 0. -1.
     100001    1    1    2    0    0 -0.13963013816E+04  0.52510643211E+03 -0.63247099093E+04  0.65000000000E+04  0.15050000000E+03 0. -1.
</event>
<event>
 4    1  0.4826743E-004  0.6500000E+04  0.7818608E-02  0.7223770E-01
         52   -1    0    0    0    0  0.00000000000E+00  0.00000000000E+00  0.64930732323E+04  0.65000000000E+04  0.30000000000E+03 0. -1.
        -52   -1    0    0    0    0 -0.00000000000E+00 -0.00000000000E+00 -0.64930732323E+04  0.65000000000E+04  0.30000000000E+03 0.  1.
     100001    1    1    2    0    0 -0.24568641756E+03 -0.16623498105E+04 -0.62772271778E+04  0.65000000000E+04  0.15050000000E+03 0.  1.
     100001    1    1    2    0    0  0.24568641756E+03  0.16623498105E+04  0.62772271778E+04  0.65000000000E+04  0.15050000000E+03 0. -1.
</event>
<event>
 4    1  0.4826743E-004  0.6500000E+04  0.7818608E-02  0.7223770E-01
         52   -1    0    0    0    0  0.00000000000E+00  0.00000000000E+00  0.64930732323E+04  0.65000000000E+04  0.30000000000E+03 0.  1.
        -52   -1    0    0    0    0 -0.00000000000E+00 -0.00000000000E+00 -0.64930732323E+04  0.65000000000E+04  0.30000000000E+03 0. -1.
     100001    1    1    2    0    0  0.34460967846E+04 -0.92198624091E+03 -0.54315474842E+04  0.65000000000E+04  0.15050000000E+03 0. -1.
     100001    1    1    2    0    0 -0.34460967846E+04  0.92198624091E+03  0.54315474842E+04  0.65000000000E+04  0.15050000000E+03 0.  1.
</event>
<event>
 4    1  0.7199321E-004  0.6500000E+04  0.7818608E-02  0.7223770E-01
         52   -1    0    0    0    0  0.00000000000E+00  0.00000000000E+00  0.64930732323E+04  0.65000000000E+04  0.30000000000E+03 0. -1.
        -52   -1    0    0    0    0 -0.00000000000E+00 -0.00000000000E+00 -0.64930732323E+04  0.65000000000E+04  0.30000000000E+03 0. -1.
     100001    1    1    2    0    0 -0.32130544957E+02  0.12973985629E+03  0.64968827100E+04  0.65000000000E+04  0.15050000000E+03 0. -1.
     100001    1    1    2    0    0  0.32130544957E+02 -0.12973985629E+03 -0.64968827100E+04  0.65000000000E+04  0.15050000000E+03 0. -1.
</event>
<event>
 4    1  0.4826743E-004  0.6500000E+04  0.7818608E-02  0.7223770E-01
         52   -1    0    0    0    0  0.00000000000E+00  0.00000000000E+00  0.64930732323E+04  0.65000000000E+04  0.30000000000E+03 0.  1.
        -52   -1    0    0    0    0 -0.00000000000E+00 -0.00000000000E+00 -0.64930732323E+04  0.65000000000E+04  0.30000000000E+03 0. -1.
     100001    1    1    2    0    0 -0.19775923054E+03 -0.94323340178E+03  0.64263949292E+04  0.65000000000E+04  0.15050000000E+03 0.  1.
     100001    1    1    2    0    0  0.19775923054E+03  0.94323340178E+03 -0.64263949292E+04  0.65000000000E+04  0.15050000000E+03 0. -1.
</event>
<event>
 4    1  0.4826743E-004  0.6500000E+04  0.7818608E-02  0.7223770E-01
         52   -1    0    0    0    0  0.00000000000E+00  0.00000000000E+00  0.64930732323E+04  0.65000000000E+04  0.30000000000E+03 0.  1.
        -52   -1    0    0    0    0 -0.00000000000E+00 -0.00000000000E+00 -0.64930732323E+04  0.65000000000E+04  0.30000000000E+03 0.  1.
     100001    1    1    2    0    0  0.21559753567E+03 -0.36227182300E+03  0.64845683418E+04  0.65000000000E+04  0.15050000000E+03 0.  1.
     100001    1    1    2    0    0 -0.21559753567E+03  0.36227182300E+03 -0.64845683418E+04  0.65000000000E+04  0.15050000000E+03 0.  1.
</event>
<event>
 4    1  0.4826743E-004  0.6500000E+04  0.7818608E-02  0.7223770E-01
         52   -1    0    0    0    0  0.00000000000E+00  0.00000000000E+00  0.64930732323E+04  0.65000000000E+04  0.30000000000E+03 0.  1.
        -52   -1    0    0    0    0 -0.00000000000E+00 -0.00000000000E+00 -0.64930732323E+04  0.65000000000E+04  0.30000000000E+03 0. -1.
     100001    1    1    2    0    0 -0.51174801453E+03 -0.29031110101E+03 -0.64715672896E+04  0.65000000000E+04  0.15050000000E+03 0. -1.
     100001    1    1    2    0    0  0.51174801453E+03  0.29031110101E+03  0.64715672896E+04  0.65000000000E+04  0.15050000000E+03 0.  1.
</event>
<event>
 4    1  0.4826743E-004  0.6500000E+04  0.7818608E-02  0.7223770E-01
         52   -1    0    0    0    0  0.00000000000E+00  0.00000000000E+00  0.64930732323E+04  0.65000000000E+04  0.30000000000E+03 0.  1.
        -52   -1    0    0    0    0 -0.00000000000E+00 -0.00000000000E+00 -0.64930732323E+04  0.65000000000E+04  0.30000000000E+03 0. -1.
     100001    1    1    2    0    0  0.19908980081E+03 -0.19591328489E+04  0.61926982392E+04  0.65000000000E+04  0.15050000000E+03 0.  1.
     100001    1    1    2    0    0 -0.19908980081E+03  0.19591328489E+04 -0.61926982392E+04  0.65000000000E+04  0.15050000000E+03 0. -1.
</event>
<event>
 4    1  0.4826743E-004  0.6500000E+04  0.7818608E-02  0.7223770E-01
         52   -1    0    0    0    0  0.00000000000E+00  0.00000000000E+00  0.64930732323E+04  0.65000000000E+04  0.30000000000E+03 0. -1.
        -52   -1    0    0    0    0 -0.00000000000E+00 -0.00000000000E+00 -0.64930732323E+04  0.65000000000E+04  0.30000000000E+03 0.  1.
     100001    1    1    2    0    0  0.25910997329E+03 -0.87395106586E+03 -0.64340050751E+04  0.65000000000E+04  0.15050000000E+03 0.  1.
     100001    1    1    2    0    0 -0.25910997329E+03  0.87395106586E+03  0.64340050751E+04  0.65000000000E+04  0.15050000000E+03 0. -1.
</event>
<event>
 4    1  0.4826743E-004  0.6500000E+04  0.7818608E-02  0.7223770E-01
         52   -1    0    0    0    0  0.00000000000E+00  0.00000000000E+00  0.64930732323E+04  0.65000000000E+04  0.30000000000E+03 0.  1.
        -52   -1    0    0    0    0 -0.00000000000E+00 -0.00000000000E+00 -0.64930732323E+04  0.65000000000E+04  0.30000000000E+03 0.  1.
     100001    1    1    2    0    0  0.41370149563E+02  0.29326458996E+03 -0.64915047671E+04  0.65000000000E+04  0.15050000000E+03 0.  1.
     100001    1    1    2    0    0 -0.41370149563E+02 -0.29326458996E+03  0.64915047671E+04  0.65000000000E+04  0.15050000000E+03 0.  1.
</event>
<event>
 4    1  0.4826743E-004  0.6500000E+04  0.7818608E-02  0.7223770E-01
         52   -1    0    0    0    0  0.00000000000E+00  0.00000000000E+00  0.64930732323E+04  0.65000000000E+04  0.30000000000E+03 0.  1.
        -52   -1    0    0    0    0 -0.00000000000E+00 -0.00000000000E+00 -0.64930732323E+04  0.65000000000E+04  0.30000000000E+03 0. -1.
     100001    1    1    2    0    0  0.42385753245E+04  0.42652933131E+04 -0.24635547329E+04  0.65000000000E+04  0.15050000000E+03 0.  1.
     100001    1    1    2    0    0 -0.42385753245E+04 -0.42652933131E+04  0.24635547329E+04  0.65000000000E+04  0.15050000000E+03 0. -1.
</event>
<event>
 4    1  0.4826743E-004  0.6500000E+04  0.7818608E-02  0.7223770E-01
         52   -1    0    0    0    0  0.00000000000E+00  0.00000000000E+00  0.64930732323E+04  0.65000000000E+04  0.30000000000E+03 0. -1.
        -52   -1    0    0    0    0 -0.00000000000E+00 -0.00000000000E+00 -0.64930732323E+04  0.65000000000E+04  0.30000000000E+03 0.  1.
     100001    1    1    2    0    0  0.19650128246E+04  0.54652288650E+04  0.29150210637E+04  0.65000000000E+04  0.15050000000E+03 0. -1.
     100001    1    1    2    0    0 -0.19650128246E+04 -0.54652288650E+04 -0.29150210637E+04  0.65000000000E+04  0.15050000000E+03 0.  1.
</event>
<event>
 4    1  0.4826743E-004  0.6500000E+04  0.7818608E-02  0.7223770E-01
         52   -1    0    0    0    0  0.00000000000E+00  0.00000000000E+00  0.64930732323E+04  0.65000000000E+04  0.30000000000E+03 0.  1.
        -52   -1    0    0    0    0 -0.00000000000E+00 -0.00000000000E+00 -0.64930732323E+04  0.65000000000E+04  0.30000000000E+03 0. -1.
     100001    1    1    2    0    0  0.11813362595E+04  0.83908391406E+03 -0.63346454184E+04  0.65000000000E+04  0.15050000000E+03 0. -1.
     100001    1    1    2    0    0 -0.11813362595E+04 -0.83908391406E+03  0.63346454184E+04  0.65000000000E+04  0.15050000000E+03 0.  1.
</event>
<event>
 4    1  0.4826743E-004  0.6500000E+04  0.7818608E-02  0.7223770E-01
         52   -1    0    0    0    0  0.00000000000E+00  0.00000000000E+00  0.64930732323E+04  0.65000000000E+04  0.30000000000E+03 0.  1.
        -52   -1    0    0    0    0 -0.00000000000E+00 -0.00000000000E+00 -0.64930732323E+04  0.65000000000E+04  0.30000000000E+03 0. -1.
     100001    1    1    2    0    0  0.34801163093E+04 -0.38281082975E+04 -0.39321402679E+04  0.65000000000E+04  0.15050000000E+03 0. -1.
     100001    1    1    2    0    0 -0.34801163093E+04  0.38281082975E+04  0.39321402679E+04  0.65000000000E+04  0.15050000000E+03 0.  1.
</event>
<event>
 4    1  0.4826743E-004  0.6500000E+04  0.7818608E-02  0.7223770E-01
         52   -1    0    0    0    0  0.00000000000E+00  0.00000000000E+00  0.64930732323E+04  0.65000000000E+04  0.30000000000E+03 0.  1.
        -52   -1    0    0    0    0 -0.00000000000E+00 -0.00000000000E+00 -0.64930732323E+04  0.65000000000E+04  0.30000000000E+03 0. -1.
     100001    1    1    2    0    0 -0.12692217754E+04 -0.63454686104E+04  0.59283551658E+03  0.65000000000E+04  0.15050000000E+03 0.  1.
     100001    1    1    2    0    0  0.12692217754E+04  0.63454686104E+04 -0.59283551658E+03  0.65000000000E+04  0.15050000000E+03 0. -1.
</event>
<event>
 4    1  0.4826743E-004  0.6500000E+04  0.7818608E-02  0.7223770E-01
         52   -1    0    0    0    0  0.00000000000E+00  0.00000000000E+00  0.64930732323E+04  0.65000000000E+04  0.30000000000E+03 0. -1.
        -52   -1    0    0    0    0 -0.00000000000E+00 -0.00000000000E+00 -0.64930732323E+04  0.65000000000E+04  0.30000000000E+03 0.  1.
     100001    1    1    2    0    0 -0.98307774128E+03 -0.42569793272E+04 -0.48103050748E+04  0.65000000000E+04  0.15050000000E+03 0.  1.
     100001    1    1    2    0    0  0.98307774128E+03  0.42569793272E+04  0.48103050748E+04  0.65000000000E+04  0.15050000000E+03 0. -1.
</event>
<event>
 4    1  0.5700365E-004  0.6500000E+04  0.7818608E-02  0.7223770E-01
         52   -1    0    0    0    0  0.00000000000E+00  0.00000000000E+00  0.64930732323E+04  0.65000000000E+04  0.30000000000E+03 0.  1.
        -52   -1    0    0    0    0 -0.00000000000E+00 -0.00000000000E+00 -0.64930732323E+04  0.65000000000E+04  0.30000000000E+03 0.  1.
     100001    1    1    2    0    0  0.75637918994E+02  0.83829232185E+02  0.64972764536E+04  0.65000000000E+04  0.15050000000E+03 0.  1.
     100001    1    1    2    0    0 -0.75637918994E+02 -0.83829232185E+02 -0.64972764536E+04  0.65000000000E+04  0.15050000000E+03 0.  1.
</event>
<event>
 4    1  0.4826743E-004  0.6500000E+04  0.7818608E-02  0.7223770E-01
         52   -1    0    0    0    0  0.00000000000E+00  0.00000000000E+00  0.64930732323E+04  0.65000000000E+04  0.30000000000E+03 0. -1.
        -52   -1    0    0    0    0 -0.00000000000E+00 -0.00000000000E+00 -0.64930732323E+04  0.65000000000E+04  0.30000000000E+03 0.  1.
     100001    1    1    2    0    0  0.31610788768E+04  0.56385412345E+04  0.66466745958E+03  0.65000000000E+04  0.15050000000E+03 0.  1.
     100001    1    1    2    0    0 -0.31610788768E+04 -0.56385412345E+04 -0.66466745958E+03  0.65000000000E+04  0.15050000000E+03 0. -1.
</event>
<event>
 4    1  0.4826743E-004  0.6500000E+04  0.7818608E-02  0.7223770E-01
         52   -1    0    0    0    0  0.00000000000E+00  0.00000000000E+00  0.64930732323E+04  0.65000000000E+04  0.30000000000E+03 0. -1.
        -52   -1    0    0    0    0 -0.00000000000E+00 -0.00000000000E+00 -0.64930732323E+04  0.65000000000E+04  0.30000000000E+03 0.  1.
     100001    1    1    2    0    0  0.41091004327E+04  0.39844065593E+04  0.30768730480E+04  0.65000000000E+04  0.15050000000E+03 0. -1.
     100001    1    1    2    0    0 -0.41091004327E+04 -0.39844065593E+04 -0.30768730480E+04  0.65000000000E+04  0.15050000000E+03 0.  1.
</event>
<event>
 4    1  0.4826743E-004  0.6500000E+04  0.7818608E-02  0.7223770E-01
         52   -1    0    0    0    0  0.00000000000E+00  0.00000000000E+00  0.64930732323E+04  0.65000000000E+04  0.30000000000E+03 0.  1.
        -52   -1    0    0    0    0 -0.00000000000E+00 -0.00000000000E+00 -0.64930732323E+04  0.65000000000E+04  0.30000000000E+03 0. -1.
     100001    1    1    2    0    0 -0.14124943973E+04 -0.13415570300E+04  0.61993898137E+04  0.65000000000E+04  0.15050000000E+03 0.  1.
     100001    1    1    2    0    0  0.14124943973E+04  0.13415570300E+04 -0.61993898137E+04  0.65000000000E+04  0.15050000000E+03 0. -1.
</event>
<event>
 4    1  0.4826743E-004  0.6500000E+04  0.7818608E-02  0.7223770E-01
         52   -1    0    0    0    0  0.00000000000E+00  0.00000000000E+00  0.64930732323E+04  0.65000000000E+04  0.30000000000E+03 0. -1.
        -52   -1    0    0    0    0 -0.00000000000E+00 -0.00000000000E+00 -0.64930732323E+04  0.65000000000E+04  0.30000000000E+03 0.  1.
     100001    1    1    2    0    0 -0.19016285953E+04 -0.12933815886E+04 -0.60776905566E+04  0.65000000000E+04  0.15050000000E+03 0.  1.
     100001    1    1    2    0    0  0.19016285953E+04  0.12933815886E+04  0.60776905566E+04  0.65000000000E+04  0.15050000000E+03 0. -1.
</event>
<event>
 4    1  0.4826743E-004  0.6500000E+04  0.7818608E-02  0.7223770E-01
         52   -1    0    0    0    0  0.00000000000E+00  0.00000000000E+00  0.64930732323E+04  0.65000000000E+04  0.30000000000E+03 0. -1.
        -52   -1    0    0    0    0 -0.00000000000E+00 -0.00000000000E+00 -0.64930732323E+04  0.65000000000E+04  0.30000000000E+03 0.  1.
     100001    1    1    2    0    0  0.92788802206E+02 -0.25785690555E+03  0.64924764000E+04  0.65000000000E+04  0.15050000000E+03 0. -1.
     100001    1    1    2    0    0 -0.92788802206E+02  0.25785690555E+03 -0.64924764000E+04  0.65000000000E+04  0.15050000000E+03 0.  1.
</event>
<event>
 4    1  0.4826743E-004  0.6500000E+04  0.7818608E-02  0.7223770E-01
         52   -1    0    0    0    0  0.00000000000E+00  0.00000000000E+00  0.64930732323E+04  0.65000000000E+04  0.30000000000E+03 0.  1.
        -52   -1    0    0    0    0 -0.00000000000E+00 -0.00000000000E+00 -0.64930732323E+04  0.65000000000E+04  0.30000000000E+03 0. -1.
     100001    1    1    2    0    0 -0.74130937796E+02 -0.60512517047E+03  0.64695964234E+04  0.65000000000E+04  0.15050000000E+03 0.  1.
     100001    1    1    2    0    0  0.74130937796E+02  0.60512517047E+03 -0.64695964234E+04  0.65000000000E+04  0.15050000000E+03 0. -1.
</event>
<event>
 4    1  0.4826743E-004  0.6500000E+04  0.7818608E-02  0.7223770E-01
         52   -1    0    0    0    0  0.00000000000E+00  0.00000000000E+00  0.64930732323E+04  0.65000000000E+04  0.30000000000E+03 0. -1.
        -52   -1    0    0    0    0 -0.00000000000E+00 -0.00000000000E+00 -0.64930732323E+04  0.65000000000E+04  0.30000000000E+03 0.  1.
     100001    1    1    2    0    0 -0.13418168030E+03  0.12918282741E+04 -0.63671441586E+04  0.65000000000E+04  0.15050000000E+03 0.  1.
     100001    1    1    2    0    0  0.13418168030E+03 -0.12918282741E+04  0.63671441586E+04  0.65000000000E+04  0.15050000000E+03 0. -1.
</event>
<event>
 4    1  0.4826743E-004  0.6500000E+04  0.7818608E-02  0.7223770E-01
         52   -1    0    0    0    0  0.00000000000E+00  0.00000000000E+00  0.64930732323E+04  0.65000000000E+04  0.30000000000E+03 0. -1.
        -52   -1    0    0    0    0 -0.00000000000E+00 -0.00000000000E+00 -0.64930732323E+04  0.65000000000E+04  0.30000000000E+03 0.  1.
     100001    1    1    2    0    0  0.13626400225E+04 -0.42107666054E+04  0.47581515859E+04  0.65000000000E+04  0.15050000000E+03 0. -1.
     100001    1    1    2    0    0 -0.13626400225E+04  0.42107666054E+04 -0.47581515859E+04  0.65000000000E+04  0.15050000000E+03 0.  1.
</event>
<event>
 4    1  0.4826743E-004  0.6500000E+04  0.7818608E-02  0.7223770E-01
         52   -1    0    0    0    0  0.00000000000E+00  0.00000000000E+00  0.64930732323E+04  0.65000000000E+04  0.30000000000E+03 0.  1.
        -52   -1    0    0    0    0 -0.00000000000E+00 -0.00000000000E+00 -0.64930732323E+04  0.65000000000E+04  0.30000000000E+03 0. -1.
     100001    1    1    2    0    0 -0.11862850367E+04 -0.19971838510E+04 -0.60688824529E+04  0.65000000000E+04  0.15050000000E+03 0. -1.
     100001    1    1    2    0    0  0.11862850367E+04  0.19971838510E+04  0.60688824529E+04  0.65000000000E+04  0.15050000000E+03 0.  1.
</event>
<event>
 4    1  0.4826743E-004  0.6500000E+04  0.7818608E-02  0.7223770E-01
         52   -1    0    0    0    0  0.00000000000E+00  0.00000000000E+00  0.64930732323E+04  0.65000000000E+04  0.30000000000E+03 0. -1.
        -52   -1    0    0    0    0 -0.00000000000E+00 -0.00000000000E+00 -0.64930732323E+04  0.65000000000E+04  0.30000000000E+03 0.  1.
     100001    1    1    2    0    0 -0.74261489503E+03 -0.64483397032E+03 -0.64233995686E+04  0.65000000000E+04  0.15050000000E+03 0.  1.
     100001    1    1    2    0    0  0.74261489503E+03  0.64483397032E+03  0.64233995686E+04  0.65000000000E+04  0.15050000000E+03 0. -1.
</event>
<event>
 4    1  0.4826743E-004  0.6500000E+04  0.7818608E-02  0.7223770E-01
         52   -1    0    0    0    0  0.00000000000E+00  0.00000000000E+00  0.64930732323E+04  0.65000000000E+04  0.30000000000E+03 0.  1.
        -52   -1    0    0    0    0 -0.00000000000E+00 -0.00000000000E+00 -0.64930732323E+04  0.65000000000E+04  0.30000000000E+03 0. -1.
     100001    1    1    2    0    0  0.24619702418E+03 -0.85061341105E+03  0.64376388218E+04  0.65000000000E+04  0.15050000000E+03 0.  1.
     100001    1    1    2    0    0 -0.24619702418E+03  0.85061341105E+03 -0.64376388218E+04  0.65000000000E+04  0.15050000000E+03 0. -1.
</event>
<event>
 4    1  0.4826743E-004  0.6500000E+04  0.7818608E-02  0.7223770E-01
         52   -1    0    0    0    0  0.00000000000E+00  0.00000000000E+00  0.64930732323E+04  0.65000000000E+04  0.30000000000E+03 0. -1.
        -52   -1    0    0    0    0 -0.00000000000E+00 -0.00000000000E+00 -0.64930732323E+04  0.65000000000E+04  0.30000000000E+03 0.  1.
     100001    1    1    2    0    0  0.55735913863E+04  0.24333455998E+03  0.33321490213E+04  0.65000000000E+04  0.15050000000E+03 0. -1.
     100001    1    1    2    0    0 -0.55735913863E+04 -0.24333455998E+03 -0.33321490213E+04  0.65000000000E+04  0.15050000000E+03 0.  1.
</event>
<event>
 4    1  0.4826743E-004  0.6500000E+04  0.7818608E-02  0.7223770E-01
         52   -1    0    0    0    0  0.00000000000E+00  0.00000000000E+00  0.64930732323E+04  0.65000000000E+04  0.30000000000E+03 0. -1.
        -52   -1    0    0    0    0 -0.00000000000E+00 -0.00000000000E+00 -0.64930732323E+04  0.65000000000E+04  0.30000000000E+03 0.  1.
     100001    1    1    2    0    0  0.25077270326E+03 -0.16249249006E+04 -0.62868181037E+04  0.65000000000E+04  0.15050000000E+03 0.  1.
     100001    1    1    2    0    0 -0.25077270326E+03  0.16249249006E+04  0.62868181037E+04  0.65000000000E+04  0.15050000000E+03 0. -1.
</event>
<event>
 4    1  0.4826743E-004  0.6500000E+04  0.7818608E-02  0.7223770E-01
         52   -1    0    0    0    0  0.00000000000E+00  0.00000000000E+00  0.64930732323E+04  0.65000000000E+04  0.30000000000E+03 0. -1.
        -52   -1    0    0    0    0 -0.00000000000E+00 -0.00000000000E+00 -0.64930732323E+04  0.65000000000E+04  0.30000000000E+03 0.  1.
     100001    1    1    2    0    0 -0.48637267916E+04 -0.40147074589E+04  0.15664084607E+04  0.65000000000E+04  0.15050000000E+03 0. -1.
     100001    1    1    2    0    0  0.48637267916E+04  0.40147074589E+04 -0.15664084607E+04  0.65000000000E+04  0.15050000000E+03 0.  1.
</event>
<event>
 4    1  0.4826743E-004  0.6500000E+04  0.7818608E-02  0.7223770E-01
         52   -1    0    0    0    0  0.00000000000E+00  0.00000000000E+00  0.64930732323E+04  0.65000000000E+04  0.30000000000E+03 0. -1.
        -52   -1    0    0    0    0 -0.00000000000E+00 -0.00000000000E+00 -0.64930732323E+04  0.65000000000E+04  0.30000000000E+03 0.  1.
     100001    1    1    2    0    0  0.11207753999E+03  0.36064416121E+03 -0.64872740164E+04  0.65000000000E+04  0.15050000000E+03 0.  1.
     100001    1    1    2    0    0 -0.11207753999E+03 -0.36064416121E+03  0.64872740164E+04  0.65000000000E+04  0.15050000000E+03 0. -1.
</event>
<event>
 4    1  0.4826743E-004  0.6500000E+04  0.7818608E-02  0.7223770E-01
         52   -1    0    0    0    0  0.00000000000E+00  0.00000000000E+00  0.64930732323E+04  0.65000000000E+04  0.30000000000E+03 0.  1.
        -52   -1    0    0    0    0 -0.00000000000E+00 -0.00000000000E+00 -0.64930732323E+04  0.65000000000E+04  0.30000000000E+03 0. -1.
     100001    1    1    2    0    0  0.51003510487E+03  0.11007387780E+04 -0.63840103450E+04  0.65000000000E+04  0.15050000000E+03 0. -1.
     100001    1    1    2    0    0 -0.51003510487E+03 -0.11007387780E+04  0.63840103450E+04  0.65000000000E+04  0.15050000000E+03 0.  1.
</event>
<event>
 4    1  0.4826743E-004  0.6500000E+04  0.7818608E-02  0.7223770E-01
         52   -1    0    0    0    0  0.00000000000E+00  0.00000000000E+00  0.64930732323E+04  0.65000000000E+04  0.30000000000E+03 0. -1.
        -52   -1    0    0    0    0 -0.00000000000E+00 -0.00000000000E+00 -0.64930732323E+04  0.65000000000E+04  0.30000000000E+03 0.  1.
     100001    1    1    2    0    0  0.11123947396E+04  0.11172234567E+02 -0.64023279262E+04  0.65000000000E+04  0.15050000000E+03 0.  1.
     100001    1    1    2    0    0 -0.11123947396E+04 -0.11172234567E+02  0.64023279262E+04  0.65000000000E+04  0.15050000000E+03 0. -1.
</event>
<event>
 4    1  0.4826743E-004  0.6500000E+04  0.7818608E-02  0.7223770E-01
         52   -1    0    0    0    0  0.00000000000E+00  0.00000000000E+00  0.64930732323E+04  0.65000000000E+04  0.30000000000E+03 0.  1.
        -52   -1    0    0    0    0 -0.00000000000E+00 -0.00000000000E+00 -0.64930732323E+04  0.65000000000E+04  0.30000000000E+03 0.  1.
     100001    1    1    2    0    0 -0.94056707446E+03 -0.83380924719E+03 -0.63755349162E+04  0.65000000000E+04  0.15050000000E+03 0.  1.
     100001    1    1    2    0    0  0.94056707446E+03  0.83380924719E+03  0.63755349162E+04  0.65000000000E+04  0.15050000000E+03 0.  1.
</event>
<event>
 4    1  0.4826743E-004  0.6500000E+04  0.7818608E-02  0.7223770E-01
         52   -1    0    0    0    0  0.00000000000E+00  0.00000000000E+00  0.64930732323E+04  0.65000000000E+04  0.30000000000E+03 0. -1.
        -52   -1    0    0    0    0 -0.00000000000E+00 -0.00000000000E+00 -0.64930732323E+04  0.65000000000E+04  0.30000000000E+03 0. -1.
     100001    1    1    2    0    0 -0.56187656501E+03  0.18602690612E+03  0.64712470565E+04  0.65000000000E+04  0.15050000000E+03 0. -1.
     100001    1    1    2    0    0  0.56187656501E+03 -0.18602690612E+03 -0.64712470565E+04  0.65000000000E+04  0.15050000000E+03 0. -1.
</event>
<event>
 4    1  0.4826743E-004  0.6500000E+04  0.7818608E-02  0.7223770E-01
         52   -1    0    0    0    0  0.00000000000E+00  0.00000000000E+00  0.64930732323E+04  0.65000000000E+04  0.30000000000E+03 0. -1.
        -52   -1    0    0    0    0 -0.00000000000E+00 -0.00000000000E+00 -0.64930732323E+04  0.65000000000E+04  0.30000000000E+03 0.  1.
     100001    1    1    2    0    0 -0.47147138912E+04  0.21916027476E+04 -0.38981662447E+04  0.65000000000E+04  0.15050000000E+03 0.  1.
     100001    1    1    2    0    0  0.47147138912E+04 -0.21916027476E+04  0.38981662447E+04  0.65000000000E+04  0.15050000000E+03 0. -1.
</event>
<event>
 4    1  0.4826743E-004  0.6500000E+04  0.7818608E-02  0.7223770E-01
         52   -1    0    0    0    0  0.00000000000E+00  0.00000000000E+00  0.64930732323E+04  0.65000000000E+04  0.30000000000E+03 0. -1.
        -52   -1    0    0    0    0 -0.00000000000E+00 -0.00000000000E+00 -0.64930732323E+04  0.65000000000E+04  0.30000000000E+03 0.  1.
     100001    1    1    2    0    0 -0.99987939755E+03 -0.96876189432E+03  0.63473688511E+04  0.65000000000E+04  0.15050000000E+03 0. -1.
     100001    1    1    2    0    0  0.99987939755E+03  0.96876189432E+03 -0.63473688511E+04  0.65000000000E+04  0.15050000000E+03 0.  1.
</event>
<event>
 4    1  0.4826743E-004  0.6500000E+04  0.7818608E-02  0.7223770E-01
         52   -1    0    0    0    0  0.00000000000E+00  0.00000000000E+00  0.64930732323E+04  0.65000000000E+04  0.30000000000E+03 0. -1.
        -52   -1    0    0    0    0 -0.00000000000E+00 -0.00000000000E+00 -0.64930732323E+04  0.65000000000E+04  0.30000000000E+03 0.  1.
     100001    1    1    2    0    0  0.71192227909E+02  0.12959302793E+04 -0.63673264506E+04  0.65000000000E+04  0.15050000000E+03 0.  1.
     100001    1    1    2    0    0 -0.71192227909E+02 -0.12959302793E+04  0.63673264506E+04  0.65000000000E+04  0.15050000000E+03 0. -1.
</event>
<event>
 4    1  0.4826743E-004  0.6500000E+04  0.7818608E-02  0.7223770E-01
         52   -1    0    0    0    0  0.00000000000E+00  0.00000000000E+00  0.64930732323E+04  0.65000000000E+04  0.30000000000E+03 0.  1.
        -52   -1    0    0    0    0 -0.00000000000E+00 -0.00000000000E+00 -0.64930732323E+04  0.65000000000E+04  0.30000000000E+03 0. -1.
     100001    1    1    2    0    0 -0.32697052537E+03 -0.42843290386E+04 -0.48749322779E+04  0.65000000000E+04  0.15050000000E+03 0. -1.
     100001    1    1    2    0    0  0.32697052537E+03  0.42843290386E+04  0.48749322779E+04  0.65000000000E+04  0.15050000000E+03 0.  1.
</event>
<event>
 4    1  0.4826743E-004  0.6500000E+04  0.7818608E-02  0.7223770E-01
         52   -1    0    0    0    0  0.00000000000E+00  0.00000000000E+00  0.64930732323E+04  0.65000000000E+04  0.30000000000E+03 0.  1.
        -52   -1    0    0    0    0 -0.00000000000E+00 -0.00000000000E+00 -0.64930732323E+04  0.65000000000E+04  0.30000000000E+03 0. -1.
     100001    1    1    2    0    0  0.41570258019E+03  0.35353332825E+04 -0.54365393125E+04  0.65000000000E+04  0.15050000000E+03 0. -1.
     100001    1    1    2    0    0 -0.41570258019E+03 -0.35353332825E+04  0.54365393125E+04  0.65000000000E+04  0.15050000000E+03 0.  1.
</event>
<event>
 4    1  0.4826743E-004  0.6500000E+04  0.7818608E-02  0.7223770E-01
         52   -1    0    0    0    0  0.00000000000E+00  0.00000000000E+00  0.64930732323E+04  0.65000000000E+04  0.30000000000E+03 0. -1.
        -52   -1    0    0    0    0 -0.00000000000E+00 -0.00000000000E+00 -0.64930732323E+04  0.65000000000E+04  0.30000000000E+03 0.  1.
     100001    1    1    2    0    0  0.49217625918E+02  0.53031457349E+04 -0.37552060781E+04  0.65000000000E+04  0.15050000000E+03 0.  1.
     100001    1    1    2    0    0 -0.49217625918E+02 -0.53031457349E+04  0.37552060781E+04  0.65000000000E+04  0.15050000000E+03 0. -1.
</event>
<event>
 4    1  0.4826743E-004  0.6500000E+04  0.7818608E-02  0.7223770E-01
         52   -1    0    0    0    0  0.00000000000E+00  0.00000000000E+00  0.64930732323E+04  0.65000000000E+04  0.30000000000E+03 0. -1.
        -52   -1    0    0    0    0 -0.00000000000E+00 -0.00000000000E+00 -0.64930732323E+04  0.65000000000E+04  0.30000000000E+03 0. -1.
     100001    1    1    2    0    0  0.30639493821E+03 -0.27620773165E+03  0.64851508217E+04  0.65000000000E+04  0.15050000000E+03 0. -1.
     100001    1    1    2    0    0 -0.30639493821E+03  0.27620773165E+03 -0.64851508217E+04  0.65000000000E+04  0.15050000000E+03 0. -1.
</event>
<event>
 4    1  0.4826743E-004  0.6500000E+04  0.7818608E-02  0.7223770E-01
         52   -1    0    0    0    0  0.00000000000E+00  0.00000000000E+00  0.64930732323E+04  0.65000000000E+04  0.30000000000E+03 0.  1.
        -52   -1    0    0    0    0 -0.00000000000E+00 -0.00000000000E+00 -0.64930732323E+04  0.65000000000E+04  0.30000000000E+03 0. -1.
     100001    1    1    2    0    0 -0.12966340744E+04  0.23386565599E+04 -0.59225649276E+04  0.65000000000E+04  0.15050000000E+03 0. -1.
     100001    1    1    2    0    0  0.12966340744E+04 -0.23386565599E+04  0.59225649276E+04  0.65000000000E+04  0.15050000000E+03 0.  1.
</event>
<event>
 4    1  0.4826743E-004  0.6500000E+04  0.7818608E-02  0.7223770E-01
         52   -1    0    0    0    0  0.00000000000E+00  0.00000000000E+00  0.64930732323E+04  0.65000000000E+04  0.30000000000E+03 0.  1.
        -52   -1    0    0    0    0 -0.00000000000E+00 -0.00000000000E+00 -0.64930732323E+04  0.65000000000E+04  0.30000000000E+03 0. -1.
     100001    1    1    2    0    0 -0.59524808882E+04 -0.13656624399E+04 -0.22204249876E+04  0.65000000000E+04  0.15050000000E+03 0.  1.
     100001    1    1    2    0    0  0.59524808882E+04  0.13656624399E+04  0.22204249876E+04  0.65000000000E+04  0.15050000000E+03 0. -1.
</event>
<event>
 4    1  0.4826744E-004  0.6500000E+04  0.7818608E-02  0.7223770E-01
         52   -1    0    0    0    0  0.00000000000E+00  0.00000000000E+00  0.64930732323E+04  0.65000000000E+04  0.30000000000E+03 0. -1.
        -52   -1    0    0    0    0 -0.00000000000E+00 -0.00000000000E+00 -0.64930732323E+04  0.65000000000E+04  0.30000000000E+03 0. -1.
     100001    1    1    2    0    0  0.21780650162E+03 -0.10334311509E+03  0.64937839723E+04  0.65000000000E+04  0.15050000000E+03 0. -1.
     100001    1    1    2    0    0 -0.21780650162E+03  0.10334311509E+03 -0.64937839723E+04  0.65000000000E+04  0.15050000000E+03 0. -1.
</event>
<event>
 4    1  0.4826743E-004  0.6500000E+04  0.7818608E-02  0.7223770E-01
         52   -1    0    0    0    0  0.00000000000E+00  0.00000000000E+00  0.64930732323E+04  0.65000000000E+04  0.30000000000E+03 0.  1.
        -52   -1    0    0    0    0 -0.00000000000E+00 -0.00000000000E+00 -0.64930732323E+04  0.65000000000E+04  0.30000000000E+03 0. -1.
     100001    1    1    2    0    0 -0.63675088543E+03  0.84049589688E+02  0.64664390298E+04  0.65000000000E+04  0.15050000000E+03 0.  1.
     100001    1    1    2    0    0  0.63675088543E+03 -0.84049589688E+02 -0.64664390298E+04  0.65000000000E+04  0.15050000000E+03 0. -1.
</event>
<event>
 4    1  0.4826743E-004  0.6500000E+04  0.7818608E-02  0.7223770E-01
         52   -1    0    0    0    0  0.00000000000E+00  0.00000000000E+00  0.64930732323E+04  0.65000000000E+04  0.30000000000E+03 0.  1.
        -52   -1    0    0    0    0 -0.00000000000E+00 -0.00000000000E+00 -0.64930732323E+04  0.65000000000E+04  0.30000000000E+03 0. -1.
     100001    1    1    2    0    0  0.53572942519E+03  0.11721488248E+04  0.63691766238E+04  0.65000000000E+04  0.15050000000E+03 0.  1.
     100001    1    1    2    0    0 -0.53572942519E+03 -0.11721488248E+04 -0.63691766238E+04  0.65000000000E+04  0.15050000000E+03 0. -1.
</event>
<event>
 4    1  0.4826743E-004  0.6500000E+04  0.7818608E-02  0.7223770E-01
         52   -1    0    0    0    0  0.00000000000E+00  0.00000000000E+00  0.64930732323E+04  0.65000000000E+04  0.30000000000E+03 0. -1.
        -52   -1    0    0    0    0 -0.00000000000E+00 -0.00000000000E+00 -0.64930732323E+04  0.65000000000E+04  0.30000000000E+03 0.  1.
     100001    1    1    2    0    0  0.19893702888E+04 -0.42471277088E+04 -0.44979619640E+04  0.65000000000E+04  0.15050000000E+03 0.  1.
     100001    1    1    2    0    0 -0.19893702888E+04  0.42471277088E+04  0.44979619640E+04  0.65000000000E+04  0.15050000000E+03 0. -1.
</event>
<event>
 4    1  0.6839481E-004  0.6500000E+04  0.7818608E-02  0.7223770E-01
         52   -1    0    0    0    0  0.00000000000E+00  0.00000000000E+00  0.64930732323E+04  0.65000000000E+04  0.30000000000E+03 0. -1.
        -52   -1    0    0    0    0 -0.00000000000E+00 -0.00000000000E+00 -0.64930732323E+04  0.65000000000E+04  0.30000000000E+03 0. -1.
     100001    1    1    2    0    0 -0.12183580954E+03 -0.86129422381E+01  0.64971094806E+04  0.65000000000E+04  0.15050000000E+03 0. -1.
     100001    1    1    2    0    0  0.12183580954E+03  0.86129422381E+01 -0.64971094806E+04  0.65000000000E+04  0.15050000000E+03 0. -1.
</event>
<event>
 4    1  0.4826743E-004  0.6500000E+04  0.7818608E-02  0.7223770E-01
         52   -1    0    0    0    0  0.00000000000E+00  0.00000000000E+00  0.64930732323E+04  0.65000000000E+04  0.30000000000E+03 0.  1.
        -52   -1    0    0    0    0 -0.00000000000E+00 -0.00000000000E+00 -0.64930732323E+04  0.65000000000E+04  0.30000000000E+03 0. -1.
     100001    1    1    2    0    0 -0.20027793500E+04 -0.20295341324E+04 -0.58392821332E+04  0.65000000000E+04  0.15050000000E+03 0. -1.
     100001    1    1    2    0    0  0.20027793500E+04  0.20295341324E+04  0.58392821332E+04  0.65000000000E+04  0.15050000000E+03 0.  1.
</event>
<event>
 4    1  0.4826743E-004  0.6500000E+04  0.7818608E-02  0.7223770E-01
         52   -1    0    0    0    0  0.00000000000E+00  0.00000000000E+00  0.64930732323E+04  0.65000000000E+04  0.30000000000E+03 0. -1.
        -52   -1    0    0    0    0 -0.00000000000E+00 -0.00000000000E+00 -0.64930732323E+04  0.65000000000E+04  0.30000000000E+03 0.  1.
     100001    1    1    2    0    0  0.28045872394E+04 -0.18790638981E+04 -0.55525452752E+04  0.65000000000E+04  0.15050000000E+03 0.  1.
     100001    1    1    2    0    0 -0.28045872394E+04  0.18790638981E+04  0.55525452752E+04  0.65000000000E+04  0.15050000000E+03 0. -1.
</event>
<event>
 4    1  0.4826743E-004  0.6500000E+04  0.7818608E-02  0.7223770E-01
         52   -1    0    0    0    0  0.00000000000E+00  0.00000000000E+00  0.64930732323E+04  0.65000000000E+04  0.30000000000E+03 0.  1.
        -52   -1    0    0    0    0 -0.00000000000E+00 -0.00000000000E+00 -0.64930732323E+04  0.65000000000E+04  0.30000000000E+03 0. -1.
     100001    1    1    2    0    0 -0.57169663105E+02 -0.60497937382E+03 -0.64697821707E+04  0.65000000000E+04  0.15050000000E+03 0. -1.
     100001    1    1    2    0    0  0.57169663105E+02  0.60497937382E+03  0.64697821707E+04  0.65000000000E+04  0.15050000000E+03 0.  1.
</event>
<event>
 4    1  0.4826743E-004  0.6500000E+04  0.7818608E-02  0.7223770E-01
         52   -1    0    0    0    0  0.00000000000E+00  0.00000000000E+00  0.64930732323E+04  0.65000000000E+04  0.30000000000E+03 0.  1.
        -52   -1    0    0    0    0 -0.00000000000E+00 -0.00000000000E+00 -0.64930732323E+04  0.65000000000E+04  0.30000000000E+03 0.  1.
     100001    1    1    2    0    0  0.80888879222E+00 -0.15201781908E+03 -0.64964790216E+04  0.65000000000E+04  0.15050000000E+03 0.  1.
     100001    1    1    2    0    0 -0.80888879222E+00  0.15201781908E+03  0.64964790216E+04  0.65000000000E+04  0.15050000000E+03 0.  1.
</event>
<event>
 4    1  0.4826743E-004  0.6500000E+04  0.7818608E-02  0.7223770E-01
         52   -1    0    0    0    0  0.00000000000E+00  0.00000000000E+00  0.64930732323E+04  0.65000000000E+04  0.30000000000E+03 0. -1.
        -52   -1    0    0    0    0 -0.00000000000E+00 -0.00000000000E+00 -0.64930732323E+04  0.65000000000E+04  0.30000000000E+03 0.  1.
     100001    1    1    2    0    0  0.16618992314E+04  0.28655431786E+04  0.55905369140E+04  0.65000000000E+04  0.15050000000E+03 0. -1.
     100001    1    1    2    0    0 -0.16618992314E+04 -0.28655431786E+04 -0.55905369140E+04  0.65000000000E+04  0.15050000000E+03 0.  1.
</event>
<event>
 4    1  0.4826743E-004  0.6500000E+04  0.7818608E-02  0.7223770E-01
         52   -1    0    0    0    0  0.00000000000E+00  0.00000000000E+00  0.64930732323E+04  0.65000000000E+04  0.30000000000E+03 0. -1.
        -52   -1    0    0    0    0 -0.00000000000E+00 -0.00000000000E+00 -0.64930732323E+04  0.65000000000E+04  0.30000000000E+03 0.  1.
     100001    1    1    2    0    0 -0.28040941171E+03  0.21762763673E+04  0.61165792306E+04  0.65000000000E+04  0.15050000000E+03 0. -1.
     100001    1    1    2    0    0  0.28040941171E+03 -0.21762763673E+04 -0.61165792306E+04  0.65000000000E+04  0.15050000000E+03 0.  1.
</event>
<event>
 4    1  0.4826743E-004  0.6500000E+04  0.7818608E-02  0.7223770E-01
         52   -1    0    0    0    0  0.00000000000E+00  0.00000000000E+00  0.64930732323E+04  0.65000000000E+04  0.30000000000E+03 0. -1.
        -52   -1    0    0    0    0 -0.00000000000E+00 -0.00000000000E+00 -0.64930732323E+04  0.65000000000E+04  0.30000000000E+03 0.  1.
     100001    1    1    2    0    0 -0.24755972284E+03  0.64332591303E+03 -0.64615938980E+04  0.65000000000E+04  0.15050000000E+03 0.  1.
     100001    1    1    2    0    0  0.24755972284E+03 -0.64332591303E+03  0.64615938980E+04  0.65000000000E+04  0.15050000000E+03 0. -1.
</event>
<event>
 4    1  0.4826743E-004  0.6500000E+04  0.7818608E-02  0.7223770E-01
         52   -1    0    0    0    0  0.00000000000E+00  0.00000000000E+00  0.64930732323E+04  0.65000000000E+04  0.30000000000E+03 0. -1.
        -52   -1    0    0    0    0 -0.00000000000E+00 -0.00000000000E+00 -0.64930732323E+04  0.65000000000E+04  0.30000000000E+03 0.  1.
     100001    1    1    2    0    0 -0.99716294261E+03  0.59355295355E+03 -0.63938025233E+04  0.65000000000E+04  0.15050000000E+03 0.  1.
     100001    1    1    2    0    0  0.99716294261E+03 -0.59355295355E+03  0.63938025233E+04  0.65000000000E+04  0.15050000000E+03 0. -1.
</event>
<event>
 4    1  0.4826743E-004  0.6500000E+04  0.7818608E-02  0.7223770E-01
         52   -1    0    0    0    0  0.00000000000E+00  0.00000000000E+00  0.64930732323E+04  0.65000000000E+04  0.30000000000E+03 0. -1.
        -52   -1    0    0    0    0 -0.00000000000E+00 -0.00000000000E+00 -0.64930732323E+04  0.65000000000E+04  0.30000000000E+03 0.  1.
     100001    1    1    2    0    0 -0.38775744599E+03  0.25652289999E+04  0.59579018195E+04  0.65000000000E+04  0.15050000000E+03 0. -1.
     100001    1    1    2    0    0  0.38775744599E+03 -0.25652289999E+04 -0.59579018195E+04  0.65000000000E+04  0.15050000000E+03 0.  1.
</event>
<event>
 4    1  0.4826743E-004  0.6500000E+04  0.7818608E-02  0.7223770E-01
         52   -1    0    0    0    0  0.00000000000E+00  0.00000000000E+00  0.64930732323E+04  0.65000000000E+04  0.30000000000E+03 0. -1.
        -52   -1    0    0    0    0 -0.00000000000E+00 -0.00000000000E+00 -0.64930732323E+04  0.65000000000E+04  0.30000000000E+03 0.  1.
     100001    1    1    2    0    0 -0.62711555597E+02  0.60337549377E+04 -0.24118910345E+04  0.65000000000E+04  0.15050000000E+03 0.  1.
     100001    1    1    2    0    0  0.62711555597E+02 -0.60337549377E+04  0.24118910345E+04  0.65000000000E+04  0.15050000000E+03 0. -1.
</event>
<event>
 4    1  0.4826743E-004  0.6500000E+04  0.7818608E-02  0.7223770E-01
         52   -1    0    0    0    0  0.00000000000E+00  0.00000000000E+00  0.64930732323E+04  0.65000000000E+04  0.30000000000E+03 0.  1.
        -52   -1    0    0    0    0 -0.00000000000E+00 -0.00000000000E+00 -0.64930732323E+04  0.65000000000E+04  0.30000000000E+03 0. -1.
     100001    1    1    2    0    0  0.37093687652E+04  0.24033627359E+04  0.47635890538E+04  0.65000000000E+04  0.15050000000E+03 0.  1.
     100001    1    1    2    0    0 -0.37093687652E+04 -0.24033627359E+04 -0.47635890538E+04  0.65000000000E+04  0.15050000000E+03 0. -1.
</event>
<event>
 4    1  0.4826743E-004  0.6500000E+04  0.7818608E-02  0.7223770E-01
         52   -1    0    0    0    0  0.00000000000E+00  0.00000000000E+00  0.64930732323E+04  0.65000000000E+04  0.30000000000E+03 0.  1.
        -52   -1    0    0    0    0 -0.00000000000E+00 -0.00000000000E+00 -0.64930732323E+04  0.65000000000E+04  0.30000000000E+03 0. -1.
     100001    1    1    2    0    0 -0.12391035355E+04 -0.21154976290E+03 -0.63755171458E+04  0.65000000000E+04  0.15050000000E+03 0. -1.
     100001    1    1    2    0    0  0.12391035355E+04  0.21154976290E+03  0.63755171458E+04  0.65000000000E+04  0.15050000000E+03 0.  1.
</event>
<event>
 4    1  0.4826743E-004  0.6500000E+04  0.7818608E-02  0.7223770E-01
         52   -1    0    0    0    0  0.00000000000E+00  0.00000000000E+00  0.64930732323E+04  0.65000000000E+04  0.30000000000E+03 0. -1.
        -52   -1    0    0    0    0 -0.00000000000E+00 -0.00000000000E+00 -0.64930732323E+04  0.65000000000E+04  0.30000000000E+03 0.  1.
     100001    1    1    2    0    0  0.17608184500E+03 -0.22288278830E+03 -0.64920465338E+04  0.65000000000E+04  0.15050000000E+03 0.  1.
     100001    1    1    2    0    0 -0.17608184500E+03  0.22288278830E+03  0.64920465338E+04  0.65000000000E+04  0.15050000000E+03 0. -1.
</event>
<event>
 4    1  0.4826743E-004  0.6500000E+04  0.7818608E-02  0.7223770E-01
         52   -1    0    0    0    0  0.00000000000E+00  0.00000000000E+00  0.64930732323E+04  0.65000000000E+04  0.30000000000E+03 0. -1.
        -52   -1    0    0    0    0 -0.00000000000E+00 -0.00000000000E+00 -0.64930732323E+04  0.65000000000E+04  0.30000000000E+03 0.  1.
     100001    1    1    2    0    0  0.90785583515E+03  0.16536449488E+04  0.62184086321E+04  0.65000000000E+04  0.15050000000E+03 0. -1.
     100001    1    1    2    0    0 -0.90785583515E+03 -0.16536449488E+04 -0.62184086321E+04  0.65000000000E+04  0.15050000000E+03 0.  1.
</event>
<event>
 4    1  0.4826743E-004  0.6500000E+04  0.7818608E-02  0.7223770E-01
         52   -1    0    0    0    0  0.00000000000E+00  0.00000000000E+00  0.64930732323E+04  0.65000000000E+04  0.30000000000E+03 0. -1.
        -52   -1    0    0    0    0 -0.00000000000E+00 -0.00000000000E+00 -0.64930732323E+04  0.65000000000E+04  0.30000000000E+03 0.  1.
     100001    1    1    2    0    0 -0.13169273583E+04  0.64806976025E+03  0.63303284013E+04  0.65000000000E+04  0.15050000000E+03 0. -1.
     100001    1    1    2    0    0  0.13169273583E+04 -0.64806976025E+03 -0.63303284013E+04  0.65000000000E+04  0.15050000000E+03 0.  1.
</event>
<event>
 4    1  0.4826743E-004  0.6500000E+04  0.7818608E-02  0.7223770E-01
         52   -1    0    0    0    0  0.00000000000E+00  0.00000000000E+00  0.64930732323E+04  0.65000000000E+04  0.30000000000E+03 0.  1.
        -52   -1    0    0    0    0 -0.00000000000E+00 -0.00000000000E+00 -0.64930732323E+04  0.65000000000E+04  0.30000000000E+03 0. -1.
     100001    1    1    2    0    0 -0.43812695619E+03 -0.13379968098E+04  0.63439072390E+04  0.65000000000E+04  0.15050000000E+03 0.  1.
     100001    1    1    2    0    0  0.43812695619E+03  0.13379968098E+04 -0.63439072390E+04  0.65000000000E+04  0.15050000000E+03 0. -1.
</event>
<event>
 4    1  0.4826743E-004  0.6500000E+04  0.7818608E-02  0.7223770E-01
         52   -1    0    0    0    0  0.00000000000E+00  0.00000000000E+00  0.64930732323E+04  0.65000000000E+04  0.30000000000E+03 0. -1.
        -52   -1    0    0    0    0 -0.00000000000E+00 -0.00000000000E+00 -0.64930732323E+04  0.65000000000E+04  0.30000000000E+03 0.  1.
     100001    1    1    2    0    0  0.32055128037E+04 -0.35238607418E+04 -0.44197786017E+04  0.65000000000E+04  0.15050000000E+03 0.  1.
     100001    1    1    2    0    0 -0.32055128037E+04  0.35238607418E+04  0.44197786017E+04  0.65000000000E+04  0.15050000000E+03 0. -1.
</event>
<event>
 4    1  0.4826743E-004  0.6500000E+04  0.7818608E-02  0.7223770E-01
         52   -1    0    0    0    0  0.00000000000E+00  0.00000000000E+00  0.64930732323E+04  0.65000000000E+04  0.30000000000E+03 0. -1.
        -52   -1    0    0    0    0 -0.00000000000E+00 -0.00000000000E+00 -0.64930732323E+04  0.65000000000E+04  0.30000000000E+03 0.  1.
     100001    1    1    2    0    0 -0.95019659284E+03 -0.49325612824E+04 -0.41224162065E+04  0.65000000000E+04  0.15050000000E+03 0.  1.
     100001    1    1    2    0    0  0.95019659284E+03  0.49325612824E+04  0.41224162065E+04  0.65000000000E+04  0.15050000000E+03 0. -1.
</event>
<event>
 4    1  0.4826743E-004  0.6500000E+04  0.7818608E-02  0.7223770E-01
         52   -1    0    0    0    0  0.00000000000E+00  0.00000000000E+00  0.64930732323E+04  0.65000000000E+04  0.30000000000E+03 0. -1.
        -52   -1    0    0    0    0 -0.00000000000E+00 -0.00000000000E+00 -0.64930732323E+04  0.65000000000E+04  0.30000000000E+03 0.  1.
     100001    1    1    2    0    0  0.50215099575E+04  0.24032923372E+04  0.33520103579E+04  0.65000000000E+04  0.15050000000E+03 0. -1.
     100001    1    1    2    0    0 -0.50215099575E+04 -0.24032923372E+04 -0.33520103579E+04  0.65000000000E+04  0.15050000000E+03 0.  1.
</event>
<event>
 4    1  0.4826743E-004  0.6500000E+04  0.7818608E-02  0.7223770E-01
         52   -1    0    0    0    0  0.00000000000E+00  0.00000000000E+00  0.64930732323E+04  0.65000000000E+04  0.30000000000E+03 0.  1.
        -52   -1    0    0    0    0 -0.00000000000E+00 -0.00000000000E+00 -0.64930732323E+04  0.65000000000E+04  0.30000000000E+03 0. -1.
     100001    1    1    2    0    0 -0.16742837171E+04  0.19434826847E+04  0.59705107687E+04  0.65000000000E+04  0.15050000000E+03 0.  1.
     100001    1    1    2    0    0  0.16742837171E+04 -0.19434826847E+04 -0.59705107687E+04  0.65000000000E+04  0.15050000000E+03 0. -1.
</event>
<event>
 4    1  0.4826743E-004  0.6500000E+04  0.7818608E-02  0.7223770E-01
         52   -1    0    0    0    0  0.00000000000E+00  0.00000000000E+00  0.64930732323E+04  0.65000000000E+04  0.30000000000E+03 0.  1.
        -52   -1    0    0    0    0 -0.00000000000E+00 -0.00000000000E+00 -0.64930732323E+04  0.65000000000E+04  0.30000000000E+03 0. -1.
     100001    1    1    2    0    0 -0.34237842033E+03 -0.54110342596E+02  0.64890059977E+04  0.65000000000E+04  0.15050000000E+03 0.  1.
     100001    1    1    2    0    0  0.34237842033E+03  0.54110342596E+02 -0.64890059977E+04  0.65000000000E+04  0.15050000000E+03 0. -1.
</event>
<event>
 4    1  0.4826743E-004  0.6500000E+04  0.7818608E-02  0.7223770E-01
         52   -1    0    0    0    0  0.00000000000E+00  0.00000000000E+00  0.64930732323E+04  0.65000000000E+04  0.30000000000E+03 0.  1.
        -52   -1    0    0    0    0 -0.00000000000E+00 -0.00000000000E+00 -0.64930732323E+04  0.65000000000E+04  0.30000000000E+03 0. -1.
     100001    1    1    2    0    0  0.44329515784E+04 -0.28873610422E+04 -0.37735177574E+04  0.65000000000E+04  0.15050000000E+03 0. -1.
     100001    1    1    2    0    0 -0.44329515784E+04  0.28873610422E+04  0.37735177574E+04  0.65000000000E+04  0.15050000000E+03 0.  1.
</event>
<event>
 4    1  0.4826743E-004  0.6500000E+04  0.7818608E-02  0.7223770E-01
         52   -1    0    0    0    0  0.00000000000E+00  0.00000000000E+00  0.64930732323E+04  0.65000000000E+04  0.30000000000E+03 0. -1.
        -52   -1    0    0    0    0 -0.00000000000E+00 -0.00000000000E+00 -0.64930732323E+04  0.65000000000E+04  0.30000000000E+03 0.  1.
     100001    1    1    2    0    0  0.41385696482E+03 -0.12542953382E+03  0.64838522188E+04  0.65000000000E+04  0.15050000000E+03 0. -1.
     100001    1    1    2    0    0 -0.41385696482E+03  0.12542953382E+03 -0.64838522188E+04  0.65000000000E+04  0.15050000000E+03 0.  1.
</event>
<event>
 4    1  0.4826743E-004  0.6500000E+04  0.7818608E-02  0.7223770E-01
         52   -1    0    0    0    0  0.00000000000E+00  0.00000000000E+00  0.64930732323E+04  0.65000000000E+04  0.30000000000E+03 0.  1.
        -52   -1    0    0    0    0 -0.00000000000E+00 -0.00000000000E+00 -0.64930732323E+04  0.65000000000E+04  0.30000000000E+03 0. -1.
     100001    1    1    2    0    0 -0.53024935878E+03 -0.23923409349E+03 -0.64721675207E+04  0.65000000000E+04  0.15050000000E+03 0. -1.
     100001    1    1    2    0    0  0.53024935878E+03  0.23923409349E+03  0.64721675207E+04  0.65000000000E+04  0.15050000000E+03 0.  1.
</event>
<event>
 4    1  0.4826743E-004  0.6500000E+04  0.7818608E-02  0.7223770E-01
         52   -1    0    0    0    0  0.00000000000E+00  0.00000000000E+00  0.64930732323E+04  0.65000000000E+04  0.30000000000E+03 0. -1.
        -52   -1    0    0    0    0 -0.00000000000E+00 -0.00000000000E+00 -0.64930732323E+04  0.65000000000E+04  0.30000000000E+03 0.  1.
     100001    1    1    2    0    0 -0.19272805698E+04 -0.21666166807E+04  0.58153857580E+04  0.65000000000E+04  0.15050000000E+03 0. -1.
     100001    1    1    2    0    0  0.19272805698E+04  0.21666166807E+04 -0.58153857580E+04  0.65000000000E+04  0.15050000000E+03 0.  1.
</event>
<event>
 4    1  0.4826743E-004  0.6500000E+04  0.7818608E-02  0.7223770E-01
         52   -1    0    0    0    0  0.00000000000E+00  0.00000000000E+00  0.64930732323E+04  0.65000000000E+04  0.30000000000E+03 0.  1.
        -52   -1    0    0    0    0 -0.00000000000E+00 -0.00000000000E+00 -0.64930732323E+04  0.65000000000E+04  0.30000000000E+03 0. -1.
     100001    1    1    2    0    0  0.18803757192E+04 -0.16492616381E+04 -0.59976222750E+04  0.65000000000E+04  0.15050000000E+03 0. -1.
     100001    1    1    2    0    0 -0.18803757192E+04  0.16492616381E+04  0.59976222750E+04  0.65000000000E+04  0.15050000000E+03 0.  1.
</event>
<event>
 4    1  0.4826743E-004  0.6500000E+04  0.7818608E-02  0.7223770E-01
         52   -1    0    0    0    0  0.00000000000E+00  0.00000000000E+00  0.64930732323E+04  0.65000000000E+04  0.30000000000E+03 0.  1.
        -52   -1    0    0    0    0 -0.00000000000E+00 -0.00000000000E+00 -0.64930732323E+04  0.65000000000E+04  0.30000000000E+03 0. -1.
     100001    1    1    2    0    0  0.10702833868E+04 -0.63953669821E+03 -0.63775258552E+04  0.65000000000E+04  0.15050000000E+03 0. -1.
     100001    1    1    2    0    0 -0.10702833868E+04  0.63953669821E+03  0.63775258552E+04  0.65000000000E+04  0.15050000000E+03 0.  1.
</event>
<event>
 4    1  0.4826743E-004  0.6500000E+04  0.7818608E-02  0.7223770E-01
         52   -1    0    0    0    0  0.00000000000E+00  0.00000000000E+00  0.64930732323E+04  0.65000000000E+04  0.30000000000E+03 0. -1.
        -52   -1    0    0    0    0 -0.00000000000E+00 -0.00000000000E+00 -0.64930732323E+04  0.65000000000E+04  0.30000000000E+03 0.  1.
     100001    1    1    2    0    0 -0.58276836510E+03  0.28955487571E+04  0.57882232315E+04  0.65000000000E+04  0.15050000000E+03 0. -1.
     100001    1    1    2    0    0  0.58276836510E+03 -0.28955487571E+04 -0.57882232315E+04  0.65000000000E+04  0.15050000000E+03 0.  1.
</event>
<event>
 4    1  0.4826743E-004  0.6500000E+04  0.7818608E-02  0.7223770E-01
         52   -1    0    0    0    0  0.00000000000E+00  0.00000000000E+00  0.64930732323E+04  0.65000000000E+04  0.30000000000E+03 0. -1.
        -52   -1    0    0    0    0 -0.00000000000E+00 -0.00000000000E+00 -0.64930732323E+04  0.65000000000E+04  0.30000000000E+03 0.  1.
     100001    1    1    2    0    0 -0.26923887612E+04  0.44482399762E+04 -0.38976343623E+04  0.65000000000E+04  0.15050000000E+03 0.  1.
     100001    1    1    2    0    0  0.26923887612E+04 -0.44482399762E+04  0.38976343623E+04  0.65000000000E+04  0.15050000000E+03 0. -1.
</event>
<event>
 4    1  0.4826743E-004  0.6500000E+04  0.7818608E-02  0.7223770E-01
         52   -1    0    0    0    0  0.00000000000E+00  0.00000000000E+00  0.64930732323E+04  0.65000000000E+04  0.30000000000E+03 0.  1.
        -52   -1    0    0    0    0 -0.00000000000E+00 -0.00000000000E+00 -0.64930732323E+04  0.65000000000E+04  0.30000000000E+03 0. -1.
     100001    1    1    2    0    0 -0.13856525406E+03  0.21702595052E+03 -0.64931540223E+04  0.65000000000E+04  0.15050000000E+03 0. -1.
     100001    1    1    2    0    0  0.13856525406E+03 -0.21702595052E+03  0.64931540223E+04  0.65000000000E+04  0.15050000000E+03 0.  1.
</event>
<event>
 4    1  0.4826743E-004  0.6500000E+04  0.7818608E-02  0.7223770E-01
         52   -1    0    0    0    0  0.00000000000E+00  0.00000000000E+00  0.64930732323E+04  0.65000000000E+04  0.30000000000E+03 0.  1.
        -52   -1    0    0    0    0 -0.00000000000E+00 -0.00000000000E+00 -0.64930732323E+04  0.65000000000E+04  0.30000000000E+03 0. -1.
     100001    1    1    2    0    0 -0.18556656776E+04  0.36068614447E+04 -0.50768499251E+04  0.65000000000E+04  0.15050000000E+03 0. -1.
     100001    1    1    2    0    0  0.18556656776E+04 -0.36068614447E+04  0.50768499251E+04  0.65000000000E+04  0.15050000000E+03 0.  1.
</event>
<event>
 4    1  0.4826743E-004  0.6500000E+04  0.7818608E-02  0.7223770E-01
         52   -1    0    0    0    0  0.00000000000E+00  0.00000000000E+00  0.64930732323E+04  0.65000000000E+04  0.30000000000E+03 0.  1.
        -52   -1    0    0    0    0 -0.00000000000E+00 -0.00000000000E+00 -0.64930732323E+04  0.65000000000E+04  0.30000000000E+03 0. -1.
     100001    1    1    2    0    0 -0.11006399141E+04 -0.16726812664E+04 -0.61820772327E+04  0.65000000000E+04  0.15050000000E+03 0. -1.
     100001    1    1    2    0    0  0.11006399141E+04  0.16726812664E+04  0.61820772327E+04  0.65000000000E+04  0.15050000000E+03 0.  1.
</event>
<event>
 4    1  0.4826743E-004  0.6500000E+04  0.7818608E-02  0.7223770E-01
         52   -1    0    0    0    0  0.00000000000E+00  0.00000000000E+00  0.64930732323E+04  0.65000000000E+04  0.30000000000E+03 0.  1.
        -52   -1    0    0    0    0 -0.00000000000E+00 -0.00000000000E+00 -0.64930732323E+04  0.65000000000E+04  0.30000000000E+03 0. -1.
     100001    1    1    2    0    0 -0.12725558568E+03 -0.14424102676E+04  0.63348724049E+04  0.65000000000E+04  0.15050000000E+03 0.  1.
     100001    1    1    2    0    0  0.12725558568E+03  0.14424102676E+04 -0.63348724049E+04  0.65000000000E+04  0.15050000000E+03 0. -1.
</event>
<event>
 4    1  0.4826743E-004  0.6500000E+04  0.7818608E-02  0.7223770E-01
         52   -1    0    0    0    0  0.00000000000E+00  0.00000000000E+00  0.64930732323E+04  0.65000000000E+04  0.30000000000E+03 0.  1.
        -52   -1    0    0    0    0 -0.00000000000E+00 -0.00000000000E+00 -0.64930732323E+04  0.65000000000E+04  0.30000000000E+03 0.  1.
     100001    1    1    2    0    0  0.86113047283E+03 -0.36182355920E+03  0.64307766071E+04  0.65000000000E+04  0.15050000000E+03 0.  1.
     100001    1    1    2    0    0 -0.86113047283E+03  0.36182355920E+03 -0.64307766071E+04  0.65000000000E+04  0.15050000000E+03 0.  1.
</event>
<event>
 4    1  0.4826743E-004  0.6500000E+04  0.7818608E-02  0.7223770E-01
         52   -1    0    0    0    0  0.00000000000E+00  0.00000000000E+00  0.64930732323E+04  0.65000000000E+04  0.30000000000E+03 0. -1.
        -52   -1    0    0    0    0 -0.00000000000E+00 -0.00000000000E+00 -0.64930732323E+04  0.65000000000E+04  0.30000000000E+03 0.  1.
     100001    1    1    2    0    0  0.12203560275E+02  0.31144879414E+03 -0.64907781099E+04  0.65000000000E+04  0.15050000000E+03 0.  1.
     100001    1    1    2    0    0 -0.12203560275E+02 -0.31144879414E+03  0.64907781099E+04  0.65000000000E+04  0.15050000000E+03 0. -1.
</event>
<event>
 4    1  0.4826743E-004  0.6500000E+04  0.7818608E-02  0.7223770E-01
         52   -1    0    0    0    0  0.00000000000E+00  0.00000000000E+00  0.64930732323E+04  0.65000000000E+04  0.30000000000E+03 0. -1.
        -52   -1    0    0    0    0 -0.00000000000E+00 -0.00000000000E+00 -0.64930732323E+04  0.65000000000E+04  0.30000000000E+03 0.  1.
     100001    1    1    2    0    0 -0.30437061003E+03 -0.29401859148E+03  0.64844630733E+04  0.65000000000E+04  0.15050000000E+03 0. -1.
     100001    1    1    2    0    0  0.30437061003E+03  0.29401859148E+03 -0.64844630733E+04  0.65000000000E+04  0.15050000000E+03 0.  1.
</event>
<event>
 4    1  0.4826743E-004  0.6500000E+04  0.7818608E-02  0.7223770E-01
         52   -1    0    0    0    0  0.00000000000E+00  0.00000000000E+00  0.64930732323E+04  0.65000000000E+04  0.30000000000E+03 0. -1.
        -52   -1    0    0    0    0 -0.00000000000E+00 -0.00000000000E+00 -0.64930732323E+04  0.65000000000E+04  0.30000000000E+03 0.  1.
     100001    1    1    2    0    0 -0.20932808332E+04  0.21235239477E+04  0.57737484485E+04  0.65000000000E+04  0.15050000000E+03 0. -1.
     100001    1    1    2    0    0  0.20932808332E+04 -0.21235239477E+04 -0.57737484485E+04  0.65000000000E+04  0.15050000000E+03 0.  1.
</event>
<event>
 4    1  0.4826743E-004  0.6500000E+04  0.7818608E-02  0.7223770E-01
         52   -1    0    0    0    0  0.00000000000E+00  0.00000000000E+00  0.64930732323E+04  0.65000000000E+04  0.30000000000E+03 0. -1.
        -52   -1    0    0    0    0 -0.00000000000E+00 -0.00000000000E+00 -0.64930732323E+04  0.65000000000E+04  0.30000000000E+03 0.  1.
     100001    1    1    2    0    0 -0.90372325478E+03  0.16944877848E+03 -0.64328781381E+04  0.65000000000E+04  0.15050000000E+03 0.  1.
     100001    1    1    2    0    0  0.90372325478E+03 -0.16944877848E+03  0.64328781381E+04  0.65000000000E+04  0.15050000000E+03 0. -1.
</event>
<event>
 4    1  0.4826743E-004  0.6500000E+04  0.7818608E-02  0.7223770E-01
         52   -1    0    0    0    0  0.00000000000E+00  0.00000000000E+00  0.64930732323E+04  0.65000000000E+04  0.30000000000E+03 0. -1.
        -52   -1    0    0    0    0 -0.00000000000E+00 -0.00000000000E+00 -0.64930732323E+04  0.65000000000E+04  0.30000000000E+03 0.  1.
     100001    1    1    2    0    0 -0.11055816749E+04  0.20767778194E+04  0.60573948855E+04  0.65000000000E+04  0.15050000000E+03 0. -1.
     100001    1    1    2    0    0  0.11055816749E+04 -0.20767778194E+04 -0.60573948855E+04  0.65000000000E+04  0.15050000000E+03 0.  1.
</event>
<event>
 4    1  0.4826743E-004  0.6500000E+04  0.7818608E-02  0.7223770E-01
         52   -1    0    0    0    0  0.00000000000E+00  0.00000000000E+00  0.64930732323E+04  0.65000000000E+04  0.30000000000E+03 0. -1.
        -52   -1    0    0    0    0 -0.00000000000E+00 -0.00000000000E+00 -0.64930732323E+04  0.65000000000E+04  0.30000000000E+03 0.  1.
     100001    1    1    2    0    0 -0.56593704750E+03 -0.25582250065E+03 -0.64685098637E+04  0.65000000000E+04  0.15050000000E+03 0.  1.
     100001    1    1    2    0    0  0.56593704750E+03  0.25582250065E+03  0.64685098637E+04  0.65000000000E+04  0.15050000000E+03 0. -1.
</event>
<event>
 4    1  0.6720312E-004  0.6500000E+04  0.7818608E-02  0.7223770E-01
         52   -1    0    0    0    0  0.00000000000E+00  0.00000000000E+00  0.64930732323E+04  0.65000000000E+04  0.30000000000E+03 0. -1.
        -52   -1    0    0    0    0 -0.00000000000E+00 -0.00000000000E+00 -0.64930732323E+04  0.65000000000E+04  0.30000000000E+03 0. -1.
     100001    1    1    2    0    0  0.16323783628E+02 -0.15895385967E+03 -0.64962925546E+04  0.65000000000E+04  0.15050000000E+03 0. -1.
     100001    1    1    2    0    0 -0.16323783628E+02  0.15895385967E+03  0.64962925546E+04  0.65000000000E+04  0.15050000000E+03 0. -1.
</event>
<event>
 4    1  0.4826743E-004  0.6500000E+04  0.7818608E-02  0.7223770E-01
         52   -1    0    0    0    0  0.00000000000E+00  0.00000000000E+00  0.64930732323E+04  0.65000000000E+04  0.30000000000E+03 0.  1.
        -52   -1    0    0    0    0 -0.00000000000E+00 -0.00000000000E+00 -0.64930732323E+04  0.65000000000E+04  0.30000000000E+03 0. -1.
     100001    1    1    2    0    0  0.19452924286E+04  0.71619911212E+03 -0.61587536035E+04  0.65000000000E+04  0.15050000000E+03 0. -1.
     100001    1    1    2    0    0 -0.19452924286E+04 -0.71619911212E+03  0.61587536035E+04  0.65000000000E+04  0.15050000000E+03 0.  1.
</event>
<event>
 4    1  0.4826743E-004  0.6500000E+04  0.7818608E-02  0.7223770E-01
         52   -1    0    0    0    0  0.00000000000E+00  0.00000000000E+00  0.64930732323E+04  0.65000000000E+04  0.30000000000E+03 0. -1.
        -52   -1    0    0    0    0 -0.00000000000E+00 -0.00000000000E+00 -0.64930732323E+04  0.65000000000E+04  0.30000000000E+03 0.  1.
     100001    1    1    2    0    0 -0.12015326905E+04  0.52434895085E+01  0.63862071255E+04  0.65000000000E+04  0.15050000000E+03 0. -1.
     100001    1    1    2    0    0  0.12015326905E+04 -0.52434895085E+01 -0.63862071255E+04  0.65000000000E+04  0.15050000000E+03 0.  1.
</event>
<event>
 4    1  0.4826743E-004  0.6500000E+04  0.7818608E-02  0.7223770E-01
         52   -1    0    0    0    0  0.00000000000E+00  0.00000000000E+00  0.64930732323E+04  0.65000000000E+04  0.30000000000E+03 0.  1.
        -52   -1    0    0    0    0 -0.00000000000E+00 -0.00000000000E+00 -0.64930732323E+04  0.65000000000E+04  0.30000000000E+03 0. -1.
     100001    1    1    2    0    0  0.33685864380E+04 -0.21288564139E+03 -0.55528960789E+04  0.65000000000E+04  0.15050000000E+03 0. -1.
     100001    1    1    2    0    0 -0.33685864380E+04  0.21288564139E+03  0.55528960789E+04  0.65000000000E+04  0.15050000000E+03 0.  1.
</event>
<event>
 4    1  0.4826743E-004  0.6500000E+04  0.7818608E-02  0.7223770E-01
         52   -1    0    0    0    0  0.00000000000E+00  0.00000000000E+00  0.64930732323E+04  0.65000000000E+04  0.30000000000E+03 0.  1.
        -52   -1    0    0    0    0 -0.00000000000E+00 -0.00000000000E+00 -0.64930732323E+04  0.65000000000E+04  0.30000000000E+03 0. -1.
     100001    1    1    2    0    0 -0.33035339029E+04 -0.24789705932E+04  0.50168434598E+04  0.65000000000E+04  0.15050000000E+03 0.  1.
     100001    1    1    2    0    0  0.33035339029E+04  0.24789705932E+04 -0.50168434598E+04  0.65000000000E+04  0.15050000000E+03 0. -1.
</event>
<event>
 4    1  0.4826743E-004  0.6500000E+04  0.7818608E-02  0.7223770E-01
         52   -1    0    0    0    0  0.00000000000E+00  0.00000000000E+00  0.64930732323E+04  0.65000000000E+04  0.30000000000E+03 0.  1.
        -52   -1    0    0    0    0 -0.00000000000E+00 -0.00000000000E+00 -0.64930732323E+04  0.65000000000E+04  0.30000000000E+03 0.  1.
     100001    1    1    2    0    0 -0.74928514107E+03 -0.50976375564E+03  0.64347542642E+04  0.65000000000E+04  0.15050000000E+03 0.  1.
     100001    1    1    2    0    0  0.74928514107E+03  0.50976375564E+03 -0.64347542642E+04  0.65000000000E+04  0.15050000000E+03 0.  1.
</event>
<event>
 4    1  0.4826743E-004  0.6500000E+04  0.7818608E-02  0.7223770E-01
         52   -1    0    0    0    0  0.00000000000E+00  0.00000000000E+00  0.64930732323E+04  0.65000000000E+04  0.30000000000E+03 0.  1.
        -52   -1    0    0    0    0 -0.00000000000E+00 -0.00000000000E+00 -0.64930732323E+04  0.65000000000E+04  0.30000000000E+03 0. -1.
     100001    1    1    2    0    0  0.18683496259E+03  0.87978037987E+02  0.64949751587E+04  0.65000000000E+04  0.15050000000E+03 0.  1.
     100001    1    1    2    0    0 -0.18683496259E+03 -0.87978037987E+02 -0.64949751587E+04  0.65000000000E+04  0.15050000000E+03 0. -1.
</event>
<event>
 4    1  0.4826743E-004  0.6500000E+04  0.7818608E-02  0.7223770E-01
         52   -1    0    0    0    0  0.00000000000E+00  0.00000000000E+00  0.64930732323E+04  0.65000000000E+04  0.30000000000E+03 0. -1.
        -52   -1    0    0    0    0 -0.00000000000E+00 -0.00000000000E+00 -0.64930732323E+04  0.65000000000E+04  0.30000000000E+03 0.  1.
     100001    1    1    2    0    0  0.46800650559E+03 -0.39519240874E+04  0.51371797387E+04  0.65000000000E+04  0.15050000000E+03 0. -1.
     100001    1    1    2    0    0 -0.46800650559E+03  0.39519240874E+04 -0.51371797387E+04  0.65000000000E+04  0.15050000000E+03 0.  1.
</event>
<event>
 4    1  0.4826743E-004  0.6500000E+04  0.7818608E-02  0.7223770E-01
         52   -1    0    0    0    0  0.00000000000E+00  0.00000000000E+00  0.64930732323E+04  0.65000000000E+04  0.30000000000E+03 0.  1.
        -52   -1    0    0    0    0 -0.00000000000E+00 -0.00000000000E+00 -0.64930732323E+04  0.65000000000E+04  0.30000000000E+03 0. -1.
     100001    1    1    2    0    0  0.58915202856E+03  0.13108280615E+04 -0.63373479808E+04  0.65000000000E+04  0.15050000000E+03 0. -1.
     100001    1    1    2    0    0 -0.58915202856E+03 -0.13108280615E+04  0.63373479808E+04  0.65000000000E+04  0.15050000000E+03 0.  1.
</event>
<event>
 4    1  0.4826743E-004  0.6500000E+04  0.7818608E-02  0.7223770E-01
         52   -1    0    0    0    0  0.00000000000E+00  0.00000000000E+00  0.64930732323E+04  0.65000000000E+04  0.30000000000E+03 0. -1.
        -52   -1    0    0    0    0 -0.00000000000E+00 -0.00000000000E+00 -0.64930732323E+04  0.65000000000E+04  0.30000000000E+03 0.  1.
     100001    1    1    2    0    0  0.17359742026E+04 -0.45123845894E+04  0.43419038031E+04  0.65000000000E+04  0.15050000000E+03 0. -1.
     100001    1    1    2    0    0 -0.17359742026E+04  0.45123845894E+04 -0.43419038031E+04  0.65000000000E+04  0.15050000000E+03 0.  1.
</event>
<event>
 4    1  0.4826743E-004  0.6500000E+04  0.7818608E-02  0.7223770E-01
         52   -1    0    0    0    0  0.00000000000E+00  0.00000000000E+00  0.64930732323E+04  0.65000000000E+04  0.30000000000E+03 0.  1.
        -52   -1    0    0    0    0 -0.00000000000E+00 -0.00000000000E+00 -0.64930732323E+04  0.65000000000E+04  0.30000000000E+03 0. -1.
     100001    1    1    2    0    0  0.76495516787E+03 -0.49242673497E+04  0.41705856195E+04  0.65000000000E+04  0.15050000000E+03 0.  1.
     100001    1    1    2    0    0 -0.76495516787E+03  0.49242673497E+04 -0.41705856195E+04  0.65000000000E+04  0.15050000000E+03 0. -1.
</event>
<event>
 4    1  0.7120663E-004  0.6500000E+04  0.7818608E-02  0.7223770E-01
         52   -1    0    0    0    0  0.00000000000E+00  0.00000000000E+00  0.64930732323E+04  0.65000000000E+04  0.30000000000E+03 0.  1.
        -52   -1    0    0    0    0 -0.00000000000E+00 -0.00000000000E+00 -0.64930732323E+04  0.65000000000E+04  0.30000000000E+03 0. -1.
     100001    1    1    2    0    0 -0.49203683437E+02 -0.11309297857E+03  0.64970869415E+04  0.65000000000E+04  0.15050000000E+03 0.  1.
     100001    1    1    2    0    0  0.49203683437E+02  0.11309297857E+03 -0.64970869415E+04  0.65000000000E+04  0.15050000000E+03 0. -1.
</event>
<event>
 4    1  0.4826743E-004  0.6500000E+04  0.7818608E-02  0.7223770E-01
         52   -1    0    0    0    0  0.00000000000E+00  0.00000000000E+00  0.64930732323E+04  0.65000000000E+04  0.30000000000E+03 0.  1.
        -52   -1    0    0    0    0 -0.00000000000E+00 -0.00000000000E+00 -0.64930732323E+04  0.65000000000E+04  0.30000000000E+03 0. -1.
     100001    1    1    2    0    0 -0.45841835553E+03  0.11215144216E+03 -0.64810974700E+04  0.65000000000E+04  0.15050000000E+03 0. -1.
     100001    1    1    2    0    0  0.45841835553E+03 -0.11215144216E+03  0.64810974700E+04  0.65000000000E+04  0.15050000000E+03 0.  1.
</event>
<event>
 4    1  0.4826743E-004  0.6500000E+04  0.7818608E-02  0.7223770E-01
         52   -1    0    0    0    0  0.00000000000E+00  0.00000000000E+00  0.64930732323E+04  0.65000000000E+04  0.30000000000E+03 0.  1.
        -52   -1    0    0    0    0 -0.00000000000E+00 -0.00000000000E+00 -0.64930732323E+04  0.65000000000E+04  0.30000000000E+03 0. -1.
     100001    1    1    2    0    0 -0.94125332002E+03  0.40150268219E+04 -0.50220465507E+04  0.65000000000E+04  0.15050000000E+03 0. -1.
     100001    1    1    2    0    0  0.94125332002E+03 -0.40150268219E+04  0.50220465507E+04  0.65000000000E+04  0.15050000000E+03 0.  1.
</event>
<event>
 4    1  0.4826743E-004  0.6500000E+04  0.7818608E-02  0.7223770E-01
         52   -1    0    0    0    0  0.00000000000E+00  0.00000000000E+00  0.64930732323E+04  0.65000000000E+04  0.30000000000E+03 0.  1.
        -52   -1    0    0    0    0 -0.00000000000E+00 -0.00000000000E+00 -0.64930732323E+04  0.65000000000E+04  0.30000000000E+03 0.  1.
     100001    1    1    2    0    0  0.12435380429E+03 -0.11235634231E+03  0.64960958994E+04  0.65000000000E+04  0.15050000000E+03 0.  1.
     100001    1    1    2    0    0 -0.12435380429E+03  0.11235634231E+03 -0.64960958994E+04  0.65000000000E+04  0.15050000000E+03 0.  1.
</event>
<event>
 4    1  0.4826743E-004  0.6500000E+04  0.7818608E-02  0.7223770E-01
         52   -1    0    0    0    0  0.00000000000E+00  0.00000000000E+00  0.64930732323E+04  0.65000000000E+04  0.30000000000E+03 0.  1.
        -52   -1    0    0    0    0 -0.00000000000E+00 -0.00000000000E+00 -0.64930732323E+04  0.65000000000E+04  0.30000000000E+03 0.  1.
     100001    1    1    2    0    0 -0.66166933520E+03 -0.21870355502E+03  0.64607826303E+04  0.65000000000E+04  0.15050000000E+03 0.  1.
     100001    1    1    2    0    0  0.66166933520E+03  0.21870355502E+03 -0.64607826303E+04  0.65000000000E+04  0.15050000000E+03 0.  1.
</event>
<event>
 4    1  0.4826743E-004  0.6500000E+04  0.7818608E-02  0.7223770E-01
         52   -1    0    0    0    0  0.00000000000E+00  0.00000000000E+00  0.64930732323E+04  0.65000000000E+04  0.30000000000E+03 0. -1.
        -52   -1    0    0    0    0 -0.00000000000E+00 -0.00000000000E+00 -0.64930732323E+04  0.65000000000E+04  0.30000000000E+03 0. -1.
     100001    1    1    2    0    0 -0.27380753284E+03  0.20543039799E+03  0.64892355125E+04  0.65000000000E+04  0.15050000000E+03 0. -1.
     100001    1    1    2    0    0  0.27380753284E+03 -0.20543039799E+03 -0.64892355125E+04  0.65000000000E+04  0.15050000000E+03 0. -1.
</event>
<event>
 4    1  0.4826743E-004  0.6500000E+04  0.7818608E-02  0.7223770E-01
         52   -1    0    0    0    0  0.00000000000E+00  0.00000000000E+00  0.64930732323E+04  0.65000000000E+04  0.30000000000E+03 0.  1.
        -52   -1    0    0    0    0 -0.00000000000E+00 -0.00000000000E+00 -0.64930732323E+04  0.65000000000E+04  0.30000000000E+03 0. -1.
     100001    1    1    2    0    0 -0.39078307409E+04  0.45802363041E+04  0.24449220947E+04  0.65000000000E+04  0.15050000000E+03 0.  1.
     100001    1    1    2    0    0  0.39078307409E+04 -0.45802363041E+04 -0.24449220947E+04  0.65000000000E+04  0.15050000000E+03 0. -1.
</event>
<event>
 4    1  0.4826743E-004  0.6500000E+04  0.7818608E-02  0.7223770E-01
         52   -1    0    0    0    0  0.00000000000E+00  0.00000000000E+00  0.64930732323E+04  0.65000000000E+04  0.30000000000E+03 0.  1.
        -52   -1    0    0    0    0 -0.00000000000E+00 -0.00000000000E+00 -0.64930732323E+04  0.65000000000E+04  0.30000000000E+03 0. -1.
     100001    1    1    2    0    0 -0.54014599840E+03 -0.21816890338E+04  0.60971981278E+04  0.65000000000E+04  0.15050000000E+03 0.  1.
     100001    1    1    2    0    0  0.54014599840E+03  0.21816890338E+04 -0.60971981278E+04  0.65000000000E+04  0.15050000000E+03 0. -1.
</event>
<event>
 4    1  0.4826743E-004  0.6500000E+04  0.7818608E-02  0.7223770E-01
         52   -1    0    0    0    0  0.00000000000E+00  0.00000000000E+00  0.64930732323E+04  0.65000000000E+04  0.30000000000E+03 0. -1.
        -52   -1    0    0    0    0 -0.00000000000E+00 -0.00000000000E+00 -0.64930732323E+04  0.65000000000E+04  0.30000000000E+03 0.  1.
     100001    1    1    2    0    0  0.89980464176E+03 -0.26470763131E+03  0.64302123780E+04  0.65000000000E+04  0.15050000000E+03 0. -1.
     100001    1    1    2    0    0 -0.89980464176E+03  0.26470763131E+03 -0.64302123780E+04  0.65000000000E+04  0.15050000000E+03 0.  1.
</event>
<event>
 4    1  0.4826743E-004  0.6500000E+04  0.7818608E-02  0.7223770E-01
         52   -1    0    0    0    0  0.00000000000E+00  0.00000000000E+00  0.64930732323E+04  0.65000000000E+04  0.30000000000E+03 0.  1.
        -52   -1    0    0    0    0 -0.00000000000E+00 -0.00000000000E+00 -0.64930732323E+04  0.65000000000E+04  0.30000000000E+03 0. -1.
     100001    1    1    2    0    0  0.47500768337E+04 -0.28975823924E+04 -0.33568044481E+04  0.65000000000E+04  0.15050000000E+03 0. -1.
     100001    1    1    2    0    0 -0.47500768337E+04  0.28975823924E+04  0.33568044481E+04  0.65000000000E+04  0.15050000000E+03 0.  1.
</event>
<event>
 4    1  0.5049961E-004  0.6500000E+04  0.7818608E-02  0.7223770E-01
         52   -1    0    0    0    0  0.00000000000E+00  0.00000000000E+00  0.64930732323E+04  0.65000000000E+04  0.30000000000E+03 0. -1.
        -52   -1    0    0    0    0 -0.00000000000E+00 -0.00000000000E+00 -0.64930732323E+04  0.65000000000E+04  0.30000000000E+03 0. -1.
     100001    1    1    2    0    0  0.12782644980E+03 -0.14583731464E+03  0.64953630866E+04  0.65000000000E+04  0.15050000000E+03 0. -1.
     100001    1    1    2    0    0 -0.12782644980E+03  0.14583731464E+03 -0.64953630866E+04  0.65000000000E+04  0.15050000000E+03 0. -1.
</event>
<event>
 4    1  0.4826743E-004  0.6500000E+04  0.7818608E-02  0.7223770E-01
         52   -1    0    0    0    0  0.00000000000E+00  0.00000000000E+00  0.64930732323E+04  0.65000000000E+04  0.30000000000E+03 0.  1.
        -52   -1    0    0    0    0 -0.00000000000E+00 -0.00000000000E+00 -0.64930732323E+04  0.65000000000E+04  0.30000000000E+03 0.  1.
     100001    1    1    2    0    0  0.24688194556E+03 -0.26680032982E+03 -0.64880826628E+04  0.65000000000E+04  0.15050000000E+03 0.  1.
     100001    1    1    2    0    0 -0.24688194556E+03  0.26680032982E+03  0.64880826628E+04  0.65000000000E+04  0.15050000000E+03 0.  1.
</event>
<event>
 4    1  0.4826743E-004  0.6500000E+04  0.7818608E-02  0.7223770E-01
         52   -1    0    0    0    0  0.00000000000E+00  0.00000000000E+00  0.64930732323E+04  0.65000000000E+04  0.30000000000E+03 0. -1.
        -52   -1    0    0    0    0 -0.00000000000E+00 -0.00000000000E+00 -0.64930732323E+04  0.65000000000E+04  0.30000000000E+03 0.  1.
     100001    1    1    2    0    0  0.51846568836E+03 -0.14715843982E+02 -0.64775247220E+04  0.65000000000E+04  0.15050000000E+03 0.  1.
     100001    1    1    2    0    0 -0.51846568836E+03  0.14715843982E+02  0.64775247220E+04  0.65000000000E+04  0.15050000000E+03 0. -1.
</event>
<event>
 4    1  0.4826743E-004  0.6500000E+04  0.7818608E-02  0.7223770E-01
         52   -1    0    0    0    0  0.00000000000E+00  0.00000000000E+00  0.64930732323E+04  0.65000000000E+04  0.30000000000E+03 0. -1.
        -52   -1    0    0    0    0 -0.00000000000E+00 -0.00000000000E+00 -0.64930732323E+04  0.65000000000E+04  0.30000000000E+03 0. -1.
     100001    1    1    2    0    0 -0.19262314541E+03  0.25389836109E+03 -0.64904377122E+04  0.65000000000E+04  0.15050000000E+03 0. -1.
     100001    1    1    2    0    0  0.19262314541E+03 -0.25389836109E+03  0.64904377122E+04  0.65000000000E+04  0.15050000000E+03 0. -1.
</event>
<event>
 4    1  0.4826743E-004  0.6500000E+04  0.7818608E-02  0.7223770E-01
         52   -1    0    0    0    0  0.00000000000E+00  0.00000000000E+00  0.64930732323E+04  0.65000000000E+04  0.30000000000E+03 0. -1.
        -52   -1    0    0    0    0 -0.00000000000E+00 -0.00000000000E+00 -0.64930732323E+04  0.65000000000E+04  0.30000000000E+03 0.  1.
     100001    1    1    2    0    0  0.14887241164E+03  0.60254714693E+03  0.64685488087E+04  0.65000000000E+04  0.15050000000E+03 0. -1.
     100001    1    1    2    0    0 -0.14887241164E+03 -0.60254714693E+03 -0.64685488087E+04  0.65000000000E+04  0.15050000000E+03 0.  1.
</event>
<event>
 4    1  0.4826743E-004  0.6500000E+04  0.7818608E-02  0.7223770E-01
         52   -1    0    0    0    0  0.00000000000E+00  0.00000000000E+00  0.64930732323E+04  0.65000000000E+04  0.30000000000E+03 0.  1.
        -52   -1    0    0    0    0 -0.00000000000E+00 -0.00000000000E+00 -0.64930732323E+04  0.65000000000E+04  0.30000000000E+03 0. -1.
     100001    1    1    2    0    0  0.78611022927E+03  0.68881361639E+03 -0.64136507747E+04  0.65000000000E+04  0.15050000000E+03 0. -1.
     100001    1    1    2    0    0 -0.78611022927E+03 -0.68881361639E+03  0.64136507747E+04  0.65000000000E+04  0.15050000000E+03 0.  1.
</event>
<event>
 4    1  0.4826743E-004  0.6500000E+04  0.7818608E-02  0.7223770E-01
         52   -1    0    0    0    0  0.00000000000E+00  0.00000000000E+00  0.64930732323E+04  0.65000000000E+04  0.30000000000E+03 0. -1.
        -52   -1    0    0    0    0 -0.00000000000E+00 -0.00000000000E+00 -0.64930732323E+04  0.65000000000E+04  0.30000000000E+03 0.  1.
     100001    1    1    2    0    0  0.32289202174E+04  0.32668730839E+04  0.45966253093E+04  0.65000000000E+04  0.15050000000E+03 0. -1.
     100001    1    1    2    0    0 -0.32289202174E+04 -0.32668730839E+04 -0.45966253093E+04  0.65000000000E+04  0.15050000000E+03 0.  1.
</event>
<event>
 4    1  0.4826743E-004  0.6500000E+04  0.7818608E-02  0.7223770E-01
         52   -1    0    0    0    0  0.00000000000E+00  0.00000000000E+00  0.64930732323E+04  0.65000000000E+04  0.30000000000E+03 0.  1.
        -52   -1    0    0    0    0 -0.00000000000E+00 -0.00000000000E+00 -0.64930732323E+04  0.65000000000E+04  0.30000000000E+03 0. -1.
     100001    1    1    2    0    0 -0.73593294199E+03  0.23641227908E+04 -0.60080509223E+04  0.65000000000E+04  0.15050000000E+03 0. -1.
     100001    1    1    2    0    0  0.73593294199E+03 -0.23641227908E+04  0.60080509223E+04  0.65000000000E+04  0.15050000000E+03 0.  1.
</event>
<event>
 4    1  0.4826743E-004  0.6500000E+04  0.7818608E-02  0.7223770E-01
         52   -1    0    0    0    0  0.00000000000E+00  0.00000000000E+00  0.64930732323E+04  0.65000000000E+04  0.30000000000E+03 0.  1.
        -52   -1    0    0    0    0 -0.00000000000E+00 -0.00000000000E+00 -0.64930732323E+04  0.65000000000E+04  0.30000000000E+03 0. -1.
     100001    1    1    2    0    0 -0.49987173686E+04 -0.16763191832E+04  0.37987008851E+04  0.65000000000E+04  0.15050000000E+03 0.  1.
     100001    1    1    2    0    0  0.49987173686E+04  0.16763191832E+04 -0.37987008851E+04  0.65000000000E+04  0.15050000000E+03 0. -1.
</event>
<event>
 4    1  0.4826743E-004  0.6500000E+04  0.7818608E-02  0.7223770E-01
         52   -1    0    0    0    0  0.00000000000E+00  0.00000000000E+00  0.64930732323E+04  0.65000000000E+04  0.30000000000E+03 0.  1.
        -52   -1    0    0    0    0 -0.00000000000E+00 -0.00000000000E+00 -0.64930732323E+04  0.65000000000E+04  0.30000000000E+03 0. -1.
     100001    1    1    2    0    0  0.62997459114E+03 -0.72856273870E+03  0.64264825605E+04  0.65000000000E+04  0.15050000000E+03 0.  1.
     100001    1    1    2    0    0 -0.62997459114E+03  0.72856273870E+03 -0.64264825605E+04  0.65000000000E+04  0.15050000000E+03 0. -1.
</event>
<event>
 4    1  0.4826743E-004  0.6500000E+04  0.7818608E-02  0.7223770E-01
         52   -1    0    0    0    0  0.00000000000E+00  0.00000000000E+00  0.64930732323E+04  0.65000000000E+04  0.30000000000E+03 0. -1.
        -52   -1    0    0    0    0 -0.00000000000E+00 -0.00000000000E+00 -0.64930732323E+04  0.65000000000E+04  0.30000000000E+03 0.  1.
     100001    1    1    2    0    0 -0.15874151897E+04 -0.43642544805E+04 -0.45454092880E+04  0.65000000000E+04  0.15050000000E+03 0.  1.
     100001    1    1    2    0    0  0.15874151897E+04  0.43642544805E+04  0.45454092880E+04  0.65000000000E+04  0.15050000000E+03 0. -1.
</event>
<event>
 4    1  0.4826743E-004  0.6500000E+04  0.7818608E-02  0.7223770E-01
         52   -1    0    0    0    0  0.00000000000E+00  0.00000000000E+00  0.64930732323E+04  0.65000000000E+04  0.30000000000E+03 0. -1.
        -52   -1    0    0    0    0 -0.00000000000E+00 -0.00000000000E+00 -0.64930732323E+04  0.65000000000E+04  0.30000000000E+03 0.  1.
     100001    1    1    2    0    0  0.10427950023E+04  0.27233198869E+02  0.64139836830E+04  0.65000000000E+04  0.15050000000E+03 0. -1.
     100001    1    1    2    0    0 -0.10427950023E+04 -0.27233198869E+02 -0.64139836830E+04  0.65000000000E+04  0.15050000000E+03 0.  1.
</event>
<event>
 4    1  0.4826743E-004  0.6500000E+04  0.7818608E-02  0.7223770E-01
         52   -1    0    0    0    0  0.00000000000E+00  0.00000000000E+00  0.64930732323E+04  0.65000000000E+04  0.30000000000E+03 0. -1.
        -52   -1    0    0    0    0 -0.00000000000E+00 -0.00000000000E+00 -0.64930732323E+04  0.65000000000E+04  0.30000000000E+03 0.  1.
     100001    1    1    2    0    0  0.11850373140E+04  0.51727055171E+04 -0.37504871614E+04  0.65000000000E+04  0.15050000000E+03 0.  1.
     100001    1    1    2    0    0 -0.11850373140E+04 -0.51727055171E+04  0.37504871614E+04  0.65000000000E+04  0.15050000000E+03 0. -1.
</event>
<event>
 4    1  0.4826743E-004  0.6500000E+04  0.7818608E-02  0.7223770E-01
         52   -1    0    0    0    0  0.00000000000E+00  0.00000000000E+00  0.64930732323E+04  0.65000000000E+04  0.30000000000E+03 0. -1.
        -52   -1    0    0    0    0 -0.00000000000E+00 -0.00000000000E+00 -0.64930732323E+04  0.65000000000E+04  0.30000000000E+03 0.  1.
     100001    1    1    2    0    0 -0.25872897218E+03  0.80328718133E+03 -0.64432242529E+04  0.65000000000E+04  0.15050000000E+03 0.  1.
     100001    1    1    2    0    0  0.25872897218E+03 -0.80328718133E+03  0.64432242529E+04  0.65000000000E+04  0.15050000000E+03 0. -1.
</event>
<event>
 4    1  0.4826743E-004  0.6500000E+04  0.7818608E-02  0.7223770E-01
         52   -1    0    0    0    0  0.00000000000E+00  0.00000000000E+00  0.64930732323E+04  0.65000000000E+04  0.30000000000E+03 0. -1.
        -52   -1    0    0    0    0 -0.00000000000E+00 -0.00000000000E+00 -0.64930732323E+04  0.65000000000E+04  0.30000000000E+03 0. -1.
     100001    1    1    2    0    0 -0.16029762466E+03 -0.20469046867E+03  0.64930544610E+04  0.65000000000E+04  0.15050000000E+03 0. -1.
     100001    1    1    2    0    0  0.16029762466E+03  0.20469046867E+03 -0.64930544610E+04  0.65000000000E+04  0.15050000000E+03 0. -1.
</event>
<event>
 4    1  0.4826743E-004  0.6500000E+04  0.7818608E-02  0.7223770E-01
         52   -1    0    0    0    0  0.00000000000E+00  0.00000000000E+00  0.64930732323E+04  0.65000000000E+04  0.30000000000E+03 0. -1.
        -52   -1    0    0    0    0 -0.00000000000E+00 -0.00000000000E+00 -0.64930732323E+04  0.65000000000E+04  0.30000000000E+03 0.  1.
     100001    1    1    2    0    0 -0.13782419641E+04  0.11079389975E+04  0.62530208713E+04  0.65000000000E+04  0.15050000000E+03 0. -1.
     100001    1    1    2    0    0  0.13782419641E+04 -0.11079389975E+04 -0.62530208713E+04  0.65000000000E+04  0.15050000000E+03 0.  1.
</event>
<event>
 4    1  0.4826743E-004  0.6500000E+04  0.7818608E-02  0.7223770E-01
         52   -1    0    0    0    0  0.00000000000E+00  0.00000000000E+00  0.64930732323E+04  0.65000000000E+04  0.30000000000E+03 0. -1.
        -52   -1    0    0    0    0 -0.00000000000E+00 -0.00000000000E+00 -0.64930732323E+04  0.65000000000E+04  0.30000000000E+03 0.  1.
     100001    1    1    2    0    0  0.38403317989E+04  0.19388083318E+04  0.48703412280E+04  0.65000000000E+04  0.15050000000E+03 0. -1.
     100001    1    1    2    0    0 -0.38403317989E+04 -0.19388083318E+04 -0.48703412280E+04  0.65000000000E+04  0.15050000000E+03 0.  1.
</event>
<event>
 4    1  0.4826743E-004  0.6500000E+04  0.7818608E-02  0.7223770E-01
         52   -1    0    0    0    0  0.00000000000E+00  0.00000000000E+00  0.64930732323E+04  0.65000000000E+04  0.30000000000E+03 0.  1.
        -52   -1    0    0    0    0 -0.00000000000E+00 -0.00000000000E+00 -0.64930732323E+04  0.65000000000E+04  0.30000000000E+03 0. -1.
     100001    1    1    2    0    0 -0.24347441376E+03  0.63758486151E+03  0.64623181216E+04  0.65000000000E+04  0.15050000000E+03 0.  1.
     100001    1    1    2    0    0  0.24347441376E+03 -0.63758486151E+03 -0.64623181216E+04  0.65000000000E+04  0.15050000000E+03 0. -1.
</event>
<event>
 4    1  0.4826743E-004  0.6500000E+04  0.7818608E-02  0.7223770E-01
         52   -1    0    0    0    0  0.00000000000E+00  0.00000000000E+00  0.64930732323E+04  0.65000000000E+04  0.30000000000E+03 0. -1.
        -52   -1    0    0    0    0 -0.00000000000E+00 -0.00000000000E+00 -0.64930732323E+04  0.65000000000E+04  0.30000000000E+03 0.  1.
     100001    1    1    2    0    0  0.14056691827E+04 -0.29449862885E+03  0.63375637635E+04  0.65000000000E+04  0.15050000000E+03 0. -1.
     100001    1    1    2    0    0 -0.14056691827E+04  0.29449862885E+03 -0.63375637635E+04  0.65000000000E+04  0.15050000000E+03 0.  1.
</event>
<event>
 4    1  0.4826743E-004  0.6500000E+04  0.7818608E-02  0.7223770E-01
         52   -1    0    0    0    0  0.00000000000E+00  0.00000000000E+00  0.64930732323E+04  0.65000000000E+04  0.30000000000E+03 0. -1.
        -52   -1    0    0    0    0 -0.00000000000E+00 -0.00000000000E+00 -0.64930732323E+04  0.65000000000E+04  0.30000000000E+03 0.  1.
     100001    1    1    2    0    0  0.34544600099E+04 -0.54984344253E+04 -0.24753719200E+03  0.65000000000E+04  0.15050000000E+03 0. -1.
     100001    1    1    2    0    0 -0.34544600099E+04  0.54984344253E+04  0.24753719200E+03  0.65000000000E+04  0.15050000000E+03 0.  1.
</event>
<event>
 4    1  0.4826743E-004  0.6500000E+04  0.7818608E-02  0.7223770E-01
         52   -1    0    0    0    0  0.00000000000E+00  0.00000000000E+00  0.64930732323E+04  0.65000000000E+04  0.30000000000E+03 0. -1.
        -52   -1    0    0    0    0 -0.00000000000E+00 -0.00000000000E+00 -0.64930732323E+04  0.65000000000E+04  0.30000000000E+03 0.  1.
     100001    1    1    2    0    0 -0.57443162791E+04 -0.28475229237E+02 -0.30379877217E+04  0.65000000000E+04  0.15050000000E+03 0.  1.
     100001    1    1    2    0    0  0.57443162791E+04  0.28475229237E+02  0.30379877217E+04  0.65000000000E+04  0.15050000000E+03 0. -1.
</event>
<event>
 4    1  0.4826743E-004  0.6500000E+04  0.7818608E-02  0.7223770E-01
         52   -1    0    0    0    0  0.00000000000E+00  0.00000000000E+00  0.64930732323E+04  0.65000000000E+04  0.30000000000E+03 0.  1.
        -52   -1    0    0    0    0 -0.00000000000E+00 -0.00000000000E+00 -0.64930732323E+04  0.65000000000E+04  0.30000000000E+03 0. -1.
     100001    1    1    2    0    0 -0.71381905342E+03 -0.29158558058E+04  0.57632974094E+04  0.65000000000E+04  0.15050000000E+03 0.  1.
     100001    1    1    2    0    0  0.71381905342E+03  0.29158558058E+04 -0.57632974094E+04  0.65000000000E+04  0.15050000000E+03 0. -1.
</event>
<event>
 4    1  0.4826743E-004  0.6500000E+04  0.7818608E-02  0.7223770E-01
         52   -1    0    0    0    0  0.00000000000E+00  0.00000000000E+00  0.64930732323E+04  0.65000000000E+04  0.30000000000E+03 0. -1.
        -52   -1    0    0    0    0 -0.00000000000E+00 -0.00000000000E+00 -0.64930732323E+04  0.65000000000E+04  0.30000000000E+03 0.  1.
     100001    1    1    2    0    0  0.29237778030E+03  0.77114802495E+03 -0.64457114198E+04  0.65000000000E+04  0.15050000000E+03 0.  1.
     100001    1    1    2    0    0 -0.29237778030E+03 -0.77114802495E+03  0.64457114198E+04  0.65000000000E+04  0.15050000000E+03 0. -1.
</event>
<event>
 4    1  0.5495139E-004  0.6500000E+04  0.7818608E-02  0.7223770E-01
         52   -1    0    0    0    0  0.00000000000E+00  0.00000000000E+00  0.64930732323E+04  0.65000000000E+04  0.30000000000E+03 0. -1.
        -52   -1    0    0    0    0 -0.00000000000E+00 -0.00000000000E+00 -0.64930732323E+04  0.65000000000E+04  0.30000000000E+03 0.  1.
     100001    1    1    2    0    0 -0.48477458541E+02  0.18854935137E+03 -0.64953405475E+04  0.65000000000E+04  0.15050000000E+03 0.  1.
     100001    1    1    2    0    0  0.48477458541E+02 -0.18854935137E+03  0.64953405475E+04  0.65000000000E+04  0.15050000000E+03 0. -1.
</event>
<event>
 4    1  0.4826743E-004  0.6500000E+04  0.7818608E-02  0.7223770E-01
         52   -1    0    0    0    0  0.00000000000E+00  0.00000000000E+00  0.64930732323E+04  0.65000000000E+04  0.30000000000E+03 0.  1.
        -52   -1    0    0    0    0 -0.00000000000E+00 -0.00000000000E+00 -0.64930732323E+04  0.65000000000E+04  0.30000000000E+03 0. -1.
     100001    1    1    2    0    0  0.64453971087E+04  0.95990210397E+01 -0.82711167290E+03  0.65000000000E+04  0.15050000000E+03 0.  1.
     100001    1    1    2    0    0 -0.64453971087E+04 -0.95990210397E+01  0.82711167290E+03  0.65000000000E+04  0.15050000000E+03 0. -1.
</event>
<event>
 4    1  0.4826743E-004  0.6500000E+04  0.7818608E-02  0.7223770E-01
         52   -1    0    0    0    0  0.00000000000E+00  0.00000000000E+00  0.64930732323E+04  0.65000000000E+04  0.30000000000E+03 0. -1.
        -52   -1    0    0    0    0 -0.00000000000E+00 -0.00000000000E+00 -0.64930732323E+04  0.65000000000E+04  0.30000000000E+03 0. -1.
     100001    1    1    2    0    0 -0.19830176493E+03  0.51753191864E+02 -0.64950248473E+04  0.65000000000E+04  0.15050000000E+03 0. -1.
     100001    1    1    2    0    0  0.19830176493E+03 -0.51753191864E+02  0.64950248473E+04  0.65000000000E+04  0.15050000000E+03 0. -1.
</event>
<event>
 4    1  0.4826743E-004  0.6500000E+04  0.7818608E-02  0.7223770E-01
         52   -1    0    0    0    0  0.00000000000E+00  0.00000000000E+00  0.64930732323E+04  0.65000000000E+04  0.30000000000E+03 0.  1.
        -52   -1    0    0    0    0 -0.00000000000E+00 -0.00000000000E+00 -0.64930732323E+04  0.65000000000E+04  0.30000000000E+03 0. -1.
     100001    1    1    2    0    0  0.30238997581E+03 -0.33693768597E+03  0.64824673581E+04  0.65000000000E+04  0.15050000000E+03 0.  1.
     100001    1    1    2    0    0 -0.30238997581E+03  0.33693768597E+03 -0.64824673581E+04  0.65000000000E+04  0.15050000000E+03 0. -1.
</event>
<event>
 4    1  0.4826743E-004  0.6500000E+04  0.7818608E-02  0.7223770E-01
         52   -1    0    0    0    0  0.00000000000E+00  0.00000000000E+00  0.64930732323E+04  0.65000000000E+04  0.30000000000E+03 0. -1.
        -52   -1    0    0    0    0 -0.00000000000E+00 -0.00000000000E+00 -0.64930732323E+04  0.65000000000E+04  0.30000000000E+03 0.  1.
     100001    1    1    2    0    0 -0.17973683447E+03 -0.42301650880E+04 -0.49295788612E+04  0.65000000000E+04  0.15050000000E+03 0.  1.
     100001    1    1    2    0    0  0.17973683447E+03  0.42301650880E+04  0.49295788612E+04  0.65000000000E+04  0.15050000000E+03 0. -1.
</event>
<event>
 4    1  0.4826743E-004  0.6500000E+04  0.7818608E-02  0.7223770E-01
         52   -1    0    0    0    0  0.00000000000E+00  0.00000000000E+00  0.64930732323E+04  0.65000000000E+04  0.30000000000E+03 0.  1.
        -52   -1    0    0    0    0 -0.00000000000E+00 -0.00000000000E+00 -0.64930732323E+04  0.65000000000E+04  0.30000000000E+03 0. -1.
     100001    1    1    2    0    0 -0.43350630414E+03 -0.67321538009E+02 -0.64834319496E+04  0.65000000000E+04  0.15050000000E+03 0. -1.
     100001    1    1    2    0    0  0.43350630414E+03  0.67321538009E+02  0.64834319496E+04  0.65000000000E+04  0.15050000000E+03 0.  1.
</event>
<event>
 4    1  0.4826743E-004  0.6500000E+04  0.7818608E-02  0.7223770E-01
         52   -1    0    0    0    0  0.00000000000E+00  0.00000000000E+00  0.64930732323E+04  0.65000000000E+04  0.30000000000E+03 0. -1.
        -52   -1    0    0    0    0 -0.00000000000E+00 -0.00000000000E+00 -0.64930732323E+04  0.65000000000E+04  0.30000000000E+03 0.  1.
     100001    1    1    2    0    0 -0.21339489362E+03 -0.36281139580E+03  0.64846110339E+04  0.65000000000E+04  0.15050000000E+03 0. -1.
     100001    1    1    2    0    0  0.21339489362E+03  0.36281139580E+03 -0.64846110339E+04  0.65000000000E+04  0.15050000000E+03 0.  1.
</event>
<event>
 4    1  0.4826743E-004  0.6500000E+04  0.7818608E-02  0.7223770E-01
         52   -1    0    0    0    0  0.00000000000E+00  0.00000000000E+00  0.64930732323E+04  0.65000000000E+04  0.30000000000E+03 0.  1.
        -52   -1    0    0    0    0 -0.00000000000E+00 -0.00000000000E+00 -0.64930732323E+04  0.65000000000E+04  0.30000000000E+03 0. -1.
     100001    1    1    2    0    0 -0.29087193882E+04  0.62925091161E+03 -0.57767416907E+04  0.65000000000E+04  0.15050000000E+03 0. -1.
     100001    1    1    2    0    0  0.29087193882E+04 -0.62925091161E+03  0.57767416907E+04  0.65000000000E+04  0.15050000000E+03 0.  1.
</event>
<event>
 4    1  0.4826743E-004  0.6500000E+04  0.7818608E-02  0.7223770E-01
         52   -1    0    0    0    0  0.00000000000E+00  0.00000000000E+00  0.64930732323E+04  0.65000000000E+04  0.30000000000E+03 0.  1.
        -52   -1    0    0    0    0 -0.00000000000E+00 -0.00000000000E+00 -0.64930732323E+04  0.65000000000E+04  0.30000000000E+03 0. -1.
     100001    1    1    2    0    0  0.19072898230E+04 -0.15759032648E+04 -0.60088371738E+04  0.65000000000E+04  0.15050000000E+03 0. -1.
     100001    1    1    2    0    0 -0.19072898230E+04  0.15759032648E+04  0.60088371738E+04  0.65000000000E+04  0.15050000000E+03 0.  1.
</event>
<event>
 4    1  0.4826743E-004  0.6500000E+04  0.7818608E-02  0.7223770E-01
         52   -1    0    0    0    0  0.00000000000E+00  0.00000000000E+00  0.64930732323E+04  0.65000000000E+04  0.30000000000E+03 0. -1.
        -52   -1    0    0    0    0 -0.00000000000E+00 -0.00000000000E+00 -0.64930732323E+04  0.65000000000E+04  0.30000000000E+03 0.  1.
     100001    1    1    2    0    0 -0.28921260425E+03  0.61238624045E+03 -0.64628700213E+04  0.65000000000E+04  0.15050000000E+03 0.  1.
     100001    1    1    2    0    0  0.28921260425E+03 -0.61238624045E+03  0.64628700213E+04  0.65000000000E+04  0.15050000000E+03 0. -1.
</event>
<event>
 4    1  0.4826743E-004  0.6500000E+04  0.7818608E-02  0.7223770E-01
         52   -1    0    0    0    0  0.00000000000E+00  0.00000000000E+00  0.64930732323E+04  0.65000000000E+04  0.30000000000E+03 0. -1.
        -52   -1    0    0    0    0 -0.00000000000E+00 -0.00000000000E+00 -0.64930732323E+04  0.65000000000E+04  0.30000000000E+03 0.  1.
     100001    1    1    2    0    0 -0.44534344068E+03 -0.18088573470E+04  0.62255163696E+04  0.65000000000E+04  0.15050000000E+03 0. -1.
     100001    1    1    2    0    0  0.44534344068E+03  0.18088573470E+04 -0.62255163696E+04  0.65000000000E+04  0.15050000000E+03 0.  1.
</event>
<event>
 4    1  0.4826743E-004  0.6500000E+04  0.7818608E-02  0.7223770E-01
         52   -1    0    0    0    0  0.00000000000E+00  0.00000000000E+00  0.64930732323E+04  0.65000000000E+04  0.30000000000E+03 0. -1.
        -52   -1    0    0    0    0 -0.00000000000E+00 -0.00000000000E+00 -0.64930732323E+04  0.65000000000E+04  0.30000000000E+03 0.  1.
     100001    1    1    2    0    0 -0.32895253460E+04  0.73576793414E+03 -0.55556294239E+04  0.65000000000E+04  0.15050000000E+03 0.  1.
     100001    1    1    2    0    0  0.32895253460E+04 -0.73576793414E+03  0.55556294239E+04  0.65000000000E+04  0.15050000000E+03 0. -1.
</event>
<event>
 4    1  0.4826743E-004  0.6500000E+04  0.7818608E-02  0.7223770E-01
         52   -1    0    0    0    0  0.00000000000E+00  0.00000000000E+00  0.64930732323E+04  0.65000000000E+04  0.30000000000E+03 0.  1.
        -52   -1    0    0    0    0 -0.00000000000E+00 -0.00000000000E+00 -0.64930732323E+04  0.65000000000E+04  0.30000000000E+03 0. -1.
     100001    1    1    2    0    0  0.18188442114E+04  0.70502192455E+03  0.61985562489E+04  0.65000000000E+04  0.15050000000E+03 0.  1.
     100001    1    1    2    0    0 -0.18188442114E+04 -0.70502192455E+03 -0.61985562489E+04  0.65000000000E+04  0.15050000000E+03 0. -1.
</event>
<event>
 4    1  0.4826743E-004  0.6500000E+04  0.7818608E-02  0.7223770E-01
         52   -1    0    0    0    0  0.00000000000E+00  0.00000000000E+00  0.64930732323E+04  0.65000000000E+04  0.30000000000E+03 0. -1.
        -52   -1    0    0    0    0 -0.00000000000E+00 -0.00000000000E+00 -0.64930732323E+04  0.65000000000E+04  0.30000000000E+03 0.  1.
     100001    1    1    2    0    0  0.11136441769E+02  0.29215433958E+03 -0.64916771001E+04  0.65000000000E+04  0.15050000000E+03 0.  1.
     100001    1    1    2    0    0 -0.11136441769E+02 -0.29215433958E+03  0.64916771001E+04  0.65000000000E+04  0.15050000000E+03 0. -1.
</event>
<event>
 4    1  0.4826743E-004  0.6500000E+04  0.7818608E-02  0.7223770E-01
         52   -1    0    0    0    0  0.00000000000E+00  0.00000000000E+00  0.64930732323E+04  0.65000000000E+04  0.30000000000E+03 0.  1.
        -52   -1    0    0    0    0 -0.00000000000E+00 -0.00000000000E+00 -0.64930732323E+04  0.65000000000E+04  0.30000000000E+03 0. -1.
     100001    1    1    2    0    0 -0.22586032865E+03  0.13757730172E+04  0.63469351239E+04  0.65000000000E+04  0.15050000000E+03 0.  1.
     100001    1    1    2    0    0  0.22586032865E+03 -0.13757730172E+04 -0.63469351239E+04  0.65000000000E+04  0.15050000000E+03 0. -1.
</event>
<event>
 4    1  0.4826743E-004  0.6500000E+04  0.7818608E-02  0.7223770E-01
         52   -1    0    0    0    0  0.00000000000E+00  0.00000000000E+00  0.64930732323E+04  0.65000000000E+04  0.30000000000E+03 0. -1.
        -52   -1    0    0    0    0 -0.00000000000E+00 -0.00000000000E+00 -0.64930732323E+04  0.65000000000E+04  0.30000000000E+03 0.  1.
     100001    1    1    2    0    0 -0.62704982276E+04 -0.15323514800E+04 -0.74839873656E+03  0.65000000000E+04  0.15050000000E+03 0.  1.
     100001    1    1    2    0    0  0.62704982276E+04  0.15323514800E+04  0.74839873656E+03  0.65000000000E+04  0.15050000000E+03 0. -1.
</event>
<event>
 4    1  0.4826743E-004  0.6500000E+04  0.7818608E-02  0.7223770E-01
         52   -1    0    0    0    0  0.00000000000E+00  0.00000000000E+00  0.64930732323E+04  0.65000000000E+04  0.30000000000E+03 0.  1.
        -52   -1    0    0    0    0 -0.00000000000E+00 -0.00000000000E+00 -0.64930732323E+04  0.65000000000E+04  0.30000000000E+03 0. -1.
     100001    1    1    2    0    0  0.29568300902E+04  0.39328751876E+04 -0.42446434864E+04  0.65000000000E+04  0.15050000000E+03 0. -1.
     100001    1    1    2    0    0 -0.29568300902E+04 -0.39328751876E+04  0.42446434864E+04  0.65000000000E+04  0.15050000000E+03 0.  1.
</event>
<event>
 4    1  0.4826743E-004  0.6500000E+04  0.7818608E-02  0.7223770E-01
         52   -1    0    0    0    0  0.00000000000E+00  0.00000000000E+00  0.64930732323E+04  0.65000000000E+04  0.30000000000E+03 0.  1.
        -52   -1    0    0    0    0 -0.00000000000E+00 -0.00000000000E+00 -0.64930732323E+04  0.65000000000E+04  0.30000000000E+03 0. -1.
     100001    1    1    2    0    0 -0.20174742803E+04  0.43787707418E+03 -0.61616078215E+04  0.65000000000E+04  0.15050000000E+03 0. -1.
     100001    1    1    2    0    0  0.20174742803E+04 -0.43787707418E+03  0.61616078215E+04  0.65000000000E+04  0.15050000000E+03 0.  1.
</event>
<event>
 4    1  0.4826743E-004  0.6500000E+04  0.7818608E-02  0.7223770E-01
         52   -1    0    0    0    0  0.00000000000E+00  0.00000000000E+00  0.64930732323E+04  0.65000000000E+04  0.30000000000E+03 0. -1.
        -52   -1    0    0    0    0 -0.00000000000E+00 -0.00000000000E+00 -0.64930732323E+04  0.65000000000E+04  0.30000000000E+03 0.  1.
     100001    1    1    2    0    0  0.17827583198E+04 -0.13208669427E+04  0.61077355086E+04  0.65000000000E+04  0.15050000000E+03 0. -1.
     100001    1    1    2    0    0 -0.17827583198E+04  0.13208669427E+04 -0.61077355086E+04  0.65000000000E+04  0.15050000000E+03 0.  1.
</event>
<event>
 4    1  0.4826743E-004  0.6500000E+04  0.7818608E-02  0.7223770E-01
         52   -1    0    0    0    0  0.00000000000E+00  0.00000000000E+00  0.64930732323E+04  0.65000000000E+04  0.30000000000E+03 0. -1.
        -52   -1    0    0    0    0 -0.00000000000E+00 -0.00000000000E+00 -0.64930732323E+04  0.65000000000E+04  0.30000000000E+03 0.  1.
     100001    1    1    2    0    0 -0.63786462642E+03 -0.38921618786E+04  0.51644510240E+04  0.65000000000E+04  0.15050000000E+03 0. -1.
     100001    1    1    2    0    0  0.63786462642E+03  0.38921618786E+04 -0.51644510240E+04  0.65000000000E+04  0.15050000000E+03 0.  1.
</event>
<event>
 4    1  0.4826743E-004  0.6500000E+04  0.7818608E-02  0.7223770E-01
         52   -1    0    0    0    0  0.00000000000E+00  0.00000000000E+00  0.64930732323E+04  0.65000000000E+04  0.30000000000E+03 0.  1.
        -52   -1    0    0    0    0 -0.00000000000E+00 -0.00000000000E+00 -0.64930732323E+04  0.65000000000E+04  0.30000000000E+03 0. -1.
     100001    1    1    2    0    0  0.25213563114E+04  0.38485507699E+04  0.45889834465E+04  0.65000000000E+04  0.15050000000E+03 0.  1.
     100001    1    1    2    0    0 -0.25213563114E+04 -0.38485507699E+04 -0.45889834465E+04  0.65000000000E+04  0.15050000000E+03 0. -1.
</event>
<event>
 4    1  0.6089470E-004  0.6500000E+04  0.7818608E-02  0.7223770E-01
         52   -1    0    0    0    0  0.00000000000E+00  0.00000000000E+00  0.64930732323E+04  0.65000000000E+04  0.30000000000E+03 0. -1.
        -52   -1    0    0    0    0 -0.00000000000E+00 -0.00000000000E+00 -0.64930732323E+04  0.65000000000E+04  0.30000000000E+03 0. -1.
     100001    1    1    2    0    0  0.68535235066E+02  0.14401421967E+03 -0.64962999143E+04  0.65000000000E+04  0.15050000000E+03 0. -1.
     100001    1    1    2    0    0 -0.68535235066E+02 -0.14401421967E+03  0.64962999143E+04  0.65000000000E+04  0.15050000000E+03 0. -1.
</event>
<event>
 4    1  0.4826743E-004  0.6500000E+04  0.7818608E-02  0.7223770E-01
         52   -1    0    0    0    0  0.00000000000E+00  0.00000000000E+00  0.64930732323E+04  0.65000000000E+04  0.30000000000E+03 0.  1.
        -52   -1    0    0    0    0 -0.00000000000E+00 -0.00000000000E+00 -0.64930732323E+04  0.65000000000E+04  0.30000000000E+03 0. -1.
     100001    1    1    2    0    0 -0.58232907379E+04  0.28835949912E+04 -0.38918616509E+02  0.65000000000E+04  0.15050000000E+03 0. -1.
     100001    1    1    2    0    0  0.58232907379E+04 -0.28835949912E+04  0.38918616509E+02  0.65000000000E+04  0.15050000000E+03 0.  1.
</event>
<event>
 4    1  0.4826743E-004  0.6500000E+04  0.7818608E-02  0.7223770E-01
         52   -1    0    0    0    0  0.00000000000E+00  0.00000000000E+00  0.64930732323E+04  0.65000000000E+04  0.30000000000E+03 0.  1.
        -52   -1    0    0    0    0 -0.00000000000E+00 -0.00000000000E+00 -0.64930732323E+04  0.65000000000E+04  0.30000000000E+03 0. -1.
     100001    1    1    2    0    0  0.14697904981E+04 -0.21636037442E+04 -0.59486035740E+04  0.65000000000E+04  0.15050000000E+03 0. -1.
     100001    1    1    2    0    0 -0.14697904981E+04  0.21636037442E+04  0.59486035740E+04  0.65000000000E+04  0.15050000000E+03 0.  1.
</event>
<event>
 4    1  0.4826743E-004  0.6500000E+04  0.7818608E-02  0.7223770E-01
         52   -1    0    0    0    0  0.00000000000E+00  0.00000000000E+00  0.64930732323E+04  0.65000000000E+04  0.30000000000E+03 0.  1.
        -52   -1    0    0    0    0 -0.00000000000E+00 -0.00000000000E+00 -0.64930732323E+04  0.65000000000E+04  0.30000000000E+03 0. -1.
     100001    1    1    2    0    0  0.13464555742E+03 -0.11760071197E+03 -0.64957979030E+04  0.65000000000E+04  0.15050000000E+03 0. -1.
     100001    1    1    2    0    0 -0.13464555742E+03  0.11760071197E+03  0.64957979030E+04  0.65000000000E+04  0.15050000000E+03 0.  1.
</event>
<event>
 4    1  0.4826743E-004  0.6500000E+04  0.7818608E-02  0.7223770E-01
         52   -1    0    0    0    0  0.00000000000E+00  0.00000000000E+00  0.64930732323E+04  0.65000000000E+04  0.30000000000E+03 0.  1.
        -52   -1    0    0    0    0 -0.00000000000E+00 -0.00000000000E+00 -0.64930732323E+04  0.65000000000E+04  0.30000000000E+03 0. -1.
     100001    1    1    2    0    0  0.22355647430E+04  0.95684612366E+03 -0.60261136336E+04  0.65000000000E+04  0.15050000000E+03 0. -1.
     100001    1    1    2    0    0 -0.22355647430E+04 -0.95684612366E+03  0.60261136336E+04  0.65000000000E+04  0.15050000000E+03 0.  1.
</event>
<event>
 4    1  0.4826743E-004  0.6500000E+04  0.7818608E-02  0.7223770E-01
         52   -1    0    0    0    0  0.00000000000E+00  0.00000000000E+00  0.64930732323E+04  0.65000000000E+04  0.30000000000E+03 0.  1.
        -52   -1    0    0    0    0 -0.00000000000E+00 -0.00000000000E+00 -0.64930732323E+04  0.65000000000E+04  0.30000000000E+03 0.  1.
     100001    1    1    2    0    0  0.12748355068E+03 -0.14423975903E+03  0.64954054982E+04  0.65000000000E+04  0.15050000000E+03 0.  1.
     100001    1    1    2    0    0 -0.12748355068E+03  0.14423975903E+03 -0.64954054982E+04  0.65000000000E+04  0.15050000000E+03 0.  1.
</event>
<event>
 4    1  0.4826743E-004  0.6500000E+04  0.7818608E-02  0.7223770E-01
         52   -1    0    0    0    0  0.00000000000E+00  0.00000000000E+00  0.64930732323E+04  0.65000000000E+04  0.30000000000E+03 0. -1.
        -52   -1    0    0    0    0 -0.00000000000E+00 -0.00000000000E+00 -0.64930732323E+04  0.65000000000E+04  0.30000000000E+03 0.  1.
     100001    1    1    2    0    0  0.43408419677E+03  0.10112737805E+04  0.64043927113E+04  0.65000000000E+04  0.15050000000E+03 0. -1.
     100001    1    1    2    0    0 -0.43408419677E+03 -0.10112737805E+04 -0.64043927113E+04  0.65000000000E+04  0.15050000000E+03 0.  1.
</event>
<event>
 4    1  0.4826743E-004  0.6500000E+04  0.7818608E-02  0.7223770E-01
         52   -1    0    0    0    0  0.00000000000E+00  0.00000000000E+00  0.64930732323E+04  0.65000000000E+04  0.30000000000E+03 0. -1.
        -52   -1    0    0    0    0 -0.00000000000E+00 -0.00000000000E+00 -0.64930732323E+04  0.65000000000E+04  0.30000000000E+03 0.  1.
     100001    1    1    2    0    0 -0.30698608843E+03  0.30731365796E+03 -0.64837232827E+04  0.65000000000E+04  0.15050000000E+03 0.  1.
     100001    1    1    2    0    0  0.30698608843E+03 -0.30731365796E+03  0.64837232827E+04  0.65000000000E+04  0.15050000000E+03 0. -1.
</event>
<event>
 4    1  0.4826743E-004  0.6500000E+04  0.7818608E-02  0.7223770E-01
         52   -1    0    0    0    0  0.00000000000E+00  0.00000000000E+00  0.64930732323E+04  0.65000000000E+04  0.30000000000E+03 0.  1.
        -52   -1    0    0    0    0 -0.00000000000E+00 -0.00000000000E+00 -0.64930732323E+04  0.65000000000E+04  0.30000000000E+03 0. -1.
     100001    1    1    2    0    0  0.86617340716E+03 -0.17597358607E+04  0.61951935466E+04  0.65000000000E+04  0.15050000000E+03 0.  1.
     100001    1    1    2    0    0 -0.86617340716E+03  0.17597358607E+04 -0.61951935466E+04  0.65000000000E+04  0.15050000000E+03 0. -1.
</event>
<event>
 4    1  0.4826743E-004  0.6500000E+04  0.7818608E-02  0.7223770E-01
         52   -1    0    0    0    0  0.00000000000E+00  0.00000000000E+00  0.64930732323E+04  0.65000000000E+04  0.30000000000E+03 0. -1.
        -52   -1    0    0    0    0 -0.00000000000E+00 -0.00000000000E+00 -0.64930732323E+04  0.65000000000E+04  0.30000000000E+03 0.  1.
     100001    1    1    2    0    0 -0.48103365457E+03  0.37347385159E+02  0.64803210990E+04  0.65000000000E+04  0.15050000000E+03 0. -1.
     100001    1    1    2    0    0  0.48103365457E+03 -0.37347385159E+02 -0.64803210990E+04  0.65000000000E+04  0.15050000000E+03 0.  1.
</event>
<event>
 4    1  0.4826743E-004  0.6500000E+04  0.7818608E-02  0.7223770E-01
         52   -1    0    0    0    0  0.00000000000E+00  0.00000000000E+00  0.64930732323E+04  0.65000000000E+04  0.30000000000E+03 0.  1.
        -52   -1    0    0    0    0 -0.00000000000E+00 -0.00000000000E+00 -0.64930732323E+04  0.65000000000E+04  0.30000000000E+03 0. -1.
     100001    1    1    2    0    0  0.41646315153E+02  0.28856205132E+03 -0.64917137396E+04  0.65000000000E+04  0.15050000000E+03 0. -1.
     100001    1    1    2    0    0 -0.41646315153E+02 -0.28856205132E+03  0.64917137396E+04  0.65000000000E+04  0.15050000000E+03 0.  1.
</event>
<event>
 4    1  0.4826743E-004  0.6500000E+04  0.7818608E-02  0.7223770E-01
         52   -1    0    0    0    0  0.00000000000E+00  0.00000000000E+00  0.64930732323E+04  0.65000000000E+04  0.30000000000E+03 0.  1.
        -52   -1    0    0    0    0 -0.00000000000E+00 -0.00000000000E+00 -0.64930732323E+04  0.65000000000E+04  0.30000000000E+03 0. -1.
     100001    1    1    2    0    0  0.17019048252E+04  0.84521797493E+03 -0.62142156618E+04  0.65000000000E+04  0.15050000000E+03 0. -1.
     100001    1    1    2    0    0 -0.17019048252E+04 -0.84521797493E+03  0.62142156618E+04  0.65000000000E+04  0.15050000000E+03 0.  1.
</event>
<event>
 4    1  0.4826743E-004  0.6500000E+04  0.7818608E-02  0.7223770E-01
         52   -1    0    0    0    0  0.00000000000E+00  0.00000000000E+00  0.64930732323E+04  0.65000000000E+04  0.30000000000E+03 0.  1.
        -52   -1    0    0    0    0 -0.00000000000E+00 -0.00000000000E+00 -0.64930732323E+04  0.65000000000E+04  0.30000000000E+03 0. -1.
     100001    1    1    2    0    0 -0.81775570340E+03  0.20470873004E+04  0.61129419222E+04  0.65000000000E+04  0.15050000000E+03 0.  1.
     100001    1    1    2    0    0  0.81775570340E+03 -0.20470873004E+04 -0.61129419222E+04  0.65000000000E+04  0.15050000000E+03 0. -1.
</event>
<event>
 4    1  0.4826743E-004  0.6500000E+04  0.7818608E-02  0.7223770E-01
         52   -1    0    0    0    0  0.00000000000E+00  0.00000000000E+00  0.64930732323E+04  0.65000000000E+04  0.30000000000E+03 0.  1.
        -52   -1    0    0    0    0 -0.00000000000E+00 -0.00000000000E+00 -0.64930732323E+04  0.65000000000E+04  0.30000000000E+03 0.  1.
     100001    1    1    2    0    0 -0.13559328604E+03  0.16405437384E+03 -0.64947710024E+04  0.65000000000E+04  0.15050000000E+03 0.  1.
     100001    1    1    2    0    0  0.13559328604E+03 -0.16405437384E+03  0.64947710024E+04  0.65000000000E+04  0.15050000000E+03 0.  1.
</event>
<event>
 4    1  0.4826743E-004  0.6500000E+04  0.7818608E-02  0.7223770E-01
         52   -1    0    0    0    0  0.00000000000E+00  0.00000000000E+00  0.64930732323E+04  0.65000000000E+04  0.30000000000E+03 0. -1.
        -52   -1    0    0    0    0 -0.00000000000E+00 -0.00000000000E+00 -0.64930732323E+04  0.65000000000E+04  0.30000000000E+03 0.  1.
     100001    1    1    2    0    0  0.47181689858E+03  0.59563590715E+04  0.25547064754E+04  0.65000000000E+04  0.15050000000E+03 0. -1.
     100001    1    1    2    0    0 -0.47181689858E+03 -0.59563590715E+04 -0.25547064754E+04  0.65000000000E+04  0.15050000000E+03 0.  1.
</event>
<event>
 4    1  0.4826743E-004  0.6500000E+04  0.7818608E-02  0.7223770E-01
         52   -1    0    0    0    0  0.00000000000E+00  0.00000000000E+00  0.64930732323E+04  0.65000000000E+04  0.30000000000E+03 0. -1.
        -52   -1    0    0    0    0 -0.00000000000E+00 -0.00000000000E+00 -0.64930732323E+04  0.65000000000E+04  0.30000000000E+03 0.  1.
     100001    1    1    2    0    0  0.20116534799E+04  0.82948273532E+03  0.61231167242E+04  0.65000000000E+04  0.15050000000E+03 0. -1.
     100001    1    1    2    0    0 -0.20116534799E+04 -0.82948273532E+03 -0.61231167242E+04  0.65000000000E+04  0.15050000000E+03 0.  1.
</event>
<event>
 4    1  0.4826743E-004  0.6500000E+04  0.7818608E-02  0.7223770E-01
         52   -1    0    0    0    0  0.00000000000E+00  0.00000000000E+00  0.64930732323E+04  0.65000000000E+04  0.30000000000E+03 0. -1.
        -52   -1    0    0    0    0 -0.00000000000E+00 -0.00000000000E+00 -0.64930732323E+04  0.65000000000E+04  0.30000000000E+03 0.  1.
     100001    1    1    2    0    0 -0.24192450028E+04 -0.28035777631E+04 -0.53399021613E+04  0.65000000000E+04  0.15050000000E+03 0.  1.
     100001    1    1    2    0    0  0.24192450028E+04  0.28035777631E+04  0.53399021613E+04  0.65000000000E+04  0.15050000000E+03 0. -1.
</event>
<event>
 4    1  0.4826743E-004  0.6500000E+04  0.7818608E-02  0.7223770E-01
         52   -1    0    0    0    0  0.00000000000E+00  0.00000000000E+00  0.64930732323E+04  0.65000000000E+04  0.30000000000E+03 0.  1.
        -52   -1    0    0    0    0 -0.00000000000E+00 -0.00000000000E+00 -0.64930732323E+04  0.65000000000E+04  0.30000000000E+03 0. -1.
     100001    1    1    2    0    0 -0.80446494243E+03  0.59656106576E+03  0.64206152977E+04  0.65000000000E+04  0.15050000000E+03 0.  1.
     100001    1    1    2    0    0  0.80446494243E+03 -0.59656106576E+03 -0.64206152977E+04  0.65000000000E+04  0.15050000000E+03 0. -1.
</event>
<event>
 4    1  0.5110442E-004  0.6500000E+04  0.7818608E-02  0.7223770E-01
         52   -1    0    0    0    0  0.00000000000E+00  0.00000000000E+00  0.64930732323E+04  0.65000000000E+04  0.30000000000E+03 0. -1.
        -52   -1    0    0    0    0 -0.00000000000E+00 -0.00000000000E+00 -0.64930732323E+04  0.65000000000E+04  0.30000000000E+03 0. -1.
     100001    1    1    2    0    0 -0.57026246747E+02  0.24764319513E+03  0.64932865796E+04  0.65000000000E+04  0.15050000000E+03 0. -1.
     100001    1    1    2    0    0  0.57026246747E+02 -0.24764319513E+03 -0.64932865796E+04  0.65000000000E+04  0.15050000000E+03 0. -1.
</event>
<event>
 4    1  0.4826743E-004  0.6500000E+04  0.7818608E-02  0.7223770E-01
         52   -1    0    0    0    0  0.00000000000E+00  0.00000000000E+00  0.64930732323E+04  0.65000000000E+04  0.30000000000E+03 0. -1.
        -52   -1    0    0    0    0 -0.00000000000E+00 -0.00000000000E+00 -0.64930732323E+04  0.65000000000E+04  0.30000000000E+03 0.  1.
     100001    1    1    2    0    0 -0.22362981522E+03  0.46383792048E+03 -0.64778232331E+04  0.65000000000E+04  0.15050000000E+03 0.  1.
     100001    1    1    2    0    0  0.22362981522E+03 -0.46383792048E+03  0.64778232331E+04  0.65000000000E+04  0.15050000000E+03 0. -1.
</event>
<event>
 4    1  0.4826743E-004  0.6500000E+04  0.7818608E-02  0.7223770E-01
         52   -1    0    0    0    0  0.00000000000E+00  0.00000000000E+00  0.64930732323E+04  0.65000000000E+04  0.30000000000E+03 0.  1.
        -52   -1    0    0    0    0 -0.00000000000E+00 -0.00000000000E+00 -0.64930732323E+04  0.65000000000E+04  0.30000000000E+03 0. -1.
     100001    1    1    2    0    0  0.22497584891E+04 -0.26740603816E+04 -0.54786255180E+04  0.65000000000E+04  0.15050000000E+03 0. -1.
     100001    1    1    2    0    0 -0.22497584891E+04  0.26740603816E+04  0.54786255180E+04  0.65000000000E+04  0.15050000000E+03 0.  1.
</event>
<event>
 4    1  0.4826743E-004  0.6500000E+04  0.7818608E-02  0.7223770E-01
         52   -1    0    0    0    0  0.00000000000E+00  0.00000000000E+00  0.64930732323E+04  0.65000000000E+04  0.30000000000E+03 0.  1.
        -52   -1    0    0    0    0 -0.00000000000E+00 -0.00000000000E+00 -0.64930732323E+04  0.65000000000E+04  0.30000000000E+03 0. -1.
     100001    1    1    2    0    0  0.83252441820E+03 -0.21739788648E+04 -0.60669653649E+04  0.65000000000E+04  0.15050000000E+03 0. -1.
     100001    1    1    2    0    0 -0.83252441820E+03  0.21739788648E+04  0.60669653649E+04  0.65000000000E+04  0.15050000000E+03 0.  1.
</event>
<event>
 4    1  0.4826743E-004  0.6500000E+04  0.7818608E-02  0.7223770E-01
         52   -1    0    0    0    0  0.00000000000E+00  0.00000000000E+00  0.64930732323E+04  0.65000000000E+04  0.30000000000E+03 0. -1.
        -52   -1    0    0    0    0 -0.00000000000E+00 -0.00000000000E+00 -0.64930732323E+04  0.65000000000E+04  0.30000000000E+03 0.  1.
     100001    1    1    2    0    0  0.31801415551E+04  0.11120066450E+04  0.55567518085E+04  0.65000000000E+04  0.15050000000E+03 0. -1.
     100001    1    1    2    0    0 -0.31801415551E+04 -0.11120066450E+04 -0.55567518085E+04  0.65000000000E+04  0.15050000000E+03 0.  1.
</event>
<event>
 4    1  0.4826743E-004  0.6500000E+04  0.7818608E-02  0.7223770E-01
         52   -1    0    0    0    0  0.00000000000E+00  0.00000000000E+00  0.64930732323E+04  0.65000000000E+04  0.30000000000E+03 0.  1.
        -52   -1    0    0    0    0 -0.00000000000E+00 -0.00000000000E+00 -0.64930732323E+04  0.65000000000E+04  0.30000000000E+03 0. -1.
     100001    1    1    2    0    0  0.53286983978E+04 -0.34223561332E+04  0.14559538567E+04  0.65000000000E+04  0.15050000000E+03 0.  1.
     100001    1    1    2    0    0 -0.53286983978E+04  0.34223561332E+04 -0.14559538567E+04  0.65000000000E+04  0.15050000000E+03 0. -1.
</event>
<event>
 4    1  0.4826743E-004  0.6500000E+04  0.7818608E-02  0.7223770E-01
         52   -1    0    0    0    0  0.00000000000E+00  0.00000000000E+00  0.64930732323E+04  0.65000000000E+04  0.30000000000E+03 0. -1.
        -52   -1    0    0    0    0 -0.00000000000E+00 -0.00000000000E+00 -0.64930732323E+04  0.65000000000E+04  0.30000000000E+03 0.  1.
     100001    1    1    2    0    0  0.10887226931E+04  0.58158527300E+03 -0.63799522896E+04  0.65000000000E+04  0.15050000000E+03 0.  1.
     100001    1    1    2    0    0 -0.10887226931E+04 -0.58158527300E+03  0.63799522896E+04  0.65000000000E+04  0.15050000000E+03 0. -1.
</event>
<event>
 4    1  0.4826743E-004  0.6500000E+04  0.7818608E-02  0.7223770E-01
         52   -1    0    0    0    0  0.00000000000E+00  0.00000000000E+00  0.64930732323E+04  0.65000000000E+04  0.30000000000E+03 0.  1.
        -52   -1    0    0    0    0 -0.00000000000E+00 -0.00000000000E+00 -0.64930732323E+04  0.65000000000E+04  0.30000000000E+03 0. -1.
     100001    1    1    2    0    0 -0.11061845573E+04 -0.95033365543E+03  0.63325011977E+04  0.65000000000E+04  0.15050000000E+03 0.  1.
     100001    1    1    2    0    0  0.11061845573E+04  0.95033365543E+03 -0.63325011977E+04  0.65000000000E+04  0.15050000000E+03 0. -1.
</event>
<event>
 4    1  0.4826743E-004  0.6500000E+04  0.7818608E-02  0.7223770E-01
         52   -1    0    0    0    0  0.00000000000E+00  0.00000000000E+00  0.64930732323E+04  0.65000000000E+04  0.30000000000E+03 0. -1.
        -52   -1    0    0    0    0 -0.00000000000E+00 -0.00000000000E+00 -0.64930732323E+04  0.65000000000E+04  0.30000000000E+03 0.  1.
     100001    1    1    2    0    0 -0.26576972127E+04  0.37656665896E+03 -0.59179551221E+04  0.65000000000E+04  0.15050000000E+03 0.  1.
     100001    1    1    2    0    0  0.26576972127E+04 -0.37656665896E+03  0.59179551221E+04  0.65000000000E+04  0.15050000000E+03 0. -1.
</event>
<event>
 4    1  0.4826743E-004  0.6500000E+04  0.7818608E-02  0.7223770E-01
         52   -1    0    0    0    0  0.00000000000E+00  0.00000000000E+00  0.64930732323E+04  0.65000000000E+04  0.30000000000E+03 0. -1.
        -52   -1    0    0    0    0 -0.00000000000E+00 -0.00000000000E+00 -0.64930732323E+04  0.65000000000E+04  0.30000000000E+03 0.  1.
     100001    1    1    2    0    0 -0.24079827337E+03  0.13451600088E+04 -0.63529450251E+04  0.65000000000E+04  0.15050000000E+03 0.  1.
     100001    1    1    2    0    0  0.24079827337E+03 -0.13451600088E+04  0.63529450251E+04  0.65000000000E+04  0.15050000000E+03 0. -1.
</event>
<event>
 4    1  0.4826743E-004  0.6500000E+04  0.7818608E-02  0.7223770E-01
         52   -1    0    0    0    0  0.00000000000E+00  0.00000000000E+00  0.64930732323E+04  0.65000000000E+04  0.30000000000E+03 0.  1.
        -52   -1    0    0    0    0 -0.00000000000E+00 -0.00000000000E+00 -0.64930732323E+04  0.65000000000E+04  0.30000000000E+03 0. -1.
     100001    1    1    2    0    0 -0.55485678137E+03 -0.47579789130E+03 -0.64570194416E+04  0.65000000000E+04  0.15050000000E+03 0. -1.
     100001    1    1    2    0    0  0.55485678137E+03  0.47579789130E+03  0.64570194416E+04  0.65000000000E+04  0.15050000000E+03 0.  1.
</event>
<event>
 4    1  0.4826743E-004  0.6500000E+04  0.7818608E-02  0.7223770E-01
         52   -1    0    0    0    0  0.00000000000E+00  0.00000000000E+00  0.64930732323E+04  0.65000000000E+04  0.30000000000E+03 0.  1.
        -52   -1    0    0    0    0 -0.00000000000E+00 -0.00000000000E+00 -0.64930732323E+04  0.65000000000E+04  0.30000000000E+03 0. -1.
     100001    1    1    2    0    0 -0.88868792693E+03 -0.20297324465E+04 -0.61088271963E+04  0.65000000000E+04  0.15050000000E+03 0. -1.
     100001    1    1    2    0    0  0.88868792693E+03  0.20297324465E+04  0.61088271963E+04  0.65000000000E+04  0.15050000000E+03 0.  1.
</event>
<event>
 4    1  0.4826743E-004  0.6500000E+04  0.7818608E-02  0.7223770E-01
         52   -1    0    0    0    0  0.00000000000E+00  0.00000000000E+00  0.64930732323E+04  0.65000000000E+04  0.30000000000E+03 0.  1.
        -52   -1    0    0    0    0 -0.00000000000E+00 -0.00000000000E+00 -0.64930732323E+04  0.65000000000E+04  0.30000000000E+03 0.  1.
     100001    1    1    2    0    0 -0.41445994380E+01  0.17234501929E+03  0.64959702714E+04  0.65000000000E+04  0.15050000000E+03 0.  1.
     100001    1    1    2    0    0  0.41445994380E+01 -0.17234501929E+03 -0.64959702714E+04  0.65000000000E+04  0.15050000000E+03 0.  1.
</event>
<event>
 4    1  0.6287246E-004  0.6500000E+04  0.7818608E-02  0.7223770E-01
         52   -1    0    0    0    0  0.00000000000E+00  0.00000000000E+00  0.64930732323E+04  0.65000000000E+04  0.30000000000E+03 0.  1.
        -52   -1    0    0    0    0 -0.00000000000E+00 -0.00000000000E+00 -0.64930732323E+04  0.65000000000E+04  0.30000000000E+03 0.  1.
     100001    1    1    2    0    0  0.77060146926E+02 -0.75659073696E+02  0.64973600168E+04  0.65000000000E+04  0.15050000000E+03 0.  1.
     100001    1    1    2    0    0 -0.77060146926E+02  0.75659073696E+02 -0.64973600168E+04  0.65000000000E+04  0.15050000000E+03 0.  1.
</event>
<event>
 4    1  0.4826743E-004  0.6500000E+04  0.7818608E-02  0.7223770E-01
         52   -1    0    0    0    0  0.00000000000E+00  0.00000000000E+00  0.64930732323E+04  0.65000000000E+04  0.30000000000E+03 0.  1.
        -52   -1    0    0    0    0 -0.00000000000E+00 -0.00000000000E+00 -0.64930732323E+04  0.65000000000E+04  0.30000000000E+03 0.  1.
     100001    1    1    2    0    0  0.35042987641E+03 -0.10530028991E+03  0.64879473257E+04  0.65000000000E+04  0.15050000000E+03 0.  1.
     100001    1    1    2    0    0 -0.35042987641E+03  0.10530028991E+03 -0.64879473257E+04  0.65000000000E+04  0.15050000000E+03 0.  1.
</event>
<event>
 4    1  0.4826743E-004  0.6500000E+04  0.7818608E-02  0.7223770E-01
         52   -1    0    0    0    0  0.00000000000E+00  0.00000000000E+00  0.64930732323E+04  0.65000000000E+04  0.30000000000E+03 0. -1.
        -52   -1    0    0    0    0 -0.00000000000E+00 -0.00000000000E+00 -0.64930732323E+04  0.65000000000E+04  0.30000000000E+03 0.  1.
     100001    1    1    2    0    0 -0.16373732882E+04  0.21296584966E+04  0.59170020410E+04  0.65000000000E+04  0.15050000000E+03 0. -1.
     100001    1    1    2    0    0  0.16373732882E+04 -0.21296584966E+04 -0.59170020410E+04  0.65000000000E+04  0.15050000000E+03 0.  1.
</event>
<event>
 4    1  0.4826743E-004  0.6500000E+04  0.7818608E-02  0.7223770E-01
         52   -1    0    0    0    0  0.00000000000E+00  0.00000000000E+00  0.64930732323E+04  0.65000000000E+04  0.30000000000E+03 0.  1.
        -52   -1    0    0    0    0 -0.00000000000E+00 -0.00000000000E+00 -0.64930732323E+04  0.65000000000E+04  0.30000000000E+03 0.  1.
     100001    1    1    2    0    0  0.26301154249E+03  0.14529907995E+03  0.64913067141E+04  0.65000000000E+04  0.15050000000E+03 0.  1.
     100001    1    1    2    0    0 -0.26301154249E+03 -0.14529907995E+03 -0.64913067141E+04  0.65000000000E+04  0.15050000000E+03 0.  1.
</event>
<event>
 4    1  0.4826743E-004  0.6500000E+04  0.7818608E-02  0.7223770E-01
         52   -1    0    0    0    0  0.00000000000E+00  0.00000000000E+00  0.64930732323E+04  0.65000000000E+04  0.30000000000E+03 0. -1.
        -52   -1    0    0    0    0 -0.00000000000E+00 -0.00000000000E+00 -0.64930732323E+04  0.65000000000E+04  0.30000000000E+03 0. -1.
     100001    1    1    2    0    0  0.26762394261E+03 -0.18306111324E+03  0.64901630029E+04  0.65000000000E+04  0.15050000000E+03 0. -1.
     100001    1    1    2    0    0 -0.26762394261E+03  0.18306111324E+03 -0.64901630029E+04  0.65000000000E+04  0.15050000000E+03 0. -1.
</event>
<event>
 4    1  0.4826743E-004  0.6500000E+04  0.7818608E-02  0.7223770E-01
         52   -1    0    0    0    0  0.00000000000E+00  0.00000000000E+00  0.64930732323E+04  0.65000000000E+04  0.30000000000E+03 0.  1.
        -52   -1    0    0    0    0 -0.00000000000E+00 -0.00000000000E+00 -0.64930732323E+04  0.65000000000E+04  0.30000000000E+03 0. -1.
     100001    1    1    2    0    0  0.17286580393E+03  0.25629198464E+03 -0.64908999054E+04  0.65000000000E+04  0.15050000000E+03 0. -1.
     100001    1    1    2    0    0 -0.17286580393E+03 -0.25629198464E+03  0.64908999054E+04  0.65000000000E+04  0.15050000000E+03 0.  1.
</event>
<event>
 4    1  0.4826743E-004  0.6500000E+04  0.7818608E-02  0.7223770E-01
         52   -1    0    0    0    0  0.00000000000E+00  0.00000000000E+00  0.64930732323E+04  0.65000000000E+04  0.30000000000E+03 0.  1.
        -52   -1    0    0    0    0 -0.00000000000E+00 -0.00000000000E+00 -0.64930732323E+04  0.65000000000E+04  0.30000000000E+03 0. -1.
     100001    1    1    2    0    0  0.40340814021E+03 -0.14637190936E+03 -0.64840717830E+04  0.65000000000E+04  0.15050000000E+03 0. -1.
     100001    1    1    2    0    0 -0.40340814021E+03  0.14637190936E+03  0.64840717830E+04  0.65000000000E+04  0.15050000000E+03 0.  1.
</event>
<event>
 4    1  0.4826743E-004  0.6500000E+04  0.7818608E-02  0.7223770E-01
         52   -1    0    0    0    0  0.00000000000E+00  0.00000000000E+00  0.64930732323E+04  0.65000000000E+04  0.30000000000E+03 0. -1.
        -52   -1    0    0    0    0 -0.00000000000E+00 -0.00000000000E+00 -0.64930732323E+04  0.65000000000E+04  0.30000000000E+03 0.  1.
     100001    1    1    2    0    0  0.43765869089E+03 -0.12931058355E+03  0.64822128470E+04  0.65000000000E+04  0.15050000000E+03 0. -1.
     100001    1    1    2    0    0 -0.43765869089E+03  0.12931058355E+03 -0.64822128470E+04  0.65000000000E+04  0.15050000000E+03 0.  1.
</event>
<event>
 4    1  0.4826743E-004  0.6500000E+04  0.7818608E-02  0.7223770E-01
         52   -1    0    0    0    0  0.00000000000E+00  0.00000000000E+00  0.64930732323E+04  0.65000000000E+04  0.30000000000E+03 0. -1.
        -52   -1    0    0    0    0 -0.00000000000E+00 -0.00000000000E+00 -0.64930732323E+04  0.65000000000E+04  0.30000000000E+03 0.  1.
     100001    1    1    2    0    0 -0.28682574897E+03 -0.15299760670E+03 -0.64901211446E+04  0.65000000000E+04  0.15050000000E+03 0.  1.
     100001    1    1    2    0    0  0.28682574897E+03  0.15299760670E+03  0.64901211446E+04  0.65000000000E+04  0.15050000000E+03 0. -1.
</event>
<event>
 4    1  0.4826743E-004  0.6500000E+04  0.7818608E-02  0.7223770E-01
         52   -1    0    0    0    0  0.00000000000E+00  0.00000000000E+00  0.64930732323E+04  0.65000000000E+04  0.30000000000E+03 0.  1.
        -52   -1    0    0    0    0 -0.00000000000E+00 -0.00000000000E+00 -0.64930732323E+04  0.65000000000E+04  0.30000000000E+03 0. -1.
     100001    1    1    2    0    0  0.40932583982E+04 -0.47131860035E+04 -0.18051213622E+04  0.65000000000E+04  0.15050000000E+03 0. -1.
     100001    1    1    2    0    0 -0.40932583982E+04  0.47131860035E+04  0.18051213622E+04  0.65000000000E+04  0.15050000000E+03 0.  1.
</event>
<event>
 4    1  0.4826743E-004  0.6500000E+04  0.7818608E-02  0.7223770E-01
         52   -1    0    0    0    0  0.00000000000E+00  0.00000000000E+00  0.64930732323E+04  0.65000000000E+04  0.30000000000E+03 0. -1.
        -52   -1    0    0    0    0 -0.00000000000E+00 -0.00000000000E+00 -0.64930732323E+04  0.65000000000E+04  0.30000000000E+03 0.  1.
     100001    1    1    2    0    0 -0.98397254118E+02 -0.14949428934E+04 -0.63231964603E+04  0.65000000000E+04  0.15050000000E+03 0.  1.
     100001    1    1    2    0    0  0.98397254118E+02  0.14949428934E+04  0.63231964603E+04  0.65000000000E+04  0.15050000000E+03 0. -1.
</event>
<event>
 4    1  0.4826743E-004  0.6500000E+04  0.7818608E-02  0.7223770E-01
         52   -1    0    0    0    0  0.00000000000E+00  0.00000000000E+00  0.64930732323E+04  0.65000000000E+04  0.30000000000E+03 0.  1.
        -52   -1    0    0    0    0 -0.00000000000E+00 -0.00000000000E+00 -0.64930732323E+04  0.65000000000E+04  0.30000000000E+03 0. -1.
     100001    1    1    2    0    0  0.16152856722E+03  0.73185186253E+03  0.64548935795E+04  0.65000000000E+04  0.15050000000E+03 0.  1.
     100001    1    1    2    0    0 -0.16152856722E+03 -0.73185186253E+03 -0.64548935795E+04  0.65000000000E+04  0.15050000000E+03 0. -1.
</event>
<event>
 4    1  0.4826743E-004  0.6500000E+04  0.7818608E-02  0.7223770E-01
         52   -1    0    0    0    0  0.00000000000E+00  0.00000000000E+00  0.64930732323E+04  0.65000000000E+04  0.30000000000E+03 0.  1.
        -52   -1    0    0    0    0 -0.00000000000E+00 -0.00000000000E+00 -0.64930732323E+04  0.65000000000E+04  0.30000000000E+03 0. -1.
     100001    1    1    2    0    0  0.23883418196E+04 -0.45127584204E+04  0.40197244361E+04  0.65000000000E+04  0.15050000000E+03 0.  1.
     100001    1    1    2    0    0 -0.23883418196E+04  0.45127584204E+04 -0.40197244361E+04  0.65000000000E+04  0.15050000000E+03 0. -1.
</event>
<event>
 4    1  0.4826743E-004  0.6500000E+04  0.7818608E-02  0.7223770E-01
         52   -1    0    0    0    0  0.00000000000E+00  0.00000000000E+00  0.64930732323E+04  0.65000000000E+04  0.30000000000E+03 0.  1.
        -52   -1    0    0    0    0 -0.00000000000E+00 -0.00000000000E+00 -0.64930732323E+04  0.65000000000E+04  0.30000000000E+03 0. -1.
     100001    1    1    2    0    0  0.14593717079E+04  0.39373518142E+04 -0.49593189713E+04  0.65000000000E+04  0.15050000000E+03 0. -1.
     100001    1    1    2    0    0 -0.14593717079E+04 -0.39373518142E+04  0.49593189713E+04  0.65000000000E+04  0.15050000000E+03 0.  1.
</event>
<event>
 4    1  0.4826743E-004  0.6500000E+04  0.7818608E-02  0.7223770E-01
         52   -1    0    0    0    0  0.00000000000E+00  0.00000000000E+00  0.64930732323E+04  0.65000000000E+04  0.30000000000E+03 0.  1.
        -52   -1    0    0    0    0 -0.00000000000E+00 -0.00000000000E+00 -0.64930732323E+04  0.65000000000E+04  0.30000000000E+03 0. -1.
     100001    1    1    2    0    0 -0.32525172309E+03 -0.28103539879E+04 -0.58500830361E+04  0.65000000000E+04  0.15050000000E+03 0. -1.
     100001    1    1    2    0    0  0.32525172309E+03  0.28103539879E+04  0.58500830361E+04  0.65000000000E+04  0.15050000000E+03 0.  1.
</event>
<event>
 4    1  0.4826743E-004  0.6500000E+04  0.7818608E-02  0.7223770E-01
         52   -1    0    0    0    0  0.00000000000E+00  0.00000000000E+00  0.64930732323E+04  0.65000000000E+04  0.30000000000E+03 0. -1.
        -52   -1    0    0    0    0 -0.00000000000E+00 -0.00000000000E+00 -0.64930732323E+04  0.65000000000E+04  0.30000000000E+03 0.  1.
     100001    1    1    2    0    0  0.14765961140E+03 -0.65802318681E+03  0.64631688725E+04  0.65000000000E+04  0.15050000000E+03 0. -1.
     100001    1    1    2    0    0 -0.14765961140E+03  0.65802318681E+03 -0.64631688725E+04  0.65000000000E+04  0.15050000000E+03 0.  1.
</event>
<event>
 4    1  0.4826743E-004  0.6500000E+04  0.7818608E-02  0.7223770E-01
         52   -1    0    0    0    0  0.00000000000E+00  0.00000000000E+00  0.64930732323E+04  0.65000000000E+04  0.30000000000E+03 0. -1.
        -52   -1    0    0    0    0 -0.00000000000E+00 -0.00000000000E+00 -0.64930732323E+04  0.65000000000E+04  0.30000000000E+03 0. -1.
     100001    1    1    2    0    0 -0.27418298326E+02  0.21845871857E+03  0.64945264473E+04  0.65000000000E+04  0.15050000000E+03 0. -1.
     100001    1    1    2    0    0  0.27418298326E+02 -0.21845871857E+03 -0.64945264473E+04  0.65000000000E+04  0.15050000000E+03 0. -1.
</event>
<event>
 4    1  0.4826743E-004  0.6500000E+04  0.7818608E-02  0.7223770E-01
         52   -1    0    0    0    0  0.00000000000E+00  0.00000000000E+00  0.64930732323E+04  0.65000000000E+04  0.30000000000E+03 0.  1.
        -52   -1    0    0    0    0 -0.00000000000E+00 -0.00000000000E+00 -0.64930732323E+04  0.65000000000E+04  0.30000000000E+03 0. -1.
     100001    1    1    2    0    0  0.44734815333E+03 -0.81514735929E+03  0.64313889761E+04  0.65000000000E+04  0.15050000000E+03 0.  1.
     100001    1    1    2    0    0 -0.44734815333E+03  0.81514735929E+03 -0.64313889761E+04  0.65000000000E+04  0.15050000000E+03 0. -1.
</event>
<event>
 4    1  0.4826743E-004  0.6500000E+04  0.7818608E-02  0.7223770E-01
         52   -1    0    0    0    0  0.00000000000E+00  0.00000000000E+00  0.64930732323E+04  0.65000000000E+04  0.30000000000E+03 0.  1.
        -52   -1    0    0    0    0 -0.00000000000E+00 -0.00000000000E+00 -0.64930732323E+04  0.65000000000E+04  0.30000000000E+03 0. -1.
     100001    1    1    2    0    0 -0.29545439047E+03  0.11302432576E+04 -0.63923866147E+04  0.65000000000E+04  0.15050000000E+03 0. -1.
     100001    1    1    2    0    0  0.29545439047E+03 -0.11302432576E+04  0.63923866147E+04  0.65000000000E+04  0.15050000000E+03 0.  1.
</event>
<event>
 4    1  0.4826743E-004  0.6500000E+04  0.7818608E-02  0.7223770E-01
         52   -1    0    0    0    0  0.00000000000E+00  0.00000000000E+00  0.64930732323E+04  0.65000000000E+04  0.30000000000E+03 0. -1.
        -52   -1    0    0    0    0 -0.00000000000E+00 -0.00000000000E+00 -0.64930732323E+04  0.65000000000E+04  0.30000000000E+03 0.  1.
     100001    1    1    2    0    0  0.82466750436E+03  0.35651401443E+03 -0.64358504500E+04  0.65000000000E+04  0.15050000000E+03 0.  1.
     100001    1    1    2    0    0 -0.82466750436E+03 -0.35651401443E+03  0.64358504500E+04  0.65000000000E+04  0.15050000000E+03 0. -1.
</event>
<event>
 4    1  0.4826743E-004  0.6500000E+04  0.7818608E-02  0.7223770E-01
         52   -1    0    0    0    0  0.00000000000E+00  0.00000000000E+00  0.64930732323E+04  0.65000000000E+04  0.30000000000E+03 0.  1.
        -52   -1    0    0    0    0 -0.00000000000E+00 -0.00000000000E+00 -0.64930732323E+04  0.65000000000E+04  0.30000000000E+03 0. -1.
     100001    1    1    2    0    0  0.21092575026E+04  0.44156347133E+04  0.42755762905E+04  0.65000000000E+04  0.15050000000E+03 0.  1.
     100001    1    1    2    0    0 -0.21092575026E+04 -0.44156347133E+04 -0.42755762905E+04  0.65000000000E+04  0.15050000000E+03 0. -1.
</event>
<event>
 4    1  0.4826743E-004  0.6500000E+04  0.7818608E-02  0.7223770E-01
         52   -1    0    0    0    0  0.00000000000E+00  0.00000000000E+00  0.64930732323E+04  0.65000000000E+04  0.30000000000E+03 0. -1.
        -52   -1    0    0    0    0 -0.00000000000E+00 -0.00000000000E+00 -0.64930732323E+04  0.65000000000E+04  0.30000000000E+03 0.  1.
     100001    1    1    2    0    0  0.95407795246E+03 -0.73866840247E+03  0.63852528534E+04  0.65000000000E+04  0.15050000000E+03 0. -1.
     100001    1    1    2    0    0 -0.95407795246E+03  0.73866840247E+03 -0.63852528534E+04  0.65000000000E+04  0.15050000000E+03 0.  1.
</event>
<event>
 4    1  0.4826743E-004  0.6500000E+04  0.7818608E-02  0.7223770E-01
         52   -1    0    0    0    0  0.00000000000E+00  0.00000000000E+00  0.64930732323E+04  0.65000000000E+04  0.30000000000E+03 0.  1.
        -52   -1    0    0    0    0 -0.00000000000E+00 -0.00000000000E+00 -0.64930732323E+04  0.65000000000E+04  0.30000000000E+03 0. -1.
     100001    1    1    2    0    0 -0.16561369010E+04  0.14800182940E+04  0.61068900567E+04  0.65000000000E+04  0.15050000000E+03 0.  1.
     100001    1    1    2    0    0  0.16561369010E+04 -0.14800182940E+04 -0.61068900567E+04  0.65000000000E+04  0.15050000000E+03 0. -1.
</event>
<event>
 4    1  0.4826743E-004  0.6500000E+04  0.7818608E-02  0.7223770E-01
         52   -1    0    0    0    0  0.00000000000E+00  0.00000000000E+00  0.64930732323E+04  0.65000000000E+04  0.30000000000E+03 0.  1.
        -52   -1    0    0    0    0 -0.00000000000E+00 -0.00000000000E+00 -0.64930732323E+04  0.65000000000E+04  0.30000000000E+03 0. -1.
     100001    1    1    2    0    0  0.18058195225E+04 -0.59921988428E+04  0.17492623104E+04  0.65000000000E+04  0.15050000000E+03 0.  1.
     100001    1    1    2    0    0 -0.18058195225E+04  0.59921988428E+04 -0.17492623104E+04  0.65000000000E+04  0.15050000000E+03 0. -1.
</event>
<event>
 4    1  0.4826743E-004  0.6500000E+04  0.7818608E-02  0.7223770E-01
         52   -1    0    0    0    0  0.00000000000E+00  0.00000000000E+00  0.64930732323E+04  0.65000000000E+04  0.30000000000E+03 0.  1.
        -52   -1    0    0    0    0 -0.00000000000E+00 -0.00000000000E+00 -0.64930732323E+04  0.65000000000E+04  0.30000000000E+03 0. -1.
     100001    1    1    2    0    0 -0.13513330839E+04  0.17643691715E+04  0.61064105720E+04  0.65000000000E+04  0.15050000000E+03 0.  1.
     100001    1    1    2    0    0  0.13513330839E+04 -0.17643691715E+04 -0.61064105720E+04  0.65000000000E+04  0.15050000000E+03 0. -1.
</event>
<event>
 4    1  0.4826743E-004  0.6500000E+04  0.7818608E-02  0.7223770E-01
         52   -1    0    0    0    0  0.00000000000E+00  0.00000000000E+00  0.64930732323E+04  0.65000000000E+04  0.30000000000E+03 0. -1.
        -52   -1    0    0    0    0 -0.00000000000E+00 -0.00000000000E+00 -0.64930732323E+04  0.65000000000E+04  0.30000000000E+03 0.  1.
     100001    1    1    2    0    0  0.29860885607E+03 -0.47492902117E+03 -0.64739960554E+04  0.65000000000E+04  0.15050000000E+03 0.  1.
     100001    1    1    2    0    0 -0.29860885607E+03  0.47492902117E+03  0.64739960554E+04  0.65000000000E+04  0.15050000000E+03 0. -1.
</event>
<event>
 4    1  0.4826743E-004  0.6500000E+04  0.7818608E-02  0.7223770E-01
         52   -1    0    0    0    0  0.00000000000E+00  0.00000000000E+00  0.64930732323E+04  0.65000000000E+04  0.30000000000E+03 0. -1.
        -52   -1    0    0    0    0 -0.00000000000E+00 -0.00000000000E+00 -0.64930732323E+04  0.65000000000E+04  0.30000000000E+03 0.  1.
     100001    1    1    2    0    0 -0.15890022009E+04 -0.62907654344E+04 -0.35873667954E+03  0.65000000000E+04  0.15050000000E+03 0. -1.
     100001    1    1    2    0    0  0.15890022009E+04  0.62907654344E+04  0.35873667954E+03  0.65000000000E+04  0.15050000000E+03 0.  1.
</event>
<event>
 4    1  0.4826743E-004  0.6500000E+04  0.7818608E-02  0.7223770E-01
         52   -1    0    0    0    0  0.00000000000E+00  0.00000000000E+00  0.64930732323E+04  0.65000000000E+04  0.30000000000E+03 0.  1.
        -52   -1    0    0    0    0 -0.00000000000E+00 -0.00000000000E+00 -0.64930732323E+04  0.65000000000E+04  0.30000000000E+03 0. -1.
     100001    1    1    2    0    0 -0.20159122487E+04 -0.45197555496E+04  0.42113248898E+04  0.65000000000E+04  0.15050000000E+03 0. -1.
     100001    1    1    2    0    0  0.20159122487E+04  0.45197555496E+04 -0.42113248898E+04  0.65000000000E+04  0.15050000000E+03 0.  1.
</event>
<event>
 4    1  0.4826743E-004  0.6500000E+04  0.7818608E-02  0.7223770E-01
         52   -1    0    0    0    0  0.00000000000E+00  0.00000000000E+00  0.64930732323E+04  0.65000000000E+04  0.30000000000E+03 0.  1.
        -52   -1    0    0    0    0 -0.00000000000E+00 -0.00000000000E+00 -0.64930732323E+04  0.65000000000E+04  0.30000000000E+03 0. -1.
     100001    1    1    2    0    0 -0.17271595566E+04  0.77656776733E+03 -0.62162056046E+04  0.65000000000E+04  0.15050000000E+03 0. -1.
     100001    1    1    2    0    0  0.17271595566E+04 -0.77656776733E+03  0.62162056046E+04  0.65000000000E+04  0.15050000000E+03 0.  1.
</event>
<event>
 4    1  0.4826743E-004  0.6500000E+04  0.7818608E-02  0.7223770E-01
         52   -1    0    0    0    0  0.00000000000E+00  0.00000000000E+00  0.64930732323E+04  0.65000000000E+04  0.30000000000E+03 0.  1.
        -52   -1    0    0    0    0 -0.00000000000E+00 -0.00000000000E+00 -0.64930732323E+04  0.65000000000E+04  0.30000000000E+03 0. -1.
     100001    1    1    2    0    0  0.10312578466E+04 -0.77836999838E+03 -0.63685160869E+04  0.65000000000E+04  0.15050000000E+03 0. -1.
     100001    1    1    2    0    0 -0.10312578466E+04  0.77836999838E+03  0.63685160869E+04  0.65000000000E+04  0.15050000000E+03 0.  1.
</event>
<event>
 4    1  0.4826743E-004  0.6500000E+04  0.7818608E-02  0.7223770E-01
         52   -1    0    0    0    0  0.00000000000E+00  0.00000000000E+00  0.64930732323E+04  0.65000000000E+04  0.30000000000E+03 0. -1.
        -52   -1    0    0    0    0 -0.00000000000E+00 -0.00000000000E+00 -0.64930732323E+04  0.65000000000E+04  0.30000000000E+03 0.  1.
     100001    1    1    2    0    0  0.99788466351E+03  0.14025425675E+03  0.64196498886E+04  0.65000000000E+04  0.15050000000E+03 0. -1.
     100001    1    1    2    0    0 -0.99788466351E+03 -0.14025425675E+03 -0.64196498886E+04  0.65000000000E+04  0.15050000000E+03 0.  1.
</event>
<event>
 4    1  0.4826743E-004  0.6500000E+04  0.7818608E-02  0.7223770E-01
         52   -1    0    0    0    0  0.00000000000E+00  0.00000000000E+00  0.64930732323E+04  0.65000000000E+04  0.30000000000E+03 0.  1.
        -52   -1    0    0    0    0 -0.00000000000E+00 -0.00000000000E+00 -0.64930732323E+04  0.65000000000E+04  0.30000000000E+03 0. -1.
     100001    1    1    2    0    0 -0.43416773370E+04 -0.24161730945E+03  0.48289552418E+04  0.65000000000E+04  0.15050000000E+03 0.  1.
     100001    1    1    2    0    0  0.43416773370E+04  0.24161730945E+03 -0.48289552418E+04  0.65000000000E+04  0.15050000000E+03 0. -1.
</event>
<event>
 4    1  0.4826743E-004  0.6500000E+04  0.7818608E-02  0.7223770E-01
         52   -1    0    0    0    0  0.00000000000E+00  0.00000000000E+00  0.64930732323E+04  0.65000000000E+04  0.30000000000E+03 0.  1.
        -52   -1    0    0    0    0 -0.00000000000E+00 -0.00000000000E+00 -0.64930732323E+04  0.65000000000E+04  0.30000000000E+03 0. -1.
     100001    1    1    2    0    0 -0.11905599605E+03  0.54497492170E+02  0.64969381591E+04  0.65000000000E+04  0.15050000000E+03 0.  1.
     100001    1    1    2    0    0  0.11905599605E+03 -0.54497492170E+02 -0.64969381591E+04  0.65000000000E+04  0.15050000000E+03 0. -1.
</event>
<event>
 4    1  0.4826743E-004  0.6500000E+04  0.7818608E-02  0.7223770E-01
         52   -1    0    0    0    0  0.00000000000E+00  0.00000000000E+00  0.64930732323E+04  0.65000000000E+04  0.30000000000E+03 0.  1.
        -52   -1    0    0    0    0 -0.00000000000E+00 -0.00000000000E+00 -0.64930732323E+04  0.65000000000E+04  0.30000000000E+03 0. -1.
     100001    1    1    2    0    0 -0.32765859389E+04  0.48883917032E+04 -0.27558956604E+04  0.65000000000E+04  0.15050000000E+03 0. -1.
     100001    1    1    2    0    0  0.32765859389E+04 -0.48883917032E+04  0.27558956604E+04  0.65000000000E+04  0.15050000000E+03 0.  1.
</event>
<event>
 4    1  0.4826743E-004  0.6500000E+04  0.7818608E-02  0.7223770E-01
         52   -1    0    0    0    0  0.00000000000E+00  0.00000000000E+00  0.64930732323E+04  0.65000000000E+04  0.30000000000E+03 0.  1.
        -52   -1    0    0    0    0 -0.00000000000E+00 -0.00000000000E+00 -0.64930732323E+04  0.65000000000E+04  0.30000000000E+03 0. -1.
     100001    1    1    2    0    0 -0.67792761694E+02 -0.26522319320E+04 -0.59319827773E+04  0.65000000000E+04  0.15050000000E+03 0. -1.
     100001    1    1    2    0    0  0.67792761694E+02  0.26522319320E+04  0.59319827773E+04  0.65000000000E+04  0.15050000000E+03 0.  1.
</event>
<event>
 4    1  0.4826743E-004  0.6500000E+04  0.7818608E-02  0.7223770E-01
         52   -1    0    0    0    0  0.00000000000E+00  0.00000000000E+00  0.64930732323E+04  0.65000000000E+04  0.30000000000E+03 0.  1.
        -52   -1    0    0    0    0 -0.00000000000E+00 -0.00000000000E+00 -0.64930732323E+04  0.65000000000E+04  0.30000000000E+03 0. -1.
     100001    1    1    2    0    0  0.37192949604E+03 -0.17366502553E+03  0.64852801527E+04  0.65000000000E+04  0.15050000000E+03 0.  1.
     100001    1    1    2    0    0 -0.37192949604E+03  0.17366502553E+03 -0.64852801527E+04  0.65000000000E+04  0.15050000000E+03 0. -1.
</event>
<event>
 4    1  0.4826743E-004  0.6500000E+04  0.7818608E-02  0.7223770E-01
         52   -1    0    0    0    0  0.00000000000E+00  0.00000000000E+00  0.64930732323E+04  0.65000000000E+04  0.30000000000E+03 0. -1.
        -52   -1    0    0    0    0 -0.00000000000E+00 -0.00000000000E+00 -0.64930732323E+04  0.65000000000E+04  0.30000000000E+03 0.  1.
     100001    1    1    2    0    0  0.24524026108E+04  0.27462475640E+04 -0.53545490475E+04  0.65000000000E+04  0.15050000000E+03 0.  1.
     100001    1    1    2    0    0 -0.24524026108E+04 -0.27462475640E+04  0.53545490475E+04  0.65000000000E+04  0.15050000000E+03 0. -1.
</event>
<event>
 4    1  0.4826743E-004  0.6500000E+04  0.7818608E-02  0.7223770E-01
         52   -1    0    0    0    0  0.00000000000E+00  0.00000000000E+00  0.64930732323E+04  0.65000000000E+04  0.30000000000E+03 0. -1.
        -52   -1    0    0    0    0 -0.00000000000E+00 -0.00000000000E+00 -0.64930732323E+04  0.65000000000E+04  0.30000000000E+03 0.  1.
     100001    1    1    2    0    0  0.39709284043E+03 -0.31912802990E+03 -0.64782578157E+04  0.65000000000E+04  0.15050000000E+03 0.  1.
     100001    1    1    2    0    0 -0.39709284043E+03  0.31912802990E+03  0.64782578157E+04  0.65000000000E+04  0.15050000000E+03 0. -1.
</event>
<event>
 4    1  0.4826743E-004  0.6500000E+04  0.7818608E-02  0.7223770E-01
         52   -1    0    0    0    0  0.00000000000E+00  0.00000000000E+00  0.64930732323E+04  0.65000000000E+04  0.30000000000E+03 0.  1.
        -52   -1    0    0    0    0 -0.00000000000E+00 -0.00000000000E+00 -0.64930732323E+04  0.65000000000E+04  0.30000000000E+03 0. -1.
     100001    1    1    2    0    0  0.13903821525E+04 -0.38178334684E+03  0.63362787736E+04  0.65000000000E+04  0.15050000000E+03 0.  1.
     100001    1    1    2    0    0 -0.13903821525E+04  0.38178334684E+03 -0.63362787736E+04  0.65000000000E+04  0.15050000000E+03 0. -1.
</event>
<event>
 4    1  0.4826743E-004  0.6500000E+04  0.7818608E-02  0.7223770E-01
         52   -1    0    0    0    0  0.00000000000E+00  0.00000000000E+00  0.64930732323E+04  0.65000000000E+04  0.30000000000E+03 0.  1.
        -52   -1    0    0    0    0 -0.00000000000E+00 -0.00000000000E+00 -0.64930732323E+04  0.65000000000E+04  0.30000000000E+03 0. -1.
     100001    1    1    2    0    0 -0.30415845091E+03  0.32270497258E+03  0.64831087364E+04  0.65000000000E+04  0.15050000000E+03 0.  1.
     100001    1    1    2    0    0  0.30415845091E+03 -0.32270497258E+03 -0.64831087364E+04  0.65000000000E+04  0.15050000000E+03 0. -1.
</event>
<event>
 4    1  0.4826743E-004  0.6500000E+04  0.7818608E-02  0.7223770E-01
         52   -1    0    0    0    0  0.00000000000E+00  0.00000000000E+00  0.64930732323E+04  0.65000000000E+04  0.30000000000E+03 0. -1.
        -52   -1    0    0    0    0 -0.00000000000E+00 -0.00000000000E+00 -0.64930732323E+04  0.65000000000E+04  0.30000000000E+03 0.  1.
     100001    1    1    2    0    0 -0.38822729602E+04  0.51347396654E+04  0.88868159693E+03  0.65000000000E+04  0.15050000000E+03 0. -1.
     100001    1    1    2    0    0  0.38822729602E+04 -0.51347396654E+04 -0.88868159693E+03  0.65000000000E+04  0.15050000000E+03 0.  1.
</event>
<event>
 4    1  0.4826743E-004  0.6500000E+04  0.7818608E-02  0.7223770E-01
         52   -1    0    0    0    0  0.00000000000E+00  0.00000000000E+00  0.64930732323E+04  0.65000000000E+04  0.30000000000E+03 0.  1.
        -52   -1    0    0    0    0 -0.00000000000E+00 -0.00000000000E+00 -0.64930732323E+04  0.65000000000E+04  0.30000000000E+03 0. -1.
     100001    1    1    2    0    0  0.13352386064E+04  0.43206607089E+02 -0.63594512973E+04  0.65000000000E+04  0.15050000000E+03 0. -1.
     100001    1    1    2    0    0 -0.13352386064E+04 -0.43206607089E+02  0.63594512973E+04  0.65000000000E+04  0.15050000000E+03 0.  1.
</event>
<event>
 4    1  0.4826743E-004  0.6500000E+04  0.7818608E-02  0.7223770E-01
         52   -1    0    0    0    0  0.00000000000E+00  0.00000000000E+00  0.64930732323E+04  0.65000000000E+04  0.30000000000E+03 0.  1.
        -52   -1    0    0    0    0 -0.00000000000E+00 -0.00000000000E+00 -0.64930732323E+04  0.65000000000E+04  0.30000000000E+03 0. -1.
     100001    1    1    2    0    0 -0.10495148948E+04 -0.81526191528E+02 -0.64124271314E+04  0.65000000000E+04  0.15050000000E+03 0. -1.
     100001    1    1    2    0    0  0.10495148948E+04  0.81526191528E+02  0.64124271314E+04  0.65000000000E+04  0.15050000000E+03 0.  1.
</event>
<event>
 4    1  0.4826743E-004  0.6500000E+04  0.7818608E-02  0.7223770E-01
         52   -1    0    0    0    0  0.00000000000E+00  0.00000000000E+00  0.64930732323E+04  0.65000000000E+04  0.30000000000E+03 0.  1.
        -52   -1    0    0    0    0 -0.00000000000E+00 -0.00000000000E+00 -0.64930732323E+04  0.65000000000E+04  0.30000000000E+03 0. -1.
     100001    1    1    2    0    0  0.34173709984E+03  0.46712973740E+03  0.64724304023E+04  0.65000000000E+04  0.15050000000E+03 0.  1.
     100001    1    1    2    0    0 -0.34173709984E+03 -0.46712973740E+03 -0.64724304023E+04  0.65000000000E+04  0.15050000000E+03 0. -1.
</event>
<event>
 4    1  0.4826743E-004  0.6500000E+04  0.7818608E-02  0.7223770E-01
         52   -1    0    0    0    0  0.00000000000E+00  0.00000000000E+00  0.64930732323E+04  0.65000000000E+04  0.30000000000E+03 0. -1.
        -52   -1    0    0    0    0 -0.00000000000E+00 -0.00000000000E+00 -0.64930732323E+04  0.65000000000E+04  0.30000000000E+03 0.  1.
     100001    1    1    2    0    0 -0.11120131705E+03  0.25033570930E+04 -0.59956807188E+04  0.65000000000E+04  0.15050000000E+03 0.  1.
     100001    1    1    2    0    0  0.11120131705E+03 -0.25033570930E+04  0.59956807188E+04  0.65000000000E+04  0.15050000000E+03 0. -1.
</event>
<event>
 4    1  0.4826743E-004  0.6500000E+04  0.7818608E-02  0.7223770E-01
         52   -1    0    0    0    0  0.00000000000E+00  0.00000000000E+00  0.64930732323E+04  0.65000000000E+04  0.30000000000E+03 0. -1.
        -52   -1    0    0    0    0 -0.00000000000E+00 -0.00000000000E+00 -0.64930732323E+04  0.65000000000E+04  0.30000000000E+03 0.  1.
     100001    1    1    2    0    0 -0.49633055159E+03 -0.70308319569E+03  0.64410154288E+04  0.65000000000E+04  0.15050000000E+03 0. -1.
     100001    1    1    2    0    0  0.49633055159E+03  0.70308319569E+03 -0.64410154288E+04  0.65000000000E+04  0.15050000000E+03 0.  1.
</event>
<event>
 4    1  0.4826743E-004  0.6500000E+04  0.7818608E-02  0.7223770E-01
         52   -1    0    0    0    0  0.00000000000E+00  0.00000000000E+00  0.64930732323E+04  0.65000000000E+04  0.30000000000E+03 0. -1.
        -52   -1    0    0    0    0 -0.00000000000E+00 -0.00000000000E+00 -0.64930732323E+04  0.65000000000E+04  0.30000000000E+03 0.  1.
     100001    1    1    2    0    0  0.21719584272E+04 -0.69090252155E+03  0.60854416476E+04  0.65000000000E+04  0.15050000000E+03 0. -1.
     100001    1    1    2    0    0 -0.21719584272E+04  0.69090252155E+03 -0.60854416476E+04  0.65000000000E+04  0.15050000000E+03 0.  1.
</event>
<event>
 4    1  0.4826743E-004  0.6500000E+04  0.7818608E-02  0.7223770E-01
         52   -1    0    0    0    0  0.00000000000E+00  0.00000000000E+00  0.64930732323E+04  0.65000000000E+04  0.30000000000E+03 0.  1.
        -52   -1    0    0    0    0 -0.00000000000E+00 -0.00000000000E+00 -0.64930732323E+04  0.65000000000E+04  0.30000000000E+03 0.  1.
     100001    1    1    2    0    0  0.45694079250E+03  0.69391601156E+03  0.64449232293E+04  0.65000000000E+04  0.15050000000E+03 0.  1.
     100001    1    1    2    0    0 -0.45694079250E+03 -0.69391601156E+03 -0.64449232293E+04  0.65000000000E+04  0.15050000000E+03 0.  1.
</event>
<event>
 4    1  0.4826743E-004  0.6500000E+04  0.7818608E-02  0.7223770E-01
         52   -1    0    0    0    0  0.00000000000E+00  0.00000000000E+00  0.64930732323E+04  0.65000000000E+04  0.30000000000E+03 0.  1.
        -52   -1    0    0    0    0 -0.00000000000E+00 -0.00000000000E+00 -0.64930732323E+04  0.65000000000E+04  0.30000000000E+03 0.  1.
     100001    1    1    2    0    0 -0.14735820052E+03 -0.10142624030E+04  0.64169234909E+04  0.65000000000E+04  0.15050000000E+03 0.  1.
     100001    1    1    2    0    0  0.14735820052E+03  0.10142624030E+04 -0.64169234909E+04  0.65000000000E+04  0.15050000000E+03 0.  1.
</event>
<event>
 4    1  0.4826743E-004  0.6500000E+04  0.7818608E-02  0.7223770E-01
         52   -1    0    0    0    0  0.00000000000E+00  0.00000000000E+00  0.64930732323E+04  0.65000000000E+04  0.30000000000E+03 0.  1.
        -52   -1    0    0    0    0 -0.00000000000E+00 -0.00000000000E+00 -0.64930732323E+04  0.65000000000E+04  0.30000000000E+03 0. -1.
     100001    1    1    2    0    0 -0.13995830318E+04 -0.36843063742E+04  0.51666627167E+04  0.65000000000E+04  0.15050000000E+03 0.  1.
     100001    1    1    2    0    0  0.13995830318E+04  0.36843063742E+04 -0.51666627167E+04  0.65000000000E+04  0.15050000000E+03 0. -1.
</event>
<event>
 4    1  0.4826743E-004  0.6500000E+04  0.7818608E-02  0.7223770E-01
         52   -1    0    0    0    0  0.00000000000E+00  0.00000000000E+00  0.64930732323E+04  0.65000000000E+04  0.30000000000E+03 0.  1.
        -52   -1    0    0    0    0 -0.00000000000E+00 -0.00000000000E+00 -0.64930732323E+04  0.65000000000E+04  0.30000000000E+03 0. -1.
     100001    1    1    2    0    0 -0.14903947243E+04  0.25564352901E+03  0.63198670636E+04  0.65000000000E+04  0.15050000000E+03 0.  1.
     100001    1    1    2    0    0  0.14903947243E+04 -0.25564352901E+03 -0.63198670636E+04  0.65000000000E+04  0.15050000000E+03 0. -1.
</event>
<event>
 4    1  0.4826743E-004  0.6500000E+04  0.7818608E-02  0.7223770E-01
         52   -1    0    0    0    0  0.00000000000E+00  0.00000000000E+00  0.64930732323E+04  0.65000000000E+04  0.30000000000E+03 0. -1.
        -52   -1    0    0    0    0 -0.00000000000E+00 -0.00000000000E+00 -0.64930732323E+04  0.65000000000E+04  0.30000000000E+03 0.  1.
     100001    1    1    2    0    0  0.38921961761E+04  0.31616231228E+04  0.41330736633E+04  0.65000000000E+04  0.15050000000E+03 0. -1.
     100001    1    1    2    0    0 -0.38921961761E+04 -0.31616231228E+04 -0.41330736633E+04  0.65000000000E+04  0.15050000000E+03 0.  1.
</event>
<event>
 4    1  0.4826743E-004  0.6500000E+04  0.7818608E-02  0.7223770E-01
         52   -1    0    0    0    0  0.00000000000E+00  0.00000000000E+00  0.64930732323E+04  0.65000000000E+04  0.30000000000E+03 0. -1.
        -52   -1    0    0    0    0 -0.00000000000E+00 -0.00000000000E+00 -0.64930732323E+04  0.65000000000E+04  0.30000000000E+03 0. -1.
     100001    1    1    2    0    0 -0.88987554036E+02 -0.16839112886E+03  0.64954657564E+04  0.65000000000E+04  0.15050000000E+03 0. -1.
     100001    1    1    2    0    0  0.88987554036E+02  0.16839112886E+03 -0.64954657564E+04  0.65000000000E+04  0.15050000000E+03 0. -1.
</event>
<event>
 4    1  0.4826743E-004  0.6500000E+04  0.7818608E-02  0.7223770E-01
         52   -1    0    0    0    0  0.00000000000E+00  0.00000000000E+00  0.64930732323E+04  0.65000000000E+04  0.30000000000E+03 0.  1.
        -52   -1    0    0    0    0 -0.00000000000E+00 -0.00000000000E+00 -0.64930732323E+04  0.65000000000E+04  0.30000000000E+03 0. -1.
     100001    1    1    2    0    0 -0.15300902654E+04  0.16021994266E+04 -0.61089385761E+04  0.65000000000E+04  0.15050000000E+03 0. -1.
     100001    1    1    2    0    0  0.15300902654E+04 -0.16021994266E+04  0.61089385761E+04  0.65000000000E+04  0.15050000000E+03 0.  1.
</event>
<event>
 4    1  0.4826743E-004  0.6500000E+04  0.7818608E-02  0.7223770E-01
         52   -1    0    0    0    0  0.00000000000E+00  0.00000000000E+00  0.64930732323E+04  0.65000000000E+04  0.30000000000E+03 0. -1.
        -52   -1    0    0    0    0 -0.00000000000E+00 -0.00000000000E+00 -0.64930732323E+04  0.65000000000E+04  0.30000000000E+03 0.  1.
     100001    1    1    2    0    0 -0.27782005286E+03  0.11600798073E+04 -0.63878306653E+04  0.65000000000E+04  0.15050000000E+03 0.  1.
     100001    1    1    2    0    0  0.27782005286E+03 -0.11600798073E+04  0.63878306653E+04  0.65000000000E+04  0.15050000000E+03 0. -1.
</event>
<event>
 4    1  0.4826743E-004  0.6500000E+04  0.7818608E-02  0.7223770E-01
         52   -1    0    0    0    0  0.00000000000E+00  0.00000000000E+00  0.64930732323E+04  0.65000000000E+04  0.30000000000E+03 0.  1.
        -52   -1    0    0    0    0 -0.00000000000E+00 -0.00000000000E+00 -0.64930732323E+04  0.65000000000E+04  0.30000000000E+03 0. -1.
     100001    1    1    2    0    0  0.20908174497E+04 -0.19518419675E+04  0.58349074608E+04  0.65000000000E+04  0.15050000000E+03 0.  1.
     100001    1    1    2    0    0 -0.20908174497E+04  0.19518419675E+04 -0.58349074608E+04  0.65000000000E+04  0.15050000000E+03 0. -1.
</event>
<event>
 4    1  0.4826743E-004  0.6500000E+04  0.7818608E-02  0.7223770E-01
         52   -1    0    0    0    0  0.00000000000E+00  0.00000000000E+00  0.64930732323E+04  0.65000000000E+04  0.30000000000E+03 0. -1.
        -52   -1    0    0    0    0 -0.00000000000E+00 -0.00000000000E+00 -0.64930732323E+04  0.65000000000E+04  0.30000000000E+03 0.  1.
     100001    1    1    2    0    0  0.64235682062E+03  0.20282199505E+04  0.61401181827E+04  0.65000000000E+04  0.15050000000E+03 0. -1.
     100001    1    1    2    0    0 -0.64235682062E+03 -0.20282199505E+04 -0.61401181827E+04  0.65000000000E+04  0.15050000000E+03 0.  1.
</event>
<event>
 4    1  0.4826743E-004  0.6500000E+04  0.7818608E-02  0.7223770E-01
         52   -1    0    0    0    0  0.00000000000E+00  0.00000000000E+00  0.64930732323E+04  0.65000000000E+04  0.30000000000E+03 0. -1.
        -52   -1    0    0    0    0 -0.00000000000E+00 -0.00000000000E+00 -0.64930732323E+04  0.65000000000E+04  0.30000000000E+03 0.  1.
     100001    1    1    2    0    0  0.27936249501E+04 -0.16270852191E+04  0.56369852827E+04  0.65000000000E+04  0.15050000000E+03 0. -1.
     100001    1    1    2    0    0 -0.27936249501E+04  0.16270852191E+04 -0.56369852827E+04  0.65000000000E+04  0.15050000000E+03 0.  1.
</event>
<event>
 4    1  0.4826743E-004  0.6500000E+04  0.7818608E-02  0.7223770E-01
         52   -1    0    0    0    0  0.00000000000E+00  0.00000000000E+00  0.64930732323E+04  0.65000000000E+04  0.30000000000E+03 0. -1.
        -52   -1    0    0    0    0 -0.00000000000E+00 -0.00000000000E+00 -0.64930732323E+04  0.65000000000E+04  0.30000000000E+03 0.  1.
     100001    1    1    2    0    0 -0.53905382758E+03 -0.24067405184E+02 -0.64758158931E+04  0.65000000000E+04  0.15050000000E+03 0.  1.
     100001    1    1    2    0    0  0.53905382758E+03  0.24067405184E+02  0.64758158931E+04  0.65000000000E+04  0.15050000000E+03 0. -1.
</event>
<event>
 4    1  0.4826743E-004  0.6500000E+04  0.7818608E-02  0.7223770E-01
         52   -1    0    0    0    0  0.00000000000E+00  0.00000000000E+00  0.64930732323E+04  0.65000000000E+04  0.30000000000E+03 0.  1.
        -52   -1    0    0    0    0 -0.00000000000E+00 -0.00000000000E+00 -0.64930732323E+04  0.65000000000E+04  0.30000000000E+03 0. -1.
     100001    1    1    2    0    0 -0.23723769402E+04 -0.12553465191E+04  0.59180471881E+04  0.65000000000E+04  0.15050000000E+03 0.  1.
     100001    1    1    2    0    0  0.23723769402E+04  0.12553465191E+04 -0.59180471881E+04  0.65000000000E+04  0.15050000000E+03 0. -1.
</event>
<event>
 4    1  0.4826743E-004  0.6500000E+04  0.7818608E-02  0.7223770E-01
         52   -1    0    0    0    0  0.00000000000E+00  0.00000000000E+00  0.64930732323E+04  0.65000000000E+04  0.30000000000E+03 0.  1.
        -52   -1    0    0    0    0 -0.00000000000E+00 -0.00000000000E+00 -0.64930732323E+04  0.65000000000E+04  0.30000000000E+03 0. -1.
     100001    1    1    2    0    0  0.24569775658E+03 -0.20858267138E+03  0.64902600589E+04  0.65000000000E+04  0.15050000000E+03 0.  1.
     100001    1    1    2    0    0 -0.24569775658E+03  0.20858267138E+03 -0.64902600589E+04  0.65000000000E+04  0.15050000000E+03 0. -1.
</event>
<event>
 4    1  0.4826743E-004  0.6500000E+04  0.7818608E-02  0.7223770E-01
         52   -1    0    0    0    0  0.00000000000E+00  0.00000000000E+00  0.64930732323E+04  0.65000000000E+04  0.30000000000E+03 0.  1.
        -52   -1    0    0    0    0 -0.00000000000E+00 -0.00000000000E+00 -0.64930732323E+04  0.65000000000E+04  0.30000000000E+03 0. -1.
     100001    1    1    2    0    0  0.42436621162E+04 -0.46079620906E+04  0.17278214506E+04  0.65000000000E+04  0.15050000000E+03 0.  1.
     100001    1    1    2    0    0 -0.42436621162E+04  0.46079620906E+04 -0.17278214506E+04  0.65000000000E+04  0.15050000000E+03 0. -1.
</event>
<event>
 4    1  0.5682057E-004  0.6500000E+04  0.7818608E-02  0.7223770E-01
         52   -1    0    0    0    0  0.00000000000E+00  0.00000000000E+00  0.64930732323E+04  0.65000000000E+04  0.30000000000E+03 0. -1.
        -52   -1    0    0    0    0 -0.00000000000E+00 -0.00000000000E+00 -0.64930732323E+04  0.65000000000E+04  0.30000000000E+03 0. -1.
     100001    1    1    2    0    0 -0.10756524652E+03  0.16777709358E+03  0.64952005600E+04  0.65000000000E+04  0.15050000000E+03 0. -1.
     100001    1    1    2    0    0  0.10756524652E+03 -0.16777709358E+03 -0.64952005600E+04  0.65000000000E+04  0.15050000000E+03 0. -1.
</event>
<event>
 4    1  0.4826743E-004  0.6500000E+04  0.7818608E-02  0.7223770E-01
         52   -1    0    0    0    0  0.00000000000E+00  0.00000000000E+00  0.64930732323E+04  0.65000000000E+04  0.30000000000E+03 0.  1.
        -52   -1    0    0    0    0 -0.00000000000E+00 -0.00000000000E+00 -0.64930732323E+04  0.65000000000E+04  0.30000000000E+03 0. -1.
     100001    1    1    2    0    0  0.10636808541E+04  0.15421691070E+03 -0.64087557244E+04  0.65000000000E+04  0.15050000000E+03 0. -1.
     100001    1    1    2    0    0 -0.10636808541E+04 -0.15421691070E+03  0.64087557244E+04  0.65000000000E+04  0.15050000000E+03 0.  1.
</event>
<event>
 4    1  0.4826743E-004  0.6500000E+04  0.7818608E-02  0.7223770E-01
         52   -1    0    0    0    0  0.00000000000E+00  0.00000000000E+00  0.64930732323E+04  0.65000000000E+04  0.30000000000E+03 0. -1.
        -52   -1    0    0    0    0 -0.00000000000E+00 -0.00000000000E+00 -0.64930732323E+04  0.65000000000E+04  0.30000000000E+03 0.  1.
     100001    1    1    2    0    0  0.83417258372E+03 -0.75013961590E+03 -0.64006871824E+04  0.65000000000E+04  0.15050000000E+03 0.  1.
     100001    1    1    2    0    0 -0.83417258372E+03  0.75013961590E+03  0.64006871824E+04  0.65000000000E+04  0.15050000000E+03 0. -1.
</event>
<event>
 4    1  0.4826743E-004  0.6500000E+04  0.7818608E-02  0.7223770E-01
         52   -1    0    0    0    0  0.00000000000E+00  0.00000000000E+00  0.64930732323E+04  0.65000000000E+04  0.30000000000E+03 0.  1.
        -52   -1    0    0    0    0 -0.00000000000E+00 -0.00000000000E+00 -0.64930732323E+04  0.65000000000E+04  0.30000000000E+03 0. -1.
     100001    1    1    2    0    0 -0.11628746889E+03  0.22666926811E+03 -0.64932617395E+04  0.65000000000E+04  0.15050000000E+03 0. -1.
     100001    1    1    2    0    0  0.11628746889E+03 -0.22666926811E+03  0.64932617395E+04  0.65000000000E+04  0.15050000000E+03 0.  1.
</event>
