<event>
 4    1  0.4973396E-021  0.5000050E+01  0.7818608E-02  0.2136455E+00
        -11   -1    0    0    0    0  0.00000000000E+00  0.00000000000E+00  0.50000499739E+01  0.50000500000E+01  0.51100000000E-03 0. -1.
         11   -1    0    0    0    0 -0.00000000000E+00 -0.00000000000E+00 -0.50000499739E+01  0.50000500000E+01  0.51100000000E-03 0.  1.
         50    1    1    2    0    0  0.13220750717E-02  0.10324718607E-01  0.19790270417E-01  0.50000500000E+01  0.50000000000E+01 0.  0.
         50    1    1    2    0    0 -0.13220750717E-02 -0.10324718607E-01 -0.19790270417E-01  0.50000500000E+01  0.50000000000E+01 0.  1.
</event>
<event>
 4    1  0.4973396E-021  0.5000050E+01  0.7818608E-02  0.2136455E+00
        -11   -1    0    0    0    0  0.00000000000E+00  0.00000000000E+00  0.50000499739E+01  0.50000500000E+01  0.51100000000E-03 0. -1.
         11   -1    0    0    0    0 -0.00000000000E+00 -0.00000000000E+00 -0.50000499739E+01  0.50000500000E+01  0.51100000000E-03 0.  1.
         50    1    1    2    0    0  0.18557752273E-01  0.10129031839E-01  0.72811430810E-02  0.50000500000E+01  0.50000000000E+01 0.  0.
         50    1    1    2    0    0 -0.18557752273E-01 -0.10129031839E-01 -0.72811430810E-02  0.50000500000E+01  0.50000000000E+01 0.  0.
</event>
<event>
 4    1  0.4973396E-021  0.5000050E+01  0.7818608E-02  0.2136455E+00
        -11   -1    0    0    0    0  0.00000000000E+00  0.00000000000E+00  0.50000499739E+01  0.50000500000E+01  0.51100000000E-03 0. -1.
         11   -1    0    0    0    0 -0.00000000000E+00 -0.00000000000E+00 -0.50000499739E+01  0.50000500000E+01  0.51100000000E-03 0.  1.
         50    1    1    2    0    0 -0.99270056131E-02  0.12776127841E-01 -0.15434623965E-01  0.50000500000E+01  0.50000000000E+01 0.  0.
         50    1    1    2    0    0  0.99270056131E-02 -0.12776127841E-01  0.15434623965E-01  0.50000500000E+01  0.50000000000E+01 0.  0.
</event>
<event>
 4    1  0.4973396E-021  0.5000050E+01  0.7818608E-02  0.2136455E+00
        -11   -1    0    0    0    0  0.00000000000E+00  0.00000000000E+00  0.50000499739E+01  0.50000500000E+01  0.51100000000E-03 0.  1.
         11   -1    0    0    0    0 -0.00000000000E+00 -0.00000000000E+00 -0.50000499739E+01  0.50000500000E+01  0.51100000000E-03 0. -1.
         50    1    1    2    0    0  0.18754512897E-01  0.15726955392E-02  0.12074658369E-01  0.50000500000E+01  0.50000000000E+01 0. -1.
         50    1    1    2    0    0 -0.18754512897E-01 -0.15726955392E-02 -0.12074658369E-01  0.50000500000E+01  0.50000000000E+01 0.  1.
</event>
<event>
 4    1  0.4973396E-021  0.5000050E+01  0.7818608E-02  0.2136455E+00
        -11   -1    0    0    0    0  0.00000000000E+00  0.00000000000E+00  0.50000499739E+01  0.50000500000E+01  0.51100000000E-03 0. -1.
         11   -1    0    0    0    0 -0.00000000000E+00 -0.00000000000E+00 -0.50000499739E+01  0.50000500000E+01  0.51100000000E-03 0.  1.
         50    1    1    2    0    0 -0.10128773879E-01  0.23312297074E-02 -0.19798378917E-01  0.50000500000E+01  0.50000000000E+01 0.  0.
         50    1    1    2    0    0  0.10128773879E-01 -0.23312297074E-02  0.19798378917E-01  0.50000500000E+01  0.50000000000E+01 0. -1.
</event>
<event>
 4    1  0.4973396E-021  0.5000050E+01  0.7818608E-02  0.2136455E+00
        -11   -1    0    0    0    0  0.00000000000E+00  0.00000000000E+00  0.50000499739E+01  0.50000500000E+01  0.51100000000E-03 0.  1.
         11   -1    0    0    0    0 -0.00000000000E+00 -0.00000000000E+00 -0.50000499739E+01  0.50000500000E+01  0.51100000000E-03 0. -1.
         50    1    1    2    0    0 -0.50568600140E-04 -0.20811966845E-01  0.81769174420E-02  0.50000500000E+01  0.50000000000E+01 0.  0.
         50    1    1    2    0    0  0.50568600140E-04  0.20811966845E-01 -0.81769174420E-02  0.50000500000E+01  0.50000000000E+01 0.  0.
</event>
<event>
 4    1  0.4973396E-021  0.5000050E+01  0.7818608E-02  0.2136455E+00
        -11   -1    0    0    0    0  0.00000000000E+00  0.00000000000E+00  0.50000499739E+01  0.50000500000E+01  0.51100000000E-03 0.  1.
         11   -1    0    0    0    0 -0.00000000000E+00 -0.00000000000E+00 -0.50000499739E+01  0.50000500000E+01  0.51100000000E-03 0. -1.
         50    1    1    2    0    0 -0.63138759965E-02 -0.16009442695E-02 -0.21390989864E-01  0.50000500000E+01  0.50000000000E+01 0. -1.
         50    1    1    2    0    0  0.63138759965E-02  0.16009442695E-02  0.21390989864E-01  0.50000500000E+01  0.50000000000E+01 0.  0.
</event>
<event>
 4    1  0.4973396E-021  0.5000050E+01  0.7818608E-02  0.2136455E+00
        -11   -1    0    0    0    0  0.00000000000E+00  0.00000000000E+00  0.50000499739E+01  0.50000500000E+01  0.51100000000E-03 0.  1.
         11   -1    0    0    0    0 -0.00000000000E+00 -0.00000000000E+00 -0.50000499739E+01  0.50000500000E+01  0.51100000000E-03 0. -1.
         50    1    1    2    0    0 -0.20857311642E-01  0.79265024383E-02 -0.14647901462E-02  0.50000500000E+01  0.50000000000E+01 0. -1.
         50    1    1    2    0    0  0.20857311642E-01 -0.79265024383E-02  0.14647901462E-02  0.50000500000E+01  0.50000000000E+01 0.  1.
</event>
<event>
 4    1  0.4973396E-021  0.5000050E+01  0.7818608E-02  0.2136455E+00
        -11   -1    0    0    0    0  0.00000000000E+00  0.00000000000E+00  0.50000499739E+01  0.50000500000E+01  0.51100000000E-03 0. -1.
         11   -1    0    0    0    0 -0.00000000000E+00 -0.00000000000E+00 -0.50000499739E+01  0.50000500000E+01  0.51100000000E-03 0.  1.
         50    1    1    2    0    0 -0.47809377881E-02 -0.20422714371E-01 -0.77497013862E-02  0.50000500000E+01  0.50000000000E+01 0.  1.
         50    1    1    2    0    0  0.47809377881E-02  0.20422714371E-01  0.77497013862E-02  0.50000500000E+01  0.50000000000E+01 0. -1.
</event>
<event>
 4    1  0.4973396E-021  0.5000050E+01  0.7818608E-02  0.2136455E+00
        -11   -1    0    0    0    0  0.00000000000E+00  0.00000000000E+00  0.50000499739E+01  0.50000500000E+01  0.51100000000E-03 0. -1.
         11   -1    0    0    0    0 -0.00000000000E+00 -0.00000000000E+00 -0.50000499739E+01  0.50000500000E+01  0.51100000000E-03 0.  1.
         50    1    1    2    0    0  0.16579756713E-01  0.62545011369E-02 -0.13638012424E-01  0.50000500000E+01  0.50000000000E+01 0.  1.
         50    1    1    2    0    0 -0.16579756713E-01 -0.62545011369E-02  0.13638012424E-01  0.50000500000E+01  0.50000000000E+01 0.  1.
</event>
<event>
 4    1  0.4973396E-021  0.5000050E+01  0.7818608E-02  0.2136455E+00
        -11   -1    0    0    0    0  0.00000000000E+00  0.00000000000E+00  0.50000499739E+01  0.50000500000E+01  0.51100000000E-03 0.  1.
         11   -1    0    0    0    0 -0.00000000000E+00 -0.00000000000E+00 -0.50000499739E+01  0.50000500000E+01  0.51100000000E-03 0. -1.
         50    1    1    2    0    0  0.71076235245E-02 -0.15538607502E-02 -0.21144022905E-01  0.50000500000E+01  0.50000000000E+01 0. -1.
         50    1    1    2    0    0 -0.71076235245E-02  0.15538607502E-02  0.21144022905E-01  0.50000500000E+01  0.50000000000E+01 0.  0.
</event>
<event>
 4    1  0.4973396E-021  0.5000050E+01  0.7818608E-02  0.2136455E+00
        -11   -1    0    0    0    0  0.00000000000E+00  0.00000000000E+00  0.50000499739E+01  0.50000500000E+01  0.51100000000E-03 0. -1.
         11   -1    0    0    0    0 -0.00000000000E+00 -0.00000000000E+00 -0.50000499739E+01  0.50000500000E+01  0.51100000000E-03 0.  1.
         50    1    1    2    0    0 -0.21301597813E-01  0.67767359623E-02  0.56593313726E-03  0.50000500000E+01  0.50000000000E+01 0.  0.
         50    1    1    2    0    0  0.21301597813E-01 -0.67767359623E-02 -0.56593313726E-03  0.50000500000E+01  0.50000000000E+01 0.  1.
</event>
<event>
 4    1  0.4973396E-021  0.5000050E+01  0.7818608E-02  0.2136455E+00
        -11   -1    0    0    0    0  0.00000000000E+00  0.00000000000E+00  0.50000499739E+01  0.50000500000E+01  0.51100000000E-03 0.  1.
         11   -1    0    0    0    0 -0.00000000000E+00 -0.00000000000E+00 -0.50000499739E+01  0.50000500000E+01  0.51100000000E-03 0. -1.
         50    1    1    2    0    0 -0.94222623451E-02 -0.20190732861E-01 -0.18862075315E-02  0.50000500000E+01  0.50000000000E+01 0.  0.
         50    1    1    2    0    0  0.94222623451E-02  0.20190732861E-01  0.18862075315E-02  0.50000500000E+01  0.50000000000E+01 0.  0.
</event>
<event>
 4    1  0.4973396E-021  0.5000050E+01  0.7818608E-02  0.2136455E+00
        -11   -1    0    0    0    0  0.00000000000E+00  0.00000000000E+00  0.50000499739E+01  0.50000500000E+01  0.51100000000E-03 0. -1.
         11   -1    0    0    0    0 -0.00000000000E+00 -0.00000000000E+00 -0.50000499739E+01  0.50000500000E+01  0.51100000000E-03 0.  1.
         50    1    1    2    0    0 -0.30350932404E-02 -0.18129278002E-01  0.12732634768E-01  0.50000500000E+01  0.50000000000E+01 0.  0.
         50    1    1    2    0    0  0.30350932404E-02  0.18129278002E-01 -0.12732634768E-01  0.50000500000E+01  0.50000000000E+01 0. -1.
</event>
<event>
 4    1  0.4973396E-021  0.5000050E+01  0.7818608E-02  0.2136455E+00
        -11   -1    0    0    0    0  0.00000000000E+00  0.00000000000E+00  0.50000499739E+01  0.50000500000E+01  0.51100000000E-03 0. -1.
         11   -1    0    0    0    0 -0.00000000000E+00 -0.00000000000E+00 -0.50000499739E+01  0.50000500000E+01  0.51100000000E-03 0.  1.
         50    1    1    2    0    0  0.20550895931E-01  0.87482306608E-02  0.10637841650E-02  0.50000500000E+01  0.50000000000E+01 0.  1.
         50    1    1    2    0    0 -0.20550895931E-01 -0.87482306608E-02 -0.10637841650E-02  0.50000500000E+01  0.50000000000E+01 0. -1.
</event>
<event>
 4    1  0.4973396E-021  0.5000050E+01  0.7818608E-02  0.2136455E+00
        -11   -1    0    0    0    0  0.00000000000E+00  0.00000000000E+00  0.50000499739E+01  0.50000500000E+01  0.51100000000E-03 0. -1.
         11   -1    0    0    0    0 -0.00000000000E+00 -0.00000000000E+00 -0.50000499739E+01  0.50000500000E+01  0.51100000000E-03 0.  1.
         50    1    1    2    0    0 -0.47878029306E-02 -0.14457832623E-01  0.16372248439E-01  0.50000500000E+01  0.50000000000E+01 0.  0.
         50    1    1    2    0    0  0.47878029306E-02  0.14457832623E-01 -0.16372248439E-01  0.50000500000E+01  0.50000000000E+01 0.  1.
</event>
<event>
 4    1  0.4973396E-021  0.5000050E+01  0.7818608E-02  0.2136455E+00
        -11   -1    0    0    0    0  0.00000000000E+00  0.00000000000E+00  0.50000499739E+01  0.50000500000E+01  0.51100000000E-03 0.  1.
         11   -1    0    0    0    0 -0.00000000000E+00 -0.00000000000E+00 -0.50000499739E+01  0.50000500000E+01  0.51100000000E-03 0. -1.
         50    1    1    2    0    0  0.21144007785E-01  0.51797134636E-02  0.51092076909E-02  0.50000500000E+01  0.50000000000E+01 0.  1.
         50    1    1    2    0    0 -0.21144007785E-01 -0.51797134636E-02 -0.51092076909E-02  0.50000500000E+01  0.50000000000E+01 0. -1.
</event>
<event>
 4    1  0.4973396E-021  0.5000050E+01  0.7818608E-02  0.2136455E+00
        -11   -1    0    0    0    0  0.00000000000E+00  0.00000000000E+00  0.50000499739E+01  0.50000500000E+01  0.51100000000E-03 0.  1.
         11   -1    0    0    0    0 -0.00000000000E+00 -0.00000000000E+00 -0.50000499739E+01  0.50000500000E+01  0.51100000000E-03 0. -1.
         50    1    1    2    0    0  0.15407957464E-01  0.75709215186E-03 -0.16187160290E-01  0.50000500000E+01  0.50000000000E+01 0. -1.
         50    1    1    2    0    0 -0.15407957464E-01 -0.75709215186E-03  0.16187160290E-01  0.50000500000E+01  0.50000000000E+01 0.  1.
</event>
<event>
 4    1  0.4973396E-021  0.5000050E+01  0.7818608E-02  0.2136455E+00
        -11   -1    0    0    0    0  0.00000000000E+00  0.00000000000E+00  0.50000499739E+01  0.50000500000E+01  0.51100000000E-03 0. -1.
         11   -1    0    0    0    0 -0.00000000000E+00 -0.00000000000E+00 -0.50000499739E+01  0.50000500000E+01  0.51100000000E-03 0.  1.
         50    1    1    2    0    0  0.34173276841E-02 -0.91273105206E-02 -0.20125023582E-01  0.50000500000E+01  0.50000000000E+01 0.  0.
         50    1    1    2    0    0 -0.34173276841E-02  0.91273105206E-02  0.20125023582E-01  0.50000500000E+01  0.50000000000E+01 0.  0.
</event>
<event>
 4    1  0.4973396E-021  0.5000050E+01  0.7818608E-02  0.2136455E+00
        -11   -1    0    0    0    0  0.00000000000E+00  0.00000000000E+00  0.50000499739E+01  0.50000500000E+01  0.51100000000E-03 0.  1.
         11   -1    0    0    0    0 -0.00000000000E+00 -0.00000000000E+00 -0.50000499739E+01  0.50000500000E+01  0.51100000000E-03 0. -1.
         50    1    1    2    0    0  0.77835215256E-02  0.10769345010E-01  0.17984451638E-01  0.50000500000E+01  0.50000000000E+01 0.  1.
         50    1    1    2    0    0 -0.77835215256E-02 -0.10769345010E-01 -0.17984451638E-01  0.50000500000E+01  0.50000000000E+01 0.  0.
</event>
<event>
 4    1  0.4973396E-021  0.5000050E+01  0.7818608E-02  0.2136455E+00
        -11   -1    0    0    0    0  0.00000000000E+00  0.00000000000E+00  0.50000499739E+01  0.50000500000E+01  0.51100000000E-03 0.  1.
         11   -1    0    0    0    0 -0.00000000000E+00 -0.00000000000E+00 -0.50000499739E+01  0.50000500000E+01  0.51100000000E-03 0. -1.
         50    1    1    2    0    0 -0.49392437821E-02  0.13009777600E-01 -0.17502915690E-01  0.50000500000E+01  0.50000000000E+01 0.  0.
         50    1    1    2    0    0  0.49392437821E-02 -0.13009777600E-01  0.17502915690E-01  0.50000500000E+01  0.50000000000E+01 0.  1.
</event>
<event>
 4    1  0.4973396E-021  0.5000050E+01  0.7818608E-02  0.2136455E+00
        -11   -1    0    0    0    0  0.00000000000E+00  0.00000000000E+00  0.50000499739E+01  0.50000500000E+01  0.51100000000E-03 0. -1.
         11   -1    0    0    0    0 -0.00000000000E+00 -0.00000000000E+00 -0.50000499739E+01  0.50000500000E+01  0.51100000000E-03 0.  1.
         50    1    1    2    0    0 -0.58447384283E-02 -0.18677332679E-01  0.10816597279E-01  0.50000500000E+01  0.50000000000E+01 0. -1.
         50    1    1    2    0    0  0.58447384283E-02  0.18677332679E-01 -0.10816597279E-01  0.50000500000E+01  0.50000000000E+01 0.  1.
</event>
<event>
 4    1  0.4973396E-021  0.5000050E+01  0.7818608E-02  0.2136455E+00
        -11   -1    0    0    0    0  0.00000000000E+00  0.00000000000E+00  0.50000499739E+01  0.50000500000E+01  0.51100000000E-03 0. -1.
         11   -1    0    0    0    0 -0.00000000000E+00 -0.00000000000E+00 -0.50000499739E+01  0.50000500000E+01  0.51100000000E-03 0.  1.
         50    1    1    2    0    0  0.10391210124E-01  0.18299352613E-01  0.75603535690E-02  0.50000500000E+01  0.50000000000E+01 0. -1.
         50    1    1    2    0    0 -0.10391210124E-01 -0.18299352613E-01 -0.75603535690E-02  0.50000500000E+01  0.50000000000E+01 0.  1.
</event>
<event>
 4    1  0.4973396E-021  0.5000050E+01  0.7818608E-02  0.2136455E+00
        -11   -1    0    0    0    0  0.00000000000E+00  0.00000000000E+00  0.50000499739E+01  0.50000500000E+01  0.51100000000E-03 0. -1.
         11   -1    0    0    0    0 -0.00000000000E+00 -0.00000000000E+00 -0.50000499739E+01  0.50000500000E+01  0.51100000000E-03 0.  1.
         50    1    1    2    0    0 -0.94696265704E-02  0.19352553001E-02  0.20163914787E-01  0.50000500000E+01  0.50000000000E+01 0. -1.
         50    1    1    2    0    0  0.94696265704E-02 -0.19352553001E-02 -0.20163914787E-01  0.50000500000E+01  0.50000000000E+01 0.  0.
</event>
<event>
 4    1  0.4973396E-021  0.5000050E+01  0.7818608E-02  0.2136455E+00
        -11   -1    0    0    0    0  0.00000000000E+00  0.00000000000E+00  0.50000499739E+01  0.50000500000E+01  0.51100000000E-03 0. -1.
         11   -1    0    0    0    0 -0.00000000000E+00 -0.00000000000E+00 -0.50000499739E+01  0.50000500000E+01  0.51100000000E-03 0.  1.
         50    1    1    2    0    0 -0.77084415629E-02  0.48300006684E-02 -0.20426784432E-01  0.50000500000E+01  0.50000000000E+01 0.  1.
         50    1    1    2    0    0  0.77084415629E-02 -0.48300006684E-02  0.20426784432E-01  0.50000500000E+01  0.50000000000E+01 0. -1.
</event>
<event>
 4    1  0.4973396E-021  0.5000050E+01  0.7818608E-02  0.2136455E+00
        -11   -1    0    0    0    0  0.00000000000E+00  0.00000000000E+00  0.50000499739E+01  0.50000500000E+01  0.51100000000E-03 0. -1.
         11   -1    0    0    0    0 -0.00000000000E+00 -0.00000000000E+00 -0.50000499739E+01  0.50000500000E+01  0.51100000000E-03 0.  1.
         50    1    1    2    0    0 -0.18211259403E-01  0.11636650305E-01 -0.57394164026E-02  0.50000500000E+01  0.50000000000E+01 0.  0.
         50    1    1    2    0    0  0.18211259403E-01 -0.11636650305E-01  0.57394164026E-02  0.50000500000E+01  0.50000000000E+01 0.  1.
</event>
<event>
 4    1  0.4973396E-021  0.5000050E+01  0.7818608E-02  0.2136455E+00
        -11   -1    0    0    0    0  0.00000000000E+00  0.00000000000E+00  0.50000499739E+01  0.50000500000E+01  0.51100000000E-03 0. -1.
         11   -1    0    0    0    0 -0.00000000000E+00 -0.00000000000E+00 -0.50000499739E+01  0.50000500000E+01  0.51100000000E-03 0.  1.
         50    1    1    2    0    0  0.55467980219E-02  0.18344112308E-01  0.11520810533E-01  0.50000500000E+01  0.50000000000E+01 0. -1.
         50    1    1    2    0    0 -0.55467980219E-02 -0.18344112308E-01 -0.11520810533E-01  0.50000500000E+01  0.50000000000E+01 0.  1.
</event>
<event>
 4    1  0.4973396E-021  0.5000050E+01  0.7818608E-02  0.2136455E+00
        -11   -1    0    0    0    0  0.00000000000E+00  0.00000000000E+00  0.50000499739E+01  0.50000500000E+01  0.51100000000E-03 0.  1.
         11   -1    0    0    0    0 -0.00000000000E+00 -0.00000000000E+00 -0.50000499739E+01  0.50000500000E+01  0.51100000000E-03 0. -1.
         50    1    1    2    0    0 -0.80621582316E-02 -0.20339752440E-01 -0.46150379542E-02  0.50000500000E+01  0.50000000000E+01 0.  0.
         50    1    1    2    0    0  0.80621582316E-02  0.20339752440E-01  0.46150379542E-02  0.50000500000E+01  0.50000000000E+01 0. -1.
</event>
<event>
 4    1  0.4973396E-021  0.5000050E+01  0.7818608E-02  0.2136455E+00
        -11   -1    0    0    0    0  0.00000000000E+00  0.00000000000E+00  0.50000499739E+01  0.50000500000E+01  0.51100000000E-03 0.  1.
         11   -1    0    0    0    0 -0.00000000000E+00 -0.00000000000E+00 -0.50000499739E+01  0.50000500000E+01  0.51100000000E-03 0. -1.
         50    1    1    2    0    0  0.14183824054E-01  0.66548499117E-02  0.15954140775E-01  0.50000500000E+01  0.50000000000E+01 0.  0.
         50    1    1    2    0    0 -0.14183824054E-01 -0.66548499117E-02 -0.15954140775E-01  0.50000500000E+01  0.50000000000E+01 0.  0.
</event>
<event>
 4    1  0.4973396E-021  0.5000050E+01  0.7818608E-02  0.2136455E+00
        -11   -1    0    0    0    0  0.00000000000E+00  0.00000000000E+00  0.50000499739E+01  0.50000500000E+01  0.51100000000E-03 0.  1.
         11   -1    0    0    0    0 -0.00000000000E+00 -0.00000000000E+00 -0.50000499739E+01  0.50000500000E+01  0.51100000000E-03 0. -1.
         50    1    1    2    0    0 -0.20201949027E-01  0.80001899688E-02  0.52802193113E-02  0.50000500000E+01  0.50000000000E+01 0.  0.
         50    1    1    2    0    0  0.20201949027E-01 -0.80001899688E-02 -0.52802193113E-02  0.50000500000E+01  0.50000000000E+01 0.  1.
</event>
<event>
 4    1  0.4973396E-021  0.5000050E+01  0.7818608E-02  0.2136455E+00
        -11   -1    0    0    0    0  0.00000000000E+00  0.00000000000E+00  0.50000499739E+01  0.50000500000E+01  0.51100000000E-03 0. -1.
         11   -1    0    0    0    0 -0.00000000000E+00 -0.00000000000E+00 -0.50000499739E+01  0.50000500000E+01  0.51100000000E-03 0.  1.
         50    1    1    2    0    0 -0.16050303173E-01 -0.13365102088E-01  0.79852560529E-02  0.50000500000E+01  0.50000000000E+01 0.  0.
         50    1    1    2    0    0  0.16050303173E-01  0.13365102088E-01 -0.79852560529E-02  0.50000500000E+01  0.50000000000E+01 0.  0.
</event>
<event>
 4    1  0.4973396E-021  0.5000050E+01  0.7818608E-02  0.2136455E+00
        -11   -1    0    0    0    0  0.00000000000E+00  0.00000000000E+00  0.50000499739E+01  0.50000500000E+01  0.51100000000E-03 0. -1.
         11   -1    0    0    0    0 -0.00000000000E+00 -0.00000000000E+00 -0.50000499739E+01  0.50000500000E+01  0.51100000000E-03 0.  1.
         50    1    1    2    0    0  0.18166738510E-01  0.66471003988E-02 -0.11215532452E-01  0.50000500000E+01  0.50000000000E+01 0.  0.
         50    1    1    2    0    0 -0.18166738510E-01 -0.66471003988E-02  0.11215532452E-01  0.50000500000E+01  0.50000000000E+01 0.  1.
</event>
<event>
 4    1  0.4973396E-021  0.5000050E+01  0.7818608E-02  0.2136455E+00
        -11   -1    0    0    0    0  0.00000000000E+00  0.00000000000E+00  0.50000499739E+01  0.50000500000E+01  0.51100000000E-03 0. -1.
         11   -1    0    0    0    0 -0.00000000000E+00 -0.00000000000E+00 -0.50000499739E+01  0.50000500000E+01  0.51100000000E-03 0.  1.
         50    1    1    2    0    0 -0.14811831660E-01 -0.11686451248E-01 -0.12001624894E-01  0.50000500000E+01  0.50000000000E+01 0.  1.
         50    1    1    2    0    0  0.14811831660E-01  0.11686451248E-01  0.12001624894E-01  0.50000500000E+01  0.50000000000E+01 0. -1.
</event>
<event>
 4    1  0.4973396E-021  0.5000050E+01  0.7818608E-02  0.2136455E+00
        -11   -1    0    0    0    0  0.00000000000E+00  0.00000000000E+00  0.50000499739E+01  0.50000500000E+01  0.51100000000E-03 0. -1.
         11   -1    0    0    0    0 -0.00000000000E+00 -0.00000000000E+00 -0.50000499739E+01  0.50000500000E+01  0.51100000000E-03 0.  1.
         50    1    1    2    0    0  0.59416041874E-02  0.15841368724E-01  0.14620221497E-01  0.50000500000E+01  0.50000000000E+01 0. -1.
         50    1    1    2    0    0 -0.59416041874E-02 -0.15841368724E-01 -0.14620221497E-01  0.50000500000E+01  0.50000000000E+01 0.  1.
</event>
<event>
 4    1  0.4973396E-021  0.5000050E+01  0.7818608E-02  0.2136455E+00
        -11   -1    0    0    0    0  0.00000000000E+00  0.00000000000E+00  0.50000499739E+01  0.50000500000E+01  0.51100000000E-03 0.  1.
         11   -1    0    0    0    0 -0.00000000000E+00 -0.00000000000E+00 -0.50000499739E+01  0.50000500000E+01  0.51100000000E-03 0. -1.
         50    1    1    2    0    0  0.87512261172E-02 -0.11422292386E-01  0.17115775708E-01  0.50000500000E+01  0.50000000000E+01 0.  1.
         50    1    1    2    0    0 -0.87512261172E-02  0.11422292386E-01 -0.17115775708E-01  0.50000500000E+01  0.50000000000E+01 0.  0.
</event>
<event>
 4    1  0.4973396E-021  0.5000050E+01  0.7818608E-02  0.2136455E+00
        -11   -1    0    0    0    0  0.00000000000E+00  0.00000000000E+00  0.50000499739E+01  0.50000500000E+01  0.51100000000E-03 0. -1.
         11   -1    0    0    0    0 -0.00000000000E+00 -0.00000000000E+00 -0.50000499739E+01  0.50000500000E+01  0.51100000000E-03 0.  1.
         50    1    1    2    0    0  0.12770363973E-01 -0.13149536990E-01 -0.12806638160E-01  0.50000500000E+01  0.50000000000E+01 0.  0.
         50    1    1    2    0    0 -0.12770363973E-01  0.13149536990E-01  0.12806638160E-01  0.50000500000E+01  0.50000000000E+01 0.  0.
</event>
<event>
 4    1  0.4973396E-021  0.5000050E+01  0.7818608E-02  0.2136455E+00
        -11   -1    0    0    0    0  0.00000000000E+00  0.00000000000E+00  0.50000499739E+01  0.50000500000E+01  0.51100000000E-03 0.  1.
         11   -1    0    0    0    0 -0.00000000000E+00 -0.00000000000E+00 -0.50000499739E+01  0.50000500000E+01  0.51100000000E-03 0. -1.
         50    1    1    2    0    0  0.87268906169E-02  0.13489242946E-01  0.15552626946E-01  0.50000500000E+01  0.50000000000E+01 0.  1.
         50    1    1    2    0    0 -0.87268906169E-02 -0.13489242946E-01 -0.15552626946E-01  0.50000500000E+01  0.50000000000E+01 0.  1.
</event>
<event>
 4    1  0.4973396E-021  0.5000050E+01  0.7818608E-02  0.2136455E+00
        -11   -1    0    0    0    0  0.00000000000E+00  0.00000000000E+00  0.50000499739E+01  0.50000500000E+01  0.51100000000E-03 0. -1.
         11   -1    0    0    0    0 -0.00000000000E+00 -0.00000000000E+00 -0.50000499739E+01  0.50000500000E+01  0.51100000000E-03 0.  1.
         50    1    1    2    0    0  0.17473640175E-01 -0.95306117142E-03  0.13919988270E-01  0.50000500000E+01  0.50000000000E+01 0. -1.
         50    1    1    2    0    0 -0.17473640175E-01  0.95306117142E-03 -0.13919988270E-01  0.50000500000E+01  0.50000000000E+01 0.  1.
</event>
<event>
 4    1  0.4973396E-021  0.5000050E+01  0.7818608E-02  0.2136455E+00
        -11   -1    0    0    0    0  0.00000000000E+00  0.00000000000E+00  0.50000499739E+01  0.50000500000E+01  0.51100000000E-03 0. -1.
         11   -1    0    0    0    0 -0.00000000000E+00 -0.00000000000E+00 -0.50000499739E+01  0.50000500000E+01  0.51100000000E-03 0.  1.
         50    1    1    2    0    0 -0.12683224487E-01  0.31627627743E-02  0.18142085003E-01  0.50000500000E+01  0.50000000000E+01 0. -1.
         50    1    1    2    0    0  0.12683224487E-01 -0.31627627743E-02 -0.18142085003E-01  0.50000500000E+01  0.50000000000E+01 0.  1.
</event>
<event>
 4    1  0.4973396E-021  0.5000050E+01  0.7818608E-02  0.2136455E+00
        -11   -1    0    0    0    0  0.00000000000E+00  0.00000000000E+00  0.50000499739E+01  0.50000500000E+01  0.51100000000E-03 0. -1.
         11   -1    0    0    0    0 -0.00000000000E+00 -0.00000000000E+00 -0.50000499739E+01  0.50000500000E+01  0.51100000000E-03 0.  1.
         50    1    1    2    0    0  0.13943599891E-02 -0.18184646191E-01  0.12937422585E-01  0.50000500000E+01  0.50000000000E+01 0. -1.
         50    1    1    2    0    0 -0.13943599891E-02  0.18184646191E-01 -0.12937422585E-01  0.50000500000E+01  0.50000000000E+01 0.  1.
</event>
<event>
 4    1  0.4973396E-021  0.5000050E+01  0.7818608E-02  0.2136455E+00
        -11   -1    0    0    0    0  0.00000000000E+00  0.00000000000E+00  0.50000499739E+01  0.50000500000E+01  0.51100000000E-03 0. -1.
         11   -1    0    0    0    0 -0.00000000000E+00 -0.00000000000E+00 -0.50000499739E+01  0.50000500000E+01  0.51100000000E-03 0.  1.
         50    1    1    2    0    0 -0.36542696444E-02  0.21695670727E-01  0.39933300730E-02  0.50000500000E+01  0.50000000000E+01 0.  1.
         50    1    1    2    0    0  0.36542696444E-02 -0.21695670727E-01 -0.39933300730E-02  0.50000500000E+01  0.50000000000E+01 0. -1.
</event>
<event>
 4    1  0.4973396E-021  0.5000050E+01  0.7818608E-02  0.2136455E+00
        -11   -1    0    0    0    0  0.00000000000E+00  0.00000000000E+00  0.50000499739E+01  0.50000500000E+01  0.51100000000E-03 0. -1.
         11   -1    0    0    0    0 -0.00000000000E+00 -0.00000000000E+00 -0.50000499739E+01  0.50000500000E+01  0.51100000000E-03 0.  1.
         50    1    1    2    0    0 -0.11381464072E-01  0.15051149095E-01  0.11996986559E-01  0.50000500000E+01  0.50000000000E+01 0. -1.
         50    1    1    2    0    0  0.11381464072E-01 -0.15051149095E-01 -0.11996986559E-01  0.50000500000E+01  0.50000000000E+01 0.  1.
</event>
<event>
 4    1  0.4973396E-021  0.5000050E+01  0.7818608E-02  0.2136455E+00
        -11   -1    0    0    0    0  0.00000000000E+00  0.00000000000E+00  0.50000499739E+01  0.50000500000E+01  0.51100000000E-03 0.  1.
         11   -1    0    0    0    0 -0.00000000000E+00 -0.00000000000E+00 -0.50000499739E+01  0.50000500000E+01  0.51100000000E-03 0. -1.
         50    1    1    2    0    0  0.19968695413E-01  0.98256361546E-02  0.21703865202E-02  0.50000500000E+01  0.50000000000E+01 0.  1.
         50    1    1    2    0    0 -0.19968695413E-01 -0.98256361546E-02 -0.21703865202E-02  0.50000500000E+01  0.50000000000E+01 0.  0.
</event>
<event>
 4    1  0.4973396E-021  0.5000050E+01  0.7818608E-02  0.2136455E+00
        -11   -1    0    0    0    0  0.00000000000E+00  0.00000000000E+00  0.50000499739E+01  0.50000500000E+01  0.51100000000E-03 0.  1.
         11   -1    0    0    0    0 -0.00000000000E+00 -0.00000000000E+00 -0.50000499739E+01  0.50000500000E+01  0.51100000000E-03 0. -1.
         50    1    1    2    0    0  0.49213062584E-02  0.18488059472E-01 -0.11574752770E-01  0.50000500000E+01  0.50000000000E+01 0. -1.
         50    1    1    2    0    0 -0.49213062584E-02 -0.18488059472E-01  0.11574752770E-01  0.50000500000E+01  0.50000000000E+01 0.  1.
</event>
<event>
 4    1  0.4973396E-021  0.5000050E+01  0.7818608E-02  0.2136455E+00
        -11   -1    0    0    0    0  0.00000000000E+00  0.00000000000E+00  0.50000499739E+01  0.50000500000E+01  0.51100000000E-03 0. -1.
         11   -1    0    0    0    0 -0.00000000000E+00 -0.00000000000E+00 -0.50000499739E+01  0.50000500000E+01  0.51100000000E-03 0.  1.
         50    1    1    2    0    0  0.12321665381E-01 -0.13773192352E-02  0.18608655350E-01  0.50000500000E+01  0.50000000000E+01 0. -1.
         50    1    1    2    0    0 -0.12321665381E-01  0.13773192352E-02 -0.18608655350E-01  0.50000500000E+01  0.50000000000E+01 0.  0.
</event>
<event>
 4    1  0.4973396E-021  0.5000050E+01  0.7818608E-02  0.2136455E+00
        -11   -1    0    0    0    0  0.00000000000E+00  0.00000000000E+00  0.50000499739E+01  0.50000500000E+01  0.51100000000E-03 0. -1.
         11   -1    0    0    0    0 -0.00000000000E+00 -0.00000000000E+00 -0.50000499739E+01  0.50000500000E+01  0.51100000000E-03 0.  1.
         50    1    1    2    0    0 -0.15994313191E-01  0.14841012100E-01  0.48917078210E-02  0.50000500000E+01  0.50000000000E+01 0. -1.
         50    1    1    2    0    0  0.15994313191E-01 -0.14841012100E-01 -0.48917078210E-02  0.50000500000E+01  0.50000000000E+01 0.  1.
</event>
<event>
 4    1  0.4973396E-021  0.5000050E+01  0.7818608E-02  0.2136455E+00
        -11   -1    0    0    0    0  0.00000000000E+00  0.00000000000E+00  0.50000499739E+01  0.50000500000E+01  0.51100000000E-03 0. -1.
         11   -1    0    0    0    0 -0.00000000000E+00 -0.00000000000E+00 -0.50000499739E+01  0.50000500000E+01  0.51100000000E-03 0.  1.
         50    1    1    2    0    0 -0.18122324576E-01 -0.12828769821E-01 -0.26469825879E-02  0.50000500000E+01  0.50000000000E+01 0.  0.
         50    1    1    2    0    0  0.18122324576E-01  0.12828769821E-01  0.26469825879E-02  0.50000500000E+01  0.50000000000E+01 0. -1.
</event>
<event>
 4    1  0.4973396E-021  0.5000050E+01  0.7818608E-02  0.2136455E+00
        -11   -1    0    0    0    0  0.00000000000E+00  0.00000000000E+00  0.50000499739E+01  0.50000500000E+01  0.51100000000E-03 0.  1.
         11   -1    0    0    0    0 -0.00000000000E+00 -0.00000000000E+00 -0.50000499739E+01  0.50000500000E+01  0.51100000000E-03 0. -1.
         50    1    1    2    0    0  0.43837666134E-02  0.47022132900E-02  0.21416682293E-01  0.50000500000E+01  0.50000000000E+01 0.  0.
         50    1    1    2    0    0 -0.43837666134E-02 -0.47022132900E-02 -0.21416682293E-01  0.50000500000E+01  0.50000000000E+01 0. -1.
</event>
<event>
 4    1  0.4973396E-021  0.5000050E+01  0.7818608E-02  0.2136455E+00
        -11   -1    0    0    0    0  0.00000000000E+00  0.00000000000E+00  0.50000499739E+01  0.50000500000E+01  0.51100000000E-03 0. -1.
         11   -1    0    0    0    0 -0.00000000000E+00 -0.00000000000E+00 -0.50000499739E+01  0.50000500000E+01  0.51100000000E-03 0.  1.
         50    1    1    2    0    0  0.18731467361E-01  0.89515330806E-02 -0.83069059224E-02  0.50000500000E+01  0.50000000000E+01 0. -1.
         50    1    1    2    0    0 -0.18731467361E-01 -0.89515330806E-02  0.83069059224E-02  0.50000500000E+01  0.50000000000E+01 0.  0.
</event>
<event>
 4    1  0.4973396E-021  0.5000050E+01  0.7818608E-02  0.2136455E+00
        -11   -1    0    0    0    0  0.00000000000E+00  0.00000000000E+00  0.50000499739E+01  0.50000500000E+01  0.51100000000E-03 0.  1.
         11   -1    0    0    0    0 -0.00000000000E+00 -0.00000000000E+00 -0.50000499739E+01  0.50000500000E+01  0.51100000000E-03 0. -1.
         50    1    1    2    0    0 -0.17670800885E-01  0.71059261042E-02  0.11715421899E-01  0.50000500000E+01  0.50000000000E+01 0.  1.
         50    1    1    2    0    0  0.17670800885E-01 -0.71059261042E-02 -0.11715421899E-01  0.50000500000E+01  0.50000000000E+01 0. -1.
</event>
<event>
 4    1  0.4973396E-021  0.5000050E+01  0.7818608E-02  0.2136455E+00
        -11   -1    0    0    0    0  0.00000000000E+00  0.00000000000E+00  0.50000499739E+01  0.50000500000E+01  0.51100000000E-03 0.  1.
         11   -1    0    0    0    0 -0.00000000000E+00 -0.00000000000E+00 -0.50000499739E+01  0.50000500000E+01  0.51100000000E-03 0. -1.
         50    1    1    2    0    0 -0.21854945055E-01 -0.23797838144E-02  0.40866252120E-02  0.50000500000E+01  0.50000000000E+01 0. -1.
         50    1    1    2    0    0  0.21854945055E-01  0.23797838144E-02 -0.40866252120E-02  0.50000500000E+01  0.50000000000E+01 0.  0.
</event>
<event>
 4    1  0.4973396E-021  0.5000050E+01  0.7818608E-02  0.2136455E+00
        -11   -1    0    0    0    0  0.00000000000E+00  0.00000000000E+00  0.50000499739E+01  0.50000500000E+01  0.51100000000E-03 0.  1.
         11   -1    0    0    0    0 -0.00000000000E+00 -0.00000000000E+00 -0.50000499739E+01  0.50000500000E+01  0.51100000000E-03 0. -1.
         50    1    1    2    0    0 -0.47291554499E-02 -0.21852713602E-01  0.31063959200E-03  0.50000500000E+01  0.50000000000E+01 0. -1.
         50    1    1    2    0    0  0.47291554499E-02  0.21852713602E-01 -0.31063959200E-03  0.50000500000E+01  0.50000000000E+01 0.  1.
</event>
<event>
 4    1  0.4973396E-021  0.5000050E+01  0.7818608E-02  0.2136455E+00
        -11   -1    0    0    0    0  0.00000000000E+00  0.00000000000E+00  0.50000499739E+01  0.50000500000E+01  0.51100000000E-03 0. -1.
         11   -1    0    0    0    0 -0.00000000000E+00 -0.00000000000E+00 -0.50000499739E+01  0.50000500000E+01  0.51100000000E-03 0.  1.
         50    1    1    2    0    0  0.44559644824E-02 -0.16309963283E-01 -0.14633249066E-01  0.50000500000E+01  0.50000000000E+01 0.  1.
         50    1    1    2    0    0 -0.44559644824E-02  0.16309963283E-01  0.14633249066E-01  0.50000500000E+01  0.50000000000E+01 0. -1.
</event>
<event>
 4    1  0.4973396E-021  0.5000050E+01  0.7818608E-02  0.2136455E+00
        -11   -1    0    0    0    0  0.00000000000E+00  0.00000000000E+00  0.50000499739E+01  0.50000500000E+01  0.51100000000E-03 0.  1.
         11   -1    0    0    0    0 -0.00000000000E+00 -0.00000000000E+00 -0.50000499739E+01  0.50000500000E+01  0.51100000000E-03 0. -1.
         50    1    1    2    0    0  0.87492005408E-02  0.20325780369E-01  0.32119530356E-02  0.50000500000E+01  0.50000000000E+01 0.  1.
         50    1    1    2    0    0 -0.87492005408E-02 -0.20325780369E-01 -0.32119530356E-02  0.50000500000E+01  0.50000000000E+01 0. -1.
</event>
<event>
 4    1  0.4973396E-021  0.5000050E+01  0.7818608E-02  0.2136455E+00
        -11   -1    0    0    0    0  0.00000000000E+00  0.00000000000E+00  0.50000499739E+01  0.50000500000E+01  0.51100000000E-03 0.  1.
         11   -1    0    0    0    0 -0.00000000000E+00 -0.00000000000E+00 -0.50000499739E+01  0.50000500000E+01  0.51100000000E-03 0. -1.
         50    1    1    2    0    0  0.15057588560E-01  0.12845082146E-01  0.10405546185E-01  0.50000500000E+01  0.50000000000E+01 0.  1.
         50    1    1    2    0    0 -0.15057588560E-01 -0.12845082146E-01 -0.10405546185E-01  0.50000500000E+01  0.50000000000E+01 0. -1.
</event>
<event>
 4    1  0.4973396E-021  0.5000050E+01  0.7818608E-02  0.2136455E+00
        -11   -1    0    0    0    0  0.00000000000E+00  0.00000000000E+00  0.50000499739E+01  0.50000500000E+01  0.51100000000E-03 0.  1.
         11   -1    0    0    0    0 -0.00000000000E+00 -0.00000000000E+00 -0.50000499739E+01  0.50000500000E+01  0.51100000000E-03 0. -1.
         50    1    1    2    0    0  0.13839867591E-01 -0.14825531415E-01  0.94161660637E-02  0.50000500000E+01  0.50000000000E+01 0. -1.
         50    1    1    2    0    0 -0.13839867591E-01  0.14825531415E-01 -0.94161660637E-02  0.50000500000E+01  0.50000000000E+01 0.  1.
</event>
<event>
 4    1  0.4973396E-021  0.5000050E+01  0.7818608E-02  0.2136455E+00
        -11   -1    0    0    0    0  0.00000000000E+00  0.00000000000E+00  0.50000499739E+01  0.50000500000E+01  0.51100000000E-03 0.  1.
         11   -1    0    0    0    0 -0.00000000000E+00 -0.00000000000E+00 -0.50000499739E+01  0.50000500000E+01  0.51100000000E-03 0. -1.
         50    1    1    2    0    0  0.53541643415E-02 -0.19511878105E-01 -0.95195607584E-02  0.50000500000E+01  0.50000000000E+01 0. -1.
         50    1    1    2    0    0 -0.53541643415E-02  0.19511878105E-01  0.95195607584E-02  0.50000500000E+01  0.50000000000E+01 0. -1.
</event>
<event>
 4    1  0.4973396E-021  0.5000050E+01  0.7818608E-02  0.2136455E+00
        -11   -1    0    0    0    0  0.00000000000E+00  0.00000000000E+00  0.50000499739E+01  0.50000500000E+01  0.51100000000E-03 0.  1.
         11   -1    0    0    0    0 -0.00000000000E+00 -0.00000000000E+00 -0.50000499739E+01  0.50000500000E+01  0.51100000000E-03 0. -1.
         50    1    1    2    0    0  0.93303226571E-02 -0.76184694313E-02 -0.18838962356E-01  0.50000500000E+01  0.50000000000E+01 0. -1.
         50    1    1    2    0    0 -0.93303226571E-02  0.76184694313E-02  0.18838962356E-01  0.50000500000E+01  0.50000000000E+01 0.  1.
</event>
<event>
 4    1  0.4973396E-021  0.5000050E+01  0.7818608E-02  0.2136455E+00
        -11   -1    0    0    0    0  0.00000000000E+00  0.00000000000E+00  0.50000499739E+01  0.50000500000E+01  0.51100000000E-03 0. -1.
         11   -1    0    0    0    0 -0.00000000000E+00 -0.00000000000E+00 -0.50000499739E+01  0.50000500000E+01  0.51100000000E-03 0.  1.
         50    1    1    2    0    0 -0.10839981466E-01 -0.15390858381E-01  0.12067260672E-01  0.50000500000E+01  0.50000000000E+01 0. -1.
         50    1    1    2    0    0  0.10839981466E-01  0.15390858381E-01 -0.12067260672E-01  0.50000500000E+01  0.50000000000E+01 0.  1.
</event>
<event>
 4    1  0.4973396E-021  0.5000050E+01  0.7818608E-02  0.2136455E+00
        -11   -1    0    0    0    0  0.00000000000E+00  0.00000000000E+00  0.50000499739E+01  0.50000500000E+01  0.51100000000E-03 0.  1.
         11   -1    0    0    0    0 -0.00000000000E+00 -0.00000000000E+00 -0.50000499739E+01  0.50000500000E+01  0.51100000000E-03 0. -1.
         50    1    1    2    0    0 -0.15097254112E-01 -0.16427568613E-01 -0.14867439992E-02  0.50000500000E+01  0.50000000000E+01 0. -1.
         50    1    1    2    0    0  0.15097254112E-01  0.16427568613E-01  0.14867439992E-02  0.50000500000E+01  0.50000000000E+01 0.  1.
</event>
<event>
 4    1  0.4973396E-021  0.5000050E+01  0.7818608E-02  0.2136455E+00
        -11   -1    0    0    0    0  0.00000000000E+00  0.00000000000E+00  0.50000499739E+01  0.50000500000E+01  0.51100000000E-03 0. -1.
         11   -1    0    0    0    0 -0.00000000000E+00 -0.00000000000E+00 -0.50000499739E+01  0.50000500000E+01  0.51100000000E-03 0.  1.
         50    1    1    2    0    0  0.17708193975E-01  0.28525077798E-02 -0.13352361795E-01  0.50000500000E+01  0.50000000000E+01 0.  1.
         50    1    1    2    0    0 -0.17708193975E-01 -0.28525077798E-02  0.13352361795E-01  0.50000500000E+01  0.50000000000E+01 0. -1.
</event>
<event>
 4    1  0.4973396E-021  0.5000050E+01  0.7818608E-02  0.2136455E+00
        -11   -1    0    0    0    0  0.00000000000E+00  0.00000000000E+00  0.50000499739E+01  0.50000500000E+01  0.51100000000E-03 0.  1.
         11   -1    0    0    0    0 -0.00000000000E+00 -0.00000000000E+00 -0.50000499739E+01  0.50000500000E+01  0.51100000000E-03 0. -1.
         50    1    1    2    0    0  0.11039371816E-01 -0.17391006244E-01 -0.86998661895E-02  0.50000500000E+01  0.50000000000E+01 0. -1.
         50    1    1    2    0    0 -0.11039371816E-01  0.17391006244E-01  0.86998661895E-02  0.50000500000E+01  0.50000000000E+01 0. -1.
</event>
<event>
 4    1  0.4973396E-021  0.5000050E+01  0.7818608E-02  0.2136455E+00
        -11   -1    0    0    0    0  0.00000000000E+00  0.00000000000E+00  0.50000499739E+01  0.50000500000E+01  0.51100000000E-03 0. -1.
         11   -1    0    0    0    0 -0.00000000000E+00 -0.00000000000E+00 -0.50000499739E+01  0.50000500000E+01  0.51100000000E-03 0.  1.
         50    1    1    2    0    0 -0.17113666084E-01  0.67917280064E-02  0.12688473661E-01  0.50000500000E+01  0.50000000000E+01 0.  0.
         50    1    1    2    0    0  0.17113666084E-01 -0.67917280064E-02 -0.12688473661E-01  0.50000500000E+01  0.50000000000E+01 0. -1.
</event>
<event>
 4    1  0.4973396E-021  0.5000050E+01  0.7818608E-02  0.2136455E+00
        -11   -1    0    0    0    0  0.00000000000E+00  0.00000000000E+00  0.50000499739E+01  0.50000500000E+01  0.51100000000E-03 0. -1.
         11   -1    0    0    0    0 -0.00000000000E+00 -0.00000000000E+00 -0.50000499739E+01  0.50000500000E+01  0.51100000000E-03 0.  1.
         50    1    1    2    0    0  0.12333905888E-01 -0.17918960307E-01  0.51757247875E-02  0.50000500000E+01  0.50000000000E+01 0. -1.
         50    1    1    2    0    0 -0.12333905888E-01  0.17918960307E-01 -0.51757247875E-02  0.50000500000E+01  0.50000000000E+01 0.  1.
</event>
<event>
 4    1  0.4973396E-021  0.5000050E+01  0.7818608E-02  0.2136455E+00
        -11   -1    0    0    0    0  0.00000000000E+00  0.00000000000E+00  0.50000499739E+01  0.50000500000E+01  0.51100000000E-03 0.  1.
         11   -1    0    0    0    0 -0.00000000000E+00 -0.00000000000E+00 -0.50000499739E+01  0.50000500000E+01  0.51100000000E-03 0. -1.
         50    1    1    2    0    0  0.18573441605E-01 -0.11845974757E-01 -0.38344033434E-02  0.50000500000E+01  0.50000000000E+01 0.  1.
         50    1    1    2    0    0 -0.18573441605E-01  0.11845974757E-01  0.38344033434E-02  0.50000500000E+01  0.50000000000E+01 0. -1.
</event>
<event>
 4    1  0.4973396E-021  0.5000050E+01  0.7818608E-02  0.2136455E+00
        -11   -1    0    0    0    0  0.00000000000E+00  0.00000000000E+00  0.50000499739E+01  0.50000500000E+01  0.51100000000E-03 0.  1.
         11   -1    0    0    0    0 -0.00000000000E+00 -0.00000000000E+00 -0.50000499739E+01  0.50000500000E+01  0.51100000000E-03 0. -1.
         50    1    1    2    0    0 -0.21469326778E-01  0.19854642709E-02 -0.59269249486E-02  0.50000500000E+01  0.50000000000E+01 0.  0.
         50    1    1    2    0    0  0.21469326778E-01 -0.19854642709E-02  0.59269249486E-02  0.50000500000E+01  0.50000000000E+01 0. -1.
</event>
<event>
 4    1  0.4973396E-021  0.5000050E+01  0.7818608E-02  0.2136455E+00
        -11   -1    0    0    0    0  0.00000000000E+00  0.00000000000E+00  0.50000499739E+01  0.50000500000E+01  0.51100000000E-03 0. -1.
         11   -1    0    0    0    0 -0.00000000000E+00 -0.00000000000E+00 -0.50000499739E+01  0.50000500000E+01  0.51100000000E-03 0.  1.
         50    1    1    2    0    0  0.98864790173E-04  0.18085739178E-01  0.13149097464E-01  0.50000500000E+01  0.50000000000E+01 0. -1.
         50    1    1    2    0    0 -0.98864790173E-04 -0.18085739178E-01 -0.13149097464E-01  0.50000500000E+01  0.50000000000E+01 0.  1.
</event>
<event>
 4    1  0.4973396E-021  0.5000050E+01  0.7818608E-02  0.2136455E+00
        -11   -1    0    0    0    0  0.00000000000E+00  0.00000000000E+00  0.50000499739E+01  0.50000500000E+01  0.51100000000E-03 0.  1.
         11   -1    0    0    0    0 -0.00000000000E+00 -0.00000000000E+00 -0.50000499739E+01  0.50000500000E+01  0.51100000000E-03 0. -1.
         50    1    1    2    0    0 -0.11437830448E-01  0.80200718726E-02  0.17460154117E-01  0.50000500000E+01  0.50000000000E+01 0.  0.
         50    1    1    2    0    0  0.11437830448E-01 -0.80200718726E-02 -0.17460154117E-01  0.50000500000E+01  0.50000000000E+01 0. -1.
</event>
<event>
 4    1  0.4973396E-021  0.5000050E+01  0.7818608E-02  0.2136455E+00
        -11   -1    0    0    0    0  0.00000000000E+00  0.00000000000E+00  0.50000499739E+01  0.50000500000E+01  0.51100000000E-03 0. -1.
         11   -1    0    0    0    0 -0.00000000000E+00 -0.00000000000E+00 -0.50000499739E+01  0.50000500000E+01  0.51100000000E-03 0.  1.
         50    1    1    2    0    0  0.63219089797E-02 -0.11530621378E-01 -0.18085373579E-01  0.50000500000E+01  0.50000000000E+01 0.  1.
         50    1    1    2    0    0 -0.63219089797E-02  0.11530621378E-01  0.18085373579E-01  0.50000500000E+01  0.50000000000E+01 0.  1.
</event>
<event>
 4    1  0.4973396E-021  0.5000050E+01  0.7818608E-02  0.2136455E+00
        -11   -1    0    0    0    0  0.00000000000E+00  0.00000000000E+00  0.50000499739E+01  0.50000500000E+01  0.51100000000E-03 0.  1.
         11   -1    0    0    0    0 -0.00000000000E+00 -0.00000000000E+00 -0.50000499739E+01  0.50000500000E+01  0.51100000000E-03 0. -1.
         50    1    1    2    0    0 -0.29888839967E-02 -0.12861495205E-01 -0.18045803212E-01  0.50000500000E+01  0.50000000000E+01 0.  0.
         50    1    1    2    0    0  0.29888839967E-02  0.12861495205E-01  0.18045803212E-01  0.50000500000E+01  0.50000000000E+01 0.  0.
</event>
<event>
 4    1  0.4973396E-021  0.5000050E+01  0.7818608E-02  0.2136455E+00
        -11   -1    0    0    0    0  0.00000000000E+00  0.00000000000E+00  0.50000499739E+01  0.50000500000E+01  0.51100000000E-03 0.  1.
         11   -1    0    0    0    0 -0.00000000000E+00 -0.00000000000E+00 -0.50000499739E+01  0.50000500000E+01  0.51100000000E-03 0. -1.
         50    1    1    2    0    0 -0.10911892816E-01  0.19121751559E-01  0.39104619277E-02  0.50000500000E+01  0.50000000000E+01 0. -1.
         50    1    1    2    0    0  0.10911892816E-01 -0.19121751559E-01 -0.39104619277E-02  0.50000500000E+01  0.50000000000E+01 0.  0.
</event>
<event>
 4    1  0.4973396E-021  0.5000050E+01  0.7818608E-02  0.2136455E+00
        -11   -1    0    0    0    0  0.00000000000E+00  0.00000000000E+00  0.50000499739E+01  0.50000500000E+01  0.51100000000E-03 0.  1.
         11   -1    0    0    0    0 -0.00000000000E+00 -0.00000000000E+00 -0.50000499739E+01  0.50000500000E+01  0.51100000000E-03 0. -1.
         50    1    1    2    0    0  0.16001180820E-01  0.13529765806E-01  0.78044954748E-02  0.50000500000E+01  0.50000000000E+01 0.  1.
         50    1    1    2    0    0 -0.16001180820E-01 -0.13529765806E-01 -0.78044954748E-02  0.50000500000E+01  0.50000000000E+01 0. -1.
</event>
<event>
 4    1  0.4973396E-021  0.5000050E+01  0.7818608E-02  0.2136455E+00
        -11   -1    0    0    0    0  0.00000000000E+00  0.00000000000E+00  0.50000499739E+01  0.50000500000E+01  0.51100000000E-03 0. -1.
         11   -1    0    0    0    0 -0.00000000000E+00 -0.00000000000E+00 -0.50000499739E+01  0.50000500000E+01  0.51100000000E-03 0.  1.
         50    1    1    2    0    0  0.10030213776E-01 -0.18754625591E-01 -0.69037186038E-02  0.50000500000E+01  0.50000000000E+01 0. -1.
         50    1    1    2    0    0 -0.10030213776E-01  0.18754625591E-01  0.69037186038E-02  0.50000500000E+01  0.50000000000E+01 0.  1.
</event>
<event>
 4    1  0.4973396E-021  0.5000050E+01  0.7818608E-02  0.2136455E+00
        -11   -1    0    0    0    0  0.00000000000E+00  0.00000000000E+00  0.50000499739E+01  0.50000500000E+01  0.51100000000E-03 0. -1.
         11   -1    0    0    0    0 -0.00000000000E+00 -0.00000000000E+00 -0.50000499739E+01  0.50000500000E+01  0.51100000000E-03 0.  1.
         50    1    1    2    0    0  0.12341239872E-01  0.10964756068E-01 -0.15082122622E-01  0.50000500000E+01  0.50000000000E+01 0.  0.
         50    1    1    2    0    0 -0.12341239872E-01 -0.10964756068E-01  0.15082122622E-01  0.50000500000E+01  0.50000000000E+01 0. -1.
</event>
<event>
 4    1  0.4973396E-021  0.5000050E+01  0.7818608E-02  0.2136455E+00
        -11   -1    0    0    0    0  0.00000000000E+00  0.00000000000E+00  0.50000499739E+01  0.50000500000E+01  0.51100000000E-03 0.  1.
         11   -1    0    0    0    0 -0.00000000000E+00 -0.00000000000E+00 -0.50000499739E+01  0.50000500000E+01  0.51100000000E-03 0. -1.
         50    1    1    2    0    0 -0.64968098472E-02  0.22681873963E-02  0.21275556109E-01  0.50000500000E+01  0.50000000000E+01 0.  1.
         50    1    1    2    0    0  0.64968098472E-02 -0.22681873963E-02 -0.21275556109E-01  0.50000500000E+01  0.50000000000E+01 0.  0.
</event>
<event>
 4    1  0.4973396E-021  0.5000050E+01  0.7818608E-02  0.2136455E+00
        -11   -1    0    0    0    0  0.00000000000E+00  0.00000000000E+00  0.50000499739E+01  0.50000500000E+01  0.51100000000E-03 0.  1.
         11   -1    0    0    0    0 -0.00000000000E+00 -0.00000000000E+00 -0.50000499739E+01  0.50000500000E+01  0.51100000000E-03 0. -1.
         50    1    1    2    0    0 -0.22966605965E-02  0.20580248309E-01  0.84368969212E-02  0.50000500000E+01  0.50000000000E+01 0.  1.
         50    1    1    2    0    0  0.22966605965E-02 -0.20580248309E-01 -0.84368969212E-02  0.50000500000E+01  0.50000000000E+01 0. -1.
</event>
<event>
 4    1  0.4973396E-021  0.5000050E+01  0.7818608E-02  0.2136455E+00
        -11   -1    0    0    0    0  0.00000000000E+00  0.00000000000E+00  0.50000499739E+01  0.50000500000E+01  0.51100000000E-03 0. -1.
         11   -1    0    0    0    0 -0.00000000000E+00 -0.00000000000E+00 -0.50000499739E+01  0.50000500000E+01  0.51100000000E-03 0.  1.
         50    1    1    2    0    0 -0.18007836766E-01 -0.10963101756E-01  0.74518933749E-02  0.50000500000E+01  0.50000000000E+01 0.  0.
         50    1    1    2    0    0  0.18007836766E-01  0.10963101756E-01 -0.74518933749E-02  0.50000500000E+01  0.50000000000E+01 0.  1.
</event>
<event>
 4    1  0.4973396E-021  0.5000050E+01  0.7818608E-02  0.2136455E+00
        -11   -1    0    0    0    0  0.00000000000E+00  0.00000000000E+00  0.50000499739E+01  0.50000500000E+01  0.51100000000E-03 0.  1.
         11   -1    0    0    0    0 -0.00000000000E+00 -0.00000000000E+00 -0.50000499739E+01  0.50000500000E+01  0.51100000000E-03 0. -1.
         50    1    1    2    0    0 -0.17519356764E-01  0.74190426712E-02 -0.11748720969E-01  0.50000500000E+01  0.50000000000E+01 0.  1.
         50    1    1    2    0    0  0.17519356764E-01 -0.74190426712E-02  0.11748720969E-01  0.50000500000E+01  0.50000000000E+01 0. -1.
</event>
<event>
 4    1  0.4973396E-021  0.5000050E+01  0.7818608E-02  0.2136455E+00
        -11   -1    0    0    0    0  0.00000000000E+00  0.00000000000E+00  0.50000499739E+01  0.50000500000E+01  0.51100000000E-03 0.  1.
         11   -1    0    0    0    0 -0.00000000000E+00 -0.00000000000E+00 -0.50000499739E+01  0.50000500000E+01  0.51100000000E-03 0. -1.
         50    1    1    2    0    0  0.22079162588E-01 -0.28237992589E-02  0.21305485605E-02  0.50000500000E+01  0.50000000000E+01 0. -1.
         50    1    1    2    0    0 -0.22079162588E-01  0.28237992589E-02 -0.21305485605E-02  0.50000500000E+01  0.50000000000E+01 0.  1.
</event>
<event>
 4    1  0.4973396E-021  0.5000050E+01  0.7818608E-02  0.2136455E+00
        -11   -1    0    0    0    0  0.00000000000E+00  0.00000000000E+00  0.50000499739E+01  0.50000500000E+01  0.51100000000E-03 0. -1.
         11   -1    0    0    0    0 -0.00000000000E+00 -0.00000000000E+00 -0.50000499739E+01  0.50000500000E+01  0.51100000000E-03 0.  1.
         50    1    1    2    0    0  0.14235153006E-01 -0.15261097437E-01 -0.80288121102E-02  0.50000500000E+01  0.50000000000E+01 0.  1.
         50    1    1    2    0    0 -0.14235153006E-01  0.15261097437E-01  0.80288121102E-02  0.50000500000E+01  0.50000000000E+01 0. -1.
</event>
<event>
 4    1  0.4973396E-021  0.5000050E+01  0.7818608E-02  0.2136455E+00
        -11   -1    0    0    0    0  0.00000000000E+00  0.00000000000E+00  0.50000499739E+01  0.50000500000E+01  0.51100000000E-03 0.  1.
         11   -1    0    0    0    0 -0.00000000000E+00 -0.00000000000E+00 -0.50000499739E+01  0.50000500000E+01  0.51100000000E-03 0. -1.
         50    1    1    2    0    0 -0.19547228591E-01  0.86350562050E-02 -0.65836280853E-02  0.50000500000E+01  0.50000000000E+01 0.  1.
         50    1    1    2    0    0  0.19547228591E-01 -0.86350562050E-02  0.65836280853E-02  0.50000500000E+01  0.50000000000E+01 0. -1.
</event>
<event>
 4    1  0.4973396E-021  0.5000050E+01  0.7818608E-02  0.2136455E+00
        -11   -1    0    0    0    0  0.00000000000E+00  0.00000000000E+00  0.50000499739E+01  0.50000500000E+01  0.51100000000E-03 0. -1.
         11   -1    0    0    0    0 -0.00000000000E+00 -0.00000000000E+00 -0.50000499739E+01  0.50000500000E+01  0.51100000000E-03 0.  1.
         50    1    1    2    0    0  0.36761484953E-02  0.16021081909E-01  0.15159596521E-01  0.50000500000E+01  0.50000000000E+01 0. -1.
         50    1    1    2    0    0 -0.36761484953E-02 -0.16021081909E-01 -0.15159596521E-01  0.50000500000E+01  0.50000000000E+01 0.  1.
</event>
<event>
 4    1  0.4973396E-021  0.5000050E+01  0.7818608E-02  0.2136455E+00
        -11   -1    0    0    0    0  0.00000000000E+00  0.00000000000E+00  0.50000499739E+01  0.50000500000E+01  0.51100000000E-03 0.  1.
         11   -1    0    0    0    0 -0.00000000000E+00 -0.00000000000E+00 -0.50000499739E+01  0.50000500000E+01  0.51100000000E-03 0. -1.
         50    1    1    2    0    0  0.65885862638E-02  0.13951426644E-01  0.16184891895E-01  0.50000500000E+01  0.50000000000E+01 0.  0.
         50    1    1    2    0    0 -0.65885862638E-02 -0.13951426644E-01 -0.16184891895E-01  0.50000500000E+01  0.50000000000E+01 0.  0.
</event>
<event>
 4    1  0.4973396E-021  0.5000050E+01  0.7818608E-02  0.2136455E+00
        -11   -1    0    0    0    0  0.00000000000E+00  0.00000000000E+00  0.50000499739E+01  0.50000500000E+01  0.51100000000E-03 0.  1.
         11   -1    0    0    0    0 -0.00000000000E+00 -0.00000000000E+00 -0.50000499739E+01  0.50000500000E+01  0.51100000000E-03 0. -1.
         50    1    1    2    0    0 -0.12103782853E-01  0.92674857891E-02  0.16358931744E-01  0.50000500000E+01  0.50000000000E+01 0.  0.
         50    1    1    2    0    0  0.12103782853E-01 -0.92674857891E-02 -0.16358931744E-01  0.50000500000E+01  0.50000000000E+01 0.  0.
</event>
<event>
 4    1  0.4973396E-021  0.5000050E+01  0.7818608E-02  0.2136455E+00
        -11   -1    0    0    0    0  0.00000000000E+00  0.00000000000E+00  0.50000499739E+01  0.50000500000E+01  0.51100000000E-03 0. -1.
         11   -1    0    0    0    0 -0.00000000000E+00 -0.00000000000E+00 -0.50000499739E+01  0.50000500000E+01  0.51100000000E-03 0.  1.
         50    1    1    2    0    0 -0.14598415138E-01 -0.13129531024E-01 -0.10700663089E-01  0.50000500000E+01  0.50000000000E+01 0. -1.
         50    1    1    2    0    0  0.14598415138E-01  0.13129531024E-01  0.10700663089E-01  0.50000500000E+01  0.50000000000E+01 0.  1.
</event>
<event>
 4    1  0.4973396E-021  0.5000050E+01  0.7818608E-02  0.2136455E+00
        -11   -1    0    0    0    0  0.00000000000E+00  0.00000000000E+00  0.50000499739E+01  0.50000500000E+01  0.51100000000E-03 0. -1.
         11   -1    0    0    0    0 -0.00000000000E+00 -0.00000000000E+00 -0.50000499739E+01  0.50000500000E+01  0.51100000000E-03 0.  1.
         50    1    1    2    0    0 -0.30906344948E-02  0.12658272476E-01 -0.18171918345E-01  0.50000500000E+01  0.50000000000E+01 0.  0.
         50    1    1    2    0    0  0.30906344948E-02 -0.12658272476E-01  0.18171918345E-01  0.50000500000E+01  0.50000000000E+01 0. -1.
</event>
<event>
 4    1  0.4973396E-021  0.5000050E+01  0.7818608E-02  0.2136455E+00
        -11   -1    0    0    0    0  0.00000000000E+00  0.00000000000E+00  0.50000499739E+01  0.50000500000E+01  0.51100000000E-03 0.  1.
         11   -1    0    0    0    0 -0.00000000000E+00 -0.00000000000E+00 -0.50000499739E+01  0.50000500000E+01  0.51100000000E-03 0. -1.
         50    1    1    2    0    0  0.62015911664E-02 -0.21041496275E-01 -0.43356892760E-02  0.50000500000E+01  0.50000000000E+01 0.  1.
         50    1    1    2    0    0 -0.62015911664E-02  0.21041496275E-01  0.43356892760E-02  0.50000500000E+01  0.50000000000E+01 0.  1.
</event>
<event>
 4    1  0.4973396E-021  0.5000050E+01  0.7818608E-02  0.2136455E+00
        -11   -1    0    0    0    0  0.00000000000E+00  0.00000000000E+00  0.50000499739E+01  0.50000500000E+01  0.51100000000E-03 0.  1.
         11   -1    0    0    0    0 -0.00000000000E+00 -0.00000000000E+00 -0.50000499739E+01  0.50000500000E+01  0.51100000000E-03 0. -1.
         50    1    1    2    0    0 -0.10823197905E-01  0.14045698382E-01 -0.13622747302E-01  0.50000500000E+01  0.50000000000E+01 0. -1.
         50    1    1    2    0    0  0.10823197905E-01 -0.14045698382E-01  0.13622747302E-01  0.50000500000E+01  0.50000000000E+01 0.  1.
</event>
<event>
 4    1  0.4973396E-021  0.5000050E+01  0.7818608E-02  0.2136455E+00
        -11   -1    0    0    0    0  0.00000000000E+00  0.00000000000E+00  0.50000499739E+01  0.50000500000E+01  0.51100000000E-03 0. -1.
         11   -1    0    0    0    0 -0.00000000000E+00 -0.00000000000E+00 -0.50000499739E+01  0.50000500000E+01  0.51100000000E-03 0.  1.
         50    1    1    2    0    0 -0.33622651631E-02  0.22059043372E-01 -0.14478530541E-02  0.50000500000E+01  0.50000000000E+01 0. -1.
         50    1    1    2    0    0  0.33622651631E-02 -0.22059043372E-01  0.14478530541E-02  0.50000500000E+01  0.50000000000E+01 0.  1.
</event>
<event>
 4    1  0.4973396E-021  0.5000050E+01  0.7818608E-02  0.2136455E+00
        -11   -1    0    0    0    0  0.00000000000E+00  0.00000000000E+00  0.50000499739E+01  0.50000500000E+01  0.51100000000E-03 0. -1.
         11   -1    0    0    0    0 -0.00000000000E+00 -0.00000000000E+00 -0.50000499739E+01  0.50000500000E+01  0.51100000000E-03 0.  1.
         50    1    1    2    0    0 -0.15877865378E-01 -0.10545258890E-01  0.11691595527E-01  0.50000500000E+01  0.50000000000E+01 0. -1.
         50    1    1    2    0    0  0.15877865378E-01  0.10545258890E-01 -0.11691595527E-01  0.50000500000E+01  0.50000000000E+01 0.  1.
</event>
<event>
 4    1  0.4973396E-021  0.5000050E+01  0.7818608E-02  0.2136455E+00
        -11   -1    0    0    0    0  0.00000000000E+00  0.00000000000E+00  0.50000499739E+01  0.50000500000E+01  0.51100000000E-03 0.  1.
         11   -1    0    0    0    0 -0.00000000000E+00 -0.00000000000E+00 -0.50000499739E+01  0.50000500000E+01  0.51100000000E-03 0. -1.
         50    1    1    2    0    0  0.19103502193E-01  0.55423512866E-02  0.10214746506E-01  0.50000500000E+01  0.50000000000E+01 0. -1.
         50    1    1    2    0    0 -0.19103502193E-01 -0.55423512866E-02 -0.10214746506E-01  0.50000500000E+01  0.50000000000E+01 0.  1.
</event>
<event>
 4    1  0.4973396E-021  0.5000050E+01  0.7818608E-02  0.2136455E+00
        -11   -1    0    0    0    0  0.00000000000E+00  0.00000000000E+00  0.50000499739E+01  0.50000500000E+01  0.51100000000E-03 0. -1.
         11   -1    0    0    0    0 -0.00000000000E+00 -0.00000000000E+00 -0.50000499739E+01  0.50000500000E+01  0.51100000000E-03 0.  1.
         50    1    1    2    0    0  0.13173900981E-01 -0.53201235653E-02 -0.17266937139E-01  0.50000500000E+01  0.50000000000E+01 0.  1.
         50    1    1    2    0    0 -0.13173900981E-01  0.53201235653E-02  0.17266937139E-01  0.50000500000E+01  0.50000000000E+01 0. -1.
</event>
<event>
 4    1  0.4973396E-021  0.5000050E+01  0.7818608E-02  0.2136455E+00
        -11   -1    0    0    0    0  0.00000000000E+00  0.00000000000E+00  0.50000499739E+01  0.50000500000E+01  0.51100000000E-03 0. -1.
         11   -1    0    0    0    0 -0.00000000000E+00 -0.00000000000E+00 -0.50000499739E+01  0.50000500000E+01  0.51100000000E-03 0.  1.
         50    1    1    2    0    0  0.10719041015E-01  0.19587925842E-01  0.11907228606E-02  0.50000500000E+01  0.50000000000E+01 0. -1.
         50    1    1    2    0    0 -0.10719041015E-01 -0.19587925842E-01 -0.11907228606E-02  0.50000500000E+01  0.50000000000E+01 0.  1.
</event>
<event>
 4    1  0.4973396E-021  0.5000050E+01  0.7818608E-02  0.2136455E+00
        -11   -1    0    0    0    0  0.00000000000E+00  0.00000000000E+00  0.50000499739E+01  0.50000500000E+01  0.51100000000E-03 0. -1.
         11   -1    0    0    0    0 -0.00000000000E+00 -0.00000000000E+00 -0.50000499739E+01  0.50000500000E+01  0.51100000000E-03 0.  1.
         50    1    1    2    0    0 -0.44888765087E-02  0.21800224272E-01  0.21453925904E-02  0.50000500000E+01  0.50000000000E+01 0. -1.
         50    1    1    2    0    0  0.44888765087E-02 -0.21800224272E-01 -0.21453925904E-02  0.50000500000E+01  0.50000000000E+01 0.  0.
</event>
<event>
 4    1  0.4973396E-021  0.5000050E+01  0.7818608E-02  0.2136455E+00
        -11   -1    0    0    0    0  0.00000000000E+00  0.00000000000E+00  0.50000499739E+01  0.50000500000E+01  0.51100000000E-03 0. -1.
         11   -1    0    0    0    0 -0.00000000000E+00 -0.00000000000E+00 -0.50000499739E+01  0.50000500000E+01  0.51100000000E-03 0.  1.
         50    1    1    2    0    0  0.17843781389E-01  0.78571333957E-02 -0.10948398081E-01  0.50000500000E+01  0.50000000000E+01 0.  0.
         50    1    1    2    0    0 -0.17843781389E-01 -0.78571333957E-02  0.10948398081E-01  0.50000500000E+01  0.50000000000E+01 0.  0.
</event>
<event>
 4    1  0.4973396E-021  0.5000050E+01  0.7818608E-02  0.2136455E+00
        -11   -1    0    0    0    0  0.00000000000E+00  0.00000000000E+00  0.50000499739E+01  0.50000500000E+01  0.51100000000E-03 0.  1.
         11   -1    0    0    0    0 -0.00000000000E+00 -0.00000000000E+00 -0.50000499739E+01  0.50000500000E+01  0.51100000000E-03 0. -1.
         50    1    1    2    0    0 -0.11786379746E-01  0.13392230513E-01  0.13480797987E-01  0.50000500000E+01  0.50000000000E+01 0.  0.
         50    1    1    2    0    0  0.11786379746E-01 -0.13392230513E-01 -0.13480797987E-01  0.50000500000E+01  0.50000000000E+01 0.  0.
</event>
<event>
 4    1  0.4973396E-021  0.5000050E+01  0.7818608E-02  0.2136455E+00
        -11   -1    0    0    0    0  0.00000000000E+00  0.00000000000E+00  0.50000499739E+01  0.50000500000E+01  0.51100000000E-03 0. -1.
         11   -1    0    0    0    0 -0.00000000000E+00 -0.00000000000E+00 -0.50000499739E+01  0.50000500000E+01  0.51100000000E-03 0.  1.
         50    1    1    2    0    0 -0.20153910532E-01  0.59534797159E-02 -0.76405804440E-02  0.50000500000E+01  0.50000000000E+01 0.  1.
         50    1    1    2    0    0  0.20153910532E-01 -0.59534797159E-02  0.76405804440E-02  0.50000500000E+01  0.50000000000E+01 0.  0.
</event>
<event>
 4    1  0.4973396E-021  0.5000050E+01  0.7818608E-02  0.2136455E+00
        -11   -1    0    0    0    0  0.00000000000E+00  0.00000000000E+00  0.50000499739E+01  0.50000500000E+01  0.51100000000E-03 0. -1.
         11   -1    0    0    0    0 -0.00000000000E+00 -0.00000000000E+00 -0.50000499739E+01  0.50000500000E+01  0.51100000000E-03 0.  1.
         50    1    1    2    0    0  0.15417078239E-01  0.12439711880E-01 -0.10371584590E-01  0.50000500000E+01  0.50000000000E+01 0.  0.
         50    1    1    2    0    0 -0.15417078239E-01 -0.12439711880E-01  0.10371584590E-01  0.50000500000E+01  0.50000000000E+01 0.  0.
</event>
<event>
 4    1  0.4973396E-021  0.5000050E+01  0.7818608E-02  0.2136455E+00
        -11   -1    0    0    0    0  0.00000000000E+00  0.00000000000E+00  0.50000499739E+01  0.50000500000E+01  0.51100000000E-03 0. -1.
         11   -1    0    0    0    0 -0.00000000000E+00 -0.00000000000E+00 -0.50000499739E+01  0.50000500000E+01  0.51100000000E-03 0.  1.
         50    1    1    2    0    0  0.18970505795E-01  0.11061337243E-01  0.42153562455E-02  0.50000500000E+01  0.50000000000E+01 0.  1.
         50    1    1    2    0    0 -0.18970505795E-01 -0.11061337243E-01 -0.42153562455E-02  0.50000500000E+01  0.50000000000E+01 0.  0.
</event>
<event>
 4    1  0.4973396E-021  0.5000050E+01  0.7818608E-02  0.2136455E+00
        -11   -1    0    0    0    0  0.00000000000E+00  0.00000000000E+00  0.50000499739E+01  0.50000500000E+01  0.51100000000E-03 0. -1.
         11   -1    0    0    0    0 -0.00000000000E+00 -0.00000000000E+00 -0.50000499739E+01  0.50000500000E+01  0.51100000000E-03 0.  1.
         50    1    1    2    0    0 -0.56057315108E-02  0.20580133258E-01 -0.67109156825E-02  0.50000500000E+01  0.50000000000E+01 0. -1.
         50    1    1    2    0    0  0.56057315108E-02 -0.20580133258E-01  0.67109156825E-02  0.50000500000E+01  0.50000000000E+01 0. -1.
</event>
<event>
 4    1  0.4973396E-021  0.5000050E+01  0.7818608E-02  0.2136455E+00
        -11   -1    0    0    0    0  0.00000000000E+00  0.00000000000E+00  0.50000499739E+01  0.50000500000E+01  0.51100000000E-03 0. -1.
         11   -1    0    0    0    0 -0.00000000000E+00 -0.00000000000E+00 -0.50000499739E+01  0.50000500000E+01  0.51100000000E-03 0.  1.
         50    1    1    2    0    0 -0.10219235368E-01  0.19867045559E-01  0.93286078087E-03  0.50000500000E+01  0.50000000000E+01 0.  0.
         50    1    1    2    0    0  0.10219235368E-01 -0.19867045559E-01 -0.93286078087E-03  0.50000500000E+01  0.50000000000E+01 0.  1.
</event>
<event>
 4    1  0.4973396E-021  0.5000050E+01  0.7818608E-02  0.2136455E+00
        -11   -1    0    0    0    0  0.00000000000E+00  0.00000000000E+00  0.50000499739E+01  0.50000500000E+01  0.51100000000E-03 0.  1.
         11   -1    0    0    0    0 -0.00000000000E+00 -0.00000000000E+00 -0.50000499739E+01  0.50000500000E+01  0.51100000000E-03 0. -1.
         50    1    1    2    0    0  0.79002271788E-02  0.20165597292E-01 -0.55621575284E-02  0.50000500000E+01  0.50000000000E+01 0. -1.
         50    1    1    2    0    0 -0.79002271788E-02 -0.20165597292E-01  0.55621575284E-02  0.50000500000E+01  0.50000000000E+01 0.  1.
</event>
<event>
 4    1  0.4973396E-021  0.5000050E+01  0.7818608E-02  0.2136455E+00
        -11   -1    0    0    0    0  0.00000000000E+00  0.00000000000E+00  0.50000499739E+01  0.50000500000E+01  0.51100000000E-03 0. -1.
         11   -1    0    0    0    0 -0.00000000000E+00 -0.00000000000E+00 -0.50000499739E+01  0.50000500000E+01  0.51100000000E-03 0.  1.
         50    1    1    2    0    0  0.66164526948E-02  0.12601515131E-01  0.17246068252E-01  0.50000500000E+01  0.50000000000E+01 0. -1.
         50    1    1    2    0    0 -0.66164526948E-02 -0.12601515131E-01 -0.17246068252E-01  0.50000500000E+01  0.50000000000E+01 0.  1.
</event>
<event>
 4    1  0.4973396E-021  0.5000050E+01  0.7818608E-02  0.2136455E+00
        -11   -1    0    0    0    0  0.00000000000E+00  0.00000000000E+00  0.50000499739E+01  0.50000500000E+01  0.51100000000E-03 0. -1.
         11   -1    0    0    0    0 -0.00000000000E+00 -0.00000000000E+00 -0.50000499739E+01  0.50000500000E+01  0.51100000000E-03 0.  1.
         50    1    1    2    0    0  0.17352326585E-02 -0.43252790001E-02 -0.21869692023E-01  0.50000500000E+01  0.50000000000E+01 0.  1.
         50    1    1    2    0    0 -0.17352326585E-02  0.43252790001E-02  0.21869692023E-01  0.50000500000E+01  0.50000000000E+01 0.  0.
</event>
<event>
 4    1  0.4973396E-021  0.5000050E+01  0.7818608E-02  0.2136455E+00
        -11   -1    0    0    0    0  0.00000000000E+00  0.00000000000E+00  0.50000499739E+01  0.50000500000E+01  0.51100000000E-03 0. -1.
         11   -1    0    0    0    0 -0.00000000000E+00 -0.00000000000E+00 -0.50000499739E+01  0.50000500000E+01  0.51100000000E-03 0.  1.
         50    1    1    2    0    0  0.77101105906E-02  0.19503825473E-01 -0.77561257468E-02  0.50000500000E+01  0.50000000000E+01 0.  1.
         50    1    1    2    0    0 -0.77101105906E-02 -0.19503825473E-01  0.77561257468E-02  0.50000500000E+01  0.50000000000E+01 0. -1.
</event>
<event>
 4    1  0.4973396E-021  0.5000050E+01  0.7818608E-02  0.2136455E+00
        -11   -1    0    0    0    0  0.00000000000E+00  0.00000000000E+00  0.50000499739E+01  0.50000500000E+01  0.51100000000E-03 0. -1.
         11   -1    0    0    0    0 -0.00000000000E+00 -0.00000000000E+00 -0.50000499739E+01  0.50000500000E+01  0.51100000000E-03 0.  1.
         50    1    1    2    0    0  0.16879102635E-01 -0.11528998664E-01 -0.90653507389E-02  0.50000500000E+01  0.50000000000E+01 0.  0.
         50    1    1    2    0    0 -0.16879102635E-01  0.11528998664E-01  0.90653507389E-02  0.50000500000E+01  0.50000000000E+01 0.  0.
</event>
<event>
 4    1  0.4973396E-021  0.5000050E+01  0.7818608E-02  0.2136455E+00
        -11   -1    0    0    0    0  0.00000000000E+00  0.00000000000E+00  0.50000499739E+01  0.50000500000E+01  0.51100000000E-03 0.  1.
         11   -1    0    0    0    0 -0.00000000000E+00 -0.00000000000E+00 -0.50000499739E+01  0.50000500000E+01  0.51100000000E-03 0. -1.
         50    1    1    2    0    0 -0.19834677941E-02 -0.22270105510E-01  0.33280033280E-03  0.50000500000E+01  0.50000000000E+01 0.  0.
         50    1    1    2    0    0  0.19834677941E-02  0.22270105510E-01 -0.33280033280E-03  0.50000500000E+01  0.50000000000E+01 0. -1.
</event>
<event>
 4    1  0.4973396E-021  0.5000050E+01  0.7818608E-02  0.2136455E+00
        -11   -1    0    0    0    0  0.00000000000E+00  0.00000000000E+00  0.50000499739E+01  0.50000500000E+01  0.51100000000E-03 0. -1.
         11   -1    0    0    0    0 -0.00000000000E+00 -0.00000000000E+00 -0.50000499739E+01  0.50000500000E+01  0.51100000000E-03 0.  1.
         50    1    1    2    0    0 -0.33232088575E-02 -0.17615665473E-01 -0.13365893642E-01  0.50000500000E+01  0.50000000000E+01 0.  1.
         50    1    1    2    0    0  0.33232088575E-02  0.17615665473E-01  0.13365893642E-01  0.50000500000E+01  0.50000000000E+01 0. -1.
</event>
<event>
 4    1  0.4973396E-021  0.5000050E+01  0.7818608E-02  0.2136455E+00
        -11   -1    0    0    0    0  0.00000000000E+00  0.00000000000E+00  0.50000499739E+01  0.50000500000E+01  0.51100000000E-03 0.  1.
         11   -1    0    0    0    0 -0.00000000000E+00 -0.00000000000E+00 -0.50000499739E+01  0.50000500000E+01  0.51100000000E-03 0. -1.
         50    1    1    2    0    0  0.88916550817E-02 -0.29660327673E-02 -0.20301320635E-01  0.50000500000E+01  0.50000000000E+01 0.  0.
         50    1    1    2    0    0 -0.88916550817E-02  0.29660327673E-02  0.20301320635E-01  0.50000500000E+01  0.50000000000E+01 0.  1.
</event>
<event>
 4    1  0.4973396E-021  0.5000050E+01  0.7818608E-02  0.2136455E+00
        -11   -1    0    0    0    0  0.00000000000E+00  0.00000000000E+00  0.50000499739E+01  0.50000500000E+01  0.51100000000E-03 0.  1.
         11   -1    0    0    0    0 -0.00000000000E+00 -0.00000000000E+00 -0.50000499739E+01  0.50000500000E+01  0.51100000000E-03 0. -1.
         50    1    1    2    0    0  0.14518483908E-01 -0.84743814356E-02  0.14744523875E-01  0.50000500000E+01  0.50000000000E+01 0.  0.
         50    1    1    2    0    0 -0.14518483908E-01  0.84743814356E-02 -0.14744523875E-01  0.50000500000E+01  0.50000000000E+01 0.  0.
</event>
<event>
 4    1  0.4973396E-021  0.5000050E+01  0.7818608E-02  0.2136455E+00
        -11   -1    0    0    0    0  0.00000000000E+00  0.00000000000E+00  0.50000499739E+01  0.50000500000E+01  0.51100000000E-03 0. -1.
         11   -1    0    0    0    0 -0.00000000000E+00 -0.00000000000E+00 -0.50000499739E+01  0.50000500000E+01  0.51100000000E-03 0.  1.
         50    1    1    2    0    0 -0.17305865773E-01  0.13825755619E-01 -0.30590834233E-02  0.50000500000E+01  0.50000000000E+01 0. -1.
         50    1    1    2    0    0  0.17305865773E-01 -0.13825755619E-01  0.30590834233E-02  0.50000500000E+01  0.50000000000E+01 0.  1.
</event>
<event>
 4    1  0.4973396E-021  0.5000050E+01  0.7818608E-02  0.2136455E+00
        -11   -1    0    0    0    0  0.00000000000E+00  0.00000000000E+00  0.50000499739E+01  0.50000500000E+01  0.51100000000E-03 0. -1.
         11   -1    0    0    0    0 -0.00000000000E+00 -0.00000000000E+00 -0.50000499739E+01  0.50000500000E+01  0.51100000000E-03 0.  1.
         50    1    1    2    0    0 -0.45101397906E-02  0.12990739146E-01 -0.17632408670E-01  0.50000500000E+01  0.50000000000E+01 0.  1.
         50    1    1    2    0    0  0.45101397906E-02 -0.12990739146E-01  0.17632408670E-01  0.50000500000E+01  0.50000000000E+01 0. -1.
</event>
<event>
 4    1  0.4973396E-021  0.5000050E+01  0.7818608E-02  0.2136455E+00
        -11   -1    0    0    0    0  0.00000000000E+00  0.00000000000E+00  0.50000499739E+01  0.50000500000E+01  0.51100000000E-03 0.  1.
         11   -1    0    0    0    0 -0.00000000000E+00 -0.00000000000E+00 -0.50000499739E+01  0.50000500000E+01  0.51100000000E-03 0. -1.
         50    1    1    2    0    0  0.19107951002E-01  0.54855607272E-02  0.10237056805E-01  0.50000500000E+01  0.50000000000E+01 0.  0.
         50    1    1    2    0    0 -0.19107951002E-01 -0.54855607272E-02 -0.10237056805E-01  0.50000500000E+01  0.50000000000E+01 0.  1.
</event>
<event>
 4    1  0.4973396E-021  0.5000050E+01  0.7818608E-02  0.2136455E+00
        -11   -1    0    0    0    0  0.00000000000E+00  0.00000000000E+00  0.50000499739E+01  0.50000500000E+01  0.51100000000E-03 0.  1.
         11   -1    0    0    0    0 -0.00000000000E+00 -0.00000000000E+00 -0.50000499739E+01  0.50000500000E+01  0.51100000000E-03 0. -1.
         50    1    1    2    0    0 -0.14208178118E-01  0.15163513268E-01  0.82582104569E-02  0.50000500000E+01  0.50000000000E+01 0.  0.
         50    1    1    2    0    0  0.14208178118E-01 -0.15163513268E-01 -0.82582104569E-02  0.50000500000E+01  0.50000000000E+01 0.  0.
</event>
<event>
 4    1  0.4973396E-021  0.5000050E+01  0.7818608E-02  0.2136455E+00
        -11   -1    0    0    0    0  0.00000000000E+00  0.00000000000E+00  0.50000499739E+01  0.50000500000E+01  0.51100000000E-03 0. -1.
         11   -1    0    0    0    0 -0.00000000000E+00 -0.00000000000E+00 -0.50000499739E+01  0.50000500000E+01  0.51100000000E-03 0.  1.
         50    1    1    2    0    0  0.13508618262E-01  0.61811746213E-05  0.17819082312E-01  0.50000500000E+01  0.50000000000E+01 0. -1.
         50    1    1    2    0    0 -0.13508618262E-01 -0.61811746213E-05 -0.17819082312E-01  0.50000500000E+01  0.50000000000E+01 0.  0.
</event>
<event>
 4    1  0.4973396E-021  0.5000050E+01  0.7818608E-02  0.2136455E+00
        -11   -1    0    0    0    0  0.00000000000E+00  0.00000000000E+00  0.50000499739E+01  0.50000500000E+01  0.51100000000E-03 0.  1.
         11   -1    0    0    0    0 -0.00000000000E+00 -0.00000000000E+00 -0.50000499739E+01  0.50000500000E+01  0.51100000000E-03 0. -1.
         50    1    1    2    0    0  0.18113642270E-01 -0.39690257569E-03 -0.13104996454E-01  0.50000500000E+01  0.50000000000E+01 0. -1.
         50    1    1    2    0    0 -0.18113642270E-01  0.39690257569E-03  0.13104996454E-01  0.50000500000E+01  0.50000000000E+01 0.  1.
</event>
<event>
 4    1  0.4973396E-021  0.5000050E+01  0.7818608E-02  0.2136455E+00
        -11   -1    0    0    0    0  0.00000000000E+00  0.00000000000E+00  0.50000499739E+01  0.50000500000E+01  0.51100000000E-03 0. -1.
         11   -1    0    0    0    0 -0.00000000000E+00 -0.00000000000E+00 -0.50000499739E+01  0.50000500000E+01  0.51100000000E-03 0.  1.
         50    1    1    2    0    0  0.18328447175E-01 -0.10752662541E-01  0.69606589085E-02  0.50000500000E+01  0.50000000000E+01 0.  0.
         50    1    1    2    0    0 -0.18328447175E-01  0.10752662541E-01 -0.69606589085E-02  0.50000500000E+01  0.50000000000E+01 0.  0.
</event>
<event>
 4    1  0.4973396E-021  0.5000050E+01  0.7818608E-02  0.2136455E+00
        -11   -1    0    0    0    0  0.00000000000E+00  0.00000000000E+00  0.50000499739E+01  0.50000500000E+01  0.51100000000E-03 0. -1.
         11   -1    0    0    0    0 -0.00000000000E+00 -0.00000000000E+00 -0.50000499739E+01  0.50000500000E+01  0.51100000000E-03 0.  1.
         50    1    1    2    0    0 -0.11998262100E-01 -0.75399545486E-02 -0.17297204745E-01  0.50000500000E+01  0.50000000000E+01 0. -1.
         50    1    1    2    0    0  0.11998262100E-01  0.75399545486E-02  0.17297204745E-01  0.50000500000E+01  0.50000000000E+01 0. -1.
</event>
<event>
 4    1  0.4973396E-021  0.5000050E+01  0.7818608E-02  0.2136455E+00
        -11   -1    0    0    0    0  0.00000000000E+00  0.00000000000E+00  0.50000499739E+01  0.50000500000E+01  0.51100000000E-03 0.  1.
         11   -1    0    0    0    0 -0.00000000000E+00 -0.00000000000E+00 -0.50000499739E+01  0.50000500000E+01  0.51100000000E-03 0. -1.
         50    1    1    2    0    0 -0.37806760669E-02  0.17626644376E-01 -0.13229149500E-01  0.50000500000E+01  0.50000000000E+01 0. -1.
         50    1    1    2    0    0  0.37806760669E-02 -0.17626644376E-01  0.13229149500E-01  0.50000500000E+01  0.50000000000E+01 0.  1.
</event>
<event>
 4    1  0.4973396E-021  0.5000050E+01  0.7818608E-02  0.2136455E+00
        -11   -1    0    0    0    0  0.00000000000E+00  0.00000000000E+00  0.50000499739E+01  0.50000500000E+01  0.51100000000E-03 0.  1.
         11   -1    0    0    0    0 -0.00000000000E+00 -0.00000000000E+00 -0.50000499739E+01  0.50000500000E+01  0.51100000000E-03 0. -1.
         50    1    1    2    0    0 -0.21173474095E-02  0.81665170363E-02 -0.20708146693E-01  0.50000500000E+01  0.50000000000E+01 0. -1.
         50    1    1    2    0    0  0.21173474095E-02 -0.81665170363E-02  0.20708146693E-01  0.50000500000E+01  0.50000000000E+01 0.  0.
</event>
<event>
 4    1  0.4973396E-021  0.5000050E+01  0.7818608E-02  0.2136455E+00
        -11   -1    0    0    0    0  0.00000000000E+00  0.00000000000E+00  0.50000499739E+01  0.50000500000E+01  0.51100000000E-03 0. -1.
         11   -1    0    0    0    0 -0.00000000000E+00 -0.00000000000E+00 -0.50000499739E+01  0.50000500000E+01  0.51100000000E-03 0.  1.
         50    1    1    2    0    0  0.10358694454E-01 -0.12062232348E-01 -0.15722674709E-01  0.50000500000E+01  0.50000000000E+01 0.  1.
         50    1    1    2    0    0 -0.10358694454E-01  0.12062232348E-01  0.15722674709E-01  0.50000500000E+01  0.50000000000E+01 0. -1.
</event>
<event>
 4    1  0.4973396E-021  0.5000050E+01  0.7818608E-02  0.2136455E+00
        -11   -1    0    0    0    0  0.00000000000E+00  0.00000000000E+00  0.50000499739E+01  0.50000500000E+01  0.51100000000E-03 0.  1.
         11   -1    0    0    0    0 -0.00000000000E+00 -0.00000000000E+00 -0.50000499739E+01  0.50000500000E+01  0.51100000000E-03 0. -1.
         50    1    1    2    0    0  0.13777378266E-01 -0.12489512933E-01  0.12417665434E-01  0.50000500000E+01  0.50000000000E+01 0.  1.
         50    1    1    2    0    0 -0.13777378266E-01  0.12489512933E-01 -0.12417665434E-01  0.50000500000E+01  0.50000000000E+01 0. -1.
</event>
<event>
 4    1  0.4973396E-021  0.5000050E+01  0.7818608E-02  0.2136455E+00
        -11   -1    0    0    0    0  0.00000000000E+00  0.00000000000E+00  0.50000499739E+01  0.50000500000E+01  0.51100000000E-03 0. -1.
         11   -1    0    0    0    0 -0.00000000000E+00 -0.00000000000E+00 -0.50000499739E+01  0.50000500000E+01  0.51100000000E-03 0.  1.
         50    1    1    2    0    0  0.12270076982E-01  0.16065626773E-02  0.18624356827E-01  0.50000500000E+01  0.50000000000E+01 0.  0.
         50    1    1    2    0    0 -0.12270076982E-01 -0.16065626773E-02 -0.18624356827E-01  0.50000500000E+01  0.50000000000E+01 0.  1.
</event>
<event>
 4    1  0.4973396E-021  0.5000050E+01  0.7818608E-02  0.2136455E+00
        -11   -1    0    0    0    0  0.00000000000E+00  0.00000000000E+00  0.50000499739E+01  0.50000500000E+01  0.51100000000E-03 0.  1.
         11   -1    0    0    0    0 -0.00000000000E+00 -0.00000000000E+00 -0.50000499739E+01  0.50000500000E+01  0.51100000000E-03 0. -1.
         50    1    1    2    0    0 -0.47114736590E-02 -0.92624058378E-02  0.19799301858E-01  0.50000500000E+01  0.50000000000E+01 0.  1.
         50    1    1    2    0    0  0.47114736590E-02  0.92624058378E-02 -0.19799301858E-01  0.50000500000E+01  0.50000000000E+01 0.  1.
</event>
<event>
 4    1  0.4973396E-021  0.5000050E+01  0.7818608E-02  0.2136455E+00
        -11   -1    0    0    0    0  0.00000000000E+00  0.00000000000E+00  0.50000499739E+01  0.50000500000E+01  0.51100000000E-03 0. -1.
         11   -1    0    0    0    0 -0.00000000000E+00 -0.00000000000E+00 -0.50000499739E+01  0.50000500000E+01  0.51100000000E-03 0.  1.
         50    1    1    2    0    0 -0.12756937144E-01  0.22776625493E-03 -0.18363310629E-01  0.50000500000E+01  0.50000000000E+01 0.  0.
         50    1    1    2    0    0  0.12756937144E-01 -0.22776625493E-03  0.18363310629E-01  0.50000500000E+01  0.50000000000E+01 0.  1.
</event>
<event>
 4    1  0.4973396E-021  0.5000050E+01  0.7818608E-02  0.2136455E+00
        -11   -1    0    0    0    0  0.00000000000E+00  0.00000000000E+00  0.50000499739E+01  0.50000500000E+01  0.51100000000E-03 0. -1.
         11   -1    0    0    0    0 -0.00000000000E+00 -0.00000000000E+00 -0.50000499739E+01  0.50000500000E+01  0.51100000000E-03 0.  1.
         50    1    1    2    0    0 -0.20302401259E-01  0.22685250585E-02  0.90922382940E-02  0.50000500000E+01  0.50000000000E+01 0. -1.
         50    1    1    2    0    0  0.20302401259E-01 -0.22685250585E-02 -0.90922382940E-02  0.50000500000E+01  0.50000000000E+01 0.  1.
</event>
<event>
 4    1  0.4973396E-021  0.5000050E+01  0.7818608E-02  0.2136455E+00
        -11   -1    0    0    0    0  0.00000000000E+00  0.00000000000E+00  0.50000499739E+01  0.50000500000E+01  0.51100000000E-03 0.  1.
         11   -1    0    0    0    0 -0.00000000000E+00 -0.00000000000E+00 -0.50000499739E+01  0.50000500000E+01  0.51100000000E-03 0. -1.
         50    1    1    2    0    0  0.11494925214E-01 -0.19459195407E-02 -0.19080948390E-01  0.50000500000E+01  0.50000000000E+01 0.  0.
         50    1    1    2    0    0 -0.11494925214E-01  0.19459195407E-02  0.19080948390E-01  0.50000500000E+01  0.50000000000E+01 0.  1.
</event>
<event>
 4    1  0.4973396E-021  0.5000050E+01  0.7818608E-02  0.2136455E+00
        -11   -1    0    0    0    0  0.00000000000E+00  0.00000000000E+00  0.50000499739E+01  0.50000500000E+01  0.51100000000E-03 0. -1.
         11   -1    0    0    0    0 -0.00000000000E+00 -0.00000000000E+00 -0.50000499739E+01  0.50000500000E+01  0.51100000000E-03 0.  1.
         50    1    1    2    0    0  0.63130600013E-02  0.21330567516E-01  0.22703882586E-02  0.50000500000E+01  0.50000000000E+01 0.  1.
         50    1    1    2    0    0 -0.63130600013E-02 -0.21330567516E-01 -0.22703882586E-02  0.50000500000E+01  0.50000000000E+01 0.  0.
</event>
<event>
 4    1  0.4973396E-021  0.5000050E+01  0.7818608E-02  0.2136455E+00
        -11   -1    0    0    0    0  0.00000000000E+00  0.00000000000E+00  0.50000499739E+01  0.50000500000E+01  0.51100000000E-03 0. -1.
         11   -1    0    0    0    0 -0.00000000000E+00 -0.00000000000E+00 -0.50000499739E+01  0.50000500000E+01  0.51100000000E-03 0.  1.
         50    1    1    2    0    0  0.93293863856E-02 -0.12734104455E-02  0.20281604362E-01  0.50000500000E+01  0.50000000000E+01 0.  0.
         50    1    1    2    0    0 -0.93293863856E-02  0.12734104455E-02 -0.20281604362E-01  0.50000500000E+01  0.50000000000E+01 0.  1.
</event>
<event>
 4    1  0.4973396E-021  0.5000050E+01  0.7818608E-02  0.2136455E+00
        -11   -1    0    0    0    0  0.00000000000E+00  0.00000000000E+00  0.50000499739E+01  0.50000500000E+01  0.51100000000E-03 0.  1.
         11   -1    0    0    0    0 -0.00000000000E+00 -0.00000000000E+00 -0.50000499739E+01  0.50000500000E+01  0.51100000000E-03 0. -1.
         50    1    1    2    0    0  0.14566850626E-01  0.16670542449E-01  0.31468043008E-02  0.50000500000E+01  0.50000000000E+01 0.  1.
         50    1    1    2    0    0 -0.14566850626E-01 -0.16670542449E-01 -0.31468043008E-02  0.50000500000E+01  0.50000000000E+01 0. -1.
</event>
<event>
 4    1  0.4973396E-021  0.5000050E+01  0.7818608E-02  0.2136455E+00
        -11   -1    0    0    0    0  0.00000000000E+00  0.00000000000E+00  0.50000499739E+01  0.50000500000E+01  0.51100000000E-03 0.  1.
         11   -1    0    0    0    0 -0.00000000000E+00 -0.00000000000E+00 -0.50000499739E+01  0.50000500000E+01  0.51100000000E-03 0. -1.
         50    1    1    2    0    0 -0.21693941645E-01 -0.49490939437E-02  0.22094942951E-02  0.50000500000E+01  0.50000000000E+01 0.  1.
         50    1    1    2    0    0  0.21693941645E-01  0.49490939437E-02 -0.22094942951E-02  0.50000500000E+01  0.50000000000E+01 0. -1.
</event>
<event>
 4    1  0.4973396E-021  0.5000050E+01  0.7818608E-02  0.2136455E+00
        -11   -1    0    0    0    0  0.00000000000E+00  0.00000000000E+00  0.50000499739E+01  0.50000500000E+01  0.51100000000E-03 0. -1.
         11   -1    0    0    0    0 -0.00000000000E+00 -0.00000000000E+00 -0.50000499739E+01  0.50000500000E+01  0.51100000000E-03 0.  1.
         50    1    1    2    0    0  0.85331135952E-02 -0.16710082680E-01  0.12163947106E-01  0.50000500000E+01  0.50000000000E+01 0. -1.
         50    1    1    2    0    0 -0.85331135952E-02  0.16710082680E-01 -0.12163947106E-01  0.50000500000E+01  0.50000000000E+01 0.  1.
</event>
<event>
 4    1  0.4973396E-021  0.5000050E+01  0.7818608E-02  0.2136455E+00
        -11   -1    0    0    0    0  0.00000000000E+00  0.00000000000E+00  0.50000499739E+01  0.50000500000E+01  0.51100000000E-03 0.  1.
         11   -1    0    0    0    0 -0.00000000000E+00 -0.00000000000E+00 -0.50000499739E+01  0.50000500000E+01  0.51100000000E-03 0. -1.
         50    1    1    2    0    0  0.15940278567E-01 -0.55787221876E-02 -0.14655643211E-01  0.50000500000E+01  0.50000000000E+01 0. -1.
         50    1    1    2    0    0 -0.15940278567E-01  0.55787221876E-02  0.14655643211E-01  0.50000500000E+01  0.50000000000E+01 0.  1.
</event>
<event>
 4    1  0.4973396E-021  0.5000050E+01  0.7818608E-02  0.2136455E+00
        -11   -1    0    0    0    0  0.00000000000E+00  0.00000000000E+00  0.50000499739E+01  0.50000500000E+01  0.51100000000E-03 0.  1.
         11   -1    0    0    0    0 -0.00000000000E+00 -0.00000000000E+00 -0.50000499739E+01  0.50000500000E+01  0.51100000000E-03 0. -1.
         50    1    1    2    0    0  0.22041814492E-01  0.28657661300E-02 -0.24389133659E-02  0.50000500000E+01  0.50000000000E+01 0. -1.
         50    1    1    2    0    0 -0.22041814492E-01 -0.28657661300E-02  0.24389133659E-02  0.50000500000E+01  0.50000000000E+01 0.  1.
</event>
<event>
 4    1  0.4973396E-021  0.5000050E+01  0.7818608E-02  0.2136455E+00
        -11   -1    0    0    0    0  0.00000000000E+00  0.00000000000E+00  0.50000499739E+01  0.50000500000E+01  0.51100000000E-03 0. -1.
         11   -1    0    0    0    0 -0.00000000000E+00 -0.00000000000E+00 -0.50000499739E+01  0.50000500000E+01  0.51100000000E-03 0.  1.
         50    1    1    2    0    0 -0.10636343946E-01  0.15118801484E-01  0.12581435894E-01  0.50000500000E+01  0.50000000000E+01 0.  0.
         50    1    1    2    0    0  0.10636343946E-01 -0.15118801484E-01 -0.12581435894E-01  0.50000500000E+01  0.50000000000E+01 0.  0.
</event>
<event>
 4    1  0.4973396E-021  0.5000050E+01  0.7818608E-02  0.2136455E+00
        -11   -1    0    0    0    0  0.00000000000E+00  0.00000000000E+00  0.50000499739E+01  0.50000500000E+01  0.51100000000E-03 0. -1.
         11   -1    0    0    0    0 -0.00000000000E+00 -0.00000000000E+00 -0.50000499739E+01  0.50000500000E+01  0.51100000000E-03 0.  1.
         50    1    1    2    0    0 -0.64571499244E-02  0.12655165413E-01 -0.17267150987E-01  0.50000500000E+01  0.50000000000E+01 0.  1.
         50    1    1    2    0    0  0.64571499244E-02 -0.12655165413E-01  0.17267150987E-01  0.50000500000E+01  0.50000000000E+01 0. -1.
</event>
<event>
 4    1  0.4973396E-021  0.5000050E+01  0.7818608E-02  0.2136455E+00
        -11   -1    0    0    0    0  0.00000000000E+00  0.00000000000E+00  0.50000499739E+01  0.50000500000E+01  0.51100000000E-03 0. -1.
         11   -1    0    0    0    0 -0.00000000000E+00 -0.00000000000E+00 -0.50000499739E+01  0.50000500000E+01  0.51100000000E-03 0.  1.
         50    1    1    2    0    0  0.95819667161E-02  0.19614463393E-01 -0.48436803836E-02  0.50000500000E+01  0.50000000000E+01 0.  0.
         50    1    1    2    0    0 -0.95819667161E-02 -0.19614463393E-01  0.48436803836E-02  0.50000500000E+01  0.50000000000E+01 0.  1.
</event>
<event>
 4    1  0.4973396E-021  0.5000050E+01  0.7818608E-02  0.2136455E+00
        -11   -1    0    0    0    0  0.00000000000E+00  0.00000000000E+00  0.50000499739E+01  0.50000500000E+01  0.51100000000E-03 0.  1.
         11   -1    0    0    0    0 -0.00000000000E+00 -0.00000000000E+00 -0.50000499739E+01  0.50000500000E+01  0.51100000000E-03 0. -1.
         50    1    1    2    0    0 -0.18467259120E-01  0.24082316439E-02 -0.12375914550E-01  0.50000500000E+01  0.50000000000E+01 0.  0.
         50    1    1    2    0    0  0.18467259120E-01 -0.24082316439E-02  0.12375914550E-01  0.50000500000E+01  0.50000000000E+01 0.  0.
</event>
<event>
 4    1  0.4973396E-021  0.5000050E+01  0.7818608E-02  0.2136455E+00
        -11   -1    0    0    0    0  0.00000000000E+00  0.00000000000E+00  0.50000499739E+01  0.50000500000E+01  0.51100000000E-03 0.  1.
         11   -1    0    0    0    0 -0.00000000000E+00 -0.00000000000E+00 -0.50000499739E+01  0.50000500000E+01  0.51100000000E-03 0. -1.
         50    1    1    2    0    0  0.15956678536E-01  0.81228537244E-02 -0.13394258377E-01  0.50000500000E+01  0.50000000000E+01 0. -1.
         50    1    1    2    0    0 -0.15956678536E-01 -0.81228537244E-02  0.13394258377E-01  0.50000500000E+01  0.50000000000E+01 0.  1.
</event>
<event>
 4    1  0.4973396E-021  0.5000050E+01  0.7818608E-02  0.2136455E+00
        -11   -1    0    0    0    0  0.00000000000E+00  0.00000000000E+00  0.50000499739E+01  0.50000500000E+01  0.51100000000E-03 0.  1.
         11   -1    0    0    0    0 -0.00000000000E+00 -0.00000000000E+00 -0.50000499739E+01  0.50000500000E+01  0.51100000000E-03 0. -1.
         50    1    1    2    0    0 -0.73118182524E-03  0.13121203780E-01 -0.18091486520E-01  0.50000500000E+01  0.50000000000E+01 0. -1.
         50    1    1    2    0    0  0.73118182524E-03 -0.13121203780E-01  0.18091486520E-01  0.50000500000E+01  0.50000000000E+01 0.  0.
</event>
<event>
 4    1  0.4973396E-021  0.5000050E+01  0.7818608E-02  0.2136455E+00
        -11   -1    0    0    0    0  0.00000000000E+00  0.00000000000E+00  0.50000499739E+01  0.50000500000E+01  0.51100000000E-03 0.  1.
         11   -1    0    0    0    0 -0.00000000000E+00 -0.00000000000E+00 -0.50000499739E+01  0.50000500000E+01  0.51100000000E-03 0. -1.
         50    1    1    2    0    0 -0.19274655856E-01  0.87357691511E-02  0.72233288005E-02  0.50000500000E+01  0.50000000000E+01 0. -1.
         50    1    1    2    0    0  0.19274655856E-01 -0.87357691511E-02 -0.72233288005E-02  0.50000500000E+01  0.50000000000E+01 0.  1.
</event>
<event>
 4    1  0.4973396E-021  0.5000050E+01  0.7818608E-02  0.2136455E+00
        -11   -1    0    0    0    0  0.00000000000E+00  0.00000000000E+00  0.50000499739E+01  0.50000500000E+01  0.51100000000E-03 0.  1.
         11   -1    0    0    0    0 -0.00000000000E+00 -0.00000000000E+00 -0.50000499739E+01  0.50000500000E+01  0.51100000000E-03 0. -1.
         50    1    1    2    0    0 -0.21381659399E-01  0.57428625396E-02 -0.31379405965E-02  0.50000500000E+01  0.50000000000E+01 0. -1.
         50    1    1    2    0    0  0.21381659399E-01 -0.57428625396E-02  0.31379405965E-02  0.50000500000E+01  0.50000000000E+01 0.  1.
</event>
<event>
 4    1  0.4973396E-021  0.5000050E+01  0.7818608E-02  0.2136455E+00
        -11   -1    0    0    0    0  0.00000000000E+00  0.00000000000E+00  0.50000499739E+01  0.50000500000E+01  0.51100000000E-03 0. -1.
         11   -1    0    0    0    0 -0.00000000000E+00 -0.00000000000E+00 -0.50000499739E+01  0.50000500000E+01  0.51100000000E-03 0.  1.
         50    1    1    2    0    0 -0.20765973828E-01 -0.53692388143E-02  0.63204513716E-02  0.50000500000E+01  0.50000000000E+01 0.  0.
         50    1    1    2    0    0  0.20765973828E-01  0.53692388143E-02 -0.63204513716E-02  0.50000500000E+01  0.50000000000E+01 0. -1.
</event>
<event>
 4    1  0.4973396E-021  0.5000050E+01  0.7818608E-02  0.2136455E+00
        -11   -1    0    0    0    0  0.00000000000E+00  0.00000000000E+00  0.50000499739E+01  0.50000500000E+01  0.51100000000E-03 0.  1.
         11   -1    0    0    0    0 -0.00000000000E+00 -0.00000000000E+00 -0.50000499739E+01  0.50000500000E+01  0.51100000000E-03 0. -1.
         50    1    1    2    0    0  0.16380069781E-01  0.48391506097E-02 -0.14431854882E-01  0.50000500000E+01  0.50000000000E+01 0.  0.
         50    1    1    2    0    0 -0.16380069781E-01 -0.48391506097E-02  0.14431854882E-01  0.50000500000E+01  0.50000000000E+01 0.  0.
</event>
<event>
 4    1  0.4973396E-021  0.5000050E+01  0.7818608E-02  0.2136455E+00
        -11   -1    0    0    0    0  0.00000000000E+00  0.00000000000E+00  0.50000499739E+01  0.50000500000E+01  0.51100000000E-03 0.  1.
         11   -1    0    0    0    0 -0.00000000000E+00 -0.00000000000E+00 -0.50000499739E+01  0.50000500000E+01  0.51100000000E-03 0. -1.
         50    1    1    2    0    0  0.58619231065E-02 -0.64990765976E-02 -0.20576743204E-01  0.50000500000E+01  0.50000000000E+01 0.  0.
         50    1    1    2    0    0 -0.58619231065E-02  0.64990765976E-02  0.20576743204E-01  0.50000500000E+01  0.50000000000E+01 0.  1.
</event>
<event>
 4    1  0.4973396E-021  0.5000050E+01  0.7818608E-02  0.2136455E+00
        -11   -1    0    0    0    0  0.00000000000E+00  0.00000000000E+00  0.50000499739E+01  0.50000500000E+01  0.51100000000E-03 0. -1.
         11   -1    0    0    0    0 -0.00000000000E+00 -0.00000000000E+00 -0.50000499739E+01  0.50000500000E+01  0.51100000000E-03 0.  1.
         50    1    1    2    0    0  0.12596615218E-01 -0.13625630984E-01  0.12476777041E-01  0.50000500000E+01  0.50000000000E+01 0.  0.
         50    1    1    2    0    0 -0.12596615218E-01  0.13625630984E-01 -0.12476777041E-01  0.50000500000E+01  0.50000000000E+01 0.  0.
</event>
<event>
 4    1  0.4973396E-021  0.5000050E+01  0.7818608E-02  0.2136455E+00
        -11   -1    0    0    0    0  0.00000000000E+00  0.00000000000E+00  0.50000499739E+01  0.50000500000E+01  0.51100000000E-03 0. -1.
         11   -1    0    0    0    0 -0.00000000000E+00 -0.00000000000E+00 -0.50000499739E+01  0.50000500000E+01  0.51100000000E-03 0.  1.
         50    1    1    2    0    0 -0.17406184877E-01 -0.99256687424E-02 -0.99251361720E-02  0.50000500000E+01  0.50000000000E+01 0.  1.
         50    1    1    2    0    0  0.17406184877E-01  0.99256687424E-02  0.99251361720E-02  0.50000500000E+01  0.50000000000E+01 0. -1.
</event>
<event>
 4    1  0.4973396E-021  0.5000050E+01  0.7818608E-02  0.2136455E+00
        -11   -1    0    0    0    0  0.00000000000E+00  0.00000000000E+00  0.50000499739E+01  0.50000500000E+01  0.51100000000E-03 0.  1.
         11   -1    0    0    0    0 -0.00000000000E+00 -0.00000000000E+00 -0.50000499739E+01  0.50000500000E+01  0.51100000000E-03 0. -1.
         50    1    1    2    0    0 -0.15359456482E-01 -0.12856112340E-01 -0.99403205212E-02  0.50000500000E+01  0.50000000000E+01 0.  1.
         50    1    1    2    0    0  0.15359456482E-01  0.12856112340E-01  0.99403205212E-02  0.50000500000E+01  0.50000000000E+01 0.  0.
</event>
<event>
 4    1  0.4973396E-021  0.5000050E+01  0.7818608E-02  0.2136455E+00
        -11   -1    0    0    0    0  0.00000000000E+00  0.00000000000E+00  0.50000499739E+01  0.50000500000E+01  0.51100000000E-03 0.  1.
         11   -1    0    0    0    0 -0.00000000000E+00 -0.00000000000E+00 -0.50000499739E+01  0.50000500000E+01  0.51100000000E-03 0. -1.
         50    1    1    2    0    0  0.76284787001E-02  0.20982895954E-01  0.12356739545E-02  0.50000500000E+01  0.50000000000E+01 0. -1.
         50    1    1    2    0    0 -0.76284787001E-02 -0.20982895954E-01 -0.12356739545E-02  0.50000500000E+01  0.50000000000E+01 0.  1.
</event>
<event>
 4    1  0.4973396E-021  0.5000050E+01  0.7818608E-02  0.2136455E+00
        -11   -1    0    0    0    0  0.00000000000E+00  0.00000000000E+00  0.50000499739E+01  0.50000500000E+01  0.51100000000E-03 0. -1.
         11   -1    0    0    0    0 -0.00000000000E+00 -0.00000000000E+00 -0.50000499739E+01  0.50000500000E+01  0.51100000000E-03 0.  1.
         50    1    1    2    0    0  0.13972066384E-01  0.15383425509E-01 -0.82543370756E-02  0.50000500000E+01  0.50000000000E+01 0.  1.
         50    1    1    2    0    0 -0.13972066384E-01 -0.15383425509E-01  0.82543370756E-02  0.50000500000E+01  0.50000000000E+01 0.  0.
</event>
<event>
 4    1  0.4973396E-021  0.5000050E+01  0.7818608E-02  0.2136455E+00
        -11   -1    0    0    0    0  0.00000000000E+00  0.00000000000E+00  0.50000499739E+01  0.50000500000E+01  0.51100000000E-03 0. -1.
         11   -1    0    0    0    0 -0.00000000000E+00 -0.00000000000E+00 -0.50000499739E+01  0.50000500000E+01  0.51100000000E-03 0.  1.
         50    1    1    2    0    0 -0.23025791247E-02  0.10385053904E-01  0.19668535400E-01  0.50000500000E+01  0.50000000000E+01 0.  0.
         50    1    1    2    0    0  0.23025791247E-02 -0.10385053904E-01 -0.19668535400E-01  0.50000500000E+01  0.50000000000E+01 0. -1.
</event>
<event>
 4    1  0.4973396E-021  0.5000050E+01  0.7818608E-02  0.2136455E+00
        -11   -1    0    0    0    0  0.00000000000E+00  0.00000000000E+00  0.50000499739E+01  0.50000500000E+01  0.51100000000E-03 0.  1.
         11   -1    0    0    0    0 -0.00000000000E+00 -0.00000000000E+00 -0.50000499739E+01  0.50000500000E+01  0.51100000000E-03 0. -1.
         50    1    1    2    0    0 -0.91423469480E-02 -0.95035577450E-02  0.18058305083E-01  0.50000500000E+01  0.50000000000E+01 0. -1.
         50    1    1    2    0    0  0.91423469480E-02  0.95035577450E-02 -0.18058305083E-01  0.50000500000E+01  0.50000000000E+01 0.  0.
</event>
<event>
 4    1  0.4973396E-021  0.5000050E+01  0.7818608E-02  0.2136455E+00
        -11   -1    0    0    0    0  0.00000000000E+00  0.00000000000E+00  0.50000499739E+01  0.50000500000E+01  0.51100000000E-03 0. -1.
         11   -1    0    0    0    0 -0.00000000000E+00 -0.00000000000E+00 -0.50000499739E+01  0.50000500000E+01  0.51100000000E-03 0.  1.
         50    1    1    2    0    0  0.14512594245E-01  0.12812855720E-01 -0.11190077594E-01  0.50000500000E+01  0.50000000000E+01 0.  0.
         50    1    1    2    0    0 -0.14512594245E-01 -0.12812855720E-01  0.11190077594E-01  0.50000500000E+01  0.50000000000E+01 0.  0.
</event>
<event>
 4    1  0.4973396E-021  0.5000050E+01  0.7818608E-02  0.2136455E+00
        -11   -1    0    0    0    0  0.00000000000E+00  0.00000000000E+00  0.50000499739E+01  0.50000500000E+01  0.51100000000E-03 0.  1.
         11   -1    0    0    0    0 -0.00000000000E+00 -0.00000000000E+00 -0.50000499739E+01  0.50000500000E+01  0.51100000000E-03 0. -1.
         50    1    1    2    0    0  0.50994407403E-02  0.12993110447E-01 -0.17469324116E-01  0.50000500000E+01  0.50000000000E+01 0.  0.
         50    1    1    2    0    0 -0.50994407403E-02 -0.12993110447E-01  0.17469324116E-01  0.50000500000E+01  0.50000000000E+01 0.  0.
</event>
<event>
 4    1  0.4973396E-021  0.5000050E+01  0.7818608E-02  0.2136455E+00
        -11   -1    0    0    0    0  0.00000000000E+00  0.00000000000E+00  0.50000499739E+01  0.50000500000E+01  0.51100000000E-03 0.  1.
         11   -1    0    0    0    0 -0.00000000000E+00 -0.00000000000E+00 -0.50000499739E+01  0.50000500000E+01  0.51100000000E-03 0. -1.
         50    1    1    2    0    0 -0.91534842942E-02 -0.16508004886E-01  0.11987576902E-01  0.50000500000E+01  0.50000000000E+01 0. -1.
         50    1    1    2    0    0  0.91534842942E-02  0.16508004886E-01 -0.11987576902E-01  0.50000500000E+01  0.50000000000E+01 0.  0.
</event>
<event>
 4    1  0.4973396E-021  0.5000050E+01  0.7818608E-02  0.2136455E+00
        -11   -1    0    0    0    0  0.00000000000E+00  0.00000000000E+00  0.50000499739E+01  0.50000500000E+01  0.51100000000E-03 0.  1.
         11   -1    0    0    0    0 -0.00000000000E+00 -0.00000000000E+00 -0.50000499739E+01  0.50000500000E+01  0.51100000000E-03 0. -1.
         50    1    1    2    0    0 -0.19551912292E-01  0.44918222806E-02  0.98766774938E-02  0.50000500000E+01  0.50000000000E+01 0.  1.
         50    1    1    2    0    0  0.19551912292E-01 -0.44918222806E-02 -0.98766774938E-02  0.50000500000E+01  0.50000000000E+01 0.  1.
</event>
<event>
 4    1  0.4973396E-021  0.5000050E+01  0.7818608E-02  0.2136455E+00
        -11   -1    0    0    0    0  0.00000000000E+00  0.00000000000E+00  0.50000499739E+01  0.50000500000E+01  0.51100000000E-03 0. -1.
         11   -1    0    0    0    0 -0.00000000000E+00 -0.00000000000E+00 -0.50000499739E+01  0.50000500000E+01  0.51100000000E-03 0.  1.
         50    1    1    2    0    0 -0.21465356915E-01 -0.36952078560E-03 -0.62533516541E-02  0.50000500000E+01  0.50000000000E+01 0.  0.
         50    1    1    2    0    0  0.21465356915E-01  0.36952078560E-03  0.62533516541E-02  0.50000500000E+01  0.50000000000E+01 0.  1.
</event>
<event>
 4    1  0.4973396E-021  0.5000050E+01  0.7818608E-02  0.2136455E+00
        -11   -1    0    0    0    0  0.00000000000E+00  0.00000000000E+00  0.50000499739E+01  0.50000500000E+01  0.51100000000E-03 0. -1.
         11   -1    0    0    0    0 -0.00000000000E+00 -0.00000000000E+00 -0.50000499739E+01  0.50000500000E+01  0.51100000000E-03 0.  1.
         50    1    1    2    0    0  0.15759933532E-01 -0.59835428020E-02 -0.14690956763E-01  0.50000500000E+01  0.50000000000E+01 0. -1.
         50    1    1    2    0    0 -0.15759933532E-01  0.59835428020E-02  0.14690956763E-01  0.50000500000E+01  0.50000000000E+01 0. -1.
</event>
<event>
 4    1  0.4973396E-021  0.5000050E+01  0.7818608E-02  0.2136455E+00
        -11   -1    0    0    0    0  0.00000000000E+00  0.00000000000E+00  0.50000499739E+01  0.50000500000E+01  0.51100000000E-03 0. -1.
         11   -1    0    0    0    0 -0.00000000000E+00 -0.00000000000E+00 -0.50000499739E+01  0.50000500000E+01  0.51100000000E-03 0.  1.
         50    1    1    2    0    0  0.12838382226E-01 -0.49310886318E-02  0.17631301901E-01  0.50000500000E+01  0.50000000000E+01 0. -1.
         50    1    1    2    0    0 -0.12838382226E-01  0.49310886318E-02 -0.17631301901E-01  0.50000500000E+01  0.50000000000E+01 0.  1.
</event>
<event>
 4    1  0.4973396E-021  0.5000050E+01  0.7818608E-02  0.2136455E+00
        -11   -1    0    0    0    0  0.00000000000E+00  0.00000000000E+00  0.50000499739E+01  0.50000500000E+01  0.51100000000E-03 0. -1.
         11   -1    0    0    0    0 -0.00000000000E+00 -0.00000000000E+00 -0.50000499739E+01  0.50000500000E+01  0.51100000000E-03 0.  1.
         50    1    1    2    0    0  0.73935557988E-02 -0.50623029644E-02  0.20486847521E-01  0.50000500000E+01  0.50000000000E+01 0.  0.
         50    1    1    2    0    0 -0.73935557988E-02  0.50623029644E-02 -0.20486847521E-01  0.50000500000E+01  0.50000000000E+01 0.  0.
</event>
<event>
 4    1  0.4973396E-021  0.5000050E+01  0.7818608E-02  0.2136455E+00
        -11   -1    0    0    0    0  0.00000000000E+00  0.00000000000E+00  0.50000499739E+01  0.50000500000E+01  0.51100000000E-03 0. -1.
         11   -1    0    0    0    0 -0.00000000000E+00 -0.00000000000E+00 -0.50000499739E+01  0.50000500000E+01  0.51100000000E-03 0.  1.
         50    1    1    2    0    0  0.17375782996E-01  0.52226629613E-02  0.13069370944E-01  0.50000500000E+01  0.50000000000E+01 0.  0.
         50    1    1    2    0    0 -0.17375782996E-01 -0.52226629613E-02 -0.13069370944E-01  0.50000500000E+01  0.50000000000E+01 0.  0.
</event>
<event>
 4    1  0.4973396E-021  0.5000050E+01  0.7818608E-02  0.2136455E+00
        -11   -1    0    0    0    0  0.00000000000E+00  0.00000000000E+00  0.50000499739E+01  0.50000500000E+01  0.51100000000E-03 0.  1.
         11   -1    0    0    0    0 -0.00000000000E+00 -0.00000000000E+00 -0.50000499739E+01  0.50000500000E+01  0.51100000000E-03 0. -1.
         50    1    1    2    0    0  0.15545197164E-01 -0.16068186765E-01  0.40338469590E-03  0.50000500000E+01  0.50000000000E+01 0.  1.
         50    1    1    2    0    0 -0.15545197164E-01  0.16068186765E-01 -0.40338469590E-03  0.50000500000E+01  0.50000000000E+01 0. -1.
</event>
<event>
 4    1  0.4973396E-021  0.5000050E+01  0.7818608E-02  0.2136455E+00
        -11   -1    0    0    0    0  0.00000000000E+00  0.00000000000E+00  0.50000499739E+01  0.50000500000E+01  0.51100000000E-03 0.  1.
         11   -1    0    0    0    0 -0.00000000000E+00 -0.00000000000E+00 -0.50000499739E+01  0.50000500000E+01  0.51100000000E-03 0. -1.
         50    1    1    2    0    0  0.88507563369E-02  0.41812675670E-02 -0.20104318287E-01  0.50000500000E+01  0.50000000000E+01 0. -1.
         50    1    1    2    0    0 -0.88507563369E-02 -0.41812675670E-02  0.20104318287E-01  0.50000500000E+01  0.50000000000E+01 0.  1.
</event>
<event>
 4    1  0.4973396E-021  0.5000050E+01  0.7818608E-02  0.2136455E+00
        -11   -1    0    0    0    0  0.00000000000E+00  0.00000000000E+00  0.50000499739E+01  0.50000500000E+01  0.51100000000E-03 0.  1.
         11   -1    0    0    0    0 -0.00000000000E+00 -0.00000000000E+00 -0.50000499739E+01  0.50000500000E+01  0.51100000000E-03 0. -1.
         50    1    1    2    0    0 -0.10938784530E-01 -0.19297052730E-01  0.28229858228E-02  0.50000500000E+01  0.50000000000E+01 0. -1.
         50    1    1    2    0    0  0.10938784530E-01  0.19297052730E-01 -0.28229858228E-02  0.50000500000E+01  0.50000000000E+01 0.  1.
</event>
<event>
 4    1  0.4973396E-021  0.5000050E+01  0.7818608E-02  0.2136455E+00
        -11   -1    0    0    0    0  0.00000000000E+00  0.00000000000E+00  0.50000499739E+01  0.50000500000E+01  0.51100000000E-03 0. -1.
         11   -1    0    0    0    0 -0.00000000000E+00 -0.00000000000E+00 -0.50000499739E+01  0.50000500000E+01  0.51100000000E-03 0.  1.
         50    1    1    2    0    0 -0.11571470224E-01  0.18742173894E-01 -0.38515574246E-02  0.50000500000E+01  0.50000000000E+01 0. -1.
         50    1    1    2    0    0  0.11571470224E-01 -0.18742173894E-01  0.38515574246E-02  0.50000500000E+01  0.50000000000E+01 0.  1.
</event>
<event>
 4    1  0.4973396E-021  0.5000050E+01  0.7818608E-02  0.2136455E+00
        -11   -1    0    0    0    0  0.00000000000E+00  0.00000000000E+00  0.50000499739E+01  0.50000500000E+01  0.51100000000E-03 0. -1.
         11   -1    0    0    0    0 -0.00000000000E+00 -0.00000000000E+00 -0.50000499739E+01  0.50000500000E+01  0.51100000000E-03 0.  1.
         50    1    1    2    0    0 -0.20249094611E-01  0.43327999338E-02 -0.84382173574E-02  0.50000500000E+01  0.50000000000E+01 0. -1.
         50    1    1    2    0    0  0.20249094611E-01 -0.43327999338E-02  0.84382173574E-02  0.50000500000E+01  0.50000000000E+01 0. -1.
</event>
<event>
 4    1  0.4973396E-021  0.5000050E+01  0.7818608E-02  0.2136455E+00
        -11   -1    0    0    0    0  0.00000000000E+00  0.00000000000E+00  0.50000499739E+01  0.50000500000E+01  0.51100000000E-03 0.  1.
         11   -1    0    0    0    0 -0.00000000000E+00 -0.00000000000E+00 -0.50000499739E+01  0.50000500000E+01  0.51100000000E-03 0. -1.
         50    1    1    2    0    0 -0.88056384345E-02  0.15957228500E-01 -0.12954925332E-01  0.50000500000E+01  0.50000000000E+01 0. -1.
         50    1    1    2    0    0  0.88056384345E-02 -0.15957228500E-01  0.12954925332E-01  0.50000500000E+01  0.50000000000E+01 0.  1.
</event>
<event>
 4    1  0.4973396E-021  0.5000050E+01  0.7818608E-02  0.2136455E+00
        -11   -1    0    0    0    0  0.00000000000E+00  0.00000000000E+00  0.50000499739E+01  0.50000500000E+01  0.51100000000E-03 0.  1.
         11   -1    0    0    0    0 -0.00000000000E+00 -0.00000000000E+00 -0.50000499739E+01  0.50000500000E+01  0.51100000000E-03 0. -1.
         50    1    1    2    0    0  0.13946750441E-01  0.16434950710E-01 -0.59483650936E-02  0.50000500000E+01  0.50000000000E+01 0.  1.
         50    1    1    2    0    0 -0.13946750441E-01 -0.16434950710E-01  0.59483650936E-02  0.50000500000E+01  0.50000000000E+01 0.  0.
</event>
<event>
 4    1  0.4973396E-021  0.5000050E+01  0.7818608E-02  0.2136455E+00
        -11   -1    0    0    0    0  0.00000000000E+00  0.00000000000E+00  0.50000499739E+01  0.50000500000E+01  0.51100000000E-03 0. -1.
         11   -1    0    0    0    0 -0.00000000000E+00 -0.00000000000E+00 -0.50000499739E+01  0.50000500000E+01  0.51100000000E-03 0.  1.
         50    1    1    2    0    0 -0.10977935357E-01  0.48104042996E-02 -0.18877167313E-01  0.50000500000E+01  0.50000000000E+01 0.  0.
         50    1    1    2    0    0  0.10977935357E-01 -0.48104042996E-02  0.18877167313E-01  0.50000500000E+01  0.50000000000E+01 0.  0.
</event>
<event>
 4    1  0.4973396E-021  0.5000050E+01  0.7818608E-02  0.2136455E+00
        -11   -1    0    0    0    0  0.00000000000E+00  0.00000000000E+00  0.50000499739E+01  0.50000500000E+01  0.51100000000E-03 0. -1.
         11   -1    0    0    0    0 -0.00000000000E+00 -0.00000000000E+00 -0.50000499739E+01  0.50000500000E+01  0.51100000000E-03 0.  1.
         50    1    1    2    0    0  0.13661354604E-02 -0.19295417580E-01 -0.11217086713E-01  0.50000500000E+01  0.50000000000E+01 0.  0.
         50    1    1    2    0    0 -0.13661354604E-02  0.19295417580E-01  0.11217086713E-01  0.50000500000E+01  0.50000000000E+01 0.  0.
</event>
<event>
 4    1  0.4973396E-021  0.5000050E+01  0.7818608E-02  0.2136455E+00
        -11   -1    0    0    0    0  0.00000000000E+00  0.00000000000E+00  0.50000499739E+01  0.50000500000E+01  0.51100000000E-03 0. -1.
         11   -1    0    0    0    0 -0.00000000000E+00 -0.00000000000E+00 -0.50000499739E+01  0.50000500000E+01  0.51100000000E-03 0.  1.
         50    1    1    2    0    0  0.11945280733E-01  0.10647670748E-01  0.15618574706E-01  0.50000500000E+01  0.50000000000E+01 0.  0.
         50    1    1    2    0    0 -0.11945280733E-01 -0.10647670748E-01 -0.15618574706E-01  0.50000500000E+01  0.50000000000E+01 0.  0.
</event>
<event>
 4    1  0.4973396E-021  0.5000050E+01  0.7818608E-02  0.2136455E+00
        -11   -1    0    0    0    0  0.00000000000E+00  0.00000000000E+00  0.50000499739E+01  0.50000500000E+01  0.51100000000E-03 0. -1.
         11   -1    0    0    0    0 -0.00000000000E+00 -0.00000000000E+00 -0.50000499739E+01  0.50000500000E+01  0.51100000000E-03 0.  1.
         50    1    1    2    0    0 -0.22246625812E-01 -0.21016154130E-02 -0.82058065953E-03  0.50000500000E+01  0.50000000000E+01 0. -1.
         50    1    1    2    0    0  0.22246625812E-01  0.21016154130E-02  0.82058065953E-03  0.50000500000E+01  0.50000000000E+01 0.  1.
</event>
<event>
 4    1  0.4973396E-021  0.5000050E+01  0.7818608E-02  0.2136455E+00
        -11   -1    0    0    0    0  0.00000000000E+00  0.00000000000E+00  0.50000499739E+01  0.50000500000E+01  0.51100000000E-03 0. -1.
         11   -1    0    0    0    0 -0.00000000000E+00 -0.00000000000E+00 -0.50000499739E+01  0.50000500000E+01  0.51100000000E-03 0.  1.
         50    1    1    2    0    0  0.70154430288E-02  0.10229969865E-01 -0.18604670802E-01  0.50000500000E+01  0.50000000000E+01 0.  0.
         50    1    1    2    0    0 -0.70154430288E-02 -0.10229969865E-01  0.18604670802E-01  0.50000500000E+01  0.50000000000E+01 0.  1.
</event>
<event>
 4    1  0.4973396E-021  0.5000050E+01  0.7818608E-02  0.2136455E+00
        -11   -1    0    0    0    0  0.00000000000E+00  0.00000000000E+00  0.50000499739E+01  0.50000500000E+01  0.51100000000E-03 0.  1.
         11   -1    0    0    0    0 -0.00000000000E+00 -0.00000000000E+00 -0.50000499739E+01  0.50000500000E+01  0.51100000000E-03 0. -1.
         50    1    1    2    0    0  0.12874242237E-01 -0.17685075505E-01 -0.46362151799E-02  0.50000500000E+01  0.50000000000E+01 0. -1.
         50    1    1    2    0    0 -0.12874242237E-01  0.17685075505E-01  0.46362151799E-02  0.50000500000E+01  0.50000000000E+01 0.  0.
</event>
<event>
 4    1  0.4973396E-021  0.5000050E+01  0.7818608E-02  0.2136455E+00
        -11   -1    0    0    0    0  0.00000000000E+00  0.00000000000E+00  0.50000499739E+01  0.50000500000E+01  0.51100000000E-03 0.  1.
         11   -1    0    0    0    0 -0.00000000000E+00 -0.00000000000E+00 -0.50000499739E+01  0.50000500000E+01  0.51100000000E-03 0. -1.
         50    1    1    2    0    0 -0.13039562929E-01  0.62686060934E-02 -0.17049248554E-01  0.50000500000E+01  0.50000000000E+01 0. -1.
         50    1    1    2    0    0  0.13039562929E-01 -0.62686060934E-02  0.17049248554E-01  0.50000500000E+01  0.50000000000E+01 0.  1.
</event>
<event>
 4    1  0.4973396E-021  0.5000050E+01  0.7818608E-02  0.2136455E+00
        -11   -1    0    0    0    0  0.00000000000E+00  0.00000000000E+00  0.50000499739E+01  0.50000500000E+01  0.51100000000E-03 0.  1.
         11   -1    0    0    0    0 -0.00000000000E+00 -0.00000000000E+00 -0.50000499739E+01  0.50000500000E+01  0.51100000000E-03 0. -1.
         50    1    1    2    0    0  0.46469195392E-03  0.16570150390E-01 -0.15007220843E-01  0.50000500000E+01  0.50000000000E+01 0.  0.
         50    1    1    2    0    0 -0.46469195392E-03 -0.16570150390E-01  0.15007220843E-01  0.50000500000E+01  0.50000000000E+01 0.  0.
</event>
<event>
 4    1  0.4973396E-021  0.5000050E+01  0.7818608E-02  0.2136455E+00
        -11   -1    0    0    0    0  0.00000000000E+00  0.00000000000E+00  0.50000499739E+01  0.50000500000E+01  0.51100000000E-03 0.  1.
         11   -1    0    0    0    0 -0.00000000000E+00 -0.00000000000E+00 -0.50000499739E+01  0.50000500000E+01  0.51100000000E-03 0. -1.
         50    1    1    2    0    0  0.17336683120E-02 -0.18834216305E-01  0.11927664916E-01  0.50000500000E+01  0.50000000000E+01 0.  1.
         50    1    1    2    0    0 -0.17336683120E-02  0.18834216305E-01 -0.11927664916E-01  0.50000500000E+01  0.50000000000E+01 0. -1.
</event>
<event>
 4    1  0.4973396E-021  0.5000050E+01  0.7818608E-02  0.2136455E+00
        -11   -1    0    0    0    0  0.00000000000E+00  0.00000000000E+00  0.50000499739E+01  0.50000500000E+01  0.51100000000E-03 0. -1.
         11   -1    0    0    0    0 -0.00000000000E+00 -0.00000000000E+00 -0.50000499739E+01  0.50000500000E+01  0.51100000000E-03 0.  1.
         50    1    1    2    0    0  0.13002534072E-01  0.17816510777E-01 -0.36753981319E-02  0.50000500000E+01  0.50000000000E+01 0.  1.
         50    1    1    2    0    0 -0.13002534072E-01 -0.17816510777E-01  0.36753981319E-02  0.50000500000E+01  0.50000000000E+01 0. -1.
</event>
<event>
 4    1  0.4973396E-021  0.5000050E+01  0.7818608E-02  0.2136455E+00
        -11   -1    0    0    0    0  0.00000000000E+00  0.00000000000E+00  0.50000499739E+01  0.50000500000E+01  0.51100000000E-03 0. -1.
         11   -1    0    0    0    0 -0.00000000000E+00 -0.00000000000E+00 -0.50000499739E+01  0.50000500000E+01  0.51100000000E-03 0.  1.
         50    1    1    2    0    0  0.12389217858E-02 -0.21532533237E-01 -0.59006427785E-02  0.50000500000E+01  0.50000000000E+01 0.  1.
         50    1    1    2    0    0 -0.12389217858E-02  0.21532533237E-01  0.59006427785E-02  0.50000500000E+01  0.50000000000E+01 0.  0.
</event>
<event>
 4    1  0.4973396E-021  0.5000050E+01  0.7818608E-02  0.2136455E+00
        -11   -1    0    0    0    0  0.00000000000E+00  0.00000000000E+00  0.50000499739E+01  0.50000500000E+01  0.51100000000E-03 0.  1.
         11   -1    0    0    0    0 -0.00000000000E+00 -0.00000000000E+00 -0.50000499739E+01  0.50000500000E+01  0.51100000000E-03 0. -1.
         50    1    1    2    0    0 -0.26135622364E-03  0.18447651486E-01  0.12634015497E-01  0.50000500000E+01  0.50000000000E+01 0.  1.
         50    1    1    2    0    0  0.26135622364E-03 -0.18447651486E-01 -0.12634015497E-01  0.50000500000E+01  0.50000000000E+01 0. -1.
</event>
<event>
 4    1  0.4973396E-021  0.5000050E+01  0.7818608E-02  0.2136455E+00
        -11   -1    0    0    0    0  0.00000000000E+00  0.00000000000E+00  0.50000499739E+01  0.50000500000E+01  0.51100000000E-03 0.  1.
         11   -1    0    0    0    0 -0.00000000000E+00 -0.00000000000E+00 -0.50000499739E+01  0.50000500000E+01  0.51100000000E-03 0. -1.
         50    1    1    2    0    0 -0.46031555382E-02 -0.81260390070E-02 -0.20317011324E-01  0.50000500000E+01  0.50000000000E+01 0.  0.
         50    1    1    2    0    0  0.46031555382E-02  0.81260390070E-02  0.20317011324E-01  0.50000500000E+01  0.50000000000E+01 0.  1.
</event>
<event>
 4    1  0.4973396E-021  0.5000050E+01  0.7818608E-02  0.2136455E+00
        -11   -1    0    0    0    0  0.00000000000E+00  0.00000000000E+00  0.50000499739E+01  0.50000500000E+01  0.51100000000E-03 0.  1.
         11   -1    0    0    0    0 -0.00000000000E+00 -0.00000000000E+00 -0.50000499739E+01  0.50000500000E+01  0.51100000000E-03 0. -1.
         50    1    1    2    0    0 -0.13450926336E-01  0.14813192912E-01 -0.99822039879E-02  0.50000500000E+01  0.50000000000E+01 0.  0.
         50    1    1    2    0    0  0.13450926336E-01 -0.14813192912E-01  0.99822039879E-02  0.50000500000E+01  0.50000000000E+01 0. -1.
</event>
<event>
 4    1  0.4973396E-021  0.5000050E+01  0.7818608E-02  0.2136455E+00
        -11   -1    0    0    0    0  0.00000000000E+00  0.00000000000E+00  0.50000499739E+01  0.50000500000E+01  0.51100000000E-03 0.  1.
         11   -1    0    0    0    0 -0.00000000000E+00 -0.00000000000E+00 -0.50000499739E+01  0.50000500000E+01  0.51100000000E-03 0. -1.
         50    1    1    2    0    0 -0.21065491288E-01 -0.11731765881E-02 -0.74075119639E-02  0.50000500000E+01  0.50000000000E+01 0. -1.
         50    1    1    2    0    0  0.21065491288E-01  0.11731765881E-02  0.74075119639E-02  0.50000500000E+01  0.50000000000E+01 0.  1.
</event>
<event>
 4    1  0.4973396E-021  0.5000050E+01  0.7818608E-02  0.2136455E+00
        -11   -1    0    0    0    0  0.00000000000E+00  0.00000000000E+00  0.50000499739E+01  0.50000500000E+01  0.51100000000E-03 0.  1.
         11   -1    0    0    0    0 -0.00000000000E+00 -0.00000000000E+00 -0.50000499739E+01  0.50000500000E+01  0.51100000000E-03 0. -1.
         50    1    1    2    0    0 -0.93204922657E-02 -0.14706273920E-01  0.14030553492E-01  0.50000500000E+01  0.50000000000E+01 0.  0.
         50    1    1    2    0    0  0.93204922657E-02  0.14706273920E-01 -0.14030553492E-01  0.50000500000E+01  0.50000000000E+01 0.  0.
</event>
<event>
 4    1  0.4973396E-021  0.5000050E+01  0.7818608E-02  0.2136455E+00
        -11   -1    0    0    0    0  0.00000000000E+00  0.00000000000E+00  0.50000499739E+01  0.50000500000E+01  0.51100000000E-03 0.  1.
         11   -1    0    0    0    0 -0.00000000000E+00 -0.00000000000E+00 -0.50000499739E+01  0.50000500000E+01  0.51100000000E-03 0. -1.
         50    1    1    2    0    0 -0.19061935361E-01 -0.91821151705E-02 -0.72342160108E-02  0.50000500000E+01  0.50000000000E+01 0. -1.
         50    1    1    2    0    0  0.19061935361E-01  0.91821151705E-02  0.72342160108E-02  0.50000500000E+01  0.50000000000E+01 0.  1.
</event>
<event>
 4    1  0.4973396E-021  0.5000050E+01  0.7818608E-02  0.2136455E+00
        -11   -1    0    0    0    0  0.00000000000E+00  0.00000000000E+00  0.50000499739E+01  0.50000500000E+01  0.51100000000E-03 0. -1.
         11   -1    0    0    0    0 -0.00000000000E+00 -0.00000000000E+00 -0.50000499739E+01  0.50000500000E+01  0.51100000000E-03 0.  1.
         50    1    1    2    0    0  0.39439517780E-03 -0.13508218599E-01  0.17815021266E-01  0.50000500000E+01  0.50000000000E+01 0.  1.
         50    1    1    2    0    0 -0.39439517780E-03  0.13508218599E-01 -0.17815021266E-01  0.50000500000E+01  0.50000000000E+01 0.  1.
</event>
<event>
 4    1  0.4973396E-021  0.5000050E+01  0.7818608E-02  0.2136455E+00
        -11   -1    0    0    0    0  0.00000000000E+00  0.00000000000E+00  0.50000499739E+01  0.50000500000E+01  0.51100000000E-03 0.  1.
         11   -1    0    0    0    0 -0.00000000000E+00 -0.00000000000E+00 -0.50000499739E+01  0.50000500000E+01  0.51100000000E-03 0. -1.
         50    1    1    2    0    0 -0.16484949354E-01  0.66375664226E-02 -0.13571722690E-01  0.50000500000E+01  0.50000000000E+01 0. -1.
         50    1    1    2    0    0  0.16484949354E-01 -0.66375664226E-02  0.13571722690E-01  0.50000500000E+01  0.50000000000E+01 0.  1.
</event>
<event>
 4    1  0.4973396E-021  0.5000050E+01  0.7818608E-02  0.2136455E+00
        -11   -1    0    0    0    0  0.00000000000E+00  0.00000000000E+00  0.50000499739E+01  0.50000500000E+01  0.51100000000E-03 0. -1.
         11   -1    0    0    0    0 -0.00000000000E+00 -0.00000000000E+00 -0.50000499739E+01  0.50000500000E+01  0.51100000000E-03 0.  1.
         50    1    1    2    0    0  0.19082594885E-01 -0.12087577548E-02 -0.11592927894E-01  0.50000500000E+01  0.50000000000E+01 0.  1.
         50    1    1    2    0    0 -0.19082594885E-01  0.12087577548E-02  0.11592927894E-01  0.50000500000E+01  0.50000000000E+01 0. -1.
</event>
<event>
 4    1  0.4973396E-021  0.5000050E+01  0.7818608E-02  0.2136455E+00
        -11   -1    0    0    0    0  0.00000000000E+00  0.00000000000E+00  0.50000499739E+01  0.50000500000E+01  0.51100000000E-03 0.  1.
         11   -1    0    0    0    0 -0.00000000000E+00 -0.00000000000E+00 -0.50000499739E+01  0.50000500000E+01  0.51100000000E-03 0. -1.
         50    1    1    2    0    0  0.11298784879E-01 -0.18042994296E-01 -0.68403448073E-02  0.50000500000E+01  0.50000000000E+01 0. -1.
         50    1    1    2    0    0 -0.11298784879E-01  0.18042994296E-01  0.68403448073E-02  0.50000500000E+01  0.50000000000E+01 0.  1.
</event>
<event>
 4    1  0.4973396E-021  0.5000050E+01  0.7818608E-02  0.2136455E+00
        -11   -1    0    0    0    0  0.00000000000E+00  0.00000000000E+00  0.50000499739E+01  0.50000500000E+01  0.51100000000E-03 0. -1.
         11   -1    0    0    0    0 -0.00000000000E+00 -0.00000000000E+00 -0.50000499739E+01  0.50000500000E+01  0.51100000000E-03 0.  1.
         50    1    1    2    0    0 -0.18989258436E-01  0.61303368314E-02 -0.10091062105E-01  0.50000500000E+01  0.50000000000E+01 0.  1.
         50    1    1    2    0    0  0.18989258436E-01 -0.61303368314E-02  0.10091062105E-01  0.50000500000E+01  0.50000000000E+01 0. -1.
</event>
<event>
 4    1  0.4973396E-021  0.5000050E+01  0.7818608E-02  0.2136455E+00
        -11   -1    0    0    0    0  0.00000000000E+00  0.00000000000E+00  0.50000499739E+01  0.50000500000E+01  0.51100000000E-03 0. -1.
         11   -1    0    0    0    0 -0.00000000000E+00 -0.00000000000E+00 -0.50000499739E+01  0.50000500000E+01  0.51100000000E-03 0.  1.
         50    1    1    2    0    0 -0.13535258843E-01  0.13817660282E-01  0.11219248299E-01  0.50000500000E+01  0.50000000000E+01 0.  0.
         50    1    1    2    0    0  0.13535258843E-01 -0.13817660282E-01 -0.11219248299E-01  0.50000500000E+01  0.50000000000E+01 0. -1.
</event>
<event>
 4    1  0.4973396E-021  0.5000050E+01  0.7818608E-02  0.2136455E+00
        -11   -1    0    0    0    0  0.00000000000E+00  0.00000000000E+00  0.50000499739E+01  0.50000500000E+01  0.51100000000E-03 0. -1.
         11   -1    0    0    0    0 -0.00000000000E+00 -0.00000000000E+00 -0.50000499739E+01  0.50000500000E+01  0.51100000000E-03 0.  1.
         50    1    1    2    0    0 -0.10454065052E-01 -0.19575338264E-01 -0.27424725543E-02  0.50000500000E+01  0.50000000000E+01 0.  1.
         50    1    1    2    0    0  0.10454065052E-01  0.19575338264E-01  0.27424725543E-02  0.50000500000E+01  0.50000000000E+01 0. -1.
</event>
<event>
 4    1  0.4973396E-021  0.5000050E+01  0.7818608E-02  0.2136455E+00
        -11   -1    0    0    0    0  0.00000000000E+00  0.00000000000E+00  0.50000499739E+01  0.50000500000E+01  0.51100000000E-03 0.  1.
         11   -1    0    0    0    0 -0.00000000000E+00 -0.00000000000E+00 -0.50000499739E+01  0.50000500000E+01  0.51100000000E-03 0. -1.
         50    1    1    2    0    0 -0.80967744233E-02  0.19911018477E-01  0.61640966219E-02  0.50000500000E+01  0.50000000000E+01 0.  1.
         50    1    1    2    0    0  0.80967744233E-02 -0.19911018477E-01 -0.61640966219E-02  0.50000500000E+01  0.50000000000E+01 0. -1.
</event>
<event>
 4    1  0.4973396E-021  0.5000050E+01  0.7818608E-02  0.2136455E+00
        -11   -1    0    0    0    0  0.00000000000E+00  0.00000000000E+00  0.50000499739E+01  0.50000500000E+01  0.51100000000E-03 0.  1.
         11   -1    0    0    0    0 -0.00000000000E+00 -0.00000000000E+00 -0.50000499739E+01  0.50000500000E+01  0.51100000000E-03 0. -1.
         50    1    1    2    0    0  0.40691446718E-02  0.15034504644E-01  0.16043946888E-01  0.50000500000E+01  0.50000000000E+01 0.  1.
         50    1    1    2    0    0 -0.40691446718E-02 -0.15034504644E-01 -0.16043946888E-01  0.50000500000E+01  0.50000000000E+01 0. -1.
</event>
<event>
 4    1  0.4973396E-021  0.5000050E+01  0.7818608E-02  0.2136455E+00
        -11   -1    0    0    0    0  0.00000000000E+00  0.00000000000E+00  0.50000499739E+01  0.50000500000E+01  0.51100000000E-03 0.  1.
         11   -1    0    0    0    0 -0.00000000000E+00 -0.00000000000E+00 -0.50000499739E+01  0.50000500000E+01  0.51100000000E-03 0. -1.
         50    1    1    2    0    0  0.68057194391E-02  0.17751527189E-01 -0.11771489513E-01  0.50000500000E+01  0.50000000000E+01 0. -1.
         50    1    1    2    0    0 -0.68057194391E-02 -0.17751527189E-01  0.11771489513E-01  0.50000500000E+01  0.50000000000E+01 0.  1.
</event>
<event>
 4    1  0.4973396E-021  0.5000050E+01  0.7818608E-02  0.2136455E+00
        -11   -1    0    0    0    0  0.00000000000E+00  0.00000000000E+00  0.50000499739E+01  0.50000500000E+01  0.51100000000E-03 0. -1.
         11   -1    0    0    0    0 -0.00000000000E+00 -0.00000000000E+00 -0.50000499739E+01  0.50000500000E+01  0.51100000000E-03 0.  1.
         50    1    1    2    0    0  0.18585263905E-01 -0.11733213115E-01  0.41136572041E-02  0.50000500000E+01  0.50000000000E+01 0.  1.
         50    1    1    2    0    0 -0.18585263905E-01  0.11733213115E-01 -0.41136572041E-02  0.50000500000E+01  0.50000000000E+01 0. -1.
</event>
<event>
 4    1  0.4973396E-021  0.5000050E+01  0.7818608E-02  0.2136455E+00
        -11   -1    0    0    0    0  0.00000000000E+00  0.00000000000E+00  0.50000499739E+01  0.50000500000E+01  0.51100000000E-03 0.  1.
         11   -1    0    0    0    0 -0.00000000000E+00 -0.00000000000E+00 -0.50000499739E+01  0.50000500000E+01  0.51100000000E-03 0. -1.
         50    1    1    2    0    0 -0.20055340922E-02 -0.22221649523E-01 -0.14760167540E-02  0.50000500000E+01  0.50000000000E+01 0. -1.
         50    1    1    2    0    0  0.20055340922E-02  0.22221649523E-01  0.14760167540E-02  0.50000500000E+01  0.50000000000E+01 0.  1.
</event>
<event>
 4    1  0.4973396E-021  0.5000050E+01  0.7818608E-02  0.2136455E+00
        -11   -1    0    0    0    0  0.00000000000E+00  0.00000000000E+00  0.50000499739E+01  0.50000500000E+01  0.51100000000E-03 0.  1.
         11   -1    0    0    0    0 -0.00000000000E+00 -0.00000000000E+00 -0.50000499739E+01  0.50000500000E+01  0.51100000000E-03 0. -1.
         50    1    1    2    0    0 -0.19791093667E-01  0.99454423136E-02 -0.30664782173E-02  0.50000500000E+01  0.50000000000E+01 0.  0.
         50    1    1    2    0    0  0.19791093667E-01 -0.99454423136E-02  0.30664782173E-02  0.50000500000E+01  0.50000000000E+01 0. -1.
</event>
<event>
 4    1  0.4973396E-021  0.5000050E+01  0.7818608E-02  0.2136455E+00
        -11   -1    0    0    0    0  0.00000000000E+00  0.00000000000E+00  0.50000499739E+01  0.50000500000E+01  0.51100000000E-03 0. -1.
         11   -1    0    0    0    0 -0.00000000000E+00 -0.00000000000E+00 -0.50000499739E+01  0.50000500000E+01  0.51100000000E-03 0.  1.
         50    1    1    2    0    0 -0.18605383385E-01 -0.11701730093E-01 -0.41123864008E-02  0.50000500000E+01  0.50000000000E+01 0.  0.
         50    1    1    2    0    0  0.18605383385E-01  0.11701730093E-01  0.41123864008E-02  0.50000500000E+01  0.50000000000E+01 0.  1.
</event>
<event>
 4    1  0.4973396E-021  0.5000050E+01  0.7818608E-02  0.2136455E+00
        -11   -1    0    0    0    0  0.00000000000E+00  0.00000000000E+00  0.50000499739E+01  0.50000500000E+01  0.51100000000E-03 0.  1.
         11   -1    0    0    0    0 -0.00000000000E+00 -0.00000000000E+00 -0.50000499739E+01  0.50000500000E+01  0.51100000000E-03 0. -1.
         50    1    1    2    0    0 -0.26259646811E-02 -0.80141812676E-02 -0.20709411100E-01  0.50000500000E+01  0.50000000000E+01 0.  0.
         50    1    1    2    0    0  0.26259646811E-02  0.80141812676E-02  0.20709411100E-01  0.50000500000E+01  0.50000000000E+01 0.  1.
</event>
<event>
 4    1  0.4973396E-021  0.5000050E+01  0.7818608E-02  0.2136455E+00
        -11   -1    0    0    0    0  0.00000000000E+00  0.00000000000E+00  0.50000499739E+01  0.50000500000E+01  0.51100000000E-03 0.  1.
         11   -1    0    0    0    0 -0.00000000000E+00 -0.00000000000E+00 -0.50000499739E+01  0.50000500000E+01  0.51100000000E-03 0. -1.
         50    1    1    2    0    0  0.22022290075E-01  0.23765424528E-02  0.30615822430E-02  0.50000500000E+01  0.50000000000E+01 0. -1.
         50    1    1    2    0    0 -0.22022290075E-01 -0.23765424528E-02 -0.30615822430E-02  0.50000500000E+01  0.50000000000E+01 0.  0.
</event>
<event>
 4    1  0.4973396E-021  0.5000050E+01  0.7818608E-02  0.2136455E+00
        -11   -1    0    0    0    0  0.00000000000E+00  0.00000000000E+00  0.50000499739E+01  0.50000500000E+01  0.51100000000E-03 0.  1.
         11   -1    0    0    0    0 -0.00000000000E+00 -0.00000000000E+00 -0.50000499739E+01  0.50000500000E+01  0.51100000000E-03 0. -1.
         50    1    1    2    0    0 -0.12862428735E-01  0.12464682096E-01  0.13386266369E-01  0.50000500000E+01  0.50000000000E+01 0. -1.
         50    1    1    2    0    0  0.12862428735E-01 -0.12464682096E-01 -0.13386266369E-01  0.50000500000E+01  0.50000000000E+01 0. -1.
</event>
<event>
 4    1  0.4973396E-021  0.5000050E+01  0.7818608E-02  0.2136455E+00
        -11   -1    0    0    0    0  0.00000000000E+00  0.00000000000E+00  0.50000499739E+01  0.50000500000E+01  0.51100000000E-03 0. -1.
         11   -1    0    0    0    0 -0.00000000000E+00 -0.00000000000E+00 -0.50000499739E+01  0.50000500000E+01  0.51100000000E-03 0.  1.
         50    1    1    2    0    0 -0.19985236250E-01  0.62784830139E-03  0.10009927000E-01  0.50000500000E+01  0.50000000000E+01 0. -1.
         50    1    1    2    0    0  0.19985236250E-01 -0.62784830139E-03 -0.10009927000E-01  0.50000500000E+01  0.50000000000E+01 0.  1.
</event>
<event>
 4    1  0.4973396E-021  0.5000050E+01  0.7818608E-02  0.2136455E+00
        -11   -1    0    0    0    0  0.00000000000E+00  0.00000000000E+00  0.50000499739E+01  0.50000500000E+01  0.51100000000E-03 0.  1.
         11   -1    0    0    0    0 -0.00000000000E+00 -0.00000000000E+00 -0.50000499739E+01  0.50000500000E+01  0.51100000000E-03 0. -1.
         50    1    1    2    0    0 -0.21134039163E-01 -0.71060977407E-02  0.16906399838E-02  0.50000500000E+01  0.50000000000E+01 0.  1.
         50    1    1    2    0    0  0.21134039163E-01  0.71060977407E-02 -0.16906399838E-02  0.50000500000E+01  0.50000000000E+01 0.  0.
</event>
<event>
 4    1  0.4973396E-021  0.5000050E+01  0.7818608E-02  0.2136455E+00
        -11   -1    0    0    0    0  0.00000000000E+00  0.00000000000E+00  0.50000499739E+01  0.50000500000E+01  0.51100000000E-03 0.  1.
         11   -1    0    0    0    0 -0.00000000000E+00 -0.00000000000E+00 -0.50000499739E+01  0.50000500000E+01  0.51100000000E-03 0. -1.
         50    1    1    2    0    0 -0.49725326702E-03  0.22200288496E-01 -0.26272475871E-02  0.50000500000E+01  0.50000000000E+01 0.  1.
         50    1    1    2    0    0  0.49725326702E-03 -0.22200288496E-01  0.26272475871E-02  0.50000500000E+01  0.50000000000E+01 0.  0.
</event>
<event>
 4    1  0.4973396E-021  0.5000050E+01  0.7818608E-02  0.2136455E+00
        -11   -1    0    0    0    0  0.00000000000E+00  0.00000000000E+00  0.50000499739E+01  0.50000500000E+01  0.51100000000E-03 0.  1.
         11   -1    0    0    0    0 -0.00000000000E+00 -0.00000000000E+00 -0.50000499739E+01  0.50000500000E+01  0.51100000000E-03 0. -1.
         50    1    1    2    0    0  0.12243793739E-01  0.85284355222E-02  0.16654062640E-01  0.50000500000E+01  0.50000000000E+01 0.  1.
         50    1    1    2    0    0 -0.12243793739E-01 -0.85284355222E-02 -0.16654062640E-01  0.50000500000E+01  0.50000000000E+01 0. -1.
</event>
<event>
 4    1  0.4973396E-021  0.5000050E+01  0.7818608E-02  0.2136455E+00
        -11   -1    0    0    0    0  0.00000000000E+00  0.00000000000E+00  0.50000499739E+01  0.50000500000E+01  0.51100000000E-03 0.  1.
         11   -1    0    0    0    0 -0.00000000000E+00 -0.00000000000E+00 -0.50000499739E+01  0.50000500000E+01  0.51100000000E-03 0. -1.
         50    1    1    2    0    0 -0.63672164368E-02 -0.13910235229E-01 -0.16308476652E-01  0.50000500000E+01  0.50000000000E+01 0.  0.
         50    1    1    2    0    0  0.63672164368E-02  0.13910235229E-01  0.16308476652E-01  0.50000500000E+01  0.50000000000E+01 0.  1.
</event>
<event>
 4    1  0.4973396E-021  0.5000050E+01  0.7818608E-02  0.2136455E+00
        -11   -1    0    0    0    0  0.00000000000E+00  0.00000000000E+00  0.50000499739E+01  0.50000500000E+01  0.51100000000E-03 0. -1.
         11   -1    0    0    0    0 -0.00000000000E+00 -0.00000000000E+00 -0.50000499739E+01  0.50000500000E+01  0.51100000000E-03 0.  1.
         50    1    1    2    0    0 -0.16848810618E-01  0.11647750749E-01 -0.89693914650E-02  0.50000500000E+01  0.50000000000E+01 0. -1.
         50    1    1    2    0    0  0.16848810618E-01 -0.11647750749E-01  0.89693914650E-02  0.50000500000E+01  0.50000000000E+01 0.  1.
</event>
<event>
 4    1  0.4973396E-021  0.5000050E+01  0.7818608E-02  0.2136455E+00
        -11   -1    0    0    0    0  0.00000000000E+00  0.00000000000E+00  0.50000499739E+01  0.50000500000E+01  0.51100000000E-03 0.  1.
         11   -1    0    0    0    0 -0.00000000000E+00 -0.00000000000E+00 -0.50000499739E+01  0.50000500000E+01  0.51100000000E-03 0. -1.
         50    1    1    2    0    0 -0.12903902511E-01  0.11316469831E-01 -0.14332805398E-01  0.50000500000E+01  0.50000000000E+01 0. -1.
         50    1    1    2    0    0  0.12903902511E-01 -0.11316469831E-01  0.14332805398E-01  0.50000500000E+01  0.50000000000E+01 0.  1.
</event>
<event>
 4    1  0.4973396E-021  0.5000050E+01  0.7818608E-02  0.2136455E+00
        -11   -1    0    0    0    0  0.00000000000E+00  0.00000000000E+00  0.50000499739E+01  0.50000500000E+01  0.51100000000E-03 0. -1.
         11   -1    0    0    0    0 -0.00000000000E+00 -0.00000000000E+00 -0.50000499739E+01  0.50000500000E+01  0.51100000000E-03 0.  1.
         50    1    1    2    0    0 -0.81293415589E-02 -0.18052371640E-01  0.10393660760E-01  0.50000500000E+01  0.50000000000E+01 0. -1.
         50    1    1    2    0    0  0.81293415589E-02  0.18052371640E-01 -0.10393660760E-01  0.50000500000E+01  0.50000000000E+01 0.  1.
</event>
<event>
 4    1  0.4973396E-021  0.5000050E+01  0.7818608E-02  0.2136455E+00
        -11   -1    0    0    0    0  0.00000000000E+00  0.00000000000E+00  0.50000499739E+01  0.50000500000E+01  0.51100000000E-03 0. -1.
         11   -1    0    0    0    0 -0.00000000000E+00 -0.00000000000E+00 -0.50000499739E+01  0.50000500000E+01  0.51100000000E-03 0.  1.
         50    1    1    2    0    0  0.19952061857E-01  0.84001129387E-03  0.10060422889E-01  0.50000500000E+01  0.50000000000E+01 0. -1.
         50    1    1    2    0    0 -0.19952061857E-01 -0.84001129387E-03 -0.10060422889E-01  0.50000500000E+01  0.50000000000E+01 0.  1.
</event>
<event>
 4    1  0.4973396E-021  0.5000050E+01  0.7818608E-02  0.2136455E+00
        -11   -1    0    0    0    0  0.00000000000E+00  0.00000000000E+00  0.50000499739E+01  0.50000500000E+01  0.51100000000E-03 0. -1.
         11   -1    0    0    0    0 -0.00000000000E+00 -0.00000000000E+00 -0.50000499739E+01  0.50000500000E+01  0.51100000000E-03 0.  1.
         50    1    1    2    0    0  0.40993981953E-02 -0.15345383064E-01 -0.15739016902E-01  0.50000500000E+01  0.50000000000E+01 0.  0.
         50    1    1    2    0    0 -0.40993981953E-02  0.15345383064E-01  0.15739016902E-01  0.50000500000E+01  0.50000000000E+01 0.  0.
</event>
<event>
 4    1  0.4973396E-021  0.5000050E+01  0.7818608E-02  0.2136455E+00
        -11   -1    0    0    0    0  0.00000000000E+00  0.00000000000E+00  0.50000499739E+01  0.50000500000E+01  0.51100000000E-03 0.  1.
         11   -1    0    0    0    0 -0.00000000000E+00 -0.00000000000E+00 -0.50000499739E+01  0.50000500000E+01  0.51100000000E-03 0. -1.
         50    1    1    2    0    0  0.99211315681E-02 -0.19963766718E-01 -0.17382942285E-02  0.50000500000E+01  0.50000000000E+01 0.  1.
         50    1    1    2    0    0 -0.99211315681E-02  0.19963766718E-01  0.17382942285E-02  0.50000500000E+01  0.50000000000E+01 0. -1.
</event>
<event>
 4    1  0.4973396E-021  0.5000050E+01  0.7818608E-02  0.2136455E+00
        -11   -1    0    0    0    0  0.00000000000E+00  0.00000000000E+00  0.50000499739E+01  0.50000500000E+01  0.51100000000E-03 0.  1.
         11   -1    0    0    0    0 -0.00000000000E+00 -0.00000000000E+00 -0.50000499739E+01  0.50000500000E+01  0.51100000000E-03 0. -1.
         50    1    1    2    0    0 -0.97187972778E-02  0.15780417064E-01 -0.12511031802E-01  0.50000500000E+01  0.50000000000E+01 0.  0.
         50    1    1    2    0    0  0.97187972778E-02 -0.15780417064E-01  0.12511031802E-01  0.50000500000E+01  0.50000000000E+01 0. -1.
</event>
<event>
 4    1  0.4973396E-021  0.5000050E+01  0.7818608E-02  0.2136455E+00
        -11   -1    0    0    0    0  0.00000000000E+00  0.00000000000E+00  0.50000499739E+01  0.50000500000E+01  0.51100000000E-03 0.  1.
         11   -1    0    0    0    0 -0.00000000000E+00 -0.00000000000E+00 -0.50000499739E+01  0.50000500000E+01  0.51100000000E-03 0. -1.
         50    1    1    2    0    0 -0.64286262037E-02  0.20574818729E-01 -0.59457631478E-02  0.50000500000E+01  0.50000000000E+01 0.  0.
         50    1    1    2    0    0  0.64286262037E-02 -0.20574818729E-01  0.59457631478E-02  0.50000500000E+01  0.50000000000E+01 0.  1.
</event>
<event>
 4    1  0.4973396E-021  0.5000050E+01  0.7818608E-02  0.2136455E+00
        -11   -1    0    0    0    0  0.00000000000E+00  0.00000000000E+00  0.50000499739E+01  0.50000500000E+01  0.51100000000E-03 0. -1.
         11   -1    0    0    0    0 -0.00000000000E+00 -0.00000000000E+00 -0.50000499739E+01  0.50000500000E+01  0.51100000000E-03 0.  1.
         50    1    1    2    0    0  0.20480467941E-01 -0.82482248707E-02 -0.35383215488E-02  0.50000500000E+01  0.50000000000E+01 0.  1.
         50    1    1    2    0    0 -0.20480467941E-01  0.82482248707E-02  0.35383215488E-02  0.50000500000E+01  0.50000000000E+01 0. -1.
</event>
<event>
 4    1  0.4973396E-021  0.5000050E+01  0.7818608E-02  0.2136455E+00
        -11   -1    0    0    0    0  0.00000000000E+00  0.00000000000E+00  0.50000499739E+01  0.50000500000E+01  0.51100000000E-03 0.  1.
         11   -1    0    0    0    0 -0.00000000000E+00 -0.00000000000E+00 -0.50000499739E+01  0.50000500000E+01  0.51100000000E-03 0. -1.
         50    1    1    2    0    0 -0.58441836554E-02  0.20626499741E-01  0.63557474640E-02  0.50000500000E+01  0.50000000000E+01 0.  0.
         50    1    1    2    0    0  0.58441836554E-02 -0.20626499741E-01 -0.63557474640E-02  0.50000500000E+01  0.50000000000E+01 0.  1.
</event>
<event>
 4    1  0.4973396E-021  0.5000050E+01  0.7818608E-02  0.2136455E+00
        -11   -1    0    0    0    0  0.00000000000E+00  0.00000000000E+00  0.50000499739E+01  0.50000500000E+01  0.51100000000E-03 0. -1.
         11   -1    0    0    0    0 -0.00000000000E+00 -0.00000000000E+00 -0.50000499739E+01  0.50000500000E+01  0.51100000000E-03 0.  1.
         50    1    1    2    0    0 -0.20361059491E-01  0.87791248678E-03 -0.92010339666E-02  0.50000500000E+01  0.50000000000E+01 0.  1.
         50    1    1    2    0    0  0.20361059491E-01 -0.87791248678E-03  0.92010339666E-02  0.50000500000E+01  0.50000000000E+01 0. -1.
</event>
<event>
 4    1  0.4973396E-021  0.5000050E+01  0.7818608E-02  0.2136455E+00
        -11   -1    0    0    0    0  0.00000000000E+00  0.00000000000E+00  0.50000499739E+01  0.50000500000E+01  0.51100000000E-03 0.  1.
         11   -1    0    0    0    0 -0.00000000000E+00 -0.00000000000E+00 -0.50000499739E+01  0.50000500000E+01  0.51100000000E-03 0. -1.
         50    1    1    2    0    0  0.91736689645E-02 -0.20288497181E-01  0.20550376781E-02  0.50000500000E+01  0.50000000000E+01 0.  0.
         50    1    1    2    0    0 -0.91736689645E-02  0.20288497181E-01 -0.20550376781E-02  0.50000500000E+01  0.50000000000E+01 0.  1.
</event>
<event>
 4    1  0.4973396E-021  0.5000050E+01  0.7818608E-02  0.2136455E+00
        -11   -1    0    0    0    0  0.00000000000E+00  0.00000000000E+00  0.50000499739E+01  0.50000500000E+01  0.51100000000E-03 0. -1.
         11   -1    0    0    0    0 -0.00000000000E+00 -0.00000000000E+00 -0.50000499739E+01  0.50000500000E+01  0.51100000000E-03 0.  1.
         50    1    1    2    0    0 -0.78357606887E-02 -0.19693323884E-02 -0.20850061975E-01  0.50000500000E+01  0.50000000000E+01 0.  0.
         50    1    1    2    0    0  0.78357606887E-02  0.19693323884E-02  0.20850061975E-01  0.50000500000E+01  0.50000000000E+01 0.  0.
</event>
<event>
 4    1  0.4973396E-021  0.5000050E+01  0.7818608E-02  0.2136455E+00
        -11   -1    0    0    0    0  0.00000000000E+00  0.00000000000E+00  0.50000499739E+01  0.50000500000E+01  0.51100000000E-03 0.  1.
         11   -1    0    0    0    0 -0.00000000000E+00 -0.00000000000E+00 -0.50000499739E+01  0.50000500000E+01  0.51100000000E-03 0. -1.
         50    1    1    2    0    0 -0.14866600501E-02  0.58353148497E-02 -0.21534656777E-01  0.50000500000E+01  0.50000000000E+01 0.  0.
         50    1    1    2    0    0  0.14866600501E-02 -0.58353148497E-02  0.21534656777E-01  0.50000500000E+01  0.50000000000E+01 0.  1.
</event>
<event>
 4    1  0.4973396E-021  0.5000050E+01  0.7818608E-02  0.2136455E+00
        -11   -1    0    0    0    0  0.00000000000E+00  0.00000000000E+00  0.50000499739E+01  0.50000500000E+01  0.51100000000E-03 0.  1.
         11   -1    0    0    0    0 -0.00000000000E+00 -0.00000000000E+00 -0.50000499739E+01  0.50000500000E+01  0.51100000000E-03 0. -1.
         50    1    1    2    0    0  0.12065641148E-01  0.18666216580E-01  0.24485020462E-02  0.50000500000E+01  0.50000000000E+01 0.  1.
         50    1    1    2    0    0 -0.12065641148E-01 -0.18666216580E-01 -0.24485020462E-02  0.50000500000E+01  0.50000000000E+01 0. -1.
</event>
<event>
 4    1  0.4973396E-021  0.5000050E+01  0.7818608E-02  0.2136455E+00
        -11   -1    0    0    0    0  0.00000000000E+00  0.00000000000E+00  0.50000499739E+01  0.50000500000E+01  0.51100000000E-03 0. -1.
         11   -1    0    0    0    0 -0.00000000000E+00 -0.00000000000E+00 -0.50000499739E+01  0.50000500000E+01  0.51100000000E-03 0.  1.
         50    1    1    2    0    0  0.10083502723E-01 -0.12122546237E-01  0.15854631675E-01  0.50000500000E+01  0.50000000000E+01 0. -1.
         50    1    1    2    0    0 -0.10083502723E-01  0.12122546237E-01 -0.15854631675E-01  0.50000500000E+01  0.50000000000E+01 0.  1.
</event>
<event>
 4    1  0.4973396E-021  0.5000050E+01  0.7818608E-02  0.2136455E+00
        -11   -1    0    0    0    0  0.00000000000E+00  0.00000000000E+00  0.50000499739E+01  0.50000500000E+01  0.51100000000E-03 0.  1.
         11   -1    0    0    0    0 -0.00000000000E+00 -0.00000000000E+00 -0.50000499739E+01  0.50000500000E+01  0.51100000000E-03 0. -1.
         50    1    1    2    0    0  0.69447473959E-02  0.15891796042E-01  0.14114666208E-01  0.50000500000E+01  0.50000000000E+01 0. -1.
         50    1    1    2    0    0 -0.69447473959E-02 -0.15891796042E-01 -0.14114666208E-01  0.50000500000E+01  0.50000000000E+01 0.  1.
</event>
<event>
 4    1  0.4973396E-021  0.5000050E+01  0.7818608E-02  0.2136455E+00
        -11   -1    0    0    0    0  0.00000000000E+00  0.00000000000E+00  0.50000499739E+01  0.50000500000E+01  0.51100000000E-03 0.  1.
         11   -1    0    0    0    0 -0.00000000000E+00 -0.00000000000E+00 -0.50000499739E+01  0.50000500000E+01  0.51100000000E-03 0. -1.
         50    1    1    2    0    0 -0.20541333395E-01  0.60776866313E-02 -0.64123199837E-02  0.50000500000E+01  0.50000000000E+01 0.  0.
         50    1    1    2    0    0  0.20541333395E-01 -0.60776866313E-02  0.64123199837E-02  0.50000500000E+01  0.50000000000E+01 0. -1.
</event>
<event>
 4    1  0.4973396E-021  0.5000050E+01  0.7818608E-02  0.2136455E+00
        -11   -1    0    0    0    0  0.00000000000E+00  0.00000000000E+00  0.50000499739E+01  0.50000500000E+01  0.51100000000E-03 0.  1.
         11   -1    0    0    0    0 -0.00000000000E+00 -0.00000000000E+00 -0.50000499739E+01  0.50000500000E+01  0.51100000000E-03 0. -1.
         50    1    1    2    0    0  0.11117432136E-01 -0.87767151942E-02 -0.17302441247E-01  0.50000500000E+01  0.50000000000E+01 0. -1.
         50    1    1    2    0    0 -0.11117432136E-01  0.87767151942E-02  0.17302441247E-01  0.50000500000E+01  0.50000000000E+01 0. -1.
</event>
<event>
 4    1  0.4973396E-021  0.5000050E+01  0.7818608E-02  0.2136455E+00
        -11   -1    0    0    0    0  0.00000000000E+00  0.00000000000E+00  0.50000499739E+01  0.50000500000E+01  0.51100000000E-03 0. -1.
         11   -1    0    0    0    0 -0.00000000000E+00 -0.00000000000E+00 -0.50000499739E+01  0.50000500000E+01  0.51100000000E-03 0.  1.
         50    1    1    2    0    0  0.17259969232E-01  0.71096863323E-02  0.12310496430E-01  0.50000500000E+01  0.50000000000E+01 0. -1.
         50    1    1    2    0    0 -0.17259969232E-01 -0.71096863323E-02 -0.12310496430E-01  0.50000500000E+01  0.50000000000E+01 0.  1.
</event>
<event>
 4    1  0.4973396E-021  0.5000050E+01  0.7818608E-02  0.2136455E+00
        -11   -1    0    0    0    0  0.00000000000E+00  0.00000000000E+00  0.50000499739E+01  0.50000500000E+01  0.51100000000E-03 0. -1.
         11   -1    0    0    0    0 -0.00000000000E+00 -0.00000000000E+00 -0.50000499739E+01  0.50000500000E+01  0.51100000000E-03 0.  1.
         50    1    1    2    0    0  0.90764715540E-02 -0.13497432524E-01  0.15344037259E-01  0.50000500000E+01  0.50000000000E+01 0. -1.
         50    1    1    2    0    0 -0.90764715540E-02  0.13497432524E-01 -0.15344037259E-01  0.50000500000E+01  0.50000000000E+01 0.  1.
</event>
<event>
 4    1  0.4973396E-021  0.5000050E+01  0.7818608E-02  0.2136455E+00
        -11   -1    0    0    0    0  0.00000000000E+00  0.00000000000E+00  0.50000499739E+01  0.50000500000E+01  0.51100000000E-03 0.  1.
         11   -1    0    0    0    0 -0.00000000000E+00 -0.00000000000E+00 -0.50000499739E+01  0.50000500000E+01  0.51100000000E-03 0. -1.
         50    1    1    2    0    0 -0.20669743328E-01 -0.83731683460E-02 -0.16291907810E-02  0.50000500000E+01  0.50000000000E+01 0. -1.
         50    1    1    2    0    0  0.20669743328E-01  0.83731683460E-02  0.16291907810E-02  0.50000500000E+01  0.50000000000E+01 0.  1.
</event>
<event>
 4    1  0.4973396E-021  0.5000050E+01  0.7818608E-02  0.2136455E+00
        -11   -1    0    0    0    0  0.00000000000E+00  0.00000000000E+00  0.50000499739E+01  0.50000500000E+01  0.51100000000E-03 0. -1.
         11   -1    0    0    0    0 -0.00000000000E+00 -0.00000000000E+00 -0.50000499739E+01  0.50000500000E+01  0.51100000000E-03 0.  1.
         50    1    1    2    0    0 -0.64618537606E-02 -0.21275500998E-01  0.23664325991E-02  0.50000500000E+01  0.50000000000E+01 0. -1.
         50    1    1    2    0    0  0.64618537606E-02  0.21275500998E-01 -0.23664325991E-02  0.50000500000E+01  0.50000000000E+01 0.  1.
</event>
<event>
 4    1  0.4973396E-021  0.5000050E+01  0.7818608E-02  0.2136455E+00
        -11   -1    0    0    0    0  0.00000000000E+00  0.00000000000E+00  0.50000499739E+01  0.50000500000E+01  0.51100000000E-03 0. -1.
         11   -1    0    0    0    0 -0.00000000000E+00 -0.00000000000E+00 -0.50000499739E+01  0.50000500000E+01  0.51100000000E-03 0.  1.
         50    1    1    2    0    0  0.17418593503E-01 -0.13661150433E-01 -0.31572249249E-02  0.50000500000E+01  0.50000000000E+01 0.  1.
         50    1    1    2    0    0 -0.17418593503E-01  0.13661150433E-01  0.31572249249E-02  0.50000500000E+01  0.50000000000E+01 0. -1.
</event>
<event>
 4    1  0.4973396E-021  0.5000050E+01  0.7818608E-02  0.2136455E+00
        -11   -1    0    0    0    0  0.00000000000E+00  0.00000000000E+00  0.50000499739E+01  0.50000500000E+01  0.51100000000E-03 0.  1.
         11   -1    0    0    0    0 -0.00000000000E+00 -0.00000000000E+00 -0.50000499739E+01  0.50000500000E+01  0.51100000000E-03 0. -1.
         50    1    1    2    0    0  0.97089309793E-02 -0.19589069633E-01 -0.46912162779E-02  0.50000500000E+01  0.50000000000E+01 0. -1.
         50    1    1    2    0    0 -0.97089309793E-02  0.19589069633E-01  0.46912162779E-02  0.50000500000E+01  0.50000000000E+01 0.  1.
</event>
<event>
 4    1  0.4973396E-021  0.5000050E+01  0.7818608E-02  0.2136455E+00
        -11   -1    0    0    0    0  0.00000000000E+00  0.00000000000E+00  0.50000499739E+01  0.50000500000E+01  0.51100000000E-03 0.  1.
         11   -1    0    0    0    0 -0.00000000000E+00 -0.00000000000E+00 -0.50000499739E+01  0.50000500000E+01  0.51100000000E-03 0. -1.
         50    1    1    2    0    0 -0.17849185315E-01 -0.13162258588E-01 -0.28572771017E-02  0.50000500000E+01  0.50000000000E+01 0. -1.
         50    1    1    2    0    0  0.17849185315E-01  0.13162258588E-01  0.28572771017E-02  0.50000500000E+01  0.50000000000E+01 0.  1.
</event>
<event>
 4    1  0.4973396E-021  0.5000050E+01  0.7818608E-02  0.2136455E+00
        -11   -1    0    0    0    0  0.00000000000E+00  0.00000000000E+00  0.50000499739E+01  0.50000500000E+01  0.51100000000E-03 0. -1.
         11   -1    0    0    0    0 -0.00000000000E+00 -0.00000000000E+00 -0.50000499739E+01  0.50000500000E+01  0.51100000000E-03 0.  1.
         50    1    1    2    0    0  0.16914036806E-01 -0.83880345224E-02  0.11981599883E-01  0.50000500000E+01  0.50000000000E+01 0. -1.
         50    1    1    2    0    0 -0.16914036806E-01  0.83880345224E-02 -0.11981599883E-01  0.50000500000E+01  0.50000000000E+01 0.  1.
</event>
<event>
 4    1  0.4973396E-021  0.5000050E+01  0.7818608E-02  0.2136455E+00
        -11   -1    0    0    0    0  0.00000000000E+00  0.00000000000E+00  0.50000499739E+01  0.50000500000E+01  0.51100000000E-03 0. -1.
         11   -1    0    0    0    0 -0.00000000000E+00 -0.00000000000E+00 -0.50000499739E+01  0.50000500000E+01  0.51100000000E-03 0.  1.
         50    1    1    2    0    0  0.13558455621E-01 -0.15508965718E-01 -0.86972848373E-02  0.50000500000E+01  0.50000000000E+01 0.  1.
         50    1    1    2    0    0 -0.13558455621E-01  0.15508965718E-01  0.86972848373E-02  0.50000500000E+01  0.50000000000E+01 0. -1.
</event>
<event>
 4    1  0.4973396E-021  0.5000050E+01  0.7818608E-02  0.2136455E+00
        -11   -1    0    0    0    0  0.00000000000E+00  0.00000000000E+00  0.50000499739E+01  0.50000500000E+01  0.51100000000E-03 0.  1.
         11   -1    0    0    0    0 -0.00000000000E+00 -0.00000000000E+00 -0.50000499739E+01  0.50000500000E+01  0.51100000000E-03 0. -1.
         50    1    1    2    0    0  0.12117166233E-01  0.51311444774E-02 -0.18078941862E-01  0.50000500000E+01  0.50000000000E+01 0. -1.
         50    1    1    2    0    0 -0.12117166233E-01 -0.51311444774E-02  0.18078941862E-01  0.50000500000E+01  0.50000000000E+01 0.  1.
</event>
<event>
 4    1  0.4973396E-021  0.5000050E+01  0.7818608E-02  0.2136455E+00
        -11   -1    0    0    0    0  0.00000000000E+00  0.00000000000E+00  0.50000499739E+01  0.50000500000E+01  0.51100000000E-03 0. -1.
         11   -1    0    0    0    0 -0.00000000000E+00 -0.00000000000E+00 -0.50000499739E+01  0.50000500000E+01  0.51100000000E-03 0.  1.
         50    1    1    2    0    0 -0.18900270490E-01  0.80702901809E-02 -0.88120764745E-02  0.50000500000E+01  0.50000000000E+01 0. -1.
         50    1    1    2    0    0  0.18900270490E-01 -0.80702901809E-02  0.88120764745E-02  0.50000500000E+01  0.50000000000E+01 0. -1.
</event>
<event>
 4    1  0.4973396E-021  0.5000050E+01  0.7818608E-02  0.2136455E+00
        -11   -1    0    0    0    0  0.00000000000E+00  0.00000000000E+00  0.50000499739E+01  0.50000500000E+01  0.51100000000E-03 0.  1.
         11   -1    0    0    0    0 -0.00000000000E+00 -0.00000000000E+00 -0.50000499739E+01  0.50000500000E+01  0.51100000000E-03 0. -1.
         50    1    1    2    0    0 -0.17208807499E-02  0.19636142657E-01 -0.10557602521E-01  0.50000500000E+01  0.50000000000E+01 0.  0.
         50    1    1    2    0    0  0.17208807499E-02 -0.19636142657E-01  0.10557602521E-01  0.50000500000E+01  0.50000000000E+01 0.  0.
</event>
<event>
 4    1  0.4973396E-021  0.5000050E+01  0.7818608E-02  0.2136455E+00
        -11   -1    0    0    0    0  0.00000000000E+00  0.00000000000E+00  0.50000499739E+01  0.50000500000E+01  0.51100000000E-03 0. -1.
         11   -1    0    0    0    0 -0.00000000000E+00 -0.00000000000E+00 -0.50000499739E+01  0.50000500000E+01  0.51100000000E-03 0.  1.
         50    1    1    2    0    0  0.24093096765E-02 -0.22160184342E-01  0.17674718744E-02  0.50000500000E+01  0.50000000000E+01 0.  0.
         50    1    1    2    0    0 -0.24093096765E-02  0.22160184342E-01 -0.17674718744E-02  0.50000500000E+01  0.50000000000E+01 0.  1.
</event>
<event>
 4    1  0.4973396E-021  0.5000050E+01  0.7818608E-02  0.2136455E+00
        -11   -1    0    0    0    0  0.00000000000E+00  0.00000000000E+00  0.50000499739E+01  0.50000500000E+01  0.51100000000E-03 0.  1.
         11   -1    0    0    0    0 -0.00000000000E+00 -0.00000000000E+00 -0.50000499739E+01  0.50000500000E+01  0.51100000000E-03 0. -1.
         50    1    1    2    0    0  0.51053347434E-02  0.16504367528E-01 -0.14196616134E-01  0.50000500000E+01  0.50000000000E+01 0.  1.
         50    1    1    2    0    0 -0.51053347434E-02 -0.16504367528E-01  0.14196616134E-01  0.50000500000E+01  0.50000000000E+01 0.  1.
</event>
<event>
 4    1  0.4973396E-021  0.5000050E+01  0.7818608E-02  0.2136455E+00
        -11   -1    0    0    0    0  0.00000000000E+00  0.00000000000E+00  0.50000499739E+01  0.50000500000E+01  0.51100000000E-03 0. -1.
         11   -1    0    0    0    0 -0.00000000000E+00 -0.00000000000E+00 -0.50000499739E+01  0.50000500000E+01  0.51100000000E-03 0.  1.
         50    1    1    2    0    0  0.27254435515E-02  0.81381450050E-02  0.20648124693E-01  0.50000500000E+01  0.50000000000E+01 0.  0.
         50    1    1    2    0    0 -0.27254435515E-02 -0.81381450050E-02 -0.20648124693E-01  0.50000500000E+01  0.50000000000E+01 0.  1.
</event>
<event>
 4    1  0.4973396E-021  0.5000050E+01  0.7818608E-02  0.2136455E+00
        -11   -1    0    0    0    0  0.00000000000E+00  0.00000000000E+00  0.50000499739E+01  0.50000500000E+01  0.51100000000E-03 0. -1.
         11   -1    0    0    0    0 -0.00000000000E+00 -0.00000000000E+00 -0.50000499739E+01  0.50000500000E+01  0.51100000000E-03 0.  1.
         50    1    1    2    0    0 -0.99949637721E-02 -0.19812974504E-01  0.27475881200E-02  0.50000500000E+01  0.50000000000E+01 0.  1.
         50    1    1    2    0    0  0.99949637721E-02  0.19812974504E-01 -0.27475881200E-02  0.50000500000E+01  0.50000000000E+01 0. -1.
</event>
<event>
 4    1  0.4973396E-021  0.5000050E+01  0.7818608E-02  0.2136455E+00
        -11   -1    0    0    0    0  0.00000000000E+00  0.00000000000E+00  0.50000499739E+01  0.50000500000E+01  0.51100000000E-03 0. -1.
         11   -1    0    0    0    0 -0.00000000000E+00 -0.00000000000E+00 -0.50000499739E+01  0.50000500000E+01  0.51100000000E-03 0.  1.
         50    1    1    2    0    0  0.42564207945E-02  0.21765491751E-01 -0.28546016955E-02  0.50000500000E+01  0.50000000000E+01 0.  0.
         50    1    1    2    0    0 -0.42564207945E-02 -0.21765491751E-01  0.28546016955E-02  0.50000500000E+01  0.50000000000E+01 0.  1.
</event>
<event>
 4    1  0.4973396E-021  0.5000050E+01  0.7818608E-02  0.2136455E+00
        -11   -1    0    0    0    0  0.00000000000E+00  0.00000000000E+00  0.50000499739E+01  0.50000500000E+01  0.51100000000E-03 0. -1.
         11   -1    0    0    0    0 -0.00000000000E+00 -0.00000000000E+00 -0.50000499739E+01  0.50000500000E+01  0.51100000000E-03 0.  1.
         50    1    1    2    0    0 -0.12939369124E-02 -0.16983666660E-02  0.22258566394E-01  0.50000500000E+01  0.50000000000E+01 0. -1.
         50    1    1    2    0    0  0.12939369124E-02  0.16983666660E-02 -0.22258566394E-01  0.50000500000E+01  0.50000000000E+01 0.  0.
</event>
<event>
 4    1  0.4973396E-021  0.5000050E+01  0.7818608E-02  0.2136455E+00
        -11   -1    0    0    0    0  0.00000000000E+00  0.00000000000E+00  0.50000499739E+01  0.50000500000E+01  0.51100000000E-03 0.  1.
         11   -1    0    0    0    0 -0.00000000000E+00 -0.00000000000E+00 -0.50000499739E+01  0.50000500000E+01  0.51100000000E-03 0. -1.
         50    1    1    2    0    0  0.12487273790E-02 -0.92701671391E-02  0.20310272798E-01  0.50000500000E+01  0.50000000000E+01 0.  1.
         50    1    1    2    0    0 -0.12487273790E-02  0.92701671391E-02 -0.20310272798E-01  0.50000500000E+01  0.50000000000E+01 0. -1.
</event>
<event>
 4    1  0.4973396E-021  0.5000050E+01  0.7818608E-02  0.2136455E+00
        -11   -1    0    0    0    0  0.00000000000E+00  0.00000000000E+00  0.50000499739E+01  0.50000500000E+01  0.51100000000E-03 0. -1.
         11   -1    0    0    0    0 -0.00000000000E+00 -0.00000000000E+00 -0.50000499739E+01  0.50000500000E+01  0.51100000000E-03 0.  1.
         50    1    1    2    0    0 -0.20579811267E-01  0.15246288692E-02  0.86110031367E-02  0.50000500000E+01  0.50000000000E+01 0. -1.
         50    1    1    2    0    0  0.20579811267E-01 -0.15246288692E-02 -0.86110031367E-02  0.50000500000E+01  0.50000000000E+01 0.  1.
</event>
<event>
 4    1  0.4973396E-021  0.5000050E+01  0.7818608E-02  0.2136455E+00
        -11   -1    0    0    0    0  0.00000000000E+00  0.00000000000E+00  0.50000499739E+01  0.50000500000E+01  0.51100000000E-03 0.  1.
         11   -1    0    0    0    0 -0.00000000000E+00 -0.00000000000E+00 -0.50000499739E+01  0.50000500000E+01  0.51100000000E-03 0. -1.
         50    1    1    2    0    0  0.13395205789E-03 -0.50725509072E-02 -0.21777368623E-01  0.50000500000E+01  0.50000000000E+01 0.  0.
         50    1    1    2    0    0 -0.13395205789E-03  0.50725509072E-02  0.21777368623E-01  0.50000500000E+01  0.50000000000E+01 0.  1.
</event>
<event>
 4    1  0.4973396E-021  0.5000050E+01  0.7818608E-02  0.2136455E+00
        -11   -1    0    0    0    0  0.00000000000E+00  0.00000000000E+00  0.50000499739E+01  0.50000500000E+01  0.51100000000E-03 0.  1.
         11   -1    0    0    0    0 -0.00000000000E+00 -0.00000000000E+00 -0.50000499739E+01  0.50000500000E+01  0.51100000000E-03 0. -1.
         50    1    1    2    0    0 -0.10381595844E-01 -0.19802174395E-01  0.31441526350E-03  0.50000500000E+01  0.50000000000E+01 0.  1.
         50    1    1    2    0    0  0.10381595844E-01  0.19802174395E-01 -0.31441526350E-03  0.50000500000E+01  0.50000000000E+01 0. -1.
</event>
<event>
 4    1  0.4973396E-021  0.5000050E+01  0.7818608E-02  0.2136455E+00
        -11   -1    0    0    0    0  0.00000000000E+00  0.00000000000E+00  0.50000499739E+01  0.50000500000E+01  0.51100000000E-03 0.  1.
         11   -1    0    0    0    0 -0.00000000000E+00 -0.00000000000E+00 -0.50000499739E+01  0.50000500000E+01  0.51100000000E-03 0. -1.
         50    1    1    2    0    0 -0.89568930635E-02 -0.20239619161E-01 -0.31834545478E-02  0.50000500000E+01  0.50000000000E+01 0.  1.
         50    1    1    2    0    0  0.89568930635E-02  0.20239619161E-01  0.31834545478E-02  0.50000500000E+01  0.50000000000E+01 0. -1.
</event>
<event>
 4    1  0.4973396E-021  0.5000050E+01  0.7818608E-02  0.2136455E+00
        -11   -1    0    0    0    0  0.00000000000E+00  0.00000000000E+00  0.50000499739E+01  0.50000500000E+01  0.51100000000E-03 0.  1.
         11   -1    0    0    0    0 -0.00000000000E+00 -0.00000000000E+00 -0.50000499739E+01  0.50000500000E+01  0.51100000000E-03 0. -1.
         50    1    1    2    0    0 -0.16431049606E-01 -0.14592473008E-01  0.41331392870E-02  0.50000500000E+01  0.50000000000E+01 0.  1.
         50    1    1    2    0    0  0.16431049606E-01  0.14592473008E-01 -0.41331392870E-02  0.50000500000E+01  0.50000000000E+01 0. -1.
</event>
<event>
 4    1  0.4973396E-021  0.5000050E+01  0.7818608E-02  0.2136455E+00
        -11   -1    0    0    0    0  0.00000000000E+00  0.00000000000E+00  0.50000499739E+01  0.50000500000E+01  0.51100000000E-03 0. -1.
         11   -1    0    0    0    0 -0.00000000000E+00 -0.00000000000E+00 -0.50000499739E+01  0.50000500000E+01  0.51100000000E-03 0.  1.
         50    1    1    2    0    0 -0.11133924014E-01  0.76268621989E-02  0.17828886926E-01  0.50000500000E+01  0.50000000000E+01 0. -1.
         50    1    1    2    0    0  0.11133924014E-01 -0.76268621989E-02 -0.17828886926E-01  0.50000500000E+01  0.50000000000E+01 0.  0.
</event>
<event>
 4    1  0.4973396E-021  0.5000050E+01  0.7818608E-02  0.2136455E+00
        -11   -1    0    0    0    0  0.00000000000E+00  0.00000000000E+00  0.50000499739E+01  0.50000500000E+01  0.51100000000E-03 0. -1.
         11   -1    0    0    0    0 -0.00000000000E+00 -0.00000000000E+00 -0.50000499739E+01  0.50000500000E+01  0.51100000000E-03 0.  1.
         50    1    1    2    0    0 -0.89448214912E-02 -0.19770622828E-01  0.53958448330E-02  0.50000500000E+01  0.50000000000E+01 0.  1.
         50    1    1    2    0    0  0.89448214912E-02  0.19770622828E-01 -0.53958448330E-02  0.50000500000E+01  0.50000000000E+01 0. -1.
</event>
<event>
 4    1  0.4973396E-021  0.5000050E+01  0.7818608E-02  0.2136455E+00
        -11   -1    0    0    0    0  0.00000000000E+00  0.00000000000E+00  0.50000499739E+01  0.50000500000E+01  0.51100000000E-03 0.  1.
         11   -1    0    0    0    0 -0.00000000000E+00 -0.00000000000E+00 -0.50000499739E+01  0.50000500000E+01  0.51100000000E-03 0. -1.
         50    1    1    2    0    0  0.66499351477E-02 -0.39161610276E-02  0.20986770722E-01  0.50000500000E+01  0.50000000000E+01 0.  0.
         50    1    1    2    0    0 -0.66499351477E-02  0.39161610276E-02 -0.20986770722E-01  0.50000500000E+01  0.50000000000E+01 0. -1.
</event>
<event>
 4    1  0.4973396E-021  0.5000050E+01  0.7818608E-02  0.2136455E+00
        -11   -1    0    0    0    0  0.00000000000E+00  0.00000000000E+00  0.50000499739E+01  0.50000500000E+01  0.51100000000E-03 0.  1.
         11   -1    0    0    0    0 -0.00000000000E+00 -0.00000000000E+00 -0.50000499739E+01  0.50000500000E+01  0.51100000000E-03 0. -1.
         50    1    1    2    0    0 -0.66384128744E-02  0.20847036873E-01  0.46189856159E-02  0.50000500000E+01  0.50000000000E+01 0. -1.
         50    1    1    2    0    0  0.66384128744E-02 -0.20847036873E-01 -0.46189856159E-02  0.50000500000E+01  0.50000000000E+01 0.  1.
</event>
<event>
 4    1  0.4973396E-021  0.5000050E+01  0.7818608E-02  0.2136455E+00
        -11   -1    0    0    0    0  0.00000000000E+00  0.00000000000E+00  0.50000499739E+01  0.50000500000E+01  0.51100000000E-03 0.  1.
         11   -1    0    0    0    0 -0.00000000000E+00 -0.00000000000E+00 -0.50000499739E+01  0.50000500000E+01  0.51100000000E-03 0. -1.
         50    1    1    2    0    0 -0.85385306702E-02  0.91037724846E-02  0.18553094635E-01  0.50000500000E+01  0.50000000000E+01 0.  1.
         50    1    1    2    0    0  0.85385306702E-02 -0.91037724846E-02 -0.18553094635E-01  0.50000500000E+01  0.50000000000E+01 0. -1.
</event>
<event>
 4    1  0.4973396E-021  0.5000050E+01  0.7818608E-02  0.2136455E+00
        -11   -1    0    0    0    0  0.00000000000E+00  0.00000000000E+00  0.50000499739E+01  0.50000500000E+01  0.51100000000E-03 0.  1.
         11   -1    0    0    0    0 -0.00000000000E+00 -0.00000000000E+00 -0.50000499739E+01  0.50000500000E+01  0.51100000000E-03 0. -1.
         50    1    1    2    0    0 -0.22421421262E-02 -0.21827393186E-01  0.43058338773E-02  0.50000500000E+01  0.50000000000E+01 0.  1.
         50    1    1    2    0    0  0.22421421262E-02  0.21827393186E-01 -0.43058338773E-02  0.50000500000E+01  0.50000000000E+01 0.  0.
</event>
<event>
 4    1  0.4973396E-021  0.5000050E+01  0.7818608E-02  0.2136455E+00
        -11   -1    0    0    0    0  0.00000000000E+00  0.00000000000E+00  0.50000499739E+01  0.50000500000E+01  0.51100000000E-03 0. -1.
         11   -1    0    0    0    0 -0.00000000000E+00 -0.00000000000E+00 -0.50000499739E+01  0.50000500000E+01  0.51100000000E-03 0.  1.
         50    1    1    2    0    0 -0.56190632726E-02  0.80283269486E-02  0.20099119243E-01  0.50000500000E+01  0.50000000000E+01 0.  0.
         50    1    1    2    0    0  0.56190632726E-02 -0.80283269486E-02 -0.20099119243E-01  0.50000500000E+01  0.50000000000E+01 0.  1.
</event>
<event>
 4    1  0.4973396E-021  0.5000050E+01  0.7818608E-02  0.2136455E+00
        -11   -1    0    0    0    0  0.00000000000E+00  0.00000000000E+00  0.50000499739E+01  0.50000500000E+01  0.51100000000E-03 0. -1.
         11   -1    0    0    0    0 -0.00000000000E+00 -0.00000000000E+00 -0.50000499739E+01  0.50000500000E+01  0.51100000000E-03 0.  1.
         50    1    1    2    0    0  0.84597441657E-02 -0.37667501143E-02 -0.20353054371E-01  0.50000500000E+01  0.50000000000E+01 0.  0.
         50    1    1    2    0    0 -0.84597441657E-02  0.37667501143E-02  0.20353054371E-01  0.50000500000E+01  0.50000000000E+01 0. -1.
</event>
<event>
 4    1  0.4973396E-021  0.5000050E+01  0.7818608E-02  0.2136455E+00
        -11   -1    0    0    0    0  0.00000000000E+00  0.00000000000E+00  0.50000499739E+01  0.50000500000E+01  0.51100000000E-03 0. -1.
         11   -1    0    0    0    0 -0.00000000000E+00 -0.00000000000E+00 -0.50000499739E+01  0.50000500000E+01  0.51100000000E-03 0.  1.
         50    1    1    2    0    0  0.19540413115E-02  0.22273444520E-01 -0.27909092650E-03  0.50000500000E+01  0.50000000000E+01 0.  1.
         50    1    1    2    0    0 -0.19540413115E-02 -0.22273444520E-01  0.27909092650E-03  0.50000500000E+01  0.50000000000E+01 0. -1.
</event>
<event>
 4    1  0.4973396E-021  0.5000050E+01  0.7818608E-02  0.2136455E+00
        -11   -1    0    0    0    0  0.00000000000E+00  0.00000000000E+00  0.50000499739E+01  0.50000500000E+01  0.51100000000E-03 0. -1.
         11   -1    0    0    0    0 -0.00000000000E+00 -0.00000000000E+00 -0.50000499739E+01  0.50000500000E+01  0.51100000000E-03 0.  1.
         50    1    1    2    0    0  0.71279975630E-02 -0.11321736072E-01 -0.17916820115E-01  0.50000500000E+01  0.50000000000E+01 0.  0.
         50    1    1    2    0    0 -0.71279975630E-02  0.11321736072E-01  0.17916820115E-01  0.50000500000E+01  0.50000000000E+01 0. -1.
</event>
<event>
 4    1  0.4973396E-021  0.5000050E+01  0.7818608E-02  0.2136455E+00
        -11   -1    0    0    0    0  0.00000000000E+00  0.00000000000E+00  0.50000499739E+01  0.50000500000E+01  0.51100000000E-03 0. -1.
         11   -1    0    0    0    0 -0.00000000000E+00 -0.00000000000E+00 -0.50000499739E+01  0.50000500000E+01  0.51100000000E-03 0.  1.
         50    1    1    2    0    0 -0.92085890294E-02 -0.14669709970E-01  0.14142276955E-01  0.50000500000E+01  0.50000000000E+01 0.  1.
         50    1    1    2    0    0  0.92085890294E-02  0.14669709970E-01 -0.14142276955E-01  0.50000500000E+01  0.50000000000E+01 0.  1.
</event>
<event>
 4    1  0.4973396E-021  0.5000050E+01  0.7818608E-02  0.2136455E+00
        -11   -1    0    0    0    0  0.00000000000E+00  0.00000000000E+00  0.50000499739E+01  0.50000500000E+01  0.51100000000E-03 0. -1.
         11   -1    0    0    0    0 -0.00000000000E+00 -0.00000000000E+00 -0.50000499739E+01  0.50000500000E+01  0.51100000000E-03 0.  1.
         50    1    1    2    0    0  0.10290732389E-01  0.19457291490E-01 -0.39391794529E-02  0.50000500000E+01  0.50000000000E+01 0.  0.
         50    1    1    2    0    0 -0.10290732389E-01 -0.19457291490E-01  0.39391794529E-02  0.50000500000E+01  0.50000000000E+01 0. -1.
</event>
<event>
 4    1  0.4973396E-021  0.5000050E+01  0.7818608E-02  0.2136455E+00
        -11   -1    0    0    0    0  0.00000000000E+00  0.00000000000E+00  0.50000499739E+01  0.50000500000E+01  0.51100000000E-03 0.  1.
         11   -1    0    0    0    0 -0.00000000000E+00 -0.00000000000E+00 -0.50000499739E+01  0.50000500000E+01  0.51100000000E-03 0. -1.
         50    1    1    2    0    0  0.72790890908E-02  0.17859379566E-01  0.11316356460E-01  0.50000500000E+01  0.50000000000E+01 0.  1.
         50    1    1    2    0    0 -0.72790890908E-02 -0.17859379566E-01 -0.11316356460E-01  0.50000500000E+01  0.50000000000E+01 0. -1.
</event>
<event>
 4    1  0.4973396E-021  0.5000050E+01  0.7818608E-02  0.2136455E+00
        -11   -1    0    0    0    0  0.00000000000E+00  0.00000000000E+00  0.50000499739E+01  0.50000500000E+01  0.51100000000E-03 0.  1.
         11   -1    0    0    0    0 -0.00000000000E+00 -0.00000000000E+00 -0.50000499739E+01  0.50000500000E+01  0.51100000000E-03 0. -1.
         50    1    1    2    0    0 -0.30749797582E-02 -0.12069109494E-01  0.18571041853E-01  0.50000500000E+01  0.50000000000E+01 0.  0.
         50    1    1    2    0    0  0.30749797582E-02  0.12069109494E-01 -0.18571041853E-01  0.50000500000E+01  0.50000000000E+01 0.  0.
</event>
<event>
 4    1  0.4973396E-021  0.5000050E+01  0.7818608E-02  0.2136455E+00
        -11   -1    0    0    0    0  0.00000000000E+00  0.00000000000E+00  0.50000499739E+01  0.50000500000E+01  0.51100000000E-03 0.  1.
         11   -1    0    0    0    0 -0.00000000000E+00 -0.00000000000E+00 -0.50000499739E+01  0.50000500000E+01  0.51100000000E-03 0. -1.
         50    1    1    2    0    0 -0.91611574263E-02  0.11262176485E-01 -0.17007030177E-01  0.50000500000E+01  0.50000000000E+01 0. -1.
         50    1    1    2    0    0  0.91611574263E-02 -0.11262176485E-01  0.17007030177E-01  0.50000500000E+01  0.50000000000E+01 0.  1.
</event>
<event>
 4    1  0.4973396E-021  0.5000050E+01  0.7818608E-02  0.2136455E+00
        -11   -1    0    0    0    0  0.00000000000E+00  0.00000000000E+00  0.50000499739E+01  0.50000500000E+01  0.51100000000E-03 0.  1.
         11   -1    0    0    0    0 -0.00000000000E+00 -0.00000000000E+00 -0.50000499739E+01  0.50000500000E+01  0.51100000000E-03 0. -1.
         50    1    1    2    0    0  0.60279271541E-02 -0.10640847770E-01  0.18720014769E-01  0.50000500000E+01  0.50000000000E+01 0.  0.
         50    1    1    2    0    0 -0.60279271541E-02  0.10640847770E-01 -0.18720014769E-01  0.50000500000E+01  0.50000000000E+01 0. -1.
</event>
<event>
 4    1  0.4973396E-021  0.5000050E+01  0.7818608E-02  0.2136455E+00
        -11   -1    0    0    0    0  0.00000000000E+00  0.00000000000E+00  0.50000499739E+01  0.50000500000E+01  0.51100000000E-03 0.  1.
         11   -1    0    0    0    0 -0.00000000000E+00 -0.00000000000E+00 -0.50000499739E+01  0.50000500000E+01  0.51100000000E-03 0. -1.
         50    1    1    2    0    0  0.10538345273E-01 -0.19026893885E-01  0.51887462842E-02  0.50000500000E+01  0.50000000000E+01 0. -1.
         50    1    1    2    0    0 -0.10538345273E-01  0.19026893885E-01 -0.51887462842E-02  0.50000500000E+01  0.50000000000E+01 0.  0.
</event>
<event>
 4    1  0.4973396E-021  0.5000050E+01  0.7818608E-02  0.2136455E+00
        -11   -1    0    0    0    0  0.00000000000E+00  0.00000000000E+00  0.50000499739E+01  0.50000500000E+01  0.51100000000E-03 0.  1.
         11   -1    0    0    0    0 -0.00000000000E+00 -0.00000000000E+00 -0.50000499739E+01  0.50000500000E+01  0.51100000000E-03 0. -1.
         50    1    1    2    0    0 -0.52415021614E-02 -0.11704802592E-01  0.18317389317E-01  0.50000500000E+01  0.50000000000E+01 0.  1.
         50    1    1    2    0    0  0.52415021614E-02  0.11704802592E-01 -0.18317389317E-01  0.50000500000E+01  0.50000000000E+01 0.  0.
</event>
<event>
 4    1  0.4973396E-021  0.5000050E+01  0.7818608E-02  0.2136455E+00
        -11   -1    0    0    0    0  0.00000000000E+00  0.00000000000E+00  0.50000499739E+01  0.50000500000E+01  0.51100000000E-03 0. -1.
         11   -1    0    0    0    0 -0.00000000000E+00 -0.00000000000E+00 -0.50000499739E+01  0.50000500000E+01  0.51100000000E-03 0.  1.
         50    1    1    2    0    0  0.71683704256E-02 -0.40921660804E-02  0.20781509623E-01  0.50000500000E+01  0.50000000000E+01 0.  0.
         50    1    1    2    0    0 -0.71683704256E-02  0.40921660804E-02 -0.20781509623E-01  0.50000500000E+01  0.50000000000E+01 0.  0.
</event>
<event>
 4    1  0.4973396E-021  0.5000050E+01  0.7818608E-02  0.2136455E+00
        -11   -1    0    0    0    0  0.00000000000E+00  0.00000000000E+00  0.50000499739E+01  0.50000500000E+01  0.51100000000E-03 0. -1.
         11   -1    0    0    0    0 -0.00000000000E+00 -0.00000000000E+00 -0.50000499739E+01  0.50000500000E+01  0.51100000000E-03 0.  1.
         50    1    1    2    0    0 -0.16866468408E-01 -0.75997708331E-02  0.12560582261E-01  0.50000500000E+01  0.50000000000E+01 0. -1.
         50    1    1    2    0    0  0.16866468408E-01  0.75997708331E-02 -0.12560582261E-01  0.50000500000E+01  0.50000000000E+01 0.  1.
</event>
<event>
 4    1  0.4973396E-021  0.5000050E+01  0.7818608E-02  0.2136455E+00
        -11   -1    0    0    0    0  0.00000000000E+00  0.00000000000E+00  0.50000499739E+01  0.50000500000E+01  0.51100000000E-03 0.  1.
         11   -1    0    0    0    0 -0.00000000000E+00 -0.00000000000E+00 -0.50000499739E+01  0.50000500000E+01  0.51100000000E-03 0. -1.
         50    1    1    2    0    0  0.12569645516E-03 -0.14847395380E-01  0.16719496130E-01  0.50000500000E+01  0.50000000000E+01 0.  0.
         50    1    1    2    0    0 -0.12569645516E-03  0.14847395380E-01 -0.16719496130E-01  0.50000500000E+01  0.50000000000E+01 0.  0.
</event>
<event>
 4    1  0.4973396E-021  0.5000050E+01  0.7818608E-02  0.2136455E+00
        -11   -1    0    0    0    0  0.00000000000E+00  0.00000000000E+00  0.50000499739E+01  0.50000500000E+01  0.51100000000E-03 0.  1.
         11   -1    0    0    0    0 -0.00000000000E+00 -0.00000000000E+00 -0.50000499739E+01  0.50000500000E+01  0.51100000000E-03 0. -1.
         50    1    1    2    0    0 -0.10400588787E-01 -0.19622151747E-01  0.26079520136E-02  0.50000500000E+01  0.50000000000E+01 0.  1.
         50    1    1    2    0    0  0.10400588787E-01  0.19622151747E-01 -0.26079520136E-02  0.50000500000E+01  0.50000000000E+01 0. -1.
</event>
<event>
 4    1  0.4973396E-021  0.5000050E+01  0.7818608E-02  0.2136455E+00
        -11   -1    0    0    0    0  0.00000000000E+00  0.00000000000E+00  0.50000499739E+01  0.50000500000E+01  0.51100000000E-03 0. -1.
         11   -1    0    0    0    0 -0.00000000000E+00 -0.00000000000E+00 -0.50000499739E+01  0.50000500000E+01  0.51100000000E-03 0.  1.
         50    1    1    2    0    0 -0.58912544896E-02 -0.19430108614E-01 -0.93683776498E-02  0.50000500000E+01  0.50000000000E+01 0.  0.
         50    1    1    2    0    0  0.58912544896E-02  0.19430108614E-01  0.93683776498E-02  0.50000500000E+01  0.50000000000E+01 0.  0.
</event>
<event>
 4    1  0.4973396E-021  0.5000050E+01  0.7818608E-02  0.2136455E+00
        -11   -1    0    0    0    0  0.00000000000E+00  0.00000000000E+00  0.50000499739E+01  0.50000500000E+01  0.51100000000E-03 0. -1.
         11   -1    0    0    0    0 -0.00000000000E+00 -0.00000000000E+00 -0.50000499739E+01  0.50000500000E+01  0.51100000000E-03 0.  1.
         50    1    1    2    0    0 -0.22918411007E-02  0.95653718659E-02  0.20081175898E-01  0.50000500000E+01  0.50000000000E+01 0. -1.
         50    1    1    2    0    0  0.22918411007E-02 -0.95653718659E-02 -0.20081175898E-01  0.50000500000E+01  0.50000000000E+01 0.  0.
</event>
<event>
 4    1  0.4973396E-021  0.5000050E+01  0.7818608E-02  0.2136455E+00
        -11   -1    0    0    0    0  0.00000000000E+00  0.00000000000E+00  0.50000499739E+01  0.50000500000E+01  0.51100000000E-03 0.  1.
         11   -1    0    0    0    0 -0.00000000000E+00 -0.00000000000E+00 -0.50000499739E+01  0.50000500000E+01  0.51100000000E-03 0. -1.
         50    1    1    2    0    0  0.15654166189E-01 -0.52605884810E-02  0.15075668800E-01  0.50000500000E+01  0.50000000000E+01 0.  1.
         50    1    1    2    0    0 -0.15654166189E-01  0.52605884810E-02 -0.15075668800E-01  0.50000500000E+01  0.50000000000E+01 0.  0.
</event>
<event>
 4    1  0.4973396E-021  0.5000050E+01  0.7818608E-02  0.2136455E+00
        -11   -1    0    0    0    0  0.00000000000E+00  0.00000000000E+00  0.50000499739E+01  0.50000500000E+01  0.51100000000E-03 0. -1.
         11   -1    0    0    0    0 -0.00000000000E+00 -0.00000000000E+00 -0.50000499739E+01  0.50000500000E+01  0.51100000000E-03 0.  1.
         50    1    1    2    0    0 -0.32506416526E-02 -0.14932327712E-01 -0.16323645976E-01  0.50000500000E+01  0.50000000000E+01 0.  0.
         50    1    1    2    0    0  0.32506416526E-02  0.14932327712E-01  0.16323645976E-01  0.50000500000E+01  0.50000000000E+01 0.  0.
</event>
<event>
 4    1  0.4973396E-021  0.5000050E+01  0.7818608E-02  0.2136455E+00
        -11   -1    0    0    0    0  0.00000000000E+00  0.00000000000E+00  0.50000499739E+01  0.50000500000E+01  0.51100000000E-03 0.  1.
         11   -1    0    0    0    0 -0.00000000000E+00 -0.00000000000E+00 -0.50000499739E+01  0.50000500000E+01  0.51100000000E-03 0. -1.
         50    1    1    2    0    0  0.17476477514E-01 -0.29419488458E-02 -0.13635254698E-01  0.50000500000E+01  0.50000000000E+01 0.  0.
         50    1    1    2    0    0 -0.17476477514E-01  0.29419488458E-02  0.13635254698E-01  0.50000500000E+01  0.50000000000E+01 0.  0.
</event>
<event>
 4    1  0.4973396E-021  0.5000050E+01  0.7818608E-02  0.2136455E+00
        -11   -1    0    0    0    0  0.00000000000E+00  0.00000000000E+00  0.50000499739E+01  0.50000500000E+01  0.51100000000E-03 0.  1.
         11   -1    0    0    0    0 -0.00000000000E+00 -0.00000000000E+00 -0.50000499739E+01  0.50000500000E+01  0.51100000000E-03 0. -1.
         50    1    1    2    0    0  0.20858348018E-01  0.73016832633E-02  0.34084071774E-02  0.50000500000E+01  0.50000000000E+01 0.  0.
         50    1    1    2    0    0 -0.20858348018E-01 -0.73016832633E-02 -0.34084071774E-02  0.50000500000E+01  0.50000000000E+01 0. -1.
</event>
<event>
 4    1  0.4973396E-021  0.5000050E+01  0.7818608E-02  0.2136455E+00
        -11   -1    0    0    0    0  0.00000000000E+00  0.00000000000E+00  0.50000499739E+01  0.50000500000E+01  0.51100000000E-03 0.  1.
         11   -1    0    0    0    0 -0.00000000000E+00 -0.00000000000E+00 -0.50000499739E+01  0.50000500000E+01  0.51100000000E-03 0. -1.
         50    1    1    2    0    0  0.71671694813E-02  0.16088421041E-01  0.13776679209E-01  0.50000500000E+01  0.50000000000E+01 0.  0.
         50    1    1    2    0    0 -0.71671694813E-02 -0.16088421041E-01 -0.13776679209E-01  0.50000500000E+01  0.50000000000E+01 0.  0.
</event>
<event>
 4    1  0.4973396E-021  0.5000050E+01  0.7818608E-02  0.2136455E+00
        -11   -1    0    0    0    0  0.00000000000E+00  0.00000000000E+00  0.50000499739E+01  0.50000500000E+01  0.51100000000E-03 0. -1.
         11   -1    0    0    0    0 -0.00000000000E+00 -0.00000000000E+00 -0.50000499739E+01  0.50000500000E+01  0.51100000000E-03 0.  1.
         50    1    1    2    0    0  0.44838182475E-02  0.94729468330E-02 -0.19752497367E-01  0.50000500000E+01  0.50000000000E+01 0.  0.
         50    1    1    2    0    0 -0.44838182475E-02 -0.94729468330E-02  0.19752497367E-01  0.50000500000E+01  0.50000000000E+01 0.  0.
</event>
<event>
 4    1  0.4973396E-021  0.5000050E+01  0.7818608E-02  0.2136455E+00
        -11   -1    0    0    0    0  0.00000000000E+00  0.00000000000E+00  0.50000499739E+01  0.50000500000E+01  0.51100000000E-03 0.  1.
         11   -1    0    0    0    0 -0.00000000000E+00 -0.00000000000E+00 -0.50000499739E+01  0.50000500000E+01  0.51100000000E-03 0. -1.
         50    1    1    2    0    0 -0.17782994053E-01 -0.49777527250E-02 -0.12609107832E-01  0.50000500000E+01  0.50000000000E+01 0. -1.
         50    1    1    2    0    0  0.17782994053E-01  0.49777527250E-02  0.12609107832E-01  0.50000500000E+01  0.50000000000E+01 0.  1.
</event>
<event>
 4    1  0.4973396E-021  0.5000050E+01  0.7818608E-02  0.2136455E+00
        -11   -1    0    0    0    0  0.00000000000E+00  0.00000000000E+00  0.50000499739E+01  0.50000500000E+01  0.51100000000E-03 0. -1.
         11   -1    0    0    0    0 -0.00000000000E+00 -0.00000000000E+00 -0.50000499739E+01  0.50000500000E+01  0.51100000000E-03 0.  1.
         50    1    1    2    0    0  0.30914698872E-02 -0.51050021661E-02 -0.21549576952E-01  0.50000500000E+01  0.50000000000E+01 0.  0.
         50    1    1    2    0    0 -0.30914698872E-02  0.51050021661E-02  0.21549576952E-01  0.50000500000E+01  0.50000000000E+01 0. -1.
</event>
<event>
 4    1  0.4973396E-021  0.5000050E+01  0.7818608E-02  0.2136455E+00
        -11   -1    0    0    0    0  0.00000000000E+00  0.00000000000E+00  0.50000499739E+01  0.50000500000E+01  0.51100000000E-03 0.  1.
         11   -1    0    0    0    0 -0.00000000000E+00 -0.00000000000E+00 -0.50000499739E+01  0.50000500000E+01  0.51100000000E-03 0. -1.
         50    1    1    2    0    0  0.59232331492E-02  0.13049134138E-01  0.17165019875E-01  0.50000500000E+01  0.50000000000E+01 0. -1.
         50    1    1    2    0    0 -0.59232331492E-02 -0.13049134138E-01 -0.17165019875E-01  0.50000500000E+01  0.50000000000E+01 0.  0.
</event>
<event>
 4    1  0.4973396E-021  0.5000050E+01  0.7818608E-02  0.2136455E+00
        -11   -1    0    0    0    0  0.00000000000E+00  0.00000000000E+00  0.50000499739E+01  0.50000500000E+01  0.51100000000E-03 0. -1.
         11   -1    0    0    0    0 -0.00000000000E+00 -0.00000000000E+00 -0.50000499739E+01  0.50000500000E+01  0.51100000000E-03 0.  1.
         50    1    1    2    0    0 -0.50672640760E-02  0.18866837239E-01 -0.10879696107E-01  0.50000500000E+01  0.50000000000E+01 0. -1.
         50    1    1    2    0    0  0.50672640760E-02 -0.18866837239E-01  0.10879696107E-01  0.50000500000E+01  0.50000000000E+01 0.  0.
</event>
<event>
 4    1  0.4973396E-021  0.5000050E+01  0.7818608E-02  0.2136455E+00
        -11   -1    0    0    0    0  0.00000000000E+00  0.00000000000E+00  0.50000499739E+01  0.50000500000E+01  0.51100000000E-03 0. -1.
         11   -1    0    0    0    0 -0.00000000000E+00 -0.00000000000E+00 -0.50000499739E+01  0.50000500000E+01  0.51100000000E-03 0.  1.
         50    1    1    2    0    0 -0.26374015969E-02  0.13805483279E-01 -0.17391240446E-01  0.50000500000E+01  0.50000000000E+01 0.  1.
         50    1    1    2    0    0  0.26374015969E-02 -0.13805483279E-01  0.17391240446E-01  0.50000500000E+01  0.50000000000E+01 0. -1.
</event>
<event>
 4    1  0.4973396E-021  0.5000050E+01  0.7818608E-02  0.2136455E+00
        -11   -1    0    0    0    0  0.00000000000E+00  0.00000000000E+00  0.50000499739E+01  0.50000500000E+01  0.51100000000E-03 0.  1.
         11   -1    0    0    0    0 -0.00000000000E+00 -0.00000000000E+00 -0.50000499739E+01  0.50000500000E+01  0.51100000000E-03 0. -1.
         50    1    1    2    0    0 -0.23978489782E-02 -0.52844372525E-02 -0.21594618385E-01  0.50000500000E+01  0.50000000000E+01 0.  0.
         50    1    1    2    0    0  0.23978489782E-02  0.52844372525E-02  0.21594618385E-01  0.50000500000E+01  0.50000000000E+01 0.  1.
</event>
<event>
 4    1  0.4973396E-021  0.5000050E+01  0.7818608E-02  0.2136455E+00
        -11   -1    0    0    0    0  0.00000000000E+00  0.00000000000E+00  0.50000499739E+01  0.50000500000E+01  0.51100000000E-03 0. -1.
         11   -1    0    0    0    0 -0.00000000000E+00 -0.00000000000E+00 -0.50000499739E+01  0.50000500000E+01  0.51100000000E-03 0.  1.
         50    1    1    2    0    0 -0.18506854956E-01  0.12462144369E-01  0.14811405634E-02  0.50000500000E+01  0.50000000000E+01 0. -1.
         50    1    1    2    0    0  0.18506854956E-01 -0.12462144369E-01 -0.14811405634E-02  0.50000500000E+01  0.50000000000E+01 0.  1.
</event>
<event>
 4    1  0.4973396E-021  0.5000050E+01  0.7818608E-02  0.2136455E+00
        -11   -1    0    0    0    0  0.00000000000E+00  0.00000000000E+00  0.50000499739E+01  0.50000500000E+01  0.51100000000E-03 0. -1.
         11   -1    0    0    0    0 -0.00000000000E+00 -0.00000000000E+00 -0.50000499739E+01  0.50000500000E+01  0.51100000000E-03 0.  1.
         50    1    1    2    0    0  0.12349599167E-01  0.18640917238E-01  0.78134158067E-04  0.50000500000E+01  0.50000000000E+01 0.  0.
         50    1    1    2    0    0 -0.12349599167E-01 -0.18640917238E-01 -0.78134158067E-04  0.50000500000E+01  0.50000000000E+01 0.  1.
</event>
<event>
 4    1  0.4973396E-021  0.5000050E+01  0.7818608E-02  0.2136455E+00
        -11   -1    0    0    0    0  0.00000000000E+00  0.00000000000E+00  0.50000499739E+01  0.50000500000E+01  0.51100000000E-03 0. -1.
         11   -1    0    0    0    0 -0.00000000000E+00 -0.00000000000E+00 -0.50000499739E+01  0.50000500000E+01  0.51100000000E-03 0.  1.
         50    1    1    2    0    0 -0.63640918307E-02 -0.23304870884E-02 -0.21308910462E-01  0.50000500000E+01  0.50000000000E+01 0.  0.
         50    1    1    2    0    0  0.63640918307E-02  0.23304870884E-02  0.21308910462E-01  0.50000500000E+01  0.50000000000E+01 0. -1.
</event>
<event>
 4    1  0.4973396E-021  0.5000050E+01  0.7818608E-02  0.2136455E+00
        -11   -1    0    0    0    0  0.00000000000E+00  0.00000000000E+00  0.50000499739E+01  0.50000500000E+01  0.51100000000E-03 0. -1.
         11   -1    0    0    0    0 -0.00000000000E+00 -0.00000000000E+00 -0.50000499739E+01  0.50000500000E+01  0.51100000000E-03 0.  1.
         50    1    1    2    0    0  0.58773827864E-02  0.12267176616E-01  0.17747542068E-01  0.50000500000E+01  0.50000000000E+01 0.  0.
         50    1    1    2    0    0 -0.58773827864E-02 -0.12267176616E-01 -0.17747542068E-01  0.50000500000E+01  0.50000000000E+01 0.  1.
</event>
<event>
 4    1  0.4973396E-021  0.5000050E+01  0.7818608E-02  0.2136455E+00
        -11   -1    0    0    0    0  0.00000000000E+00  0.00000000000E+00  0.50000499739E+01  0.50000500000E+01  0.51100000000E-03 0.  1.
         11   -1    0    0    0    0 -0.00000000000E+00 -0.00000000000E+00 -0.50000499739E+01  0.50000500000E+01  0.51100000000E-03 0. -1.
         50    1    1    2    0    0  0.52816818632E-02  0.19790998132E-01  0.89678720783E-02  0.50000500000E+01  0.50000000000E+01 0.  0.
         50    1    1    2    0    0 -0.52816818632E-02 -0.19790998132E-01 -0.89678720783E-02  0.50000500000E+01  0.50000000000E+01 0.  0.
</event>
<event>
 4    1  0.4973396E-021  0.5000050E+01  0.7818608E-02  0.2136455E+00
        -11   -1    0    0    0    0  0.00000000000E+00  0.00000000000E+00  0.50000499739E+01  0.50000500000E+01  0.51100000000E-03 0. -1.
         11   -1    0    0    0    0 -0.00000000000E+00 -0.00000000000E+00 -0.50000499739E+01  0.50000500000E+01  0.51100000000E-03 0.  1.
         50    1    1    2    0    0  0.73892488537E-02 -0.12159660362E-01  0.17249468434E-01  0.50000500000E+01  0.50000000000E+01 0.  0.
         50    1    1    2    0    0 -0.73892488537E-02  0.12159660362E-01 -0.17249468434E-01  0.50000500000E+01  0.50000000000E+01 0.  0.
</event>
<event>
 4    1  0.4973396E-021  0.5000050E+01  0.7818608E-02  0.2136455E+00
        -11   -1    0    0    0    0  0.00000000000E+00  0.00000000000E+00  0.50000499739E+01  0.50000500000E+01  0.51100000000E-03 0. -1.
         11   -1    0    0    0    0 -0.00000000000E+00 -0.00000000000E+00 -0.50000499739E+01  0.50000500000E+01  0.51100000000E-03 0.  1.
         50    1    1    2    0    0 -0.88474304369E-02  0.16110951482E-01 -0.12734312585E-01  0.50000500000E+01  0.50000000000E+01 0. -1.
         50    1    1    2    0    0  0.88474304369E-02 -0.16110951482E-01  0.12734312585E-01  0.50000500000E+01  0.50000000000E+01 0.  0.
</event>
<event>
 4    1  0.4973396E-021  0.5000050E+01  0.7818608E-02  0.2136455E+00
        -11   -1    0    0    0    0  0.00000000000E+00  0.00000000000E+00  0.50000499739E+01  0.50000500000E+01  0.51100000000E-03 0.  1.
         11   -1    0    0    0    0 -0.00000000000E+00 -0.00000000000E+00 -0.50000499739E+01  0.50000500000E+01  0.51100000000E-03 0. -1.
         50    1    1    2    0    0 -0.11151020673E-01  0.58319218047E-02 -0.18483666466E-01  0.50000500000E+01  0.50000000000E+01 0. -1.
         50    1    1    2    0    0  0.11151020673E-01 -0.58319218047E-02  0.18483666466E-01  0.50000500000E+01  0.50000000000E+01 0.  0.
</event>
<event>
 4    1  0.4973396E-021  0.5000050E+01  0.7818608E-02  0.2136455E+00
        -11   -1    0    0    0    0  0.00000000000E+00  0.00000000000E+00  0.50000499739E+01  0.50000500000E+01  0.51100000000E-03 0. -1.
         11   -1    0    0    0    0 -0.00000000000E+00 -0.00000000000E+00 -0.50000499739E+01  0.50000500000E+01  0.51100000000E-03 0.  1.
         50    1    1    2    0    0  0.85021015868E-02 -0.99082480021E-02 -0.18153330001E-01  0.50000500000E+01  0.50000000000E+01 0.  0.
         50    1    1    2    0    0 -0.85021015868E-02  0.99082480021E-02  0.18153330001E-01  0.50000500000E+01  0.50000000000E+01 0.  0.
</event>
<event>
 4    1  0.4973396E-021  0.5000050E+01  0.7818608E-02  0.2136455E+00
        -11   -1    0    0    0    0  0.00000000000E+00  0.00000000000E+00  0.50000499739E+01  0.50000500000E+01  0.51100000000E-03 0.  1.
         11   -1    0    0    0    0 -0.00000000000E+00 -0.00000000000E+00 -0.50000499739E+01  0.50000500000E+01  0.51100000000E-03 0. -1.
         50    1    1    2    0    0 -0.19353868807E-02 -0.21096466394E-01 -0.71551298601E-02  0.50000500000E+01  0.50000000000E+01 0. -1.
         50    1    1    2    0    0  0.19353868807E-02  0.21096466394E-01  0.71551298601E-02  0.50000500000E+01  0.50000000000E+01 0.  1.
</event>
<event>
 4    1  0.4973396E-021  0.5000050E+01  0.7818608E-02  0.2136455E+00
        -11   -1    0    0    0    0  0.00000000000E+00  0.00000000000E+00  0.50000499739E+01  0.50000500000E+01  0.51100000000E-03 0. -1.
         11   -1    0    0    0    0 -0.00000000000E+00 -0.00000000000E+00 -0.50000499739E+01  0.50000500000E+01  0.51100000000E-03 0.  1.
         50    1    1    2    0    0  0.14607160125E-01  0.83932090559E-02  0.14703313056E-01  0.50000500000E+01  0.50000000000E+01 0. -1.
         50    1    1    2    0    0 -0.14607160125E-01 -0.83932090559E-02 -0.14703313056E-01  0.50000500000E+01  0.50000000000E+01 0.  1.
</event>
<event>
 4    1  0.4973396E-021  0.5000050E+01  0.7818608E-02  0.2136455E+00
        -11   -1    0    0    0    0  0.00000000000E+00  0.00000000000E+00  0.50000499739E+01  0.50000500000E+01  0.51100000000E-03 0. -1.
         11   -1    0    0    0    0 -0.00000000000E+00 -0.00000000000E+00 -0.50000499739E+01  0.50000500000E+01  0.51100000000E-03 0.  1.
         50    1    1    2    0    0 -0.70679929220E-02  0.20777238243E-01 -0.42839639387E-02  0.50000500000E+01  0.50000000000E+01 0.  0.
         50    1    1    2    0    0  0.70679929220E-02 -0.20777238243E-01  0.42839639387E-02  0.50000500000E+01  0.50000000000E+01 0.  0.
</event>
<event>
 4    1  0.4973396E-021  0.5000050E+01  0.7818608E-02  0.2136455E+00
        -11   -1    0    0    0    0  0.00000000000E+00  0.00000000000E+00  0.50000499739E+01  0.50000500000E+01  0.51100000000E-03 0.  1.
         11   -1    0    0    0    0 -0.00000000000E+00 -0.00000000000E+00 -0.50000499739E+01  0.50000500000E+01  0.51100000000E-03 0. -1.
         50    1    1    2    0    0  0.26329406779E-02 -0.21852424866E-01  0.39422900501E-02  0.50000500000E+01  0.50000000000E+01 0.  0.
         50    1    1    2    0    0 -0.26329406779E-02  0.21852424866E-01 -0.39422900501E-02  0.50000500000E+01  0.50000000000E+01 0.  1.
</event>
<event>
 4    1  0.4973396E-021  0.5000050E+01  0.7818608E-02  0.2136455E+00
        -11   -1    0    0    0    0  0.00000000000E+00  0.00000000000E+00  0.50000499739E+01  0.50000500000E+01  0.51100000000E-03 0. -1.
         11   -1    0    0    0    0 -0.00000000000E+00 -0.00000000000E+00 -0.50000499739E+01  0.50000500000E+01  0.51100000000E-03 0.  1.
         50    1    1    2    0    0 -0.94745791521E-03 -0.16213833830E-01  0.15369333623E-01  0.50000500000E+01  0.50000000000E+01 0.  0.
         50    1    1    2    0    0  0.94745791521E-03  0.16213833830E-01 -0.15369333623E-01  0.50000500000E+01  0.50000000000E+01 0.  0.
</event>
<event>
 4    1  0.4973396E-021  0.5000050E+01  0.7818608E-02  0.2136455E+00
        -11   -1    0    0    0    0  0.00000000000E+00  0.00000000000E+00  0.50000499739E+01  0.50000500000E+01  0.51100000000E-03 0.  1.
         11   -1    0    0    0    0 -0.00000000000E+00 -0.00000000000E+00 -0.50000499739E+01  0.50000500000E+01  0.51100000000E-03 0. -1.
         50    1    1    2    0    0  0.14290453702E-01 -0.59037693059E-03  0.17188277635E-01  0.50000500000E+01  0.50000000000E+01 0.  1.
         50    1    1    2    0    0 -0.14290453702E-01  0.59037693059E-03 -0.17188277635E-01  0.50000500000E+01  0.50000000000E+01 0.  1.
</event>
<event>
 4    1  0.4973396E-021  0.5000050E+01  0.7818608E-02  0.2136455E+00
        -11   -1    0    0    0    0  0.00000000000E+00  0.00000000000E+00  0.50000499739E+01  0.50000500000E+01  0.51100000000E-03 0.  1.
         11   -1    0    0    0    0 -0.00000000000E+00 -0.00000000000E+00 -0.50000499739E+01  0.50000500000E+01  0.51100000000E-03 0. -1.
         50    1    1    2    0    0  0.64515269348E-02  0.71382982665E-02  0.20184771439E-01  0.50000500000E+01  0.50000000000E+01 0.  0.
         50    1    1    2    0    0 -0.64515269348E-02 -0.71382982665E-02 -0.20184771439E-01  0.50000500000E+01  0.50000000000E+01 0. -1.
</event>
<event>
 4    1  0.4973396E-021  0.5000050E+01  0.7818608E-02  0.2136455E+00
        -11   -1    0    0    0    0  0.00000000000E+00  0.00000000000E+00  0.50000499739E+01  0.50000500000E+01  0.51100000000E-03 0. -1.
         11   -1    0    0    0    0 -0.00000000000E+00 -0.00000000000E+00 -0.50000499739E+01  0.50000500000E+01  0.51100000000E-03 0.  1.
         50    1    1    2    0    0 -0.94942023071E-02  0.15434303355E-01 -0.13101332088E-01  0.50000500000E+01  0.50000000000E+01 0. -1.
         50    1    1    2    0    0  0.94942023071E-02 -0.15434303355E-01  0.13101332088E-01  0.50000500000E+01  0.50000000000E+01 0. -1.
</event>
<event>
 4    1  0.4973396E-021  0.5000050E+01  0.7818608E-02  0.2136455E+00
        -11   -1    0    0    0    0  0.00000000000E+00  0.00000000000E+00  0.50000499739E+01  0.50000500000E+01  0.51100000000E-03 0.  1.
         11   -1    0    0    0    0 -0.00000000000E+00 -0.00000000000E+00 -0.50000499739E+01  0.50000500000E+01  0.51100000000E-03 0. -1.
         50    1    1    2    0    0 -0.84346760314E-02  0.20684220055E-01  0.10108318142E-02  0.50000500000E+01  0.50000000000E+01 0.  0.
         50    1    1    2    0    0  0.84346760314E-02 -0.20684220055E-01 -0.10108318142E-02  0.50000500000E+01  0.50000000000E+01 0. -1.
</event>
<event>
 4    1  0.4973396E-021  0.5000050E+01  0.7818608E-02  0.2136455E+00
        -11   -1    0    0    0    0  0.00000000000E+00  0.00000000000E+00  0.50000499739E+01  0.50000500000E+01  0.51100000000E-03 0. -1.
         11   -1    0    0    0    0 -0.00000000000E+00 -0.00000000000E+00 -0.50000499739E+01  0.50000500000E+01  0.51100000000E-03 0.  1.
         50    1    1    2    0    0  0.10896909207E-01  0.98705643695E-02 -0.16847309244E-01  0.50000500000E+01  0.50000000000E+01 0.  0.
         50    1    1    2    0    0 -0.10896909207E-01 -0.98705643695E-02  0.16847309244E-01  0.50000500000E+01  0.50000000000E+01 0.  0.
</event>
<event>
 4    1  0.4973396E-021  0.5000050E+01  0.7818608E-02  0.2136455E+00
        -11   -1    0    0    0    0  0.00000000000E+00  0.00000000000E+00  0.50000499739E+01  0.50000500000E+01  0.51100000000E-03 0. -1.
         11   -1    0    0    0    0 -0.00000000000E+00 -0.00000000000E+00 -0.50000499739E+01  0.50000500000E+01  0.51100000000E-03 0.  1.
         50    1    1    2    0    0 -0.12897975329E-01  0.54908254682E-02  0.17421124191E-01  0.50000500000E+01  0.50000000000E+01 0.  0.
         50    1    1    2    0    0  0.12897975329E-01 -0.54908254682E-02 -0.17421124191E-01  0.50000500000E+01  0.50000000000E+01 0.  0.
</event>
<event>
 4    1  0.4973396E-021  0.5000050E+01  0.7818608E-02  0.2136455E+00
        -11   -1    0    0    0    0  0.00000000000E+00  0.00000000000E+00  0.50000499739E+01  0.50000500000E+01  0.51100000000E-03 0.  1.
         11   -1    0    0    0    0 -0.00000000000E+00 -0.00000000000E+00 -0.50000499739E+01  0.50000500000E+01  0.51100000000E-03 0. -1.
         50    1    1    2    0    0  0.53616072150E-04 -0.23825006155E-02  0.22233382921E-01  0.50000500000E+01  0.50000000000E+01 0.  1.
         50    1    1    2    0    0 -0.53616072150E-04  0.23825006155E-02 -0.22233382921E-01  0.50000500000E+01  0.50000000000E+01 0.  0.
</event>
<event>
 4    1  0.4973396E-021  0.5000050E+01  0.7818608E-02  0.2136455E+00
        -11   -1    0    0    0    0  0.00000000000E+00  0.00000000000E+00  0.50000499739E+01  0.50000500000E+01  0.51100000000E-03 0. -1.
         11   -1    0    0    0    0 -0.00000000000E+00 -0.00000000000E+00 -0.50000499739E+01  0.50000500000E+01  0.51100000000E-03 0.  1.
         50    1    1    2    0    0  0.83714244658E-02  0.17747614673E-01 -0.10721190505E-01  0.50000500000E+01  0.50000000000E+01 0.  1.
         50    1    1    2    0    0 -0.83714244658E-02 -0.17747614673E-01  0.10721190505E-01  0.50000500000E+01  0.50000000000E+01 0. -1.
</event>
<event>
 4    1  0.4973396E-021  0.5000050E+01  0.7818608E-02  0.2136455E+00
        -11   -1    0    0    0    0  0.00000000000E+00  0.00000000000E+00  0.50000499739E+01  0.50000500000E+01  0.51100000000E-03 0.  1.
         11   -1    0    0    0    0 -0.00000000000E+00 -0.00000000000E+00 -0.50000499739E+01  0.50000500000E+01  0.51100000000E-03 0. -1.
         50    1    1    2    0    0 -0.14287121171E-01  0.14379311044E-01  0.94401314900E-02  0.50000500000E+01  0.50000000000E+01 0.  1.
         50    1    1    2    0    0  0.14287121171E-01 -0.14379311044E-01 -0.94401314899E-02  0.50000500000E+01  0.50000000000E+01 0. -1.
</event>
<event>
 4    1  0.4973396E-021  0.5000050E+01  0.7818608E-02  0.2136455E+00
        -11   -1    0    0    0    0  0.00000000000E+00  0.00000000000E+00  0.50000499739E+01  0.50000500000E+01  0.51100000000E-03 0. -1.
         11   -1    0    0    0    0 -0.00000000000E+00 -0.00000000000E+00 -0.50000499739E+01  0.50000500000E+01  0.51100000000E-03 0.  1.
         50    1    1    2    0    0 -0.75681113081E-02  0.10388505087E-01  0.18297681637E-01  0.50000500000E+01  0.50000000000E+01 0. -1.
         50    1    1    2    0    0  0.75681113081E-02 -0.10388505087E-01 -0.18297681637E-01  0.50000500000E+01  0.50000000000E+01 0.  1.
</event>
<event>
 4    1  0.4973396E-021  0.5000050E+01  0.7818608E-02  0.2136455E+00
        -11   -1    0    0    0    0  0.00000000000E+00  0.00000000000E+00  0.50000499739E+01  0.50000500000E+01  0.51100000000E-03 0.  1.
         11   -1    0    0    0    0 -0.00000000000E+00 -0.00000000000E+00 -0.50000499739E+01  0.50000500000E+01  0.51100000000E-03 0. -1.
         50    1    1    2    0    0  0.16858078178E-01 -0.13479584738E-02  0.14628421244E-01  0.50000500000E+01  0.50000000000E+01 0.  0.
         50    1    1    2    0    0 -0.16858078178E-01  0.13479584738E-02 -0.14628421244E-01  0.50000500000E+01  0.50000000000E+01 0.  0.
</event>
<event>
 4    1  0.4973396E-021  0.5000050E+01  0.7818608E-02  0.2136455E+00
        -11   -1    0    0    0    0  0.00000000000E+00  0.00000000000E+00  0.50000499739E+01  0.50000500000E+01  0.51100000000E-03 0. -1.
         11   -1    0    0    0    0 -0.00000000000E+00 -0.00000000000E+00 -0.50000499739E+01  0.50000500000E+01  0.51100000000E-03 0.  1.
         50    1    1    2    0    0  0.15532743269E-02 -0.16463613806E-01  0.15051221190E-01  0.50000500000E+01  0.50000000000E+01 0.  0.
         50    1    1    2    0    0 -0.15532743269E-02  0.16463613806E-01 -0.15051221190E-01  0.50000500000E+01  0.50000000000E+01 0.  0.
</event>
<event>
 4    1  0.4973396E-021  0.5000050E+01  0.7818608E-02  0.2136455E+00
        -11   -1    0    0    0    0  0.00000000000E+00  0.00000000000E+00  0.50000499739E+01  0.50000500000E+01  0.51100000000E-03 0. -1.
         11   -1    0    0    0    0 -0.00000000000E+00 -0.00000000000E+00 -0.50000499739E+01  0.50000500000E+01  0.51100000000E-03 0.  1.
         50    1    1    2    0    0 -0.69657097575E-02  0.23679911706E-03  0.21246771843E-01  0.50000500000E+01  0.50000000000E+01 0.  0.
         50    1    1    2    0    0  0.69657097575E-02 -0.23679911706E-03 -0.21246771843E-01  0.50000500000E+01  0.50000000000E+01 0.  1.
</event>
<event>
 4    1  0.4973396E-021  0.5000050E+01  0.7818608E-02  0.2136455E+00
        -11   -1    0    0    0    0  0.00000000000E+00  0.00000000000E+00  0.50000499739E+01  0.50000500000E+01  0.51100000000E-03 0. -1.
         11   -1    0    0    0    0 -0.00000000000E+00 -0.00000000000E+00 -0.50000499739E+01  0.50000500000E+01  0.51100000000E-03 0.  1.
         50    1    1    2    0    0 -0.45900538648E-02  0.51801961880E-02  0.21262630904E-01  0.50000500000E+01  0.50000000000E+01 0.  0.
         50    1    1    2    0    0  0.45900538648E-02 -0.51801961880E-02 -0.21262630904E-01  0.50000500000E+01  0.50000000000E+01 0.  1.
</event>
<event>
 4    1  0.4973396E-021  0.5000050E+01  0.7818608E-02  0.2136455E+00
        -11   -1    0    0    0    0  0.00000000000E+00  0.00000000000E+00  0.50000499739E+01  0.50000500000E+01  0.51100000000E-03 0. -1.
         11   -1    0    0    0    0 -0.00000000000E+00 -0.00000000000E+00 -0.50000499739E+01  0.50000500000E+01  0.51100000000E-03 0.  1.
         50    1    1    2    0    0  0.21049888787E-01 -0.27875193457E-02  0.70095947064E-02  0.50000500000E+01  0.50000000000E+01 0.  0.
         50    1    1    2    0    0 -0.21049888787E-01  0.27875193457E-02 -0.70095947064E-02  0.50000500000E+01  0.50000000000E+01 0.  1.
</event>
<event>
 4    1  0.4973396E-021  0.5000050E+01  0.7818608E-02  0.2136455E+00
        -11   -1    0    0    0    0  0.00000000000E+00  0.00000000000E+00  0.50000499739E+01  0.50000500000E+01  0.51100000000E-03 0. -1.
         11   -1    0    0    0    0 -0.00000000000E+00 -0.00000000000E+00 -0.50000499739E+01  0.50000500000E+01  0.51100000000E-03 0.  1.
         50    1    1    2    0    0  0.60097547084E-02  0.20132376613E-01 -0.76532842799E-02  0.50000500000E+01  0.50000000000E+01 0.  0.
         50    1    1    2    0    0 -0.60097547084E-02 -0.20132376613E-01  0.76532842799E-02  0.50000500000E+01  0.50000000000E+01 0.  1.
</event>
<event>
 4    1  0.4973396E-021  0.5000050E+01  0.7818608E-02  0.2136455E+00
        -11   -1    0    0    0    0  0.00000000000E+00  0.00000000000E+00  0.50000499739E+01  0.50000500000E+01  0.51100000000E-03 0. -1.
         11   -1    0    0    0    0 -0.00000000000E+00 -0.00000000000E+00 -0.50000499739E+01  0.50000500000E+01  0.51100000000E-03 0.  1.
         50    1    1    2    0    0  0.14220948542E-01 -0.14790909467E-01 -0.88879761313E-02  0.50000500000E+01  0.50000000000E+01 0.  1.
         50    1    1    2    0    0 -0.14220948542E-01  0.14790909467E-01  0.88879761313E-02  0.50000500000E+01  0.50000000000E+01 0. -1.
</event>
<event>
 4    1  0.4973396E-021  0.5000050E+01  0.7818608E-02  0.2136455E+00
        -11   -1    0    0    0    0  0.00000000000E+00  0.00000000000E+00  0.50000499739E+01  0.50000500000E+01  0.51100000000E-03 0.  1.
         11   -1    0    0    0    0 -0.00000000000E+00 -0.00000000000E+00 -0.50000499739E+01  0.50000500000E+01  0.51100000000E-03 0. -1.
         50    1    1    2    0    0 -0.16368987969E-01 -0.45547832507E-02  0.14536598034E-01  0.50000500000E+01  0.50000000000E+01 0.  1.
         50    1    1    2    0    0  0.16368987969E-01  0.45547832507E-02 -0.14536598034E-01  0.50000500000E+01  0.50000000000E+01 0. -1.
</event>
<event>
 4    1  0.4973396E-021  0.5000050E+01  0.7818608E-02  0.2136455E+00
        -11   -1    0    0    0    0  0.00000000000E+00  0.00000000000E+00  0.50000499739E+01  0.50000500000E+01  0.51100000000E-03 0.  1.
         11   -1    0    0    0    0 -0.00000000000E+00 -0.00000000000E+00 -0.50000499739E+01  0.50000500000E+01  0.51100000000E-03 0. -1.
         50    1    1    2    0    0 -0.33062665173E-02  0.16610173613E-01 -0.14600453221E-01  0.50000500000E+01  0.50000000000E+01 0. -1.
         50    1    1    2    0    0  0.33062665173E-02 -0.16610173613E-01  0.14600453221E-01  0.50000500000E+01  0.50000000000E+01 0.  1.
</event>
<event>
 4    1  0.4973396E-021  0.5000050E+01  0.7818608E-02  0.2136455E+00
        -11   -1    0    0    0    0  0.00000000000E+00  0.00000000000E+00  0.50000499739E+01  0.50000500000E+01  0.51100000000E-03 0. -1.
         11   -1    0    0    0    0 -0.00000000000E+00 -0.00000000000E+00 -0.50000499739E+01  0.50000500000E+01  0.51100000000E-03 0.  1.
         50    1    1    2    0    0  0.21588470151E-01 -0.55990907806E-02  0.16095461963E-02  0.50000500000E+01  0.50000000000E+01 0.  1.
         50    1    1    2    0    0 -0.21588470151E-01  0.55990907806E-02 -0.16095461963E-02  0.50000500000E+01  0.50000000000E+01 0. -1.
</event>
<event>
 4    1  0.4973396E-021  0.5000050E+01  0.7818608E-02  0.2136455E+00
        -11   -1    0    0    0    0  0.00000000000E+00  0.00000000000E+00  0.50000499739E+01  0.50000500000E+01  0.51100000000E-03 0.  1.
         11   -1    0    0    0    0 -0.00000000000E+00 -0.00000000000E+00 -0.50000499739E+01  0.50000500000E+01  0.51100000000E-03 0. -1.
         50    1    1    2    0    0 -0.83880604662E-02  0.16458376861E-01  0.12600189391E-01  0.50000500000E+01  0.50000000000E+01 0.  1.
         50    1    1    2    0    0  0.83880604662E-02 -0.16458376861E-01 -0.12600189391E-01  0.50000500000E+01  0.50000000000E+01 0. -1.
</event>
<event>
 4    1  0.4973396E-021  0.5000050E+01  0.7818608E-02  0.2136455E+00
        -11   -1    0    0    0    0  0.00000000000E+00  0.00000000000E+00  0.50000499739E+01  0.50000500000E+01  0.51100000000E-03 0. -1.
         11   -1    0    0    0    0 -0.00000000000E+00 -0.00000000000E+00 -0.50000499739E+01  0.50000500000E+01  0.51100000000E-03 0.  1.
         50    1    1    2    0    0  0.15438660120E-01  0.65353953849E-02 -0.14796583419E-01  0.50000500000E+01  0.50000000000E+01 0.  1.
         50    1    1    2    0    0 -0.15438660120E-01 -0.65353953849E-02  0.14796583419E-01  0.50000500000E+01  0.50000000000E+01 0. -1.
</event>
<event>
 4    1  0.4973396E-021  0.5000050E+01  0.7818608E-02  0.2136455E+00
        -11   -1    0    0    0    0  0.00000000000E+00  0.00000000000E+00  0.50000499739E+01  0.50000500000E+01  0.51100000000E-03 0. -1.
         11   -1    0    0    0    0 -0.00000000000E+00 -0.00000000000E+00 -0.50000499739E+01  0.50000500000E+01  0.51100000000E-03 0.  1.
         50    1    1    2    0    0 -0.10713643911E-02 -0.58478628991E-02 -0.21555908189E-01  0.50000500000E+01  0.50000000000E+01 0.  1.
         50    1    1    2    0    0  0.10713643911E-02  0.58478628991E-02  0.21555908189E-01  0.50000500000E+01  0.50000000000E+01 0. -1.
</event>
<event>
 4    1  0.4973396E-021  0.5000050E+01  0.7818608E-02  0.2136455E+00
        -11   -1    0    0    0    0  0.00000000000E+00  0.00000000000E+00  0.50000499739E+01  0.50000500000E+01  0.51100000000E-03 0. -1.
         11   -1    0    0    0    0 -0.00000000000E+00 -0.00000000000E+00 -0.50000499739E+01  0.50000500000E+01  0.51100000000E-03 0.  1.
         50    1    1    2    0    0 -0.16046395108E-01  0.11110774155E-02 -0.15533229253E-01  0.50000500000E+01  0.50000000000E+01 0. -1.
         50    1    1    2    0    0  0.16046395108E-01 -0.11110774155E-02  0.15533229253E-01  0.50000500000E+01  0.50000000000E+01 0.  0.
</event>
<event>
 4    1  0.4973396E-021  0.5000050E+01  0.7818608E-02  0.2136455E+00
        -11   -1    0    0    0    0  0.00000000000E+00  0.00000000000E+00  0.50000499739E+01  0.50000500000E+01  0.51100000000E-03 0. -1.
         11   -1    0    0    0    0 -0.00000000000E+00 -0.00000000000E+00 -0.50000499739E+01  0.50000500000E+01  0.51100000000E-03 0.  1.
         50    1    1    2    0    0 -0.14720368296E-01 -0.52898738197E-02 -0.15979064184E-01  0.50000500000E+01  0.50000000000E+01 0. -1.
         50    1    1    2    0    0  0.14720368296E-01  0.52898738197E-02  0.15979064184E-01  0.50000500000E+01  0.50000000000E+01 0. -1.
</event>
<event>
 4    1  0.4973396E-021  0.5000050E+01  0.7818608E-02  0.2136455E+00
        -11   -1    0    0    0    0  0.00000000000E+00  0.00000000000E+00  0.50000499739E+01  0.50000500000E+01  0.51100000000E-03 0.  1.
         11   -1    0    0    0    0 -0.00000000000E+00 -0.00000000000E+00 -0.50000499739E+01  0.50000500000E+01  0.51100000000E-03 0. -1.
         50    1    1    2    0    0 -0.61097045284E-02  0.82691190971E-02  0.19856879914E-01  0.50000500000E+01  0.50000000000E+01 0.  1.
         50    1    1    2    0    0  0.61097045284E-02 -0.82691190971E-02 -0.19856879914E-01  0.50000500000E+01  0.50000000000E+01 0. -1.
</event>
<event>
 4    1  0.4973396E-021  0.5000050E+01  0.7818608E-02  0.2136455E+00
        -11   -1    0    0    0    0  0.00000000000E+00  0.00000000000E+00  0.50000499739E+01  0.50000500000E+01  0.51100000000E-03 0. -1.
         11   -1    0    0    0    0 -0.00000000000E+00 -0.00000000000E+00 -0.50000499739E+01  0.50000500000E+01  0.51100000000E-03 0.  1.
         50    1    1    2    0    0 -0.47977316652E-02  0.21825370651E-01  0.79841518095E-03  0.50000500000E+01  0.50000000000E+01 0. -1.
         50    1    1    2    0    0  0.47977316652E-02 -0.21825370651E-01 -0.79841518095E-03  0.50000500000E+01  0.50000000000E+01 0.  0.
</event>
<event>
 4    1  0.4973396E-021  0.5000050E+01  0.7818608E-02  0.2136455E+00
        -11   -1    0    0    0    0  0.00000000000E+00  0.00000000000E+00  0.50000499739E+01  0.50000500000E+01  0.51100000000E-03 0. -1.
         11   -1    0    0    0    0 -0.00000000000E+00 -0.00000000000E+00 -0.50000499739E+01  0.50000500000E+01  0.51100000000E-03 0.  1.
         50    1    1    2    0    0 -0.12696805080E-01 -0.59208390081E-02  0.17428060885E-01  0.50000500000E+01  0.50000000000E+01 0. -1.
         50    1    1    2    0    0  0.12696805080E-01  0.59208390081E-02 -0.17428060885E-01  0.50000500000E+01  0.50000000000E+01 0.  1.
</event>
<event>
 4    1  0.4973396E-021  0.5000050E+01  0.7818608E-02  0.2136455E+00
        -11   -1    0    0    0    0  0.00000000000E+00  0.00000000000E+00  0.50000499739E+01  0.50000500000E+01  0.51100000000E-03 0.  1.
         11   -1    0    0    0    0 -0.00000000000E+00 -0.00000000000E+00 -0.50000499739E+01  0.50000500000E+01  0.51100000000E-03 0. -1.
         50    1    1    2    0    0 -0.12572385510E-01  0.17091383310E-01 -0.70584870295E-02  0.50000500000E+01  0.50000000000E+01 0.  1.
         50    1    1    2    0    0  0.12572385510E-01 -0.17091383310E-01  0.70584870295E-02  0.50000500000E+01  0.50000000000E+01 0. -1.
</event>
<event>
 4    1  0.4973396E-021  0.5000050E+01  0.7818608E-02  0.2136455E+00
        -11   -1    0    0    0    0  0.00000000000E+00  0.00000000000E+00  0.50000499739E+01  0.50000500000E+01  0.51100000000E-03 0.  1.
         11   -1    0    0    0    0 -0.00000000000E+00 -0.00000000000E+00 -0.50000499739E+01  0.50000500000E+01  0.51100000000E-03 0. -1.
         50    1    1    2    0    0 -0.67194308957E-03 -0.80125243264E-02 -0.20865053233E-01  0.50000500000E+01  0.50000000000E+01 0.  1.
         50    1    1    2    0    0  0.67194308957E-03  0.80125243264E-02  0.20865053233E-01  0.50000500000E+01  0.50000000000E+01 0.  1.
</event>
<event>
 4    1  0.4973396E-021  0.5000050E+01  0.7818608E-02  0.2136455E+00
        -11   -1    0    0    0    0  0.00000000000E+00  0.00000000000E+00  0.50000499739E+01  0.50000500000E+01  0.51100000000E-03 0.  1.
         11   -1    0    0    0    0 -0.00000000000E+00 -0.00000000000E+00 -0.50000499739E+01  0.50000500000E+01  0.51100000000E-03 0. -1.
         50    1    1    2    0    0 -0.18319254049E-01 -0.88497923499E-02  0.92783946046E-02  0.50000500000E+01  0.50000000000E+01 0.  1.
         50    1    1    2    0    0  0.18319254049E-01  0.88497923499E-02 -0.92783946046E-02  0.50000500000E+01  0.50000000000E+01 0.  1.
</event>
<event>
 4    1  0.4973396E-021  0.5000050E+01  0.7818608E-02  0.2136455E+00
        -11   -1    0    0    0    0  0.00000000000E+00  0.00000000000E+00  0.50000499739E+01  0.50000500000E+01  0.51100000000E-03 0. -1.
         11   -1    0    0    0    0 -0.00000000000E+00 -0.00000000000E+00 -0.50000499739E+01  0.50000500000E+01  0.51100000000E-03 0.  1.
         50    1    1    2    0    0  0.28933660448E-02 -0.16064561445E-01 -0.15282696048E-01  0.50000500000E+01  0.50000000000E+01 0.  1.
         50    1    1    2    0    0 -0.28933660448E-02  0.16064561445E-01  0.15282696048E-01  0.50000500000E+01  0.50000000000E+01 0. -1.
</event>
<event>
 4    1  0.4973396E-021  0.5000050E+01  0.7818608E-02  0.2136455E+00
        -11   -1    0    0    0    0  0.00000000000E+00  0.00000000000E+00  0.50000499739E+01  0.50000500000E+01  0.51100000000E-03 0. -1.
         11   -1    0    0    0    0 -0.00000000000E+00 -0.00000000000E+00 -0.50000499739E+01  0.50000500000E+01  0.51100000000E-03 0.  1.
         50    1    1    2    0    0 -0.80446723548E-02 -0.16080119268E-02 -0.20801443324E-01  0.50000500000E+01  0.50000000000E+01 0.  1.
         50    1    1    2    0    0  0.80446723548E-02  0.16080119268E-02  0.20801443324E-01  0.50000500000E+01  0.50000000000E+01 0.  0.
</event>
<event>
 4    1  0.4973396E-021  0.5000050E+01  0.7818608E-02  0.2136455E+00
        -11   -1    0    0    0    0  0.00000000000E+00  0.00000000000E+00  0.50000499739E+01  0.50000500000E+01  0.51100000000E-03 0. -1.
         11   -1    0    0    0    0 -0.00000000000E+00 -0.00000000000E+00 -0.50000499739E+01  0.50000500000E+01  0.51100000000E-03 0.  1.
         50    1    1    2    0    0  0.13221781706E-01  0.94138193494E-02 -0.15380734500E-01  0.50000500000E+01  0.50000000000E+01 0.  1.
         50    1    1    2    0    0 -0.13221781706E-01 -0.94138193494E-02  0.15380734500E-01  0.50000500000E+01  0.50000000000E+01 0. -1.
</event>
<event>
 4    1  0.4973396E-021  0.5000050E+01  0.7818608E-02  0.2136455E+00
        -11   -1    0    0    0    0  0.00000000000E+00  0.00000000000E+00  0.50000499739E+01  0.50000500000E+01  0.51100000000E-03 0. -1.
         11   -1    0    0    0    0 -0.00000000000E+00 -0.00000000000E+00 -0.50000499739E+01  0.50000500000E+01  0.51100000000E-03 0.  1.
         50    1    1    2    0    0  0.17823538474E-01  0.98073440252E-02  0.92811626121E-02  0.50000500000E+01  0.50000000000E+01 0.  1.
         50    1    1    2    0    0 -0.17823538474E-01 -0.98073440252E-02 -0.92811626121E-02  0.50000500000E+01  0.50000000000E+01 0.  0.
</event>
<event>
 4    1  0.4973396E-021  0.5000050E+01  0.7818608E-02  0.2136455E+00
        -11   -1    0    0    0    0  0.00000000000E+00  0.00000000000E+00  0.50000499739E+01  0.50000500000E+01  0.51100000000E-03 0. -1.
         11   -1    0    0    0    0 -0.00000000000E+00 -0.00000000000E+00 -0.50000499739E+01  0.50000500000E+01  0.51100000000E-03 0.  1.
         50    1    1    2    0    0 -0.35078868454E-02 -0.11288271982E-01 -0.18980836271E-01  0.50000500000E+01  0.50000000000E+01 0.  0.
         50    1    1    2    0    0  0.35078868454E-02  0.11288271982E-01  0.18980836271E-01  0.50000500000E+01  0.50000000000E+01 0. -1.
</event>
<event>
 4    1  0.4973396E-021  0.5000050E+01  0.7818608E-02  0.2136455E+00
        -11   -1    0    0    0    0  0.00000000000E+00  0.00000000000E+00  0.50000499739E+01  0.50000500000E+01  0.51100000000E-03 0. -1.
         11   -1    0    0    0    0 -0.00000000000E+00 -0.00000000000E+00 -0.50000499739E+01  0.50000500000E+01  0.51100000000E-03 0.  1.
         50    1    1    2    0    0  0.10152148930E-01 -0.98771480101E-02  0.17302552392E-01  0.50000500000E+01  0.50000000000E+01 0.  0.
         50    1    1    2    0    0 -0.10152148930E-01  0.98771480101E-02 -0.17302552392E-01  0.50000500000E+01  0.50000000000E+01 0.  0.
</event>
<event>
 4    1  0.4973396E-021  0.5000050E+01  0.7818608E-02  0.2136455E+00
        -11   -1    0    0    0    0  0.00000000000E+00  0.00000000000E+00  0.50000499739E+01  0.50000500000E+01  0.51100000000E-03 0. -1.
         11   -1    0    0    0    0 -0.00000000000E+00 -0.00000000000E+00 -0.50000499739E+01  0.50000500000E+01  0.51100000000E-03 0.  1.
         50    1    1    2    0    0  0.16708914039E-01  0.14508440136E-01  0.32124533366E-02  0.50000500000E+01  0.50000000000E+01 0. -1.
         50    1    1    2    0    0 -0.16708914039E-01 -0.14508440136E-01 -0.32124533366E-02  0.50000500000E+01  0.50000000000E+01 0.  1.
</event>
<event>
 4    1  0.4973396E-021  0.5000050E+01  0.7818608E-02  0.2136455E+00
        -11   -1    0    0    0    0  0.00000000000E+00  0.00000000000E+00  0.50000499739E+01  0.50000500000E+01  0.51100000000E-03 0. -1.
         11   -1    0    0    0    0 -0.00000000000E+00 -0.00000000000E+00 -0.50000499739E+01  0.50000500000E+01  0.51100000000E-03 0.  1.
         50    1    1    2    0    0  0.18306043036E-01 -0.99606311273E-02 -0.81041418991E-02  0.50000500000E+01  0.50000000000E+01 0. -1.
         50    1    1    2    0    0 -0.18306043036E-01  0.99606311273E-02  0.81041418991E-02  0.50000500000E+01  0.50000000000E+01 0.  0.
</event>
<event>
 4    1  0.4973396E-021  0.5000050E+01  0.7818608E-02  0.2136455E+00
        -11   -1    0    0    0    0  0.00000000000E+00  0.00000000000E+00  0.50000499739E+01  0.50000500000E+01  0.51100000000E-03 0.  1.
         11   -1    0    0    0    0 -0.00000000000E+00 -0.00000000000E+00 -0.50000499739E+01  0.50000500000E+01  0.51100000000E-03 0. -1.
         50    1    1    2    0    0  0.91092201538E-02 -0.10611799868E-01 -0.17447472933E-01  0.50000500000E+01  0.50000000000E+01 0. -1.
         50    1    1    2    0    0 -0.91092201538E-02  0.10611799868E-01  0.17447472933E-01  0.50000500000E+01  0.50000000000E+01 0.  0.
</event>
<event>
 4    1  0.4973396E-021  0.5000050E+01  0.7818608E-02  0.2136455E+00
        -11   -1    0    0    0    0  0.00000000000E+00  0.00000000000E+00  0.50000499739E+01  0.50000500000E+01  0.51100000000E-03 0.  1.
         11   -1    0    0    0    0 -0.00000000000E+00 -0.00000000000E+00 -0.50000499739E+01  0.50000500000E+01  0.51100000000E-03 0. -1.
         50    1    1    2    0    0  0.50390751469E-02 -0.14258937790E-01 -0.16470971883E-01  0.50000500000E+01  0.50000000000E+01 0. -1.
         50    1    1    2    0    0 -0.50390751469E-02  0.14258937790E-01  0.16470971883E-01  0.50000500000E+01  0.50000000000E+01 0.  1.
</event>
<event>
 4    1  0.4973396E-021  0.5000050E+01  0.7818608E-02  0.2136455E+00
        -11   -1    0    0    0    0  0.00000000000E+00  0.00000000000E+00  0.50000499739E+01  0.50000500000E+01  0.51100000000E-03 0.  1.
         11   -1    0    0    0    0 -0.00000000000E+00 -0.00000000000E+00 -0.50000499739E+01  0.50000500000E+01  0.51100000000E-03 0. -1.
         50    1    1    2    0    0  0.18718860615E-01  0.21524131264E-02 -0.12040509748E-01  0.50000500000E+01  0.50000000000E+01 0.  1.
         50    1    1    2    0    0 -0.18718860615E-01 -0.21524131264E-02  0.12040509748E-01  0.50000500000E+01  0.50000000000E+01 0.  0.
</event>
<event>
 4    1  0.4973396E-021  0.5000050E+01  0.7818608E-02  0.2136455E+00
        -11   -1    0    0    0    0  0.00000000000E+00  0.00000000000E+00  0.50000499739E+01  0.50000500000E+01  0.51100000000E-03 0. -1.
         11   -1    0    0    0    0 -0.00000000000E+00 -0.00000000000E+00 -0.50000499739E+01  0.50000500000E+01  0.51100000000E-03 0.  1.
         50    1    1    2    0    0  0.34811899733E-02  0.22863157074E-02  0.21969446439E-01  0.50000500000E+01  0.50000000000E+01 0. -1.
         50    1    1    2    0    0 -0.34811899733E-02 -0.22863157074E-02 -0.21969446439E-01  0.50000500000E+01  0.50000000000E+01 0.  0.
</event>
<event>
 4    1  0.4973396E-021  0.5000050E+01  0.7818608E-02  0.2136455E+00
        -11   -1    0    0    0    0  0.00000000000E+00  0.00000000000E+00  0.50000499739E+01  0.50000500000E+01  0.51100000000E-03 0.  1.
         11   -1    0    0    0    0 -0.00000000000E+00 -0.00000000000E+00 -0.50000499739E+01  0.50000500000E+01  0.51100000000E-03 0. -1.
         50    1    1    2    0    0 -0.81965997407E-02  0.18290977424E-01 -0.99125373929E-02  0.50000500000E+01  0.50000000000E+01 0. -1.
         50    1    1    2    0    0  0.81965997407E-02 -0.18290977424E-01  0.99125373929E-02  0.50000500000E+01  0.50000000000E+01 0.  1.
</event>
<event>
 4    1  0.4973396E-021  0.5000050E+01  0.7818608E-02  0.2136455E+00
        -11   -1    0    0    0    0  0.00000000000E+00  0.00000000000E+00  0.50000499739E+01  0.50000500000E+01  0.51100000000E-03 0. -1.
         11   -1    0    0    0    0 -0.00000000000E+00 -0.00000000000E+00 -0.50000499739E+01  0.50000500000E+01  0.51100000000E-03 0.  1.
         50    1    1    2    0    0 -0.14147068577E-01 -0.63238287802E-02  0.16120550246E-01  0.50000500000E+01  0.50000000000E+01 0.  0.
         50    1    1    2    0    0  0.14147068577E-01  0.63238287802E-02 -0.16120550246E-01  0.50000500000E+01  0.50000000000E+01 0.  0.
</event>
<event>
 4    1  0.4973396E-021  0.5000050E+01  0.7818608E-02  0.2136455E+00
        -11   -1    0    0    0    0  0.00000000000E+00  0.00000000000E+00  0.50000499739E+01  0.50000500000E+01  0.51100000000E-03 0. -1.
         11   -1    0    0    0    0 -0.00000000000E+00 -0.00000000000E+00 -0.50000499739E+01  0.50000500000E+01  0.51100000000E-03 0.  1.
         50    1    1    2    0    0 -0.13085743997E-01 -0.64793328659E-03 -0.18120319713E-01  0.50000500000E+01  0.50000000000E+01 0.  1.
         50    1    1    2    0    0  0.13085743997E-01  0.64793328659E-03  0.18120319713E-01  0.50000500000E+01  0.50000000000E+01 0. -1.
</event>
<event>
 4    1  0.4973396E-021  0.5000050E+01  0.7818608E-02  0.2136455E+00
        -11   -1    0    0    0    0  0.00000000000E+00  0.00000000000E+00  0.50000499739E+01  0.50000500000E+01  0.51100000000E-03 0. -1.
         11   -1    0    0    0    0 -0.00000000000E+00 -0.00000000000E+00 -0.50000499739E+01  0.50000500000E+01  0.51100000000E-03 0.  1.
         50    1    1    2    0    0 -0.93484445230E-02 -0.19137941883E-01 -0.68079560414E-02  0.50000500000E+01  0.50000000000E+01 0.  0.
         50    1    1    2    0    0  0.93484445230E-02  0.19137941883E-01  0.68079560414E-02  0.50000500000E+01  0.50000000000E+01 0.  0.
</event>
<event>
 4    1  0.4973396E-021  0.5000050E+01  0.7818608E-02  0.2136455E+00
        -11   -1    0    0    0    0  0.00000000000E+00  0.00000000000E+00  0.50000499739E+01  0.50000500000E+01  0.51100000000E-03 0. -1.
         11   -1    0    0    0    0 -0.00000000000E+00 -0.00000000000E+00 -0.50000499739E+01  0.50000500000E+01  0.51100000000E-03 0.  1.
         50    1    1    2    0    0  0.21194465618E-01  0.68863302401E-02 -0.18372759662E-02  0.50000500000E+01  0.50000000000E+01 0.  1.
         50    1    1    2    0    0 -0.21194465618E-01 -0.68863302401E-02  0.18372759662E-02  0.50000500000E+01  0.50000000000E+01 0. -1.
</event>
<event>
 4    1  0.4973396E-021  0.5000050E+01  0.7818608E-02  0.2136455E+00
        -11   -1    0    0    0    0  0.00000000000E+00  0.00000000000E+00  0.50000499739E+01  0.50000500000E+01  0.51100000000E-03 0. -1.
         11   -1    0    0    0    0 -0.00000000000E+00 -0.00000000000E+00 -0.50000499739E+01  0.50000500000E+01  0.51100000000E-03 0.  1.
         50    1    1    2    0    0  0.75657363328E-02  0.83294850363E-02 -0.19323090145E-01  0.50000500000E+01  0.50000000000E+01 0.  0.
         50    1    1    2    0    0 -0.75657363328E-02 -0.83294850363E-02  0.19323090145E-01  0.50000500000E+01  0.50000000000E+01 0. -1.
</event>
<event>
 4    1  0.4973396E-021  0.5000050E+01  0.7818608E-02  0.2136455E+00
        -11   -1    0    0    0    0  0.00000000000E+00  0.00000000000E+00  0.50000499739E+01  0.50000500000E+01  0.51100000000E-03 0.  1.
         11   -1    0    0    0    0 -0.00000000000E+00 -0.00000000000E+00 -0.50000499739E+01  0.50000500000E+01  0.51100000000E-03 0. -1.
         50    1    1    2    0    0  0.16024305271E-01  0.92642846612E-02 -0.12545802896E-01  0.50000500000E+01  0.50000000000E+01 0. -1.
         50    1    1    2    0    0 -0.16024305271E-01 -0.92642846612E-02  0.12545802896E-01  0.50000500000E+01  0.50000000000E+01 0.  1.
</event>
<event>
 4    1  0.4973396E-021  0.5000050E+01  0.7818608E-02  0.2136455E+00
        -11   -1    0    0    0    0  0.00000000000E+00  0.00000000000E+00  0.50000499739E+01  0.50000500000E+01  0.51100000000E-03 0.  1.
         11   -1    0    0    0    0 -0.00000000000E+00 -0.00000000000E+00 -0.50000499739E+01  0.50000500000E+01  0.51100000000E-03 0. -1.
         50    1    1    2    0    0 -0.18172698503E-01 -0.52194337735E-02 -0.11937882568E-01  0.50000500000E+01  0.50000000000E+01 0.  0.
         50    1    1    2    0    0  0.18172698503E-01  0.52194337735E-02  0.11937882568E-01  0.50000500000E+01  0.50000000000E+01 0.  0.
</event>
<event>
 4    1  0.4973396E-021  0.5000050E+01  0.7818608E-02  0.2136455E+00
        -11   -1    0    0    0    0  0.00000000000E+00  0.00000000000E+00  0.50000499739E+01  0.50000500000E+01  0.51100000000E-03 0. -1.
         11   -1    0    0    0    0 -0.00000000000E+00 -0.00000000000E+00 -0.50000499739E+01  0.50000500000E+01  0.51100000000E-03 0.  1.
         50    1    1    2    0    0 -0.61331298997E-02  0.19774981881E-01  0.84461416767E-02  0.50000500000E+01  0.50000000000E+01 0.  1.
         50    1    1    2    0    0  0.61331298997E-02 -0.19774981881E-01 -0.84461416767E-02  0.50000500000E+01  0.50000000000E+01 0.  1.
</event>
<event>
 4    1  0.4973396E-021  0.5000050E+01  0.7818608E-02  0.2136455E+00
        -11   -1    0    0    0    0  0.00000000000E+00  0.00000000000E+00  0.50000499739E+01  0.50000500000E+01  0.51100000000E-03 0. -1.
         11   -1    0    0    0    0 -0.00000000000E+00 -0.00000000000E+00 -0.50000499739E+01  0.50000500000E+01  0.51100000000E-03 0.  1.
         50    1    1    2    0    0  0.21497155939E-01  0.57220574218E-02  0.22655783764E-02  0.50000500000E+01  0.50000000000E+01 0.  0.
         50    1    1    2    0    0 -0.21497155939E-01 -0.57220574218E-02 -0.22655783764E-02  0.50000500000E+01  0.50000000000E+01 0.  1.
</event>
<event>
 4    1  0.4973396E-021  0.5000050E+01  0.7818608E-02  0.2136455E+00
        -11   -1    0    0    0    0  0.00000000000E+00  0.00000000000E+00  0.50000499739E+01  0.50000500000E+01  0.51100000000E-03 0.  1.
         11   -1    0    0    0    0 -0.00000000000E+00 -0.00000000000E+00 -0.50000499739E+01  0.50000500000E+01  0.51100000000E-03 0. -1.
         50    1    1    2    0    0 -0.55768861210E-02  0.11190820991E-01  0.18538240659E-01  0.50000500000E+01  0.50000000000E+01 0.  1.
         50    1    1    2    0    0  0.55768861210E-02 -0.11190820991E-01 -0.18538240659E-01  0.50000500000E+01  0.50000000000E+01 0. -1.
</event>
<event>
 4    1  0.4973396E-021  0.5000050E+01  0.7818608E-02  0.2136455E+00
        -11   -1    0    0    0    0  0.00000000000E+00  0.00000000000E+00  0.50000499739E+01  0.50000500000E+01  0.51100000000E-03 0. -1.
         11   -1    0    0    0    0 -0.00000000000E+00 -0.00000000000E+00 -0.50000499739E+01  0.50000500000E+01  0.51100000000E-03 0.  1.
         50    1    1    2    0    0  0.48793407478E-02  0.20648244063E-01  0.70600673486E-02  0.50000500000E+01  0.50000000000E+01 0. -1.
         50    1    1    2    0    0 -0.48793407478E-02 -0.20648244063E-01 -0.70600673486E-02  0.50000500000E+01  0.50000000000E+01 0. -1.
</event>
<event>
 4    1  0.4973396E-021  0.5000050E+01  0.7818608E-02  0.2136455E+00
        -11   -1    0    0    0    0  0.00000000000E+00  0.00000000000E+00  0.50000499739E+01  0.50000500000E+01  0.51100000000E-03 0.  1.
         11   -1    0    0    0    0 -0.00000000000E+00 -0.00000000000E+00 -0.50000499739E+01  0.50000500000E+01  0.51100000000E-03 0. -1.
         50    1    1    2    0    0  0.35349637126E-02 -0.31864556655E-02 -0.21848410282E-01  0.50000500000E+01  0.50000000000E+01 0. -1.
         50    1    1    2    0    0 -0.35349637126E-02  0.31864556655E-02  0.21848410282E-01  0.50000500000E+01  0.50000000000E+01 0.  0.
</event>
<event>
 4    1  0.4973396E-021  0.5000050E+01  0.7818608E-02  0.2136455E+00
        -11   -1    0    0    0    0  0.00000000000E+00  0.00000000000E+00  0.50000499739E+01  0.50000500000E+01  0.51100000000E-03 0. -1.
         11   -1    0    0    0    0 -0.00000000000E+00 -0.00000000000E+00 -0.50000499739E+01  0.50000500000E+01  0.51100000000E-03 0.  1.
         50    1    1    2    0    0 -0.16875540885E-02 -0.85440644908E-02 -0.20594990245E-01  0.50000500000E+01  0.50000000000E+01 0.  1.
         50    1    1    2    0    0  0.16875540885E-02  0.85440644908E-02  0.20594990245E-01  0.50000500000E+01  0.50000000000E+01 0. -1.
</event>
<event>
 4    1  0.4973396E-021  0.5000050E+01  0.7818608E-02  0.2136455E+00
        -11   -1    0    0    0    0  0.00000000000E+00  0.00000000000E+00  0.50000499739E+01  0.50000500000E+01  0.51100000000E-03 0. -1.
         11   -1    0    0    0    0 -0.00000000000E+00 -0.00000000000E+00 -0.50000499739E+01  0.50000500000E+01  0.51100000000E-03 0.  1.
         50    1    1    2    0    0  0.13754659225E-01  0.10080748787E-01  0.14463414310E-01  0.50000500000E+01  0.50000000000E+01 0. -1.
         50    1    1    2    0    0 -0.13754659225E-01 -0.10080748787E-01 -0.14463414310E-01  0.50000500000E+01  0.50000000000E+01 0.  1.
</event>
<event>
 4    1  0.4973396E-021  0.5000050E+01  0.7818608E-02  0.2136455E+00
        -11   -1    0    0    0    0  0.00000000000E+00  0.00000000000E+00  0.50000499739E+01  0.50000500000E+01  0.51100000000E-03 0.  1.
         11   -1    0    0    0    0 -0.00000000000E+00 -0.00000000000E+00 -0.50000499739E+01  0.50000500000E+01  0.51100000000E-03 0. -1.
         50    1    1    2    0    0  0.14445603561E-02 -0.90723549873E-03 -0.22295575102E-01  0.50000500000E+01  0.50000000000E+01 0.  0.
         50    1    1    2    0    0 -0.14445603561E-02  0.90723549873E-03  0.22295575102E-01  0.50000500000E+01  0.50000000000E+01 0.  1.
</event>
<event>
 4    1  0.4973396E-021  0.5000050E+01  0.7818608E-02  0.2136455E+00
        -11   -1    0    0    0    0  0.00000000000E+00  0.00000000000E+00  0.50000499739E+01  0.50000500000E+01  0.51100000000E-03 0.  1.
         11   -1    0    0    0    0 -0.00000000000E+00 -0.00000000000E+00 -0.50000499739E+01  0.50000500000E+01  0.51100000000E-03 0. -1.
         50    1    1    2    0    0  0.19822833698E-01 -0.81730412225E-02 -0.63450107453E-02  0.50000500000E+01  0.50000000000E+01 0.  0.
         50    1    1    2    0    0 -0.19822833698E-01  0.81730412225E-02  0.63450107453E-02  0.50000500000E+01  0.50000000000E+01 0.  1.
</event>
<event>
 4    1  0.4973396E-021  0.5000050E+01  0.7818608E-02  0.2136455E+00
        -11   -1    0    0    0    0  0.00000000000E+00  0.00000000000E+00  0.50000499739E+01  0.50000500000E+01  0.51100000000E-03 0.  1.
         11   -1    0    0    0    0 -0.00000000000E+00 -0.00000000000E+00 -0.50000499739E+01  0.50000500000E+01  0.51100000000E-03 0. -1.
         50    1    1    2    0    0  0.11743493858E-01  0.18965012703E-01 -0.15560029460E-02  0.50000500000E+01  0.50000000000E+01 0. -1.
         50    1    1    2    0    0 -0.11743493858E-01 -0.18965012703E-01  0.15560029460E-02  0.50000500000E+01  0.50000000000E+01 0.  1.
</event>
<event>
 4    1  0.4973396E-021  0.5000050E+01  0.7818608E-02  0.2136455E+00
        -11   -1    0    0    0    0  0.00000000000E+00  0.00000000000E+00  0.50000499739E+01  0.50000500000E+01  0.51100000000E-03 0. -1.
         11   -1    0    0    0    0 -0.00000000000E+00 -0.00000000000E+00 -0.50000499739E+01  0.50000500000E+01  0.51100000000E-03 0.  1.
         50    1    1    2    0    0 -0.10654266051E-01 -0.19248277633E-01  0.39991152843E-02  0.50000500000E+01  0.50000000000E+01 0. -1.
         50    1    1    2    0    0  0.10654266051E-01  0.19248277633E-01 -0.39991152843E-02  0.50000500000E+01  0.50000000000E+01 0.  0.
</event>
<event>
 4    1  0.4973396E-021  0.5000050E+01  0.7818608E-02  0.2136455E+00
        -11   -1    0    0    0    0  0.00000000000E+00  0.00000000000E+00  0.50000499739E+01  0.50000500000E+01  0.51100000000E-03 0. -1.
         11   -1    0    0    0    0 -0.00000000000E+00 -0.00000000000E+00 -0.50000499739E+01  0.50000500000E+01  0.51100000000E-03 0.  1.
         50    1    1    2    0    0 -0.38454464775E-04 -0.78399501907E-02 -0.20941255986E-01  0.50000500000E+01  0.50000000000E+01 0.  1.
         50    1    1    2    0    0  0.38454464775E-04  0.78399501907E-02  0.20941255986E-01  0.50000500000E+01  0.50000000000E+01 0.  0.
</event>
<event>
 4    1  0.4973396E-021  0.5000050E+01  0.7818608E-02  0.2136455E+00
        -11   -1    0    0    0    0  0.00000000000E+00  0.00000000000E+00  0.50000499739E+01  0.50000500000E+01  0.51100000000E-03 0. -1.
         11   -1    0    0    0    0 -0.00000000000E+00 -0.00000000000E+00 -0.50000499739E+01  0.50000500000E+01  0.51100000000E-03 0.  1.
         50    1    1    2    0    0 -0.11206435143E-01  0.10636215889E-01 -0.16164443169E-01  0.50000500000E+01  0.50000000000E+01 0.  1.
         50    1    1    2    0    0  0.11206435143E-01 -0.10636215889E-01  0.16164443169E-01  0.50000500000E+01  0.50000000000E+01 0.  1.
</event>
<event>
 4    1  0.4973396E-021  0.5000050E+01  0.7818608E-02  0.2136455E+00
        -11   -1    0    0    0    0  0.00000000000E+00  0.00000000000E+00  0.50000499739E+01  0.50000500000E+01  0.51100000000E-03 0. -1.
         11   -1    0    0    0    0 -0.00000000000E+00 -0.00000000000E+00 -0.50000499739E+01  0.50000500000E+01  0.51100000000E-03 0.  1.
         50    1    1    2    0    0 -0.18655553158E-01 -0.10955833313E-01 -0.56517743050E-02  0.50000500000E+01  0.50000000000E+01 0.  0.
         50    1    1    2    0    0  0.18655553158E-01  0.10955833313E-01  0.56517743050E-02  0.50000500000E+01  0.50000000000E+01 0.  1.
</event>
<event>
 4    1  0.4973396E-021  0.5000050E+01  0.7818608E-02  0.2136455E+00
        -11   -1    0    0    0    0  0.00000000000E+00  0.00000000000E+00  0.50000499739E+01  0.50000500000E+01  0.51100000000E-03 0. -1.
         11   -1    0    0    0    0 -0.00000000000E+00 -0.00000000000E+00 -0.50000499739E+01  0.50000500000E+01  0.51100000000E-03 0.  1.
         50    1    1    2    0    0  0.15763521084E-01 -0.15395497155E-01 -0.38069108701E-02  0.50000500000E+01  0.50000000000E+01 0.  1.
         50    1    1    2    0    0 -0.15763521084E-01  0.15395497155E-01  0.38069108701E-02  0.50000500000E+01  0.50000000000E+01 0. -1.
</event>
<event>
 4    1  0.4973396E-021  0.5000050E+01  0.7818608E-02  0.2136455E+00
        -11   -1    0    0    0    0  0.00000000000E+00  0.00000000000E+00  0.50000499739E+01  0.50000500000E+01  0.51100000000E-03 0.  1.
         11   -1    0    0    0    0 -0.00000000000E+00 -0.00000000000E+00 -0.50000499739E+01  0.50000500000E+01  0.51100000000E-03 0. -1.
         50    1    1    2    0    0  0.44508368836E-02  0.13568859883E-01  0.17206934431E-01  0.50000500000E+01  0.50000000000E+01 0. -1.
         50    1    1    2    0    0 -0.44508368836E-02 -0.13568859883E-01 -0.17206934431E-01  0.50000500000E+01  0.50000000000E+01 0. -1.
</event>
<event>
 4    1  0.4973396E-021  0.5000050E+01  0.7818608E-02  0.2136455E+00
        -11   -1    0    0    0    0  0.00000000000E+00  0.00000000000E+00  0.50000499739E+01  0.50000500000E+01  0.51100000000E-03 0.  1.
         11   -1    0    0    0    0 -0.00000000000E+00 -0.00000000000E+00 -0.50000499739E+01  0.50000500000E+01  0.51100000000E-03 0. -1.
         50    1    1    2    0    0 -0.11712355349E-02  0.15445096980E-01  0.16126986284E-01  0.50000500000E+01  0.50000000000E+01 0.  1.
         50    1    1    2    0    0  0.11712355349E-02 -0.15445096980E-01 -0.16126986284E-01  0.50000500000E+01  0.50000000000E+01 0. -1.
</event>
<event>
 4    1  0.4973396E-021  0.5000050E+01  0.7818608E-02  0.2136455E+00
        -11   -1    0    0    0    0  0.00000000000E+00  0.00000000000E+00  0.50000499739E+01  0.50000500000E+01  0.51100000000E-03 0.  1.
         11   -1    0    0    0    0 -0.00000000000E+00 -0.00000000000E+00 -0.50000499739E+01  0.50000500000E+01  0.51100000000E-03 0. -1.
         50    1    1    2    0    0 -0.62853366645E-03  0.11316419730E-01 -0.19275530859E-01  0.50000500000E+01  0.50000000000E+01 0.  0.
         50    1    1    2    0    0  0.62853366645E-03 -0.11316419730E-01  0.19275530859E-01  0.50000500000E+01  0.50000000000E+01 0.  1.
</event>
<event>
 4    1  0.4973396E-021  0.5000050E+01  0.7818608E-02  0.2136455E+00
        -11   -1    0    0    0    0  0.00000000000E+00  0.00000000000E+00  0.50000499739E+01  0.50000500000E+01  0.51100000000E-03 0.  1.
         11   -1    0    0    0    0 -0.00000000000E+00 -0.00000000000E+00 -0.50000499739E+01  0.50000500000E+01  0.51100000000E-03 0. -1.
         50    1    1    2    0    0 -0.98511712769E-02 -0.99934418116E-02  0.17409424035E-01  0.50000500000E+01  0.50000000000E+01 0.  1.
         50    1    1    2    0    0  0.98511712769E-02  0.99934418116E-02 -0.17409424035E-01  0.50000500000E+01  0.50000000000E+01 0.  0.
</event>
<event>
 4    1  0.4973396E-021  0.5000050E+01  0.7818608E-02  0.2136455E+00
        -11   -1    0    0    0    0  0.00000000000E+00  0.00000000000E+00  0.50000499739E+01  0.50000500000E+01  0.51100000000E-03 0.  1.
         11   -1    0    0    0    0 -0.00000000000E+00 -0.00000000000E+00 -0.50000499739E+01  0.50000500000E+01  0.51100000000E-03 0. -1.
         50    1    1    2    0    0  0.18035431901E-01 -0.13210019428E-01 -0.47019446900E-03  0.50000500000E+01  0.50000000000E+01 0.  1.
         50    1    1    2    0    0 -0.18035431901E-01  0.13210019428E-01  0.47019446900E-03  0.50000500000E+01  0.50000000000E+01 0. -1.
</event>
<event>
 4    1  0.4973396E-021  0.5000050E+01  0.7818608E-02  0.2136455E+00
        -11   -1    0    0    0    0  0.00000000000E+00  0.00000000000E+00  0.50000499739E+01  0.50000500000E+01  0.51100000000E-03 0. -1.
         11   -1    0    0    0    0 -0.00000000000E+00 -0.00000000000E+00 -0.50000499739E+01  0.50000500000E+01  0.51100000000E-03 0.  1.
         50    1    1    2    0    0  0.16234789414E-01  0.46943177410E-02  0.14642318588E-01  0.50000500000E+01  0.50000000000E+01 0. -1.
         50    1    1    2    0    0 -0.16234789414E-01 -0.46943177410E-02 -0.14642318588E-01  0.50000500000E+01  0.50000000000E+01 0.  1.
</event>
<event>
 4    1  0.4973396E-021  0.5000050E+01  0.7818608E-02  0.2136455E+00
        -11   -1    0    0    0    0  0.00000000000E+00  0.00000000000E+00  0.50000499739E+01  0.50000500000E+01  0.51100000000E-03 0. -1.
         11   -1    0    0    0    0 -0.00000000000E+00 -0.00000000000E+00 -0.50000499739E+01  0.50000500000E+01  0.51100000000E-03 0.  1.
         50    1    1    2    0    0  0.20361825403E-01 -0.34120975777E-02  0.85881404489E-02  0.50000500000E+01  0.50000000000E+01 0.  1.
         50    1    1    2    0    0 -0.20361825403E-01  0.34120975777E-02 -0.85881404489E-02  0.50000500000E+01  0.50000000000E+01 0.  0.
</event>
<event>
 4    1  0.4973396E-021  0.5000050E+01  0.7818608E-02  0.2136455E+00
        -11   -1    0    0    0    0  0.00000000000E+00  0.00000000000E+00  0.50000499739E+01  0.50000500000E+01  0.51100000000E-03 0. -1.
         11   -1    0    0    0    0 -0.00000000000E+00 -0.00000000000E+00 -0.50000499739E+01  0.50000500000E+01  0.51100000000E-03 0.  1.
         50    1    1    2    0    0 -0.14082185035E-01 -0.49353634342E-02 -0.16653430649E-01  0.50000500000E+01  0.50000000000E+01 0.  1.
         50    1    1    2    0    0  0.14082185035E-01  0.49353634342E-02  0.16653430649E-01  0.50000500000E+01  0.50000000000E+01 0. -1.
</event>
<event>
 4    1  0.4973396E-021  0.5000050E+01  0.7818608E-02  0.2136455E+00
        -11   -1    0    0    0    0  0.00000000000E+00  0.00000000000E+00  0.50000499739E+01  0.50000500000E+01  0.51100000000E-03 0.  1.
         11   -1    0    0    0    0 -0.00000000000E+00 -0.00000000000E+00 -0.50000499739E+01  0.50000500000E+01  0.51100000000E-03 0. -1.
         50    1    1    2    0    0  0.98766878183E-02  0.12941360977E-02 -0.20019459271E-01  0.50000500000E+01  0.50000000000E+01 0. -1.
         50    1    1    2    0    0 -0.98766878183E-02 -0.12941360977E-02  0.20019459271E-01  0.50000500000E+01  0.50000000000E+01 0. -1.
</event>
<event>
 4    1  0.4973396E-021  0.5000050E+01  0.7818608E-02  0.2136455E+00
        -11   -1    0    0    0    0  0.00000000000E+00  0.00000000000E+00  0.50000499739E+01  0.50000500000E+01  0.51100000000E-03 0.  1.
         11   -1    0    0    0    0 -0.00000000000E+00 -0.00000000000E+00 -0.50000499739E+01  0.50000500000E+01  0.51100000000E-03 0. -1.
         50    1    1    2    0    0 -0.18494127737E-01 -0.12548908938E-01  0.70329491231E-03  0.50000500000E+01  0.50000000000E+01 0.  1.
         50    1    1    2    0    0  0.18494127737E-01  0.12548908938E-01 -0.70329491231E-03  0.50000500000E+01  0.50000000000E+01 0. -1.
</event>
<event>
 4    1  0.4973396E-021  0.5000050E+01  0.7818608E-02  0.2136455E+00
        -11   -1    0    0    0    0  0.00000000000E+00  0.00000000000E+00  0.50000499739E+01  0.50000500000E+01  0.51100000000E-03 0. -1.
         11   -1    0    0    0    0 -0.00000000000E+00 -0.00000000000E+00 -0.50000499739E+01  0.50000500000E+01  0.51100000000E-03 0.  1.
         50    1    1    2    0    0  0.11753722639E-01  0.94225727427E-02  0.16524758002E-01  0.50000500000E+01  0.50000000000E+01 0.  0.
         50    1    1    2    0    0 -0.11753722639E-01 -0.94225727427E-02 -0.16524758002E-01  0.50000500000E+01  0.50000000000E+01 0.  0.
</event>
<event>
 4    1  0.4973396E-021  0.5000050E+01  0.7818608E-02  0.2136455E+00
        -11   -1    0    0    0    0  0.00000000000E+00  0.00000000000E+00  0.50000499739E+01  0.50000500000E+01  0.51100000000E-03 0.  1.
         11   -1    0    0    0    0 -0.00000000000E+00 -0.00000000000E+00 -0.50000499739E+01  0.50000500000E+01  0.51100000000E-03 0. -1.
         50    1    1    2    0    0 -0.82484977606E-02  0.16036505076E-01 -0.13221016967E-01  0.50000500000E+01  0.50000000000E+01 0.  1.
         50    1    1    2    0    0  0.82484977606E-02 -0.16036505076E-01  0.13221016967E-01  0.50000500000E+01  0.50000000000E+01 0.  0.
</event>
<event>
 4    1  0.4973396E-021  0.5000050E+01  0.7818608E-02  0.2136455E+00
        -11   -1    0    0    0    0  0.00000000000E+00  0.00000000000E+00  0.50000499739E+01  0.50000500000E+01  0.51100000000E-03 0. -1.
         11   -1    0    0    0    0 -0.00000000000E+00 -0.00000000000E+00 -0.50000499739E+01  0.50000500000E+01  0.51100000000E-03 0.  1.
         50    1    1    2    0    0  0.77890247080E-02  0.53653429380E-02 -0.20261951763E-01  0.50000500000E+01  0.50000000000E+01 0.  1.
         50    1    1    2    0    0 -0.77890247080E-02 -0.53653429380E-02  0.20261951763E-01  0.50000500000E+01  0.50000000000E+01 0.  0.
</event>
<event>
 4    1  0.4973396E-021  0.5000050E+01  0.7818608E-02  0.2136455E+00
        -11   -1    0    0    0    0  0.00000000000E+00  0.00000000000E+00  0.50000499739E+01  0.50000500000E+01  0.51100000000E-03 0. -1.
         11   -1    0    0    0    0 -0.00000000000E+00 -0.00000000000E+00 -0.50000499739E+01  0.50000500000E+01  0.51100000000E-03 0.  1.
         50    1    1    2    0    0  0.20648256495E-01 -0.75712077737E-02 -0.40408930382E-02  0.50000500000E+01  0.50000000000E+01 0. -1.
         50    1    1    2    0    0 -0.20648256495E-01  0.75712077737E-02  0.40408930382E-02  0.50000500000E+01  0.50000000000E+01 0.  0.
</event>
<event>
 4    1  0.4973396E-021  0.5000050E+01  0.7818608E-02  0.2136455E+00
        -11   -1    0    0    0    0  0.00000000000E+00  0.00000000000E+00  0.50000499739E+01  0.50000500000E+01  0.51100000000E-03 0.  1.
         11   -1    0    0    0    0 -0.00000000000E+00 -0.00000000000E+00 -0.50000499739E+01  0.50000500000E+01  0.51100000000E-03 0. -1.
         50    1    1    2    0    0 -0.95232451823E-02  0.28739244596E-02 -0.20026254253E-01  0.50000500000E+01  0.50000000000E+01 0.  1.
         50    1    1    2    0    0  0.95232451823E-02 -0.28739244596E-02  0.20026254253E-01  0.50000500000E+01  0.50000000000E+01 0.  1.
</event>
<event>
 4    1  0.4973396E-021  0.5000050E+01  0.7818608E-02  0.2136455E+00
        -11   -1    0    0    0    0  0.00000000000E+00  0.00000000000E+00  0.50000499739E+01  0.50000500000E+01  0.51100000000E-03 0. -1.
         11   -1    0    0    0    0 -0.00000000000E+00 -0.00000000000E+00 -0.50000499739E+01  0.50000500000E+01  0.51100000000E-03 0.  1.
         50    1    1    2    0    0  0.11139339784E-01 -0.11791026556E-01 -0.15391208592E-01  0.50000500000E+01  0.50000000000E+01 0.  0.
         50    1    1    2    0    0 -0.11139339784E-01  0.11791026556E-01  0.15391208592E-01  0.50000500000E+01  0.50000000000E+01 0.  0.
</event>
<event>
 4    1  0.4973396E-021  0.5000050E+01  0.7818608E-02  0.2136455E+00
        -11   -1    0    0    0    0  0.00000000000E+00  0.00000000000E+00  0.50000499739E+01  0.50000500000E+01  0.51100000000E-03 0.  1.
         11   -1    0    0    0    0 -0.00000000000E+00 -0.00000000000E+00 -0.50000499739E+01  0.50000500000E+01  0.51100000000E-03 0. -1.
         50    1    1    2    0    0  0.42065389989E-02  0.28595694953E-02 -0.21774535401E-01  0.50000500000E+01  0.50000000000E+01 0. -1.
         50    1    1    2    0    0 -0.42065389989E-02 -0.28595694953E-02  0.21774535401E-01  0.50000500000E+01  0.50000000000E+01 0.  0.
</event>
<event>
 4    1  0.4973396E-021  0.5000050E+01  0.7818608E-02  0.2136455E+00
        -11   -1    0    0    0    0  0.00000000000E+00  0.00000000000E+00  0.50000499739E+01  0.50000500000E+01  0.51100000000E-03 0.  1.
         11   -1    0    0    0    0 -0.00000000000E+00 -0.00000000000E+00 -0.50000499739E+01  0.50000500000E+01  0.51100000000E-03 0. -1.
         50    1    1    2    0    0 -0.83333078547E-02  0.36919578998E-02 -0.20418813067E-01  0.50000500000E+01  0.50000000000E+01 0. -1.
         50    1    1    2    0    0  0.83333078547E-02 -0.36919578998E-02  0.20418813067E-01  0.50000500000E+01  0.50000000000E+01 0.  1.
</event>
<event>
 4    1  0.4973396E-021  0.5000050E+01  0.7818608E-02  0.2136455E+00
        -11   -1    0    0    0    0  0.00000000000E+00  0.00000000000E+00  0.50000499739E+01  0.50000500000E+01  0.51100000000E-03 0. -1.
         11   -1    0    0    0    0 -0.00000000000E+00 -0.00000000000E+00 -0.50000499739E+01  0.50000500000E+01  0.51100000000E-03 0.  1.
         50    1    1    2    0    0  0.44853749965E-02 -0.41053960581E-02  0.21518123393E-01  0.50000500000E+01  0.50000000000E+01 0.  0.
         50    1    1    2    0    0 -0.44853749965E-02  0.41053960581E-02 -0.21518123393E-01  0.50000500000E+01  0.50000000000E+01 0.  0.
</event>
<event>
 4    1  0.4973396E-021  0.5000050E+01  0.7818608E-02  0.2136455E+00
        -11   -1    0    0    0    0  0.00000000000E+00  0.00000000000E+00  0.50000499739E+01  0.50000500000E+01  0.51100000000E-03 0. -1.
         11   -1    0    0    0    0 -0.00000000000E+00 -0.00000000000E+00 -0.50000499739E+01  0.50000500000E+01  0.51100000000E-03 0.  1.
         50    1    1    2    0    0 -0.60522384859E-02  0.15724041665E-01 -0.14701272837E-01  0.50000500000E+01  0.50000000000E+01 0.  0.
         50    1    1    2    0    0  0.60522384859E-02 -0.15724041665E-01  0.14701272837E-01  0.50000500000E+01  0.50000000000E+01 0.  0.
</event>
<event>
 4    1  0.4973396E-021  0.5000050E+01  0.7818608E-02  0.2136455E+00
        -11   -1    0    0    0    0  0.00000000000E+00  0.00000000000E+00  0.50000499739E+01  0.50000500000E+01  0.51100000000E-03 0. -1.
         11   -1    0    0    0    0 -0.00000000000E+00 -0.00000000000E+00 -0.50000499739E+01  0.50000500000E+01  0.51100000000E-03 0.  1.
         50    1    1    2    0    0 -0.76650356694E-02  0.75876724821E-02 -0.19587673534E-01  0.50000500000E+01  0.50000000000E+01 0.  0.
         50    1    1    2    0    0  0.76650356694E-02 -0.75876724821E-02  0.19587673534E-01  0.50000500000E+01  0.50000000000E+01 0. -1.
</event>
<event>
 4    1  0.4973396E-021  0.5000050E+01  0.7818608E-02  0.2136455E+00
        -11   -1    0    0    0    0  0.00000000000E+00  0.00000000000E+00  0.50000499739E+01  0.50000500000E+01  0.51100000000E-03 0.  1.
         11   -1    0    0    0    0 -0.00000000000E+00 -0.00000000000E+00 -0.50000499739E+01  0.50000500000E+01  0.51100000000E-03 0. -1.
         50    1    1    2    0    0  0.20187705618E-01  0.96108461919E-02 -0.30112682645E-03  0.50000500000E+01  0.50000000000E+01 0.  1.
         50    1    1    2    0    0 -0.20187705618E-01 -0.96108461919E-02  0.30112682645E-03  0.50000500000E+01  0.50000000000E+01 0. -1.
</event>
<event>
 4    1  0.4973396E-021  0.5000050E+01  0.7818608E-02  0.2136455E+00
        -11   -1    0    0    0    0  0.00000000000E+00  0.00000000000E+00  0.50000499739E+01  0.50000500000E+01  0.51100000000E-03 0. -1.
         11   -1    0    0    0    0 -0.00000000000E+00 -0.00000000000E+00 -0.50000499739E+01  0.50000500000E+01  0.51100000000E-03 0.  1.
         50    1    1    2    0    0 -0.54645115466E-02 -0.17436190933E-01 -0.12888788124E-01  0.50000500000E+01  0.50000000000E+01 0.  0.
         50    1    1    2    0    0  0.54645115466E-02  0.17436190933E-01  0.12888788124E-01  0.50000500000E+01  0.50000000000E+01 0.  0.
</event>
<event>
 4    1  0.4973396E-021  0.5000050E+01  0.7818608E-02  0.2136455E+00
        -11   -1    0    0    0    0  0.00000000000E+00  0.00000000000E+00  0.50000499739E+01  0.50000500000E+01  0.51100000000E-03 0.  1.
         11   -1    0    0    0    0 -0.00000000000E+00 -0.00000000000E+00 -0.50000499739E+01  0.50000500000E+01  0.51100000000E-03 0. -1.
         50    1    1    2    0    0  0.17732404872E-01  0.13108882225E-01 -0.37042575878E-02  0.50000500000E+01  0.50000000000E+01 0.  1.
         50    1    1    2    0    0 -0.17732404872E-01 -0.13108882225E-01  0.37042575878E-02  0.50000500000E+01  0.50000000000E+01 0.  0.
</event>
<event>
 4    1  0.4973396E-021  0.5000050E+01  0.7818608E-02  0.2136455E+00
        -11   -1    0    0    0    0  0.00000000000E+00  0.00000000000E+00  0.50000499739E+01  0.50000500000E+01  0.51100000000E-03 0.  1.
         11   -1    0    0    0    0 -0.00000000000E+00 -0.00000000000E+00 -0.50000499739E+01  0.50000500000E+01  0.51100000000E-03 0. -1.
         50    1    1    2    0    0  0.14929170429E-01  0.16369378468E-01 -0.30275103402E-02  0.50000500000E+01  0.50000000000E+01 0.  1.
         50    1    1    2    0    0 -0.14929170429E-01 -0.16369378468E-01  0.30275103402E-02  0.50000500000E+01  0.50000000000E+01 0.  0.
</event>
<event>
 4    1  0.4973396E-021  0.5000050E+01  0.7818608E-02  0.2136455E+00
        -11   -1    0    0    0    0  0.00000000000E+00  0.00000000000E+00  0.50000499739E+01  0.50000500000E+01  0.51100000000E-03 0. -1.
         11   -1    0    0    0    0 -0.00000000000E+00 -0.00000000000E+00 -0.50000499739E+01  0.50000500000E+01  0.51100000000E-03 0.  1.
         50    1    1    2    0    0  0.10686449806E-01  0.19443893992E-01 -0.27815961221E-02  0.50000500000E+01  0.50000000000E+01 0.  0.
         50    1    1    2    0    0 -0.10686449806E-01 -0.19443893992E-01  0.27815961221E-02  0.50000500000E+01  0.50000000000E+01 0.  1.
</event>
<event>
 4    1  0.4973396E-021  0.5000050E+01  0.7818608E-02  0.2136455E+00
        -11   -1    0    0    0    0  0.00000000000E+00  0.00000000000E+00  0.50000499739E+01  0.50000500000E+01  0.51100000000E-03 0.  1.
         11   -1    0    0    0    0 -0.00000000000E+00 -0.00000000000E+00 -0.50000499739E+01  0.50000500000E+01  0.51100000000E-03 0. -1.
         50    1    1    2    0    0 -0.22302461181E-01 -0.15841994517E-02 -0.30502023682E-03  0.50000500000E+01  0.50000000000E+01 0.  0.
         50    1    1    2    0    0  0.22302461181E-01  0.15841994517E-02  0.30502023682E-03  0.50000500000E+01  0.50000000000E+01 0.  1.
</event>
<event>
 4    1  0.4973396E-021  0.5000050E+01  0.7818608E-02  0.2136455E+00
        -11   -1    0    0    0    0  0.00000000000E+00  0.00000000000E+00  0.50000499739E+01  0.50000500000E+01  0.51100000000E-03 0. -1.
         11   -1    0    0    0    0 -0.00000000000E+00 -0.00000000000E+00 -0.50000499739E+01  0.50000500000E+01  0.51100000000E-03 0.  1.
         50    1    1    2    0    0  0.26973626910E-02  0.18121886329E-01  0.12818891153E-01  0.50000500000E+01  0.50000000000E+01 0. -1.
         50    1    1    2    0    0 -0.26973626910E-02 -0.18121886329E-01 -0.12818891153E-01  0.50000500000E+01  0.50000000000E+01 0.  1.
</event>
<event>
 4    1  0.4973396E-021  0.5000050E+01  0.7818608E-02  0.2136455E+00
        -11   -1    0    0    0    0  0.00000000000E+00  0.00000000000E+00  0.50000499739E+01  0.50000500000E+01  0.51100000000E-03 0.  1.
         11   -1    0    0    0    0 -0.00000000000E+00 -0.00000000000E+00 -0.50000499739E+01  0.50000500000E+01  0.51100000000E-03 0. -1.
         50    1    1    2    0    0  0.98587258012E-02 -0.14691113118E-01 -0.13674034552E-01  0.50000500000E+01  0.50000000000E+01 0. -1.
         50    1    1    2    0    0 -0.98587258012E-02  0.14691113118E-01  0.13674034552E-01  0.50000500000E+01  0.50000000000E+01 0.  1.
</event>
<event>
 4    1  0.4973396E-021  0.5000050E+01  0.7818608E-02  0.2136455E+00
        -11   -1    0    0    0    0  0.00000000000E+00  0.00000000000E+00  0.50000499739E+01  0.50000500000E+01  0.51100000000E-03 0. -1.
         11   -1    0    0    0    0 -0.00000000000E+00 -0.00000000000E+00 -0.50000499739E+01  0.50000500000E+01  0.51100000000E-03 0.  1.
         50    1    1    2    0    0 -0.20844633670E-01  0.53869761909E-02 -0.60402180972E-02  0.50000500000E+01  0.50000000000E+01 0.  1.
         50    1    1    2    0    0  0.20844633670E-01 -0.53869761909E-02  0.60402180972E-02  0.50000500000E+01  0.50000000000E+01 0. -1.
</event>
<event>
 4    1  0.4973396E-021  0.5000050E+01  0.7818608E-02  0.2136455E+00
        -11   -1    0    0    0    0  0.00000000000E+00  0.00000000000E+00  0.50000499739E+01  0.50000500000E+01  0.51100000000E-03 0.  1.
         11   -1    0    0    0    0 -0.00000000000E+00 -0.00000000000E+00 -0.50000499739E+01  0.50000500000E+01  0.51100000000E-03 0. -1.
         50    1    1    2    0    0  0.21545885553E-01  0.22965906878E-02 -0.55229509286E-02  0.50000500000E+01  0.50000000000E+01 0.  1.
         50    1    1    2    0    0 -0.21545885553E-01 -0.22965906878E-02  0.55229509286E-02  0.50000500000E+01  0.50000000000E+01 0.  0.
</event>
<event>
 4    1  0.4973396E-021  0.5000050E+01  0.7818608E-02  0.2136455E+00
        -11   -1    0    0    0    0  0.00000000000E+00  0.00000000000E+00  0.50000499739E+01  0.50000500000E+01  0.51100000000E-03 0. -1.
         11   -1    0    0    0    0 -0.00000000000E+00 -0.00000000000E+00 -0.50000499739E+01  0.50000500000E+01  0.51100000000E-03 0.  1.
         50    1    1    2    0    0 -0.12841628518E-02  0.22323828757E-01  0.97659363378E-05  0.50000500000E+01  0.50000000000E+01 0.  0.
         50    1    1    2    0    0  0.12841628518E-02 -0.22323828757E-01 -0.97659363380E-05  0.50000500000E+01  0.50000000000E+01 0. -1.
</event>
<event>
 4    1  0.4973396E-021  0.5000050E+01  0.7818608E-02  0.2136455E+00
        -11   -1    0    0    0    0  0.00000000000E+00  0.00000000000E+00  0.50000499739E+01  0.50000500000E+01  0.51100000000E-03 0. -1.
         11   -1    0    0    0    0 -0.00000000000E+00 -0.00000000000E+00 -0.50000499739E+01  0.50000500000E+01  0.51100000000E-03 0.  1.
         50    1    1    2    0    0  0.14682056032E-01 -0.11606204502E-01  0.12236655904E-01  0.50000500000E+01  0.50000000000E+01 0.  1.
         50    1    1    2    0    0 -0.14682056032E-01  0.11606204502E-01 -0.12236655904E-01  0.50000500000E+01  0.50000000000E+01 0.  0.
</event>
<event>
 4    1  0.4973396E-021  0.5000050E+01  0.7818608E-02  0.2136455E+00
        -11   -1    0    0    0    0  0.00000000000E+00  0.00000000000E+00  0.50000499739E+01  0.50000500000E+01  0.51100000000E-03 0. -1.
         11   -1    0    0    0    0 -0.00000000000E+00 -0.00000000000E+00 -0.50000499739E+01  0.50000500000E+01  0.51100000000E-03 0.  1.
         50    1    1    2    0    0 -0.15358184463E-01  0.14674403259E-01  0.69850239057E-02  0.50000500000E+01  0.50000000000E+01 0. -1.
         50    1    1    2    0    0  0.15358184463E-01 -0.14674403259E-01 -0.69850239057E-02  0.50000500000E+01  0.50000000000E+01 0.  1.
</event>
<event>
 4    1  0.4973396E-021  0.5000050E+01  0.7818608E-02  0.2136455E+00
        -11   -1    0    0    0    0  0.00000000000E+00  0.00000000000E+00  0.50000499739E+01  0.50000500000E+01  0.51100000000E-03 0. -1.
         11   -1    0    0    0    0 -0.00000000000E+00 -0.00000000000E+00 -0.50000499739E+01  0.50000500000E+01  0.51100000000E-03 0.  1.
         50    1    1    2    0    0  0.11403912658E-01  0.15786892126E-01  0.10987598149E-01  0.50000500000E+01  0.50000000000E+01 0.  1.
         50    1    1    2    0    0 -0.11403912658E-01 -0.15786892126E-01 -0.10987598149E-01  0.50000500000E+01  0.50000000000E+01 0.  0.
</event>
<event>
 4    1  0.4973396E-021  0.5000050E+01  0.7818608E-02  0.2136455E+00
        -11   -1    0    0    0    0  0.00000000000E+00  0.00000000000E+00  0.50000499739E+01  0.50000500000E+01  0.51100000000E-03 0.  1.
         11   -1    0    0    0    0 -0.00000000000E+00 -0.00000000000E+00 -0.50000499739E+01  0.50000500000E+01  0.51100000000E-03 0. -1.
         50    1    1    2    0    0  0.71583755868E-03  0.10543503303E-01  0.19705953788E-01  0.50000500000E+01  0.50000000000E+01 0.  1.
         50    1    1    2    0    0 -0.71583755868E-03 -0.10543503303E-01 -0.19705953788E-01  0.50000500000E+01  0.50000000000E+01 0.  0.
</event>
<event>
 4    1  0.4973396E-021  0.5000050E+01  0.7818608E-02  0.2136455E+00
        -11   -1    0    0    0    0  0.00000000000E+00  0.00000000000E+00  0.50000499739E+01  0.50000500000E+01  0.51100000000E-03 0.  1.
         11   -1    0    0    0    0 -0.00000000000E+00 -0.00000000000E+00 -0.50000499739E+01  0.50000500000E+01  0.51100000000E-03 0. -1.
         50    1    1    2    0    0 -0.12482700477E-01 -0.18544458665E-01  0.53641555799E-03  0.50000500000E+01  0.50000000000E+01 0.  1.
         50    1    1    2    0    0  0.12482700477E-01  0.18544458665E-01 -0.53641555799E-03  0.50000500000E+01  0.50000000000E+01 0.  0.
</event>
<event>
 4    1  0.4973396E-021  0.5000050E+01  0.7818608E-02  0.2136455E+00
        -11   -1    0    0    0    0  0.00000000000E+00  0.00000000000E+00  0.50000499739E+01  0.50000500000E+01  0.51100000000E-03 0. -1.
         11   -1    0    0    0    0 -0.00000000000E+00 -0.00000000000E+00 -0.50000499739E+01  0.50000500000E+01  0.51100000000E-03 0.  1.
         50    1    1    2    0    0  0.13641282892E-02 -0.15783831987E-01  0.15780123632E-01  0.50000500000E+01  0.50000000000E+01 0. -1.
         50    1    1    2    0    0 -0.13641282892E-02  0.15783831987E-01 -0.15780123632E-01  0.50000500000E+01  0.50000000000E+01 0.  1.
</event>
<event>
 4    1  0.4973396E-021  0.5000050E+01  0.7818608E-02  0.2136455E+00
        -11   -1    0    0    0    0  0.00000000000E+00  0.00000000000E+00  0.50000499739E+01  0.50000500000E+01  0.51100000000E-03 0.  1.
         11   -1    0    0    0    0 -0.00000000000E+00 -0.00000000000E+00 -0.50000499739E+01  0.50000500000E+01  0.51100000000E-03 0. -1.
         50    1    1    2    0    0  0.15373311994E-01  0.16203878720E-01  0.10478992134E-02  0.50000500000E+01  0.50000000000E+01 0.  0.
         50    1    1    2    0    0 -0.15373311994E-01 -0.16203878720E-01 -0.10478992134E-02  0.50000500000E+01  0.50000000000E+01 0.  1.
</event>
<event>
 4    1  0.4973396E-021  0.5000050E+01  0.7818608E-02  0.2136455E+00
        -11   -1    0    0    0    0  0.00000000000E+00  0.00000000000E+00  0.50000499739E+01  0.50000500000E+01  0.51100000000E-03 0. -1.
         11   -1    0    0    0    0 -0.00000000000E+00 -0.00000000000E+00 -0.50000499739E+01  0.50000500000E+01  0.51100000000E-03 0.  1.
         50    1    1    2    0    0 -0.56747649398E-02 -0.18983385258E-01 -0.10364874674E-01  0.50000500000E+01  0.50000000000E+01 0.  0.
         50    1    1    2    0    0  0.56747649398E-02  0.18983385258E-01  0.10364874674E-01  0.50000500000E+01  0.50000000000E+01 0.  0.
</event>
<event>
 4    1  0.4973396E-021  0.5000050E+01  0.7818608E-02  0.2136455E+00
        -11   -1    0    0    0    0  0.00000000000E+00  0.00000000000E+00  0.50000499739E+01  0.50000500000E+01  0.51100000000E-03 0. -1.
         11   -1    0    0    0    0 -0.00000000000E+00 -0.00000000000E+00 -0.50000499739E+01  0.50000500000E+01  0.51100000000E-03 0.  1.
         50    1    1    2    0    0 -0.25929222779E-02  0.19990178066E-01  0.96784314296E-02  0.50000500000E+01  0.50000000000E+01 0.  0.
         50    1    1    2    0    0  0.25929222779E-02 -0.19990178066E-01 -0.96784314296E-02  0.50000500000E+01  0.50000000000E+01 0.  0.
</event>
<event>
 4    1  0.4973396E-021  0.5000050E+01  0.7818608E-02  0.2136455E+00
        -11   -1    0    0    0    0  0.00000000000E+00  0.00000000000E+00  0.50000499739E+01  0.50000500000E+01  0.51100000000E-03 0. -1.
         11   -1    0    0    0    0 -0.00000000000E+00 -0.00000000000E+00 -0.50000499739E+01  0.50000500000E+01  0.51100000000E-03 0.  1.
         50    1    1    2    0    0 -0.49981046431E-02 -0.89029555159E-02  0.19893688272E-01  0.50000500000E+01  0.50000000000E+01 0.  0.
         50    1    1    2    0    0  0.49981046431E-02  0.89029555159E-02 -0.19893688272E-01  0.50000500000E+01  0.50000000000E+01 0.  0.
</event>
<event>
 4    1  0.4973396E-021  0.5000050E+01  0.7818608E-02  0.2136455E+00
        -11   -1    0    0    0    0  0.00000000000E+00  0.00000000000E+00  0.50000499739E+01  0.50000500000E+01  0.51100000000E-03 0. -1.
         11   -1    0    0    0    0 -0.00000000000E+00 -0.00000000000E+00 -0.50000499739E+01  0.50000500000E+01  0.51100000000E-03 0.  1.
         50    1    1    2    0    0  0.19450344286E-01 -0.38395579696E-02 -0.10341392641E-01  0.50000500000E+01  0.50000000000E+01 0.  1.
         50    1    1    2    0    0 -0.19450344286E-01  0.38395579696E-02  0.10341392641E-01  0.50000500000E+01  0.50000000000E+01 0. -1.
</event>
<event>
 4    1  0.4973396E-021  0.5000050E+01  0.7818608E-02  0.2136455E+00
        -11   -1    0    0    0    0  0.00000000000E+00  0.00000000000E+00  0.50000499739E+01  0.50000500000E+01  0.51100000000E-03 0. -1.
         11   -1    0    0    0    0 -0.00000000000E+00 -0.00000000000E+00 -0.50000499739E+01  0.50000500000E+01  0.51100000000E-03 0.  1.
         50    1    1    2    0    0 -0.12814075373E-01 -0.13553536823E-01  0.12333029308E-01  0.50000500000E+01  0.50000000000E+01 0.  0.
         50    1    1    2    0    0  0.12814075373E-01  0.13553536823E-01 -0.12333029308E-01  0.50000500000E+01  0.50000000000E+01 0.  0.
</event>
<event>
 4    1  0.4973396E-021  0.5000050E+01  0.7818608E-02  0.2136455E+00
        -11   -1    0    0    0    0  0.00000000000E+00  0.00000000000E+00  0.50000499739E+01  0.50000500000E+01  0.51100000000E-03 0.  1.
         11   -1    0    0    0    0 -0.00000000000E+00 -0.00000000000E+00 -0.50000499739E+01  0.50000500000E+01  0.51100000000E-03 0. -1.
         50    1    1    2    0    0  0.12994727268E-01 -0.86696852189E-02  0.15999253777E-01  0.50000500000E+01  0.50000000000E+01 0.  0.
         50    1    1    2    0    0 -0.12994727268E-01  0.86696852189E-02 -0.15999253777E-01  0.50000500000E+01  0.50000000000E+01 0.  0.
</event>
<event>
 4    1  0.4973396E-021  0.5000050E+01  0.7818608E-02  0.2136455E+00
        -11   -1    0    0    0    0  0.00000000000E+00  0.00000000000E+00  0.50000499739E+01  0.50000500000E+01  0.51100000000E-03 0. -1.
         11   -1    0    0    0    0 -0.00000000000E+00 -0.00000000000E+00 -0.50000499739E+01  0.50000500000E+01  0.51100000000E-03 0.  1.
         50    1    1    2    0    0  0.64859650417E-02  0.21315496665E-01  0.18932404490E-02  0.50000500000E+01  0.50000000000E+01 0.  1.
         50    1    1    2    0    0 -0.64859650417E-02 -0.21315496665E-01 -0.18932404490E-02  0.50000500000E+01  0.50000000000E+01 0. -1.
</event>
<event>
 4    1  0.4973396E-021  0.5000050E+01  0.7818608E-02  0.2136455E+00
        -11   -1    0    0    0    0  0.00000000000E+00  0.00000000000E+00  0.50000499739E+01  0.50000500000E+01  0.51100000000E-03 0. -1.
         11   -1    0    0    0    0 -0.00000000000E+00 -0.00000000000E+00 -0.50000499739E+01  0.50000500000E+01  0.51100000000E-03 0.  1.
         50    1    1    2    0    0  0.17304785427E-01 -0.14152462061E-01  0.50469688138E-03  0.50000500000E+01  0.50000000000E+01 0.  1.
         50    1    1    2    0    0 -0.17304785427E-01  0.14152462061E-01 -0.50469688138E-03  0.50000500000E+01  0.50000000000E+01 0. -1.
</event>
<event>
 4    1  0.4973396E-021  0.5000050E+01  0.7818608E-02  0.2136455E+00
        -11   -1    0    0    0    0  0.00000000000E+00  0.00000000000E+00  0.50000499739E+01  0.50000500000E+01  0.51100000000E-03 0.  1.
         11   -1    0    0    0    0 -0.00000000000E+00 -0.00000000000E+00 -0.50000499739E+01  0.50000500000E+01  0.51100000000E-03 0. -1.
         50    1    1    2    0    0 -0.79545100922E-02 -0.19721652272E-01  0.69126478900E-02  0.50000500000E+01  0.50000000000E+01 0. -1.
         50    1    1    2    0    0  0.79545100922E-02  0.19721652272E-01 -0.69126478900E-02  0.50000500000E+01  0.50000000000E+01 0.  0.
</event>
<event>
 4    1  0.4973396E-021  0.5000050E+01  0.7818608E-02  0.2136455E+00
        -11   -1    0    0    0    0  0.00000000000E+00  0.00000000000E+00  0.50000499739E+01  0.50000500000E+01  0.51100000000E-03 0.  1.
         11   -1    0    0    0    0 -0.00000000000E+00 -0.00000000000E+00 -0.50000499739E+01  0.50000500000E+01  0.51100000000E-03 0. -1.
         50    1    1    2    0    0  0.21031337380E-01  0.43062940501E-03 -0.75828692672E-02  0.50000500000E+01  0.50000000000E+01 0.  0.
         50    1    1    2    0    0 -0.21031337380E-01 -0.43062940501E-03  0.75828692672E-02  0.50000500000E+01  0.50000000000E+01 0.  0.
</event>
<event>
 4    1  0.4973396E-021  0.5000050E+01  0.7818608E-02  0.2136455E+00
        -11   -1    0    0    0    0  0.00000000000E+00  0.00000000000E+00  0.50000499739E+01  0.50000500000E+01  0.51100000000E-03 0.  1.
         11   -1    0    0    0    0 -0.00000000000E+00 -0.00000000000E+00 -0.50000499739E+01  0.50000500000E+01  0.51100000000E-03 0. -1.
         50    1    1    2    0    0 -0.19023831609E-01 -0.61065104380E-02  0.10040262007E-01  0.50000500000E+01  0.50000000000E+01 0. -1.
         50    1    1    2    0    0  0.19023831609E-01  0.61065104380E-02 -0.10040262007E-01  0.50000500000E+01  0.50000000000E+01 0.  0.
</event>
<event>
 4    1  0.4973396E-021  0.5000050E+01  0.7818608E-02  0.2136455E+00
        -11   -1    0    0    0    0  0.00000000000E+00  0.00000000000E+00  0.50000499739E+01  0.50000500000E+01  0.51100000000E-03 0. -1.
         11   -1    0    0    0    0 -0.00000000000E+00 -0.00000000000E+00 -0.50000499739E+01  0.50000500000E+01  0.51100000000E-03 0.  1.
         50    1    1    2    0    0  0.93402962730E-02  0.67300501246E-02 -0.19169449414E-01  0.50000500000E+01  0.50000000000E+01 0.  1.
         50    1    1    2    0    0 -0.93402962730E-02 -0.67300501246E-02  0.19169449414E-01  0.50000500000E+01  0.50000000000E+01 0.  0.
</event>
<event>
 4    1  0.4973396E-021  0.5000050E+01  0.7818608E-02  0.2136455E+00
        -11   -1    0    0    0    0  0.00000000000E+00  0.00000000000E+00  0.50000499739E+01  0.50000500000E+01  0.51100000000E-03 0. -1.
         11   -1    0    0    0    0 -0.00000000000E+00 -0.00000000000E+00 -0.50000499739E+01  0.50000500000E+01  0.51100000000E-03 0.  1.
         50    1    1    2    0    0 -0.16222464534E-02  0.12295155370E-01 -0.18606449711E-01  0.50000500000E+01  0.50000000000E+01 0.  0.
         50    1    1    2    0    0  0.16222464534E-02 -0.12295155370E-01  0.18606449711E-01  0.50000500000E+01  0.50000000000E+01 0.  0.
</event>
<event>
 4    1  0.4973396E-021  0.5000050E+01  0.7818608E-02  0.2136455E+00
        -11   -1    0    0    0    0  0.00000000000E+00  0.00000000000E+00  0.50000499739E+01  0.50000500000E+01  0.51100000000E-03 0.  1.
         11   -1    0    0    0    0 -0.00000000000E+00 -0.00000000000E+00 -0.50000499739E+01  0.50000500000E+01  0.51100000000E-03 0. -1.
         50    1    1    2    0    0  0.18253341969E-01 -0.71715392269E-02  0.10741835601E-01  0.50000500000E+01  0.50000000000E+01 0.  1.
         50    1    1    2    0    0 -0.18253341969E-01  0.71715392269E-02 -0.10741835601E-01  0.50000500000E+01  0.50000000000E+01 0. -1.
</event>
<event>
 4    1  0.4973396E-021  0.5000050E+01  0.7818608E-02  0.2136455E+00
        -11   -1    0    0    0    0  0.00000000000E+00  0.00000000000E+00  0.50000499739E+01  0.50000500000E+01  0.51100000000E-03 0. -1.
         11   -1    0    0    0    0 -0.00000000000E+00 -0.00000000000E+00 -0.50000499739E+01  0.50000500000E+01  0.51100000000E-03 0.  1.
         50    1    1    2    0    0 -0.21337074050E-01 -0.28187434571E-02 -0.60651839458E-02  0.50000500000E+01  0.50000000000E+01 0.  0.
         50    1    1    2    0    0  0.21337074050E-01  0.28187434571E-02  0.60651839458E-02  0.50000500000E+01  0.50000000000E+01 0.  0.
</event>
<event>
 4    1  0.4973396E-021  0.5000050E+01  0.7818608E-02  0.2136455E+00
        -11   -1    0    0    0    0  0.00000000000E+00  0.00000000000E+00  0.50000499739E+01  0.50000500000E+01  0.51100000000E-03 0.  1.
         11   -1    0    0    0    0 -0.00000000000E+00 -0.00000000000E+00 -0.50000499739E+01  0.50000500000E+01  0.51100000000E-03 0. -1.
         50    1    1    2    0    0  0.20842020670E-01  0.73187781260E-02 -0.34710461145E-02  0.50000500000E+01  0.50000000000E+01 0.  1.
         50    1    1    2    0    0 -0.20842020670E-01 -0.73187781260E-02  0.34710461145E-02  0.50000500000E+01  0.50000000000E+01 0. -1.
</event>
<event>
 4    1  0.4973396E-021  0.5000050E+01  0.7818608E-02  0.2136455E+00
        -11   -1    0    0    0    0  0.00000000000E+00  0.00000000000E+00  0.50000499739E+01  0.50000500000E+01  0.51100000000E-03 0. -1.
         11   -1    0    0    0    0 -0.00000000000E+00 -0.00000000000E+00 -0.50000499739E+01  0.50000500000E+01  0.51100000000E-03 0.  1.
         50    1    1    2    0    0  0.36776142183E-02 -0.21796190848E-01  0.33769391720E-02  0.50000500000E+01  0.50000000000E+01 0. -1.
         50    1    1    2    0    0 -0.36776142183E-02  0.21796190848E-01 -0.33769391720E-02  0.50000500000E+01  0.50000000000E+01 0.  1.
</event>
<event>
 4    1  0.4973396E-021  0.5000050E+01  0.7818608E-02  0.2136455E+00
        -11   -1    0    0    0    0  0.00000000000E+00  0.00000000000E+00  0.50000499739E+01  0.50000500000E+01  0.51100000000E-03 0. -1.
         11   -1    0    0    0    0 -0.00000000000E+00 -0.00000000000E+00 -0.50000499739E+01  0.50000500000E+01  0.51100000000E-03 0.  1.
         50    1    1    2    0    0 -0.17772485930E-01  0.13497086529E-01  0.14035309401E-02  0.50000500000E+01  0.50000000000E+01 0.  0.
         50    1    1    2    0    0  0.17772485930E-01 -0.13497086529E-01 -0.14035309401E-02  0.50000500000E+01  0.50000000000E+01 0. -1.
</event>
<event>
 4    1  0.4973396E-021  0.5000050E+01  0.7818608E-02  0.2136455E+00
        -11   -1    0    0    0    0  0.00000000000E+00  0.00000000000E+00  0.50000499739E+01  0.50000500000E+01  0.51100000000E-03 0. -1.
         11   -1    0    0    0    0 -0.00000000000E+00 -0.00000000000E+00 -0.50000499739E+01  0.50000500000E+01  0.51100000000E-03 0.  1.
         50    1    1    2    0    0  0.77353691509E-02  0.20248023288E-01 -0.54940073745E-02  0.50000500000E+01  0.50000000000E+01 0. -1.
         50    1    1    2    0    0 -0.77353691509E-02 -0.20248023288E-01  0.54940073745E-02  0.50000500000E+01  0.50000000000E+01 0.  0.
</event>
<event>
 4    1  0.4973396E-021  0.5000050E+01  0.7818608E-02  0.2136455E+00
        -11   -1    0    0    0    0  0.00000000000E+00  0.00000000000E+00  0.50000499739E+01  0.50000500000E+01  0.51100000000E-03 0.  1.
         11   -1    0    0    0    0 -0.00000000000E+00 -0.00000000000E+00 -0.50000499739E+01  0.50000500000E+01  0.51100000000E-03 0. -1.
         50    1    1    2    0    0 -0.11112604690E-01 -0.10795240515E-01 -0.16123749540E-01  0.50000500000E+01  0.50000000000E+01 0. -1.
         50    1    1    2    0    0  0.11112604690E-01  0.10795240515E-01  0.16123749540E-01  0.50000500000E+01  0.50000000000E+01 0.  1.
</event>
<event>
 4    1  0.4973396E-021  0.5000050E+01  0.7818608E-02  0.2136455E+00
        -11   -1    0    0    0    0  0.00000000000E+00  0.00000000000E+00  0.50000499739E+01  0.50000500000E+01  0.51100000000E-03 0. -1.
         11   -1    0    0    0    0 -0.00000000000E+00 -0.00000000000E+00 -0.50000499739E+01  0.50000500000E+01  0.51100000000E-03 0.  1.
         50    1    1    2    0    0 -0.20390888729E-01 -0.27819585541E-03 -0.91726094380E-02  0.50000500000E+01  0.50000000000E+01 0. -1.
         50    1    1    2    0    0  0.20390888729E-01  0.27819585541E-03  0.91726094380E-02  0.50000500000E+01  0.50000000000E+01 0.  0.
</event>
<event>
 4    1  0.4973396E-021  0.5000050E+01  0.7818608E-02  0.2136455E+00
        -11   -1    0    0    0    0  0.00000000000E+00  0.00000000000E+00  0.50000499739E+01  0.50000500000E+01  0.51100000000E-03 0. -1.
         11   -1    0    0    0    0 -0.00000000000E+00 -0.00000000000E+00 -0.50000499739E+01  0.50000500000E+01  0.51100000000E-03 0.  1.
         50    1    1    2    0    0  0.35431166472E-02  0.32096281547E-02 -0.21843697295E-01  0.50000500000E+01  0.50000000000E+01 0.  1.
         50    1    1    2    0    0 -0.35431166472E-02 -0.32096281547E-02  0.21843697295E-01  0.50000500000E+01  0.50000000000E+01 0.  0.
</event>
<event>
 4    1  0.4973396E-021  0.5000050E+01  0.7818608E-02  0.2136455E+00
        -11   -1    0    0    0    0  0.00000000000E+00  0.00000000000E+00  0.50000499739E+01  0.50000500000E+01  0.51100000000E-03 0.  1.
         11   -1    0    0    0    0 -0.00000000000E+00 -0.00000000000E+00 -0.50000499739E+01  0.50000500000E+01  0.51100000000E-03 0. -1.
         50    1    1    2    0    0 -0.78769141625E-02  0.19161556821E-01  0.84137663076E-02  0.50000500000E+01  0.50000000000E+01 0.  1.
         50    1    1    2    0    0  0.78769141625E-02 -0.19161556821E-01 -0.84137663076E-02  0.50000500000E+01  0.50000000000E+01 0. -1.
</event>
<event>
 4    1  0.4973396E-021  0.5000050E+01  0.7818608E-02  0.2136455E+00
        -11   -1    0    0    0    0  0.00000000000E+00  0.00000000000E+00  0.50000499739E+01  0.50000500000E+01  0.51100000000E-03 0.  1.
         11   -1    0    0    0    0 -0.00000000000E+00 -0.00000000000E+00 -0.50000499739E+01  0.50000500000E+01  0.51100000000E-03 0. -1.
         50    1    1    2    0    0 -0.18401659562E-02 -0.15548079544E-01  0.15964758431E-01  0.50000500000E+01  0.50000000000E+01 0.  1.
         50    1    1    2    0    0  0.18401659562E-02  0.15548079544E-01 -0.15964758431E-01  0.50000500000E+01  0.50000000000E+01 0. -1.
</event>
<event>
 4    1  0.4973396E-021  0.5000050E+01  0.7818608E-02  0.2136455E+00
        -11   -1    0    0    0    0  0.00000000000E+00  0.00000000000E+00  0.50000499739E+01  0.50000500000E+01  0.51100000000E-03 0. -1.
         11   -1    0    0    0    0 -0.00000000000E+00 -0.00000000000E+00 -0.50000499739E+01  0.50000500000E+01  0.51100000000E-03 0.  1.
         50    1    1    2    0    0 -0.25524414691E-02 -0.75642252771E-02  0.20887078266E-01  0.50000500000E+01  0.50000000000E+01 0.  0.
         50    1    1    2    0    0  0.25524414691E-02  0.75642252771E-02 -0.20887078266E-01  0.50000500000E+01  0.50000000000E+01 0.  1.
</event>
<event>
 4    1  0.4973396E-021  0.5000050E+01  0.7818608E-02  0.2136455E+00
        -11   -1    0    0    0    0  0.00000000000E+00  0.00000000000E+00  0.50000499739E+01  0.50000500000E+01  0.51100000000E-03 0.  1.
         11   -1    0    0    0    0 -0.00000000000E+00 -0.00000000000E+00 -0.50000499739E+01  0.50000500000E+01  0.51100000000E-03 0. -1.
         50    1    1    2    0    0  0.50239668363E-02 -0.81120298998E-02 -0.20222690922E-01  0.50000500000E+01  0.50000000000E+01 0. -1.
         50    1    1    2    0    0 -0.50239668363E-02  0.81120298998E-02  0.20222690922E-01  0.50000500000E+01  0.50000000000E+01 0.  1.
</event>
<event>
 4    1  0.4973396E-021  0.5000050E+01  0.7818608E-02  0.2136455E+00
        -11   -1    0    0    0    0  0.00000000000E+00  0.00000000000E+00  0.50000499739E+01  0.50000500000E+01  0.51100000000E-03 0. -1.
         11   -1    0    0    0    0 -0.00000000000E+00 -0.00000000000E+00 -0.50000499739E+01  0.50000500000E+01  0.51100000000E-03 0.  1.
         50    1    1    2    0    0 -0.19932953585E-01 -0.86699188906E-02  0.52452233308E-02  0.50000500000E+01  0.50000000000E+01 0.  1.
         50    1    1    2    0    0  0.19932953585E-01  0.86699188906E-02 -0.52452233308E-02  0.50000500000E+01  0.50000000000E+01 0.  0.
</event>
<event>
 4    1  0.4973396E-021  0.5000050E+01  0.7818608E-02  0.2136455E+00
        -11   -1    0    0    0    0  0.00000000000E+00  0.00000000000E+00  0.50000499739E+01  0.50000500000E+01  0.51100000000E-03 0. -1.
         11   -1    0    0    0    0 -0.00000000000E+00 -0.00000000000E+00 -0.50000499739E+01  0.50000500000E+01  0.51100000000E-03 0.  1.
         50    1    1    2    0    0  0.18801593591E-01  0.11952160257E-01  0.19100899558E-02  0.50000500000E+01  0.50000000000E+01 0. -1.
         50    1    1    2    0    0 -0.18801593591E-01 -0.11952160257E-01 -0.19100899558E-02  0.50000500000E+01  0.50000000000E+01 0.  0.
</event>
<event>
 4    1  0.4973396E-021  0.5000050E+01  0.7818608E-02  0.2136455E+00
        -11   -1    0    0    0    0  0.00000000000E+00  0.00000000000E+00  0.50000499739E+01  0.50000500000E+01  0.51100000000E-03 0.  1.
         11   -1    0    0    0    0 -0.00000000000E+00 -0.00000000000E+00 -0.50000499739E+01  0.50000500000E+01  0.51100000000E-03 0. -1.
         50    1    1    2    0    0  0.15378118477E-01  0.69207151220E-02  0.14683993814E-01  0.50000500000E+01  0.50000000000E+01 0.  0.
         50    1    1    2    0    0 -0.15378118477E-01 -0.69207151220E-02 -0.14683993814E-01  0.50000500000E+01  0.50000000000E+01 0. -1.
</event>
<event>
 4    1  0.4973396E-021  0.5000050E+01  0.7818608E-02  0.2136455E+00
        -11   -1    0    0    0    0  0.00000000000E+00  0.00000000000E+00  0.50000499739E+01  0.50000500000E+01  0.51100000000E-03 0.  1.
         11   -1    0    0    0    0 -0.00000000000E+00 -0.00000000000E+00 -0.50000499739E+01  0.50000500000E+01  0.51100000000E-03 0. -1.
         50    1    1    2    0    0  0.21969140336E-01 -0.41410169086E-02  0.45973018475E-03  0.50000500000E+01  0.50000000000E+01 0.  0.
         50    1    1    2    0    0 -0.21969140336E-01  0.41410169086E-02 -0.45973018475E-03  0.50000500000E+01  0.50000000000E+01 0. -1.
</event>
<event>
 4    1  0.4973396E-021  0.5000050E+01  0.7818608E-02  0.2136455E+00
        -11   -1    0    0    0    0  0.00000000000E+00  0.00000000000E+00  0.50000499739E+01  0.50000500000E+01  0.51100000000E-03 0. -1.
         11   -1    0    0    0    0 -0.00000000000E+00 -0.00000000000E+00 -0.50000499739E+01  0.50000500000E+01  0.51100000000E-03 0.  1.
         50    1    1    2    0    0  0.14224273127E-01 -0.17142936806E-03  0.17252337986E-01  0.50000500000E+01  0.50000000000E+01 0. -1.
         50    1    1    2    0    0 -0.14224273127E-01  0.17142936806E-03 -0.17252337986E-01  0.50000500000E+01  0.50000000000E+01 0.  1.
</event>
<event>
 4    1  0.4973396E-021  0.5000050E+01  0.7818608E-02  0.2136455E+00
        -11   -1    0    0    0    0  0.00000000000E+00  0.00000000000E+00  0.50000499739E+01  0.50000500000E+01  0.51100000000E-03 0. -1.
         11   -1    0    0    0    0 -0.00000000000E+00 -0.00000000000E+00 -0.50000499739E+01  0.50000500000E+01  0.51100000000E-03 0.  1.
         50    1    1    2    0    0 -0.12989524117E-01 -0.70039426862E-02 -0.16799391360E-01  0.50000500000E+01  0.50000000000E+01 0.  1.
         50    1    1    2    0    0  0.12989524117E-01  0.70039426862E-02  0.16799391360E-01  0.50000500000E+01  0.50000000000E+01 0. -1.
</event>
<event>
 4    1  0.4973396E-021  0.5000050E+01  0.7818608E-02  0.2136455E+00
        -11   -1    0    0    0    0  0.00000000000E+00  0.00000000000E+00  0.50000499739E+01  0.50000500000E+01  0.51100000000E-03 0.  1.
         11   -1    0    0    0    0 -0.00000000000E+00 -0.00000000000E+00 -0.50000499739E+01  0.50000500000E+01  0.51100000000E-03 0. -1.
         50    1    1    2    0    0 -0.17089952488E-01 -0.13562360774E-01  0.48988155911E-02  0.50000500000E+01  0.50000000000E+01 0.  0.
         50    1    1    2    0    0  0.17089952488E-01  0.13562360774E-01 -0.48988155911E-02  0.50000500000E+01  0.50000000000E+01 0.  0.
</event>
<event>
 4    1  0.4973396E-021  0.5000050E+01  0.7818608E-02  0.2136455E+00
        -11   -1    0    0    0    0  0.00000000000E+00  0.00000000000E+00  0.50000499739E+01  0.50000500000E+01  0.51100000000E-03 0.  1.
         11   -1    0    0    0    0 -0.00000000000E+00 -0.00000000000E+00 -0.50000499739E+01  0.50000500000E+01  0.51100000000E-03 0. -1.
         50    1    1    2    0    0 -0.38677406917E-02 -0.19312204117E-01  0.10586871781E-01  0.50000500000E+01  0.50000000000E+01 0.  1.
         50    1    1    2    0    0  0.38677406917E-02  0.19312204117E-01 -0.10586871781E-01  0.50000500000E+01  0.50000000000E+01 0. -1.
</event>
<event>
 4    1  0.4973396E-021  0.5000050E+01  0.7818608E-02  0.2136455E+00
        -11   -1    0    0    0    0  0.00000000000E+00  0.00000000000E+00  0.50000499739E+01  0.50000500000E+01  0.51100000000E-03 0.  1.
         11   -1    0    0    0    0 -0.00000000000E+00 -0.00000000000E+00 -0.50000499739E+01  0.50000500000E+01  0.51100000000E-03 0. -1.
         50    1    1    2    0    0  0.17984203311E-01 -0.23718563099E-02 -0.13074602438E-01  0.50000500000E+01  0.50000000000E+01 0. -1.
         50    1    1    2    0    0 -0.17984203311E-01  0.23718563099E-02  0.13074602438E-01  0.50000500000E+01  0.50000000000E+01 0.  1.
</event>
<event>
 4    1  0.4973396E-021  0.5000050E+01  0.7818608E-02  0.2136455E+00
        -11   -1    0    0    0    0  0.00000000000E+00  0.00000000000E+00  0.50000499739E+01  0.50000500000E+01  0.51100000000E-03 0. -1.
         11   -1    0    0    0    0 -0.00000000000E+00 -0.00000000000E+00 -0.50000499739E+01  0.50000500000E+01  0.51100000000E-03 0.  1.
         50    1    1    2    0    0 -0.20358307024E-01 -0.44021515073E-02 -0.81340578579E-02  0.50000500000E+01  0.50000000000E+01 0.  1.
         50    1    1    2    0    0  0.20358307024E-01  0.44021515073E-02  0.81340578579E-02  0.50000500000E+01  0.50000000000E+01 0. -1.
</event>
<event>
 4    1  0.4973396E-021  0.5000050E+01  0.7818608E-02  0.2136455E+00
        -11   -1    0    0    0    0  0.00000000000E+00  0.00000000000E+00  0.50000499739E+01  0.50000500000E+01  0.51100000000E-03 0. -1.
         11   -1    0    0    0    0 -0.00000000000E+00 -0.00000000000E+00 -0.50000499739E+01  0.50000500000E+01  0.51100000000E-03 0.  1.
         50    1    1    2    0    0 -0.17296774384E-01 -0.13879933452E-01 -0.28585911323E-02  0.50000500000E+01  0.50000000000E+01 0. -1.
         50    1    1    2    0    0  0.17296774384E-01  0.13879933452E-01  0.28585911323E-02  0.50000500000E+01  0.50000000000E+01 0.  1.
</event>
<event>
 4    1  0.4973396E-021  0.5000050E+01  0.7818608E-02  0.2136455E+00
        -11   -1    0    0    0    0  0.00000000000E+00  0.00000000000E+00  0.50000499739E+01  0.50000500000E+01  0.51100000000E-03 0. -1.
         11   -1    0    0    0    0 -0.00000000000E+00 -0.00000000000E+00 -0.50000499739E+01  0.50000500000E+01  0.51100000000E-03 0.  1.
         50    1    1    2    0    0 -0.14794232096E-01  0.39672196171E-02  0.16290928924E-01  0.50000500000E+01  0.50000000000E+01 0.  0.
         50    1    1    2    0    0  0.14794232096E-01 -0.39672196171E-02 -0.16290928924E-01  0.50000500000E+01  0.50000000000E+01 0. -1.
</event>
<event>
 4    1  0.4973396E-021  0.5000050E+01  0.7818608E-02  0.2136455E+00
        -11   -1    0    0    0    0  0.00000000000E+00  0.00000000000E+00  0.50000499739E+01  0.50000500000E+01  0.51100000000E-03 0. -1.
         11   -1    0    0    0    0 -0.00000000000E+00 -0.00000000000E+00 -0.50000499739E+01  0.50000500000E+01  0.51100000000E-03 0.  1.
         50    1    1    2    0    0 -0.30558791769E-02  0.84531981900E-02 -0.20474558428E-01  0.50000500000E+01  0.50000000000E+01 0.  0.
         50    1    1    2    0    0  0.30558791769E-02 -0.84531981900E-02  0.20474558428E-01  0.50000500000E+01  0.50000000000E+01 0. -1.
</event>
<event>
 4    1  0.4973396E-021  0.5000050E+01  0.7818608E-02  0.2136455E+00
        -11   -1    0    0    0    0  0.00000000000E+00  0.00000000000E+00  0.50000499739E+01  0.50000500000E+01  0.51100000000E-03 0. -1.
         11   -1    0    0    0    0 -0.00000000000E+00 -0.00000000000E+00 -0.50000499739E+01  0.50000500000E+01  0.51100000000E-03 0.  1.
         50    1    1    2    0    0  0.22215963989E-01  0.26306290366E-03  0.25267057524E-02  0.50000500000E+01  0.50000000000E+01 0.  1.
         50    1    1    2    0    0 -0.22215963989E-01 -0.26306290366E-03 -0.25267057524E-02  0.50000500000E+01  0.50000000000E+01 0.  1.
</event>
<event>
 4    1  0.4973396E-021  0.5000050E+01  0.7818608E-02  0.2136455E+00
        -11   -1    0    0    0    0  0.00000000000E+00  0.00000000000E+00  0.50000499739E+01  0.50000500000E+01  0.51100000000E-03 0.  1.
         11   -1    0    0    0    0 -0.00000000000E+00 -0.00000000000E+00 -0.50000499739E+01  0.50000500000E+01  0.51100000000E-03 0. -1.
         50    1    1    2    0    0  0.13216392161E-01  0.61847637595E-02 -0.16943381466E-01  0.50000500000E+01  0.50000000000E+01 0. -1.
         50    1    1    2    0    0 -0.13216392161E-01 -0.61847637595E-02  0.16943381466E-01  0.50000500000E+01  0.50000000000E+01 0.  1.
</event>
<event>
 4    1  0.4973396E-021  0.5000050E+01  0.7818608E-02  0.2136455E+00
        -11   -1    0    0    0    0  0.00000000000E+00  0.00000000000E+00  0.50000499739E+01  0.50000500000E+01  0.51100000000E-03 0. -1.
         11   -1    0    0    0    0 -0.00000000000E+00 -0.00000000000E+00 -0.50000499739E+01  0.50000500000E+01  0.51100000000E-03 0.  1.
         50    1    1    2    0    0  0.44597912047E-02 -0.21832475020E-01 -0.18589773805E-02  0.50000500000E+01  0.50000000000E+01 0. -1.
         50    1    1    2    0    0 -0.44597912047E-02  0.21832475020E-01  0.18589773805E-02  0.50000500000E+01  0.50000000000E+01 0. -1.
</event>
<event>
 4    1  0.4973396E-021  0.5000050E+01  0.7818608E-02  0.2136455E+00
        -11   -1    0    0    0    0  0.00000000000E+00  0.00000000000E+00  0.50000499739E+01  0.50000500000E+01  0.51100000000E-03 0. -1.
         11   -1    0    0    0    0 -0.00000000000E+00 -0.00000000000E+00 -0.50000499739E+01  0.50000500000E+01  0.51100000000E-03 0.  1.
         50    1    1    2    0    0  0.84249079803E-02 -0.19474748979E-01 -0.70539051399E-02  0.50000500000E+01  0.50000000000E+01 0. -1.
         50    1    1    2    0    0 -0.84249079803E-02  0.19474748979E-01  0.70539051399E-02  0.50000500000E+01  0.50000000000E+01 0.  0.
</event>
<event>
 4    1  0.4973396E-021  0.5000050E+01  0.7818608E-02  0.2136455E+00
        -11   -1    0    0    0    0  0.00000000000E+00  0.00000000000E+00  0.50000499739E+01  0.50000500000E+01  0.51100000000E-03 0. -1.
         11   -1    0    0    0    0 -0.00000000000E+00 -0.00000000000E+00 -0.50000499739E+01  0.50000500000E+01  0.51100000000E-03 0.  1.
         50    1    1    2    0    0  0.14786170965E-02 -0.12635685947E-01  0.18389008460E-01  0.50000500000E+01  0.50000000000E+01 0. -1.
         50    1    1    2    0    0 -0.14786170965E-02  0.12635685947E-01 -0.18389008460E-01  0.50000500000E+01  0.50000000000E+01 0.  0.
</event>
<event>
 4    1  0.4973396E-021  0.5000050E+01  0.7818608E-02  0.2136455E+00
        -11   -1    0    0    0    0  0.00000000000E+00  0.00000000000E+00  0.50000499739E+01  0.50000500000E+01  0.51100000000E-03 0. -1.
         11   -1    0    0    0    0 -0.00000000000E+00 -0.00000000000E+00 -0.50000499739E+01  0.50000500000E+01  0.51100000000E-03 0.  1.
         50    1    1    2    0    0  0.89812799481E-02 -0.15746574127E-01  0.13091390825E-01  0.50000500000E+01  0.50000000000E+01 0.  0.
         50    1    1    2    0    0 -0.89812799481E-02  0.15746574127E-01 -0.13091390825E-01  0.50000500000E+01  0.50000000000E+01 0. -1.
</event>
<event>
 4    1  0.4973396E-021  0.5000050E+01  0.7818608E-02  0.2136455E+00
        -11   -1    0    0    0    0  0.00000000000E+00  0.00000000000E+00  0.50000499739E+01  0.50000500000E+01  0.51100000000E-03 0. -1.
         11   -1    0    0    0    0 -0.00000000000E+00 -0.00000000000E+00 -0.50000499739E+01  0.50000500000E+01  0.51100000000E-03 0.  1.
         50    1    1    2    0    0 -0.13251702827E-01 -0.76094360865E-03 -0.17994883634E-01  0.50000500000E+01  0.50000000000E+01 0.  1.
         50    1    1    2    0    0  0.13251702827E-01  0.76094360865E-03  0.17994883634E-01  0.50000500000E+01  0.50000000000E+01 0. -1.
</event>
<event>
 4    1  0.4973396E-021  0.5000050E+01  0.7818608E-02  0.2136455E+00
        -11   -1    0    0    0    0  0.00000000000E+00  0.00000000000E+00  0.50000499739E+01  0.50000500000E+01  0.51100000000E-03 0.  1.
         11   -1    0    0    0    0 -0.00000000000E+00 -0.00000000000E+00 -0.50000499739E+01  0.50000500000E+01  0.51100000000E-03 0. -1.
         50    1    1    2    0    0 -0.20188248431E-01  0.72698978160E-02  0.62917176531E-02  0.50000500000E+01  0.50000000000E+01 0. -1.
         50    1    1    2    0    0  0.20188248431E-01 -0.72698978160E-02 -0.62917176531E-02  0.50000500000E+01  0.50000000000E+01 0.  1.
</event>
<event>
 4    1  0.4973396E-021  0.5000050E+01  0.7818608E-02  0.2136455E+00
        -11   -1    0    0    0    0  0.00000000000E+00  0.00000000000E+00  0.50000499739E+01  0.50000500000E+01  0.51100000000E-03 0. -1.
         11   -1    0    0    0    0 -0.00000000000E+00 -0.00000000000E+00 -0.50000499739E+01  0.50000500000E+01  0.51100000000E-03 0.  1.
         50    1    1    2    0    0 -0.60054016440E-02  0.21169715932E-01  0.39725027926E-02  0.50000500000E+01  0.50000000000E+01 0.  1.
         50    1    1    2    0    0  0.60054016440E-02 -0.21169715932E-01 -0.39725027926E-02  0.50000500000E+01  0.50000000000E+01 0.  0.
</event>
<event>
 4    1  0.1761928E-020  0.5000050E+01  0.7818608E-02  0.2136455E+00
        -11   -1    0    0    0    0  0.00000000000E+00  0.00000000000E+00  0.50000499739E+01  0.50000500000E+01  0.51100000000E-03 0.  1.
         11   -1    0    0    0    0 -0.00000000000E+00 -0.00000000000E+00 -0.50000499739E+01  0.50000500000E+01  0.51100000000E-03 0. -1.
         50    1    1    2    0    0 -0.13734165651E-02 -0.39726484363E-02  0.21962110357E-01  0.50000500000E+01  0.50000000000E+01 0.  0.
         50    1    1    2    0    0  0.13734165651E-02  0.39726484363E-02 -0.21962110357E-01  0.50000500000E+01  0.50000000000E+01 0. -1.
</event>
<event>
 4    1  0.4973396E-021  0.5000050E+01  0.7818608E-02  0.2136455E+00
        -11   -1    0    0    0    0  0.00000000000E+00  0.00000000000E+00  0.50000499739E+01  0.50000500000E+01  0.51100000000E-03 0.  1.
         11   -1    0    0    0    0 -0.00000000000E+00 -0.00000000000E+00 -0.50000499739E+01  0.50000500000E+01  0.51100000000E-03 0. -1.
         50    1    1    2    0    0  0.21032850984E-01 -0.72785867717E-02  0.21549603491E-02  0.50000500000E+01  0.50000000000E+01 0.  1.
         50    1    1    2    0    0 -0.21032850984E-01  0.72785867717E-02 -0.21549603491E-02  0.50000500000E+01  0.50000000000E+01 0.  0.
</event>
<event>
 4    1  0.4973396E-021  0.5000050E+01  0.7818608E-02  0.2136455E+00
        -11   -1    0    0    0    0  0.00000000000E+00  0.00000000000E+00  0.50000499739E+01  0.50000500000E+01  0.51100000000E-03 0. -1.
         11   -1    0    0    0    0 -0.00000000000E+00 -0.00000000000E+00 -0.50000499739E+01  0.50000500000E+01  0.51100000000E-03 0.  1.
         50    1    1    2    0    0 -0.21064804195E-02 -0.18490331460E-01  0.12396486710E-01  0.50000500000E+01  0.50000000000E+01 0.  0.
         50    1    1    2    0    0  0.21064804195E-02  0.18490331460E-01 -0.12396486710E-01  0.50000500000E+01  0.50000000000E+01 0.  0.
</event>
<event>
 4    1  0.4973396E-021  0.5000050E+01  0.7818608E-02  0.2136455E+00
        -11   -1    0    0    0    0  0.00000000000E+00  0.00000000000E+00  0.50000499739E+01  0.50000500000E+01  0.51100000000E-03 0.  1.
         11   -1    0    0    0    0 -0.00000000000E+00 -0.00000000000E+00 -0.50000499739E+01  0.50000500000E+01  0.51100000000E-03 0. -1.
         50    1    1    2    0    0  0.96315204000E-02 -0.18407122994E-01 -0.82712839304E-02  0.50000500000E+01  0.50000000000E+01 0. -1.
         50    1    1    2    0    0 -0.96315204000E-02  0.18407122994E-01  0.82712839304E-02  0.50000500000E+01  0.50000000000E+01 0.  1.
</event>
<event>
 4    1  0.4973396E-021  0.5000050E+01  0.7818608E-02  0.2136455E+00
        -11   -1    0    0    0    0  0.00000000000E+00  0.00000000000E+00  0.50000499739E+01  0.50000500000E+01  0.51100000000E-03 0. -1.
         11   -1    0    0    0    0 -0.00000000000E+00 -0.00000000000E+00 -0.50000499739E+01  0.50000500000E+01  0.51100000000E-03 0.  1.
         50    1    1    2    0    0 -0.15718085780E-01  0.36296742510E-02 -0.15484500128E-01  0.50000500000E+01  0.50000000000E+01 0. -1.
         50    1    1    2    0    0  0.15718085780E-01 -0.36296742510E-02  0.15484500128E-01  0.50000500000E+01  0.50000000000E+01 0.  0.
</event>
<event>
 4    1  0.4973396E-021  0.5000050E+01  0.7818608E-02  0.2136455E+00
        -11   -1    0    0    0    0  0.00000000000E+00  0.00000000000E+00  0.50000499739E+01  0.50000500000E+01  0.51100000000E-03 0. -1.
         11   -1    0    0    0    0 -0.00000000000E+00 -0.00000000000E+00 -0.50000499739E+01  0.50000500000E+01  0.51100000000E-03 0.  1.
         50    1    1    2    0    0 -0.23558782543E-02 -0.15176144862E-01 -0.16252291062E-01  0.50000500000E+01  0.50000000000E+01 0.  0.
         50    1    1    2    0    0  0.23558782543E-02  0.15176144862E-01  0.16252291062E-01  0.50000500000E+01  0.50000000000E+01 0.  0.
</event>
<event>
 4    1  0.4973396E-021  0.5000050E+01  0.7818608E-02  0.2136455E+00
        -11   -1    0    0    0    0  0.00000000000E+00  0.00000000000E+00  0.50000499739E+01  0.50000500000E+01  0.51100000000E-03 0. -1.
         11   -1    0    0    0    0 -0.00000000000E+00 -0.00000000000E+00 -0.50000499739E+01  0.50000500000E+01  0.51100000000E-03 0.  1.
         50    1    1    2    0    0  0.92788606922E-02 -0.20073235625E-01  0.33121678397E-02  0.50000500000E+01  0.50000000000E+01 0.  1.
         50    1    1    2    0    0 -0.92788606922E-02  0.20073235625E-01 -0.33121678397E-02  0.50000500000E+01  0.50000000000E+01 0.  0.
</event>
<event>
 4    1  0.4973396E-021  0.5000050E+01  0.7818608E-02  0.2136455E+00
        -11   -1    0    0    0    0  0.00000000000E+00  0.00000000000E+00  0.50000499739E+01  0.50000500000E+01  0.51100000000E-03 0. -1.
         11   -1    0    0    0    0 -0.00000000000E+00 -0.00000000000E+00 -0.50000499739E+01  0.50000500000E+01  0.51100000000E-03 0.  1.
         50    1    1    2    0    0 -0.27833147467E-02 -0.13390459982E-01  0.17690427934E-01  0.50000500000E+01  0.50000000000E+01 0. -1.
         50    1    1    2    0    0  0.27833147467E-02  0.13390459982E-01 -0.17690427934E-01  0.50000500000E+01  0.50000000000E+01 0.  1.
</event>
<event>
 4    1  0.4973396E-021  0.5000050E+01  0.7818608E-02  0.2136455E+00
        -11   -1    0    0    0    0  0.00000000000E+00  0.00000000000E+00  0.50000499739E+01  0.50000500000E+01  0.51100000000E-03 0. -1.
         11   -1    0    0    0    0 -0.00000000000E+00 -0.00000000000E+00 -0.50000499739E+01  0.50000500000E+01  0.51100000000E-03 0.  1.
         50    1    1    2    0    0 -0.45678977593E-02  0.21842572181E-01  0.14278832573E-02  0.50000500000E+01  0.50000000000E+01 0. -1.
         50    1    1    2    0    0  0.45678977593E-02 -0.21842572181E-01 -0.14278832573E-02  0.50000500000E+01  0.50000000000E+01 0.  1.
</event>
<event>
 4    1  0.4973396E-021  0.5000050E+01  0.7818608E-02  0.2136455E+00
        -11   -1    0    0    0    0  0.00000000000E+00  0.00000000000E+00  0.50000499739E+01  0.50000500000E+01  0.51100000000E-03 0. -1.
         11   -1    0    0    0    0 -0.00000000000E+00 -0.00000000000E+00 -0.50000499739E+01  0.50000500000E+01  0.51100000000E-03 0.  1.
         50    1    1    2    0    0  0.88453580890E-02 -0.32866850161E-02  0.20272144482E-01  0.50000500000E+01  0.50000000000E+01 0.  0.
         50    1    1    2    0    0 -0.88453580890E-02  0.32866850161E-02 -0.20272144482E-01  0.50000500000E+01  0.50000000000E+01 0.  1.
</event>
<event>
 4    1  0.4973396E-021  0.5000050E+01  0.7818608E-02  0.2136455E+00
        -11   -1    0    0    0    0  0.00000000000E+00  0.00000000000E+00  0.50000499739E+01  0.50000500000E+01  0.51100000000E-03 0. -1.
         11   -1    0    0    0    0 -0.00000000000E+00 -0.00000000000E+00 -0.50000499739E+01  0.50000500000E+01  0.51100000000E-03 0.  1.
         50    1    1    2    0    0 -0.20926064858E-01 -0.26544599994E-02 -0.74199832658E-02  0.50000500000E+01  0.50000000000E+01 0.  0.
         50    1    1    2    0    0  0.20926064858E-01  0.26544599994E-02  0.74199832658E-02  0.50000500000E+01  0.50000000000E+01 0. -1.
</event>
<event>
 4    1  0.4973396E-021  0.5000050E+01  0.7818608E-02  0.2136455E+00
        -11   -1    0    0    0    0  0.00000000000E+00  0.00000000000E+00  0.50000499739E+01  0.50000500000E+01  0.51100000000E-03 0. -1.
         11   -1    0    0    0    0 -0.00000000000E+00 -0.00000000000E+00 -0.50000499739E+01  0.50000500000E+01  0.51100000000E-03 0.  1.
         50    1    1    2    0    0  0.19114774989E-01 -0.11588839065E-01 -0.57156474461E-03  0.50000500000E+01  0.50000000000E+01 0.  0.
         50    1    1    2    0    0 -0.19114774989E-01  0.11588839065E-01  0.57156474461E-03  0.50000500000E+01  0.50000000000E+01 0.  1.
</event>
<event>
 4    1  0.4973396E-021  0.5000050E+01  0.7818608E-02  0.2136455E+00
        -11   -1    0    0    0    0  0.00000000000E+00  0.00000000000E+00  0.50000499739E+01  0.50000500000E+01  0.51100000000E-03 0.  1.
         11   -1    0    0    0    0 -0.00000000000E+00 -0.00000000000E+00 -0.50000499739E+01  0.50000500000E+01  0.51100000000E-03 0. -1.
         50    1    1    2    0    0  0.16225309395E-01  0.14176352052E-01 -0.59810431802E-02  0.50000500000E+01  0.50000000000E+01 0.  1.
         50    1    1    2    0    0 -0.16225309395E-01 -0.14176352052E-01  0.59810431802E-02  0.50000500000E+01  0.50000000000E+01 0. -1.
</event>
<event>
 4    1  0.4973396E-021  0.5000050E+01  0.7818608E-02  0.2136455E+00
        -11   -1    0    0    0    0  0.00000000000E+00  0.00000000000E+00  0.50000499739E+01  0.50000500000E+01  0.51100000000E-03 0.  1.
         11   -1    0    0    0    0 -0.00000000000E+00 -0.00000000000E+00 -0.50000499739E+01  0.50000500000E+01  0.51100000000E-03 0. -1.
         50    1    1    2    0    0  0.19921889629E-01  0.80764653768E-02  0.61556088766E-02  0.50000500000E+01  0.50000000000E+01 0. -1.
         50    1    1    2    0    0 -0.19921889629E-01 -0.80764653768E-02 -0.61556088766E-02  0.50000500000E+01  0.50000000000E+01 0.  1.
</event>
<event>
 4    1  0.4973396E-021  0.5000050E+01  0.7818608E-02  0.2136455E+00
        -11   -1    0    0    0    0  0.00000000000E+00  0.00000000000E+00  0.50000499739E+01  0.50000500000E+01  0.51100000000E-03 0.  1.
         11   -1    0    0    0    0 -0.00000000000E+00 -0.00000000000E+00 -0.50000499739E+01  0.50000500000E+01  0.51100000000E-03 0. -1.
         50    1    1    2    0    0 -0.12575702339E-03  0.22281372615E-01  0.18780627197E-02  0.50000500000E+01  0.50000000000E+01 0. -1.
         50    1    1    2    0    0  0.12575702339E-03 -0.22281372615E-01 -0.18780627197E-02  0.50000500000E+01  0.50000000000E+01 0.  0.
</event>
<event>
 4    1  0.4973396E-021  0.5000050E+01  0.7818608E-02  0.2136455E+00
        -11   -1    0    0    0    0  0.00000000000E+00  0.00000000000E+00  0.50000499739E+01  0.50000500000E+01  0.51100000000E-03 0. -1.
         11   -1    0    0    0    0 -0.00000000000E+00 -0.00000000000E+00 -0.50000499739E+01  0.50000500000E+01  0.51100000000E-03 0.  1.
         50    1    1    2    0    0 -0.17621635060E-01 -0.12206216663E-01 -0.63630772880E-02  0.50000500000E+01  0.50000000000E+01 0.  1.
         50    1    1    2    0    0  0.17621635060E-01  0.12206216663E-01  0.63630772880E-02  0.50000500000E+01  0.50000000000E+01 0. -1.
</event>
<event>
 4    1  0.4973396E-021  0.5000050E+01  0.7818608E-02  0.2136455E+00
        -11   -1    0    0    0    0  0.00000000000E+00  0.00000000000E+00  0.50000499739E+01  0.50000500000E+01  0.51100000000E-03 0.  1.
         11   -1    0    0    0    0 -0.00000000000E+00 -0.00000000000E+00 -0.50000499739E+01  0.50000500000E+01  0.51100000000E-03 0. -1.
         50    1    1    2    0    0 -0.78334950403E-02  0.20480942199E-01  0.43783401091E-02  0.50000500000E+01  0.50000000000E+01 0.  1.
         50    1    1    2    0    0  0.78334950403E-02 -0.20480942199E-01 -0.43783401091E-02  0.50000500000E+01  0.50000000000E+01 0. -1.
</event>
<event>
 4    1  0.4973396E-021  0.5000050E+01  0.7818608E-02  0.2136455E+00
        -11   -1    0    0    0    0  0.00000000000E+00  0.00000000000E+00  0.50000499739E+01  0.50000500000E+01  0.51100000000E-03 0. -1.
         11   -1    0    0    0    0 -0.00000000000E+00 -0.00000000000E+00 -0.50000499739E+01  0.50000500000E+01  0.51100000000E-03 0.  1.
         50    1    1    2    0    0 -0.38277243000E-02 -0.10839212908E-01  0.19179741662E-01  0.50000500000E+01  0.50000000000E+01 0.  0.
         50    1    1    2    0    0  0.38277243000E-02  0.10839212908E-01 -0.19179741662E-01  0.50000500000E+01  0.50000000000E+01 0.  1.
</event>
<event>
 4    1  0.4973396E-021  0.5000050E+01  0.7818608E-02  0.2136455E+00
        -11   -1    0    0    0    0  0.00000000000E+00  0.00000000000E+00  0.50000499739E+01  0.50000500000E+01  0.51100000000E-03 0.  1.
         11   -1    0    0    0    0 -0.00000000000E+00 -0.00000000000E+00 -0.50000499739E+01  0.50000500000E+01  0.51100000000E-03 0. -1.
         50    1    1    2    0    0  0.10578059578E-01 -0.19259479959E-01  0.41448265682E-02  0.50000500000E+01  0.50000000000E+01 0.  0.
         50    1    1    2    0    0 -0.10578059578E-01  0.19259479959E-01 -0.41448265682E-02  0.50000500000E+01  0.50000000000E+01 0.  0.
</event>
<event>
 4    1  0.4973396E-021  0.5000050E+01  0.7818608E-02  0.2136455E+00
        -11   -1    0    0    0    0  0.00000000000E+00  0.00000000000E+00  0.50000499739E+01  0.50000500000E+01  0.51100000000E-03 0. -1.
         11   -1    0    0    0    0 -0.00000000000E+00 -0.00000000000E+00 -0.50000499739E+01  0.50000500000E+01  0.51100000000E-03 0.  1.
         50    1    1    2    0    0  0.11935397227E-01  0.57707818026E-02 -0.18006856206E-01  0.50000500000E+01  0.50000000000E+01 0.  0.
         50    1    1    2    0    0 -0.11935397227E-01 -0.57707818026E-02  0.18006856206E-01  0.50000500000E+01  0.50000000000E+01 0. -1.
</event>
<event>
 4    1  0.4973396E-021  0.5000050E+01  0.7818608E-02  0.2136455E+00
        -11   -1    0    0    0    0  0.00000000000E+00  0.00000000000E+00  0.50000499739E+01  0.50000500000E+01  0.51100000000E-03 0. -1.
         11   -1    0    0    0    0 -0.00000000000E+00 -0.00000000000E+00 -0.50000499739E+01  0.50000500000E+01  0.51100000000E-03 0.  1.
         50    1    1    2    0    0  0.10979882979E-02 -0.51123168777E-02  0.21740771326E-01  0.50000500000E+01  0.50000000000E+01 0. -1.
         50    1    1    2    0    0 -0.10979882979E-02  0.51123168777E-02 -0.21740771326E-01  0.50000500000E+01  0.50000000000E+01 0.  0.
</event>
<event>
 4    1  0.4973396E-021  0.5000050E+01  0.7818608E-02  0.2136455E+00
        -11   -1    0    0    0    0  0.00000000000E+00  0.00000000000E+00  0.50000499739E+01  0.50000500000E+01  0.51100000000E-03 0.  1.
         11   -1    0    0    0    0 -0.00000000000E+00 -0.00000000000E+00 -0.50000499739E+01  0.50000500000E+01  0.51100000000E-03 0. -1.
         50    1    1    2    0    0 -0.68637555805E-02 -0.19597070782E-01  0.82973595847E-02  0.50000500000E+01  0.50000000000E+01 0. -1.
         50    1    1    2    0    0  0.68637555805E-02  0.19597070782E-01 -0.82973595847E-02  0.50000500000E+01  0.50000000000E+01 0. -1.
</event>
<event>
 4    1  0.4973396E-021  0.5000050E+01  0.7818608E-02  0.2136455E+00
        -11   -1    0    0    0    0  0.00000000000E+00  0.00000000000E+00  0.50000499739E+01  0.50000500000E+01  0.51100000000E-03 0.  1.
         11   -1    0    0    0    0 -0.00000000000E+00 -0.00000000000E+00 -0.50000499739E+01  0.50000500000E+01  0.51100000000E-03 0. -1.
         50    1    1    2    0    0  0.13607486926E-01  0.12070114038E-01  0.13005812034E-01  0.50000500000E+01  0.50000000000E+01 0.  1.
         50    1    1    2    0    0 -0.13607486926E-01 -0.12070114038E-01 -0.13005812034E-01  0.50000500000E+01  0.50000000000E+01 0. -1.
</event>
<event>
 4    1  0.4973396E-021  0.5000050E+01  0.7818608E-02  0.2136455E+00
        -11   -1    0    0    0    0  0.00000000000E+00  0.00000000000E+00  0.50000499739E+01  0.50000500000E+01  0.51100000000E-03 0.  1.
         11   -1    0    0    0    0 -0.00000000000E+00 -0.00000000000E+00 -0.50000499739E+01  0.50000500000E+01  0.51100000000E-03 0. -1.
         50    1    1    2    0    0 -0.12426200398E-01 -0.11573093508E-01 -0.14548386520E-01  0.50000500000E+01  0.50000000000E+01 0. -1.
         50    1    1    2    0    0  0.12426200398E-01  0.11573093508E-01  0.14548386520E-01  0.50000500000E+01  0.50000000000E+01 0.  1.
</event>
<event>
 4    1  0.4973396E-021  0.5000050E+01  0.7818608E-02  0.2136455E+00
        -11   -1    0    0    0    0  0.00000000000E+00  0.00000000000E+00  0.50000499739E+01  0.50000500000E+01  0.51100000000E-03 0.  1.
         11   -1    0    0    0    0 -0.00000000000E+00 -0.00000000000E+00 -0.50000499739E+01  0.50000500000E+01  0.51100000000E-03 0. -1.
         50    1    1    2    0    0 -0.10224508250E-01 -0.93808619988E-02  0.17534576106E-01  0.50000500000E+01  0.50000000000E+01 0.  0.
         50    1    1    2    0    0  0.10224508250E-01  0.93808619988E-02 -0.17534576106E-01  0.50000500000E+01  0.50000000000E+01 0.  0.
</event>
<event>
 4    1  0.4973396E-021  0.5000050E+01  0.7818608E-02  0.2136455E+00
        -11   -1    0    0    0    0  0.00000000000E+00  0.00000000000E+00  0.50000499739E+01  0.50000500000E+01  0.51100000000E-03 0.  1.
         11   -1    0    0    0    0 -0.00000000000E+00 -0.00000000000E+00 -0.50000499739E+01  0.50000500000E+01  0.51100000000E-03 0. -1.
         50    1    1    2    0    0  0.92895982315E-02  0.55426202962E-02 -0.19570008302E-01  0.50000500000E+01  0.50000000000E+01 0.  0.
         50    1    1    2    0    0 -0.92895982315E-02 -0.55426202962E-02  0.19570008302E-01  0.50000500000E+01  0.50000000000E+01 0.  0.
</event>
<event>
 4    1  0.4973396E-021  0.5000050E+01  0.7818608E-02  0.2136455E+00
        -11   -1    0    0    0    0  0.00000000000E+00  0.00000000000E+00  0.50000499739E+01  0.50000500000E+01  0.51100000000E-03 0.  1.
         11   -1    0    0    0    0 -0.00000000000E+00 -0.00000000000E+00 -0.50000499739E+01  0.50000500000E+01  0.51100000000E-03 0. -1.
         50    1    1    2    0    0  0.87582181569E-02 -0.13485219939E-01  0.15538499217E-01  0.50000500000E+01  0.50000000000E+01 0. -1.
         50    1    1    2    0    0 -0.87582181569E-02  0.13485219939E-01 -0.15538499217E-01  0.50000500000E+01  0.50000000000E+01 0.  1.
</event>
<event>
 4    1  0.4973396E-021  0.5000050E+01  0.7818608E-02  0.2136455E+00
        -11   -1    0    0    0    0  0.00000000000E+00  0.00000000000E+00  0.50000499739E+01  0.50000500000E+01  0.51100000000E-03 0.  1.
         11   -1    0    0    0    0 -0.00000000000E+00 -0.00000000000E+00 -0.50000499739E+01  0.50000500000E+01  0.51100000000E-03 0. -1.
         50    1    1    2    0    0 -0.15632600961E-01 -0.15877379628E-01 -0.18796551159E-02  0.50000500000E+01  0.50000000000E+01 0.  1.
         50    1    1    2    0    0  0.15632600961E-01  0.15877379628E-01  0.18796551159E-02  0.50000500000E+01  0.50000000000E+01 0.  0.
</event>
<event>
 4    1  0.4973396E-021  0.5000050E+01  0.7818608E-02  0.2136455E+00
        -11   -1    0    0    0    0  0.00000000000E+00  0.00000000000E+00  0.50000499739E+01  0.50000500000E+01  0.51100000000E-03 0. -1.
         11   -1    0    0    0    0 -0.00000000000E+00 -0.00000000000E+00 -0.50000499739E+01  0.50000500000E+01  0.51100000000E-03 0.  1.
         50    1    1    2    0    0  0.16540454342E-01  0.26591479179E-02 -0.14810293802E-01  0.50000500000E+01  0.50000000000E+01 0.  1.
         50    1    1    2    0    0 -0.16540454342E-01 -0.26591479179E-02  0.14810293802E-01  0.50000500000E+01  0.50000000000E+01 0. -1.
</event>
<event>
 4    1  0.4973396E-021  0.5000050E+01  0.7818608E-02  0.2136455E+00
        -11   -1    0    0    0    0  0.00000000000E+00  0.00000000000E+00  0.50000499739E+01  0.50000500000E+01  0.51100000000E-03 0.  1.
         11   -1    0    0    0    0 -0.00000000000E+00 -0.00000000000E+00 -0.50000499739E+01  0.50000500000E+01  0.51100000000E-03 0. -1.
         50    1    1    2    0    0  0.42684383664E-02 -0.11691946936E-01  0.18576364304E-01  0.50000500000E+01  0.50000000000E+01 0. -1.
         50    1    1    2    0    0 -0.42684383664E-02  0.11691946936E-01 -0.18576364304E-01  0.50000500000E+01  0.50000000000E+01 0.  0.
</event>
<event>
 4    1  0.4973396E-021  0.5000050E+01  0.7818608E-02  0.2136455E+00
        -11   -1    0    0    0    0  0.00000000000E+00  0.00000000000E+00  0.50000499739E+01  0.50000500000E+01  0.51100000000E-03 0.  1.
         11   -1    0    0    0    0 -0.00000000000E+00 -0.00000000000E+00 -0.50000499739E+01  0.50000500000E+01  0.51100000000E-03 0. -1.
         50    1    1    2    0    0  0.17709645101E-01  0.12622674023E-01  0.51999106625E-02  0.50000500000E+01  0.50000000000E+01 0.  0.
         50    1    1    2    0    0 -0.17709645101E-01 -0.12622674023E-01 -0.51999106625E-02  0.50000500000E+01  0.50000000000E+01 0.  1.
</event>
<event>
 4    1  0.4973396E-021  0.5000050E+01  0.7818608E-02  0.2136455E+00
        -11   -1    0    0    0    0  0.00000000000E+00  0.00000000000E+00  0.50000499739E+01  0.50000500000E+01  0.51100000000E-03 0. -1.
         11   -1    0    0    0    0 -0.00000000000E+00 -0.00000000000E+00 -0.50000499739E+01  0.50000500000E+01  0.51100000000E-03 0.  1.
         50    1    1    2    0    0 -0.75815622518E-02  0.20802349294E-01  0.31280469441E-02  0.50000500000E+01  0.50000000000E+01 0.  0.
         50    1    1    2    0    0  0.75815622518E-02 -0.20802349294E-01 -0.31280469441E-02  0.50000500000E+01  0.50000000000E+01 0.  1.
</event>
<event>
 4    1  0.4973396E-021  0.5000050E+01  0.7818608E-02  0.2136455E+00
        -11   -1    0    0    0    0  0.00000000000E+00  0.00000000000E+00  0.50000499739E+01  0.50000500000E+01  0.51100000000E-03 0. -1.
         11   -1    0    0    0    0 -0.00000000000E+00 -0.00000000000E+00 -0.50000499739E+01  0.50000500000E+01  0.51100000000E-03 0.  1.
         50    1    1    2    0    0 -0.97050922100E-02  0.22151728295E-02  0.20022654532E-01  0.50000500000E+01  0.50000000000E+01 0. -1.
         50    1    1    2    0    0  0.97050922100E-02 -0.22151728295E-02 -0.20022654532E-01  0.50000500000E+01  0.50000000000E+01 0.  1.
</event>
<event>
 4    1  0.4973396E-021  0.5000050E+01  0.7818608E-02  0.2136455E+00
        -11   -1    0    0    0    0  0.00000000000E+00  0.00000000000E+00  0.50000499739E+01  0.50000500000E+01  0.51100000000E-03 0.  1.
         11   -1    0    0    0    0 -0.00000000000E+00 -0.00000000000E+00 -0.50000499739E+01  0.50000500000E+01  0.51100000000E-03 0. -1.
         50    1    1    2    0    0 -0.19294621261E-01 -0.12248678312E-02 -0.11234758083E-01  0.50000500000E+01  0.50000000000E+01 0. -1.
         50    1    1    2    0    0  0.19294621261E-01  0.12248678312E-02  0.11234758083E-01  0.50000500000E+01  0.50000000000E+01 0.  1.
</event>
<event>
 4    1  0.4973396E-021  0.5000050E+01  0.7818608E-02  0.2136455E+00
        -11   -1    0    0    0    0  0.00000000000E+00  0.00000000000E+00  0.50000499739E+01  0.50000500000E+01  0.51100000000E-03 0. -1.
         11   -1    0    0    0    0 -0.00000000000E+00 -0.00000000000E+00 -0.50000499739E+01  0.50000500000E+01  0.51100000000E-03 0.  1.
         50    1    1    2    0    0 -0.13084011683E-01  0.12248922506E-01  0.13370678207E-01  0.50000500000E+01  0.50000000000E+01 0. -1.
         50    1    1    2    0    0  0.13084011683E-01 -0.12248922506E-01 -0.13370678207E-01  0.50000500000E+01  0.50000000000E+01 0.  1.
</event>
<event>
 4    1  0.4973396E-021  0.5000050E+01  0.7818608E-02  0.2136455E+00
        -11   -1    0    0    0    0  0.00000000000E+00  0.00000000000E+00  0.50000499739E+01  0.50000500000E+01  0.51100000000E-03 0. -1.
         11   -1    0    0    0    0 -0.00000000000E+00 -0.00000000000E+00 -0.50000499739E+01  0.50000500000E+01  0.51100000000E-03 0.  1.
         50    1    1    2    0    0 -0.91639252178E-02 -0.12945088494E-02 -0.20355569789E-01  0.50000500000E+01  0.50000000000E+01 0.  1.
         50    1    1    2    0    0  0.91639252178E-02  0.12945088494E-02  0.20355569789E-01  0.50000500000E+01  0.50000000000E+01 0.  1.
</event>
<event>
 4    1  0.4973396E-021  0.5000050E+01  0.7818608E-02  0.2136455E+00
        -11   -1    0    0    0    0  0.00000000000E+00  0.00000000000E+00  0.50000499739E+01  0.50000500000E+01  0.51100000000E-03 0. -1.
         11   -1    0    0    0    0 -0.00000000000E+00 -0.00000000000E+00 -0.50000499739E+01  0.50000500000E+01  0.51100000000E-03 0.  1.
         50    1    1    2    0    0  0.13118226656E-01 -0.14529079405E-01  0.10808352374E-01  0.50000500000E+01  0.50000000000E+01 0.  1.
         50    1    1    2    0    0 -0.13118226656E-01  0.14529079405E-01 -0.10808352374E-01  0.50000500000E+01  0.50000000000E+01 0.  0.
</event>
<event>
 4    1  0.4973396E-021  0.5000050E+01  0.7818608E-02  0.2136455E+00
        -11   -1    0    0    0    0  0.00000000000E+00  0.00000000000E+00  0.50000499739E+01  0.50000500000E+01  0.51100000000E-03 0. -1.
         11   -1    0    0    0    0 -0.00000000000E+00 -0.00000000000E+00 -0.50000499739E+01  0.50000500000E+01  0.51100000000E-03 0.  1.
         50    1    1    2    0    0 -0.65250999989E-02 -0.30831084177E-02  0.21164120877E-01  0.50000500000E+01  0.50000000000E+01 0.  0.
         50    1    1    2    0    0  0.65250999989E-02  0.30831084177E-02 -0.21164120877E-01  0.50000500000E+01  0.50000000000E+01 0.  1.
</event>
<event>
 4    1  0.4973396E-021  0.5000050E+01  0.7818608E-02  0.2136455E+00
        -11   -1    0    0    0    0  0.00000000000E+00  0.00000000000E+00  0.50000499739E+01  0.50000500000E+01  0.51100000000E-03 0. -1.
         11   -1    0    0    0    0 -0.00000000000E+00 -0.00000000000E+00 -0.50000499739E+01  0.50000500000E+01  0.51100000000E-03 0.  1.
         50    1    1    2    0    0 -0.95596561044E-02  0.14056322315E-01  0.14527053319E-01  0.50000500000E+01  0.50000000000E+01 0. -1.
         50    1    1    2    0    0  0.95596561044E-02 -0.14056322315E-01 -0.14527053319E-01  0.50000500000E+01  0.50000000000E+01 0.  1.
</event>
<event>
 4    1  0.4973396E-021  0.5000050E+01  0.7818608E-02  0.2136455E+00
        -11   -1    0    0    0    0  0.00000000000E+00  0.00000000000E+00  0.50000499739E+01  0.50000500000E+01  0.51100000000E-03 0.  1.
         11   -1    0    0    0    0 -0.00000000000E+00 -0.00000000000E+00 -0.50000499739E+01  0.50000500000E+01  0.51100000000E-03 0. -1.
         50    1    1    2    0    0  0.15735741818E-01  0.15530656693E-01  0.33447917897E-02  0.50000500000E+01  0.50000000000E+01 0.  0.
         50    1    1    2    0    0 -0.15735741818E-01 -0.15530656693E-01 -0.33447917897E-02  0.50000500000E+01  0.50000000000E+01 0. -1.
</event>
<event>
 4    1  0.4973396E-021  0.5000050E+01  0.7818608E-02  0.2136455E+00
        -11   -1    0    0    0    0  0.00000000000E+00  0.00000000000E+00  0.50000499739E+01  0.50000500000E+01  0.51100000000E-03 0. -1.
         11   -1    0    0    0    0 -0.00000000000E+00 -0.00000000000E+00 -0.50000499739E+01  0.50000500000E+01  0.51100000000E-03 0.  1.
         50    1    1    2    0    0  0.46932781229E-02  0.57514508840E-02  0.21092568672E-01  0.50000500000E+01  0.50000000000E+01 0. -1.
         50    1    1    2    0    0 -0.46932781229E-02 -0.57514508840E-02 -0.21092568672E-01  0.50000500000E+01  0.50000000000E+01 0.  0.
</event>
<event>
 4    1  0.4973396E-021  0.5000050E+01  0.7818608E-02  0.2136455E+00
        -11   -1    0    0    0    0  0.00000000000E+00  0.00000000000E+00  0.50000499739E+01  0.50000500000E+01  0.51100000000E-03 0.  1.
         11   -1    0    0    0    0 -0.00000000000E+00 -0.00000000000E+00 -0.50000499739E+01  0.50000500000E+01  0.51100000000E-03 0. -1.
         50    1    1    2    0    0  0.61563435623E-02 -0.12598174333E-01  0.17418034832E-01  0.50000500000E+01  0.50000000000E+01 0.  0.
         50    1    1    2    0    0 -0.61563435623E-02  0.12598174333E-01 -0.17418034832E-01  0.50000500000E+01  0.50000000000E+01 0.  0.
</event>
<event>
 4    1  0.4973396E-021  0.5000050E+01  0.7818608E-02  0.2136455E+00
        -11   -1    0    0    0    0  0.00000000000E+00  0.00000000000E+00  0.50000499739E+01  0.50000500000E+01  0.51100000000E-03 0.  1.
         11   -1    0    0    0    0 -0.00000000000E+00 -0.00000000000E+00 -0.50000499739E+01  0.50000500000E+01  0.51100000000E-03 0. -1.
         50    1    1    2    0    0  0.20453774305E-01 -0.85284378205E-02  0.29851909509E-02  0.50000500000E+01  0.50000000000E+01 0.  1.
         50    1    1    2    0    0 -0.20453774305E-01  0.85284378205E-02 -0.29851909509E-02  0.50000500000E+01  0.50000000000E+01 0. -1.
</event>
<event>
 4    1  0.4973396E-021  0.5000050E+01  0.7818608E-02  0.2136455E+00
        -11   -1    0    0    0    0  0.00000000000E+00  0.00000000000E+00  0.50000499739E+01  0.50000500000E+01  0.51100000000E-03 0. -1.
         11   -1    0    0    0    0 -0.00000000000E+00 -0.00000000000E+00 -0.50000499739E+01  0.50000500000E+01  0.51100000000E-03 0.  1.
         50    1    1    2    0    0 -0.12881009443E-01  0.10701740151E-01 -0.14817383489E-01  0.50000500000E+01  0.50000000000E+01 0.  0.
         50    1    1    2    0    0  0.12881009443E-01 -0.10701740151E-01  0.14817383489E-01  0.50000500000E+01  0.50000000000E+01 0.  0.
</event>
<event>
 4    1  0.4973396E-021  0.5000050E+01  0.7818608E-02  0.2136455E+00
        -11   -1    0    0    0    0  0.00000000000E+00  0.00000000000E+00  0.50000499739E+01  0.50000500000E+01  0.51100000000E-03 0.  1.
         11   -1    0    0    0    0 -0.00000000000E+00 -0.00000000000E+00 -0.50000499739E+01  0.50000500000E+01  0.51100000000E-03 0. -1.
         50    1    1    2    0    0 -0.22299714324E-01  0.14713255070E-02  0.74862696631E-03  0.50000500000E+01  0.50000000000E+01 0. -1.
         50    1    1    2    0    0  0.22299714324E-01 -0.14713255070E-02 -0.74862696631E-03  0.50000500000E+01  0.50000000000E+01 0.  1.
</event>
<event>
 4    1  0.4973396E-021  0.5000050E+01  0.7818608E-02  0.2136455E+00
        -11   -1    0    0    0    0  0.00000000000E+00  0.00000000000E+00  0.50000499739E+01  0.50000500000E+01  0.51100000000E-03 0.  1.
         11   -1    0    0    0    0 -0.00000000000E+00 -0.00000000000E+00 -0.50000499739E+01  0.50000500000E+01  0.51100000000E-03 0. -1.
         50    1    1    2    0    0 -0.15731377746E-02 -0.14987416966E-01  0.16519838687E-01  0.50000500000E+01  0.50000000000E+01 0. -1.
         50    1    1    2    0    0  0.15731377746E-02  0.14987416966E-01 -0.16519838687E-01  0.50000500000E+01  0.50000000000E+01 0.  0.
</event>
<event>
 4    1  0.4973396E-021  0.5000050E+01  0.7818608E-02  0.2136455E+00
        -11   -1    0    0    0    0  0.00000000000E+00  0.00000000000E+00  0.50000499739E+01  0.50000500000E+01  0.51100000000E-03 0. -1.
         11   -1    0    0    0    0 -0.00000000000E+00 -0.00000000000E+00 -0.50000499739E+01  0.50000500000E+01  0.51100000000E-03 0.  1.
         50    1    1    2    0    0  0.60797631036E-02 -0.21440132712E-01  0.18329456878E-02  0.50000500000E+01  0.50000000000E+01 0.  0.
         50    1    1    2    0    0 -0.60797631036E-02  0.21440132712E-01 -0.18329456878E-02  0.50000500000E+01  0.50000000000E+01 0. -1.
</event>
<event>
 4    1  0.4973396E-021  0.5000050E+01  0.7818608E-02  0.2136455E+00
        -11   -1    0    0    0    0  0.00000000000E+00  0.00000000000E+00  0.50000499739E+01  0.50000500000E+01  0.51100000000E-03 0.  1.
         11   -1    0    0    0    0 -0.00000000000E+00 -0.00000000000E+00 -0.50000499739E+01  0.50000500000E+01  0.51100000000E-03 0. -1.
         50    1    1    2    0    0 -0.14370572943E-01  0.15380497570E-01 -0.75451592288E-02  0.50000500000E+01  0.50000000000E+01 0. -1.
         50    1    1    2    0    0  0.14370572943E-01 -0.15380497570E-01  0.75451592288E-02  0.50000500000E+01  0.50000000000E+01 0.  1.
</event>
<event>
 4    1  0.4973396E-021  0.5000050E+01  0.7818608E-02  0.2136455E+00
        -11   -1    0    0    0    0  0.00000000000E+00  0.00000000000E+00  0.50000499739E+01  0.50000500000E+01  0.51100000000E-03 0.  1.
         11   -1    0    0    0    0 -0.00000000000E+00 -0.00000000000E+00 -0.50000499739E+01  0.50000500000E+01  0.51100000000E-03 0. -1.
         50    1    1    2    0    0 -0.20617813297E-01 -0.21922464031E-03 -0.86521798060E-02  0.50000500000E+01  0.50000000000E+01 0.  1.
         50    1    1    2    0    0  0.20617813297E-01  0.21922464031E-03  0.86521798060E-02  0.50000500000E+01  0.50000000000E+01 0.  0.
</event>
<event>
 4    1  0.4973396E-021  0.5000050E+01  0.7818608E-02  0.2136455E+00
        -11   -1    0    0    0    0  0.00000000000E+00  0.00000000000E+00  0.50000499739E+01  0.50000500000E+01  0.51100000000E-03 0. -1.
         11   -1    0    0    0    0 -0.00000000000E+00 -0.00000000000E+00 -0.50000499739E+01  0.50000500000E+01  0.51100000000E-03 0.  1.
         50    1    1    2    0    0  0.45755112165E-02 -0.12741092725E-01  0.17796959102E-01  0.50000500000E+01  0.50000000000E+01 0.  0.
         50    1    1    2    0    0 -0.45755112165E-02  0.12741092725E-01 -0.17796959102E-01  0.50000500000E+01  0.50000000000E+01 0.  0.
</event>
<event>
 4    1  0.4973396E-021  0.5000050E+01  0.7818608E-02  0.2136455E+00
        -11   -1    0    0    0    0  0.00000000000E+00  0.00000000000E+00  0.50000499739E+01  0.50000500000E+01  0.51100000000E-03 0.  1.
         11   -1    0    0    0    0 -0.00000000000E+00 -0.00000000000E+00 -0.50000499739E+01  0.50000500000E+01  0.51100000000E-03 0. -1.
         50    1    1    2    0    0  0.21733424295E-01 -0.51958533948E-02 -0.81478579814E-03  0.50000500000E+01  0.50000000000E+01 0.  0.
         50    1    1    2    0    0 -0.21733424295E-01  0.51958533948E-02  0.81478579814E-03  0.50000500000E+01  0.50000000000E+01 0. -1.
</event>
<event>
 4    1  0.4973396E-021  0.5000050E+01  0.7818608E-02  0.2136455E+00
        -11   -1    0    0    0    0  0.00000000000E+00  0.00000000000E+00  0.50000499739E+01  0.50000500000E+01  0.51100000000E-03 0. -1.
         11   -1    0    0    0    0 -0.00000000000E+00 -0.00000000000E+00 -0.50000499739E+01  0.50000500000E+01  0.51100000000E-03 0.  1.
         50    1    1    2    0    0  0.15823660921E-01  0.48148243063E-02  0.15047648386E-01  0.50000500000E+01  0.50000000000E+01 0. -1.
         50    1    1    2    0    0 -0.15823660921E-01 -0.48148243063E-02 -0.15047648386E-01  0.50000500000E+01  0.50000000000E+01 0.  1.
</event>
<event>
 4    1  0.4973396E-021  0.5000050E+01  0.7818608E-02  0.2136455E+00
        -11   -1    0    0    0    0  0.00000000000E+00  0.00000000000E+00  0.50000499739E+01  0.50000500000E+01  0.51100000000E-03 0.  1.
         11   -1    0    0    0    0 -0.00000000000E+00 -0.00000000000E+00 -0.50000499739E+01  0.50000500000E+01  0.51100000000E-03 0. -1.
         50    1    1    2    0    0 -0.59260843229E-02 -0.35580109769E-02  0.21265572705E-01  0.50000500000E+01  0.50000000000E+01 0.  1.
         50    1    1    2    0    0  0.59260843229E-02  0.35580109769E-02 -0.21265572705E-01  0.50000500000E+01  0.50000000000E+01 0.  0.
</event>
<event>
 4    1  0.4973396E-021  0.5000050E+01  0.7818608E-02  0.2136455E+00
        -11   -1    0    0    0    0  0.00000000000E+00  0.00000000000E+00  0.50000499739E+01  0.50000500000E+01  0.51100000000E-03 0. -1.
         11   -1    0    0    0    0 -0.00000000000E+00 -0.00000000000E+00 -0.50000499739E+01  0.50000500000E+01  0.51100000000E-03 0.  1.
         50    1    1    2    0    0  0.89892648700E-02 -0.83908602181E-02 -0.18675895745E-01  0.50000500000E+01  0.50000000000E+01 0.  0.
         50    1    1    2    0    0 -0.89892648700E-02  0.83908602181E-02  0.18675895745E-01  0.50000500000E+01  0.50000000000E+01 0. -1.
</event>
<event>
 4    1  0.4973396E-021  0.5000050E+01  0.7818608E-02  0.2136455E+00
        -11   -1    0    0    0    0  0.00000000000E+00  0.00000000000E+00  0.50000499739E+01  0.50000500000E+01  0.51100000000E-03 0.  1.
         11   -1    0    0    0    0 -0.00000000000E+00 -0.00000000000E+00 -0.50000499739E+01  0.50000500000E+01  0.51100000000E-03 0. -1.
         50    1    1    2    0    0 -0.15445636316E-01  0.97002720436E-02 -0.12935978552E-01  0.50000500000E+01  0.50000000000E+01 0.  0.
         50    1    1    2    0    0  0.15445636316E-01 -0.97002720436E-02  0.12935978552E-01  0.50000500000E+01  0.50000000000E+01 0.  0.
</event>
<event>
 4    1  0.4973396E-021  0.5000050E+01  0.7818608E-02  0.2136455E+00
        -11   -1    0    0    0    0  0.00000000000E+00  0.00000000000E+00  0.50000499739E+01  0.50000500000E+01  0.51100000000E-03 0.  1.
         11   -1    0    0    0    0 -0.00000000000E+00 -0.00000000000E+00 -0.50000499739E+01  0.50000500000E+01  0.51100000000E-03 0. -1.
         50    1    1    2    0    0  0.33397680604E-02  0.20558220811E-01  0.81368302416E-02  0.50000500000E+01  0.50000000000E+01 0. -1.
         50    1    1    2    0    0 -0.33397680604E-02 -0.20558220811E-01 -0.81368302416E-02  0.50000500000E+01  0.50000000000E+01 0.  1.
</event>
<event>
 4    1  0.4973396E-021  0.5000050E+01  0.7818608E-02  0.2136455E+00
        -11   -1    0    0    0    0  0.00000000000E+00  0.00000000000E+00  0.50000499739E+01  0.50000500000E+01  0.51100000000E-03 0.  1.
         11   -1    0    0    0    0 -0.00000000000E+00 -0.00000000000E+00 -0.50000499739E+01  0.50000500000E+01  0.51100000000E-03 0. -1.
         50    1    1    2    0    0 -0.78097148461E-02  0.87995901703E-02  0.19015206201E-01  0.50000500000E+01  0.50000000000E+01 0.  1.
         50    1    1    2    0    0  0.78097148461E-02 -0.87995901703E-02 -0.19015206201E-01  0.50000500000E+01  0.50000000000E+01 0.  1.
</event>
<event>
 4    1  0.4973396E-021  0.5000050E+01  0.7818608E-02  0.2136455E+00
        -11   -1    0    0    0    0  0.00000000000E+00  0.00000000000E+00  0.50000499739E+01  0.50000500000E+01  0.51100000000E-03 0.  1.
         11   -1    0    0    0    0 -0.00000000000E+00 -0.00000000000E+00 -0.50000499739E+01  0.50000500000E+01  0.51100000000E-03 0. -1.
         50    1    1    2    0    0  0.66054868046E-02  0.15102664433E-01 -0.15108923559E-01  0.50000500000E+01  0.50000000000E+01 0.  0.
         50    1    1    2    0    0 -0.66054868046E-02 -0.15102664433E-01  0.15108923559E-01  0.50000500000E+01  0.50000000000E+01 0.  0.
</event>
<event>
 4    1  0.4973396E-021  0.5000050E+01  0.7818608E-02  0.2136455E+00
        -11   -1    0    0    0    0  0.00000000000E+00  0.00000000000E+00  0.50000499739E+01  0.50000500000E+01  0.51100000000E-03 0. -1.
         11   -1    0    0    0    0 -0.00000000000E+00 -0.00000000000E+00 -0.50000499739E+01  0.50000500000E+01  0.51100000000E-03 0.  1.
         50    1    1    2    0    0  0.59561941723E-02 -0.11406173601E-01 -0.18287303103E-01  0.50000500000E+01  0.50000000000E+01 0.  0.
         50    1    1    2    0    0 -0.59561941723E-02  0.11406173601E-01  0.18287303103E-01  0.50000500000E+01  0.50000000000E+01 0.  0.
</event>
<event>
 4    1  0.4973396E-021  0.5000050E+01  0.7818608E-02  0.2136455E+00
        -11   -1    0    0    0    0  0.00000000000E+00  0.00000000000E+00  0.50000499739E+01  0.50000500000E+01  0.51100000000E-03 0. -1.
         11   -1    0    0    0    0 -0.00000000000E+00 -0.00000000000E+00 -0.50000499739E+01  0.50000500000E+01  0.51100000000E-03 0.  1.
         50    1    1    2    0    0  0.16016405112E-01  0.12346310429E-01  0.95417967956E-02  0.50000500000E+01  0.50000000000E+01 0. -1.
         50    1    1    2    0    0 -0.16016405112E-01 -0.12346310429E-01 -0.95417967956E-02  0.50000500000E+01  0.50000000000E+01 0.  1.
</event>
<event>
 4    1  0.4973396E-021  0.5000050E+01  0.7818608E-02  0.2136455E+00
        -11   -1    0    0    0    0  0.00000000000E+00  0.00000000000E+00  0.50000499739E+01  0.50000500000E+01  0.51100000000E-03 0.  1.
         11   -1    0    0    0    0 -0.00000000000E+00 -0.00000000000E+00 -0.50000499739E+01  0.50000500000E+01  0.51100000000E-03 0. -1.
         50    1    1    2    0    0  0.19779044058E-01 -0.99609813451E-02  0.30936655894E-02  0.50000500000E+01  0.50000000000E+01 0.  1.
         50    1    1    2    0    0 -0.19779044058E-01  0.99609813451E-02 -0.30936655894E-02  0.50000500000E+01  0.50000000000E+01 0.  0.
</event>
<event>
 4    1  0.4973396E-021  0.5000050E+01  0.7818608E-02  0.2136455E+00
        -11   -1    0    0    0    0  0.00000000000E+00  0.00000000000E+00  0.50000499739E+01  0.50000500000E+01  0.51100000000E-03 0.  1.
         11   -1    0    0    0    0 -0.00000000000E+00 -0.00000000000E+00 -0.50000499739E+01  0.50000500000E+01  0.51100000000E-03 0. -1.
         50    1    1    2    0    0 -0.19909903118E-02 -0.15229511166E-01 -0.16251167565E-01  0.50000500000E+01  0.50000000000E+01 0.  0.
         50    1    1    2    0    0  0.19909903118E-02  0.15229511166E-01  0.16251167565E-01  0.50000500000E+01  0.50000000000E+01 0.  0.
</event>
<event>
 4    1  0.4973396E-021  0.5000050E+01  0.7818608E-02  0.2136455E+00
        -11   -1    0    0    0    0  0.00000000000E+00  0.00000000000E+00  0.50000499739E+01  0.50000500000E+01  0.51100000000E-03 0.  1.
         11   -1    0    0    0    0 -0.00000000000E+00 -0.00000000000E+00 -0.50000499739E+01  0.50000500000E+01  0.51100000000E-03 0. -1.
         50    1    1    2    0    0  0.75176301592E-02 -0.20698510664E-01  0.38806433837E-02  0.50000500000E+01  0.50000000000E+01 0.  1.
         50    1    1    2    0    0 -0.75176301592E-02  0.20698510664E-01 -0.38806433837E-02  0.50000500000E+01  0.50000000000E+01 0. -1.
</event>
<event>
 4    1  0.4973396E-021  0.5000050E+01  0.7818608E-02  0.2136455E+00
        -11   -1    0    0    0    0  0.00000000000E+00  0.00000000000E+00  0.50000499739E+01  0.50000500000E+01  0.51100000000E-03 0. -1.
         11   -1    0    0    0    0 -0.00000000000E+00 -0.00000000000E+00 -0.50000499739E+01  0.50000500000E+01  0.51100000000E-03 0.  1.
         50    1    1    2    0    0 -0.13735573351E-01  0.10072240822E-01  0.14487459734E-01  0.50000500000E+01  0.50000000000E+01 0.  0.
         50    1    1    2    0    0  0.13735573351E-01 -0.10072240822E-01 -0.14487459734E-01  0.50000500000E+01  0.50000000000E+01 0.  0.
</event>
<event>
 4    1  0.4973396E-021  0.5000050E+01  0.7818608E-02  0.2136455E+00
        -11   -1    0    0    0    0  0.00000000000E+00  0.00000000000E+00  0.50000499739E+01  0.50000500000E+01  0.51100000000E-03 0.  1.
         11   -1    0    0    0    0 -0.00000000000E+00 -0.00000000000E+00 -0.50000499739E+01  0.50000500000E+01  0.51100000000E-03 0. -1.
         50    1    1    2    0    0 -0.12708319643E-01 -0.17921305151E-01 -0.41626834565E-02  0.50000500000E+01  0.50000000000E+01 0. -1.
         50    1    1    2    0    0  0.12708319643E-01  0.17921305151E-01  0.41626834565E-02  0.50000500000E+01  0.50000000000E+01 0.  1.
</event>
<event>
 4    1  0.4973396E-021  0.5000050E+01  0.7818608E-02  0.2136455E+00
        -11   -1    0    0    0    0  0.00000000000E+00  0.00000000000E+00  0.50000499739E+01  0.50000500000E+01  0.51100000000E-03 0. -1.
         11   -1    0    0    0    0 -0.00000000000E+00 -0.00000000000E+00 -0.50000499739E+01  0.50000500000E+01  0.51100000000E-03 0.  1.
         50    1    1    2    0    0 -0.22931622141E-02  0.94000348228E-02  0.20158949685E-01  0.50000500000E+01  0.50000000000E+01 0. -1.
         50    1    1    2    0    0  0.22931622141E-02 -0.94000348228E-02 -0.20158949685E-01  0.50000500000E+01  0.50000000000E+01 0.  1.
</event>
<event>
 4    1  0.4973396E-021  0.5000050E+01  0.7818608E-02  0.2136455E+00
        -11   -1    0    0    0    0  0.00000000000E+00  0.00000000000E+00  0.50000499739E+01  0.50000500000E+01  0.51100000000E-03 0.  1.
         11   -1    0    0    0    0 -0.00000000000E+00 -0.00000000000E+00 -0.50000499739E+01  0.50000500000E+01  0.51100000000E-03 0. -1.
         50    1    1    2    0    0 -0.11109907941E-01  0.19203553063E-01 -0.27921309590E-02  0.50000500000E+01  0.50000000000E+01 0.  1.
         50    1    1    2    0    0  0.11109907941E-01 -0.19203553063E-01  0.27921309590E-02  0.50000500000E+01  0.50000000000E+01 0.  0.
</event>
<event>
 4    1  0.4973396E-021  0.5000050E+01  0.7818608E-02  0.2136455E+00
        -11   -1    0    0    0    0  0.00000000000E+00  0.00000000000E+00  0.50000499739E+01  0.50000500000E+01  0.51100000000E-03 0. -1.
         11   -1    0    0    0    0 -0.00000000000E+00 -0.00000000000E+00 -0.50000499739E+01  0.50000500000E+01  0.51100000000E-03 0.  1.
         50    1    1    2    0    0 -0.20198380305E-01  0.92746781831E-02 -0.24511788328E-02  0.50000500000E+01  0.50000000000E+01 0.  1.
         50    1    1    2    0    0  0.20198380305E-01 -0.92746781831E-02  0.24511788328E-02  0.50000500000E+01  0.50000000000E+01 0.  0.
</event>
<event>
 4    1  0.4973396E-021  0.5000050E+01  0.7818608E-02  0.2136455E+00
        -11   -1    0    0    0    0  0.00000000000E+00  0.00000000000E+00  0.50000499739E+01  0.50000500000E+01  0.51100000000E-03 0.  1.
         11   -1    0    0    0    0 -0.00000000000E+00 -0.00000000000E+00 -0.50000499739E+01  0.50000500000E+01  0.51100000000E-03 0. -1.
         50    1    1    2    0    0  0.41356423649E-02 -0.21225821669E-01  0.56888888809E-02  0.50000500000E+01  0.50000000000E+01 0. -1.
         50    1    1    2    0    0 -0.41356423649E-02  0.21225821669E-01 -0.56888888809E-02  0.50000500000E+01  0.50000000000E+01 0.  0.
</event>
<event>
 4    1  0.4973396E-021  0.5000050E+01  0.7818608E-02  0.2136455E+00
        -11   -1    0    0    0    0  0.00000000000E+00  0.00000000000E+00  0.50000499739E+01  0.50000500000E+01  0.51100000000E-03 0.  1.
         11   -1    0    0    0    0 -0.00000000000E+00 -0.00000000000E+00 -0.50000499739E+01  0.50000500000E+01  0.51100000000E-03 0. -1.
         50    1    1    2    0    0 -0.54037937081E-02 -0.69573243583E-02 -0.20552302823E-01  0.50000500000E+01  0.50000000000E+01 0.  0.
         50    1    1    2    0    0  0.54037937081E-02  0.69573243583E-02  0.20552302823E-01  0.50000500000E+01  0.50000000000E+01 0.  1.
</event>
<event>
 4    1  0.4973396E-021  0.5000050E+01  0.7818608E-02  0.2136455E+00
        -11   -1    0    0    0    0  0.00000000000E+00  0.00000000000E+00  0.50000499739E+01  0.50000500000E+01  0.51100000000E-03 0.  1.
         11   -1    0    0    0    0 -0.00000000000E+00 -0.00000000000E+00 -0.50000499739E+01  0.50000500000E+01  0.51100000000E-03 0. -1.
         50    1    1    2    0    0 -0.10878630065E-02 -0.11611598198E-01  0.19078517798E-01  0.50000500000E+01  0.50000000000E+01 0.  1.
         50    1    1    2    0    0  0.10878630065E-02  0.11611598198E-01 -0.19078517798E-01  0.50000500000E+01  0.50000000000E+01 0.  0.
</event>
<event>
 4    1  0.4973396E-021  0.5000050E+01  0.7818608E-02  0.2136455E+00
        -11   -1    0    0    0    0  0.00000000000E+00  0.00000000000E+00  0.50000499739E+01  0.50000500000E+01  0.51100000000E-03 0.  1.
         11   -1    0    0    0    0 -0.00000000000E+00 -0.00000000000E+00 -0.50000499739E+01  0.50000500000E+01  0.51100000000E-03 0. -1.
         50    1    1    2    0    0  0.52217812064E-02  0.21342547736E-01  0.41510428986E-02  0.50000500000E+01  0.50000000000E+01 0.  1.
         50    1    1    2    0    0 -0.52217812064E-02 -0.21342547736E-01 -0.41510428986E-02  0.50000500000E+01  0.50000000000E+01 0. -1.
</event>
<event>
 4    1  0.4973396E-021  0.5000050E+01  0.7818608E-02  0.2136455E+00
        -11   -1    0    0    0    0  0.00000000000E+00  0.00000000000E+00  0.50000499739E+01  0.50000500000E+01  0.51100000000E-03 0.  1.
         11   -1    0    0    0    0 -0.00000000000E+00 -0.00000000000E+00 -0.50000499739E+01  0.50000500000E+01  0.51100000000E-03 0. -1.
         50    1    1    2    0    0 -0.46352370593E-02  0.15542778761E-01 -0.15392826439E-01  0.50000500000E+01  0.50000000000E+01 0.  1.
         50    1    1    2    0    0  0.46352370593E-02 -0.15542778761E-01  0.15392826439E-01  0.50000500000E+01  0.50000000000E+01 0.  0.
</event>
<event>
 4    1  0.4973396E-021  0.5000050E+01  0.7818608E-02  0.2136455E+00
        -11   -1    0    0    0    0  0.00000000000E+00  0.00000000000E+00  0.50000499739E+01  0.50000500000E+01  0.51100000000E-03 0.  1.
         11   -1    0    0    0    0 -0.00000000000E+00 -0.00000000000E+00 -0.50000499739E+01  0.50000500000E+01  0.51100000000E-03 0. -1.
         50    1    1    2    0    0 -0.13192398729E-02 -0.14113589119E-01 -0.17293603105E-01  0.50000500000E+01  0.50000000000E+01 0.  0.
         50    1    1    2    0    0  0.13192398729E-02  0.14113589119E-01  0.17293603105E-01  0.50000500000E+01  0.50000000000E+01 0.  0.
</event>
<event>
 4    1  0.4973396E-021  0.5000050E+01  0.7818608E-02  0.2136455E+00
        -11   -1    0    0    0    0  0.00000000000E+00  0.00000000000E+00  0.50000499739E+01  0.50000500000E+01  0.51100000000E-03 0.  1.
         11   -1    0    0    0    0 -0.00000000000E+00 -0.00000000000E+00 -0.50000499739E+01  0.50000500000E+01  0.51100000000E-03 0. -1.
         50    1    1    2    0    0 -0.13336119544E-01 -0.12958482303E-01  0.12418862746E-01  0.50000500000E+01  0.50000000000E+01 0.  1.
         50    1    1    2    0    0  0.13336119544E-01  0.12958482303E-01 -0.12418862746E-01  0.50000500000E+01  0.50000000000E+01 0.  1.
</event>
<event>
 4    1  0.4973396E-021  0.5000050E+01  0.7818608E-02  0.2136455E+00
        -11   -1    0    0    0    0  0.00000000000E+00  0.00000000000E+00  0.50000499739E+01  0.50000500000E+01  0.51100000000E-03 0.  1.
         11   -1    0    0    0    0 -0.00000000000E+00 -0.00000000000E+00 -0.50000499739E+01  0.50000500000E+01  0.51100000000E-03 0. -1.
         50    1    1    2    0    0  0.16895805053E-01 -0.13441757448E-01 -0.58183699033E-02  0.50000500000E+01  0.50000000000E+01 0. -1.
         50    1    1    2    0    0 -0.16895805053E-01  0.13441757448E-01  0.58183699033E-02  0.50000500000E+01  0.50000000000E+01 0.  1.
</event>
<event>
 4    1  0.4973396E-021  0.5000050E+01  0.7818608E-02  0.2136455E+00
        -11   -1    0    0    0    0  0.00000000000E+00  0.00000000000E+00  0.50000499739E+01  0.50000500000E+01  0.51100000000E-03 0.  1.
         11   -1    0    0    0    0 -0.00000000000E+00 -0.00000000000E+00 -0.50000499739E+01  0.50000500000E+01  0.51100000000E-03 0. -1.
         50    1    1    2    0    0 -0.17200611928E-01  0.69586677638E-02  0.12478717572E-01  0.50000500000E+01  0.50000000000E+01 0.  0.
         50    1    1    2    0    0  0.17200611928E-01 -0.69586677638E-02 -0.12478717572E-01  0.50000500000E+01  0.50000000000E+01 0.  0.
</event>
<event>
 4    1  0.4973396E-021  0.5000050E+01  0.7818608E-02  0.2136455E+00
        -11   -1    0    0    0    0  0.00000000000E+00  0.00000000000E+00  0.50000499739E+01  0.50000500000E+01  0.51100000000E-03 0.  1.
         11   -1    0    0    0    0 -0.00000000000E+00 -0.00000000000E+00 -0.50000499739E+01  0.50000500000E+01  0.51100000000E-03 0. -1.
         50    1    1    2    0    0  0.65048362650E-02 -0.21298707231E-01  0.20136224727E-02  0.50000500000E+01  0.50000000000E+01 0. -1.
         50    1    1    2    0    0 -0.65048362650E-02  0.21298707231E-01 -0.20136224727E-02  0.50000500000E+01  0.50000000000E+01 0.  0.
</event>
<event>
 4    1  0.4973396E-021  0.5000050E+01  0.7818608E-02  0.2136455E+00
        -11   -1    0    0    0    0  0.00000000000E+00  0.00000000000E+00  0.50000499739E+01  0.50000500000E+01  0.51100000000E-03 0. -1.
         11   -1    0    0    0    0 -0.00000000000E+00 -0.00000000000E+00 -0.50000499739E+01  0.50000500000E+01  0.51100000000E-03 0.  1.
         50    1    1    2    0    0  0.14185085702E-02 -0.22007420912E-01  0.36964521119E-02  0.50000500000E+01  0.50000000000E+01 0.  1.
         50    1    1    2    0    0 -0.14185085702E-02  0.22007420912E-01 -0.36964521119E-02  0.50000500000E+01  0.50000000000E+01 0.  0.
</event>
<event>
 4    1  0.4973396E-021  0.5000050E+01  0.7818608E-02  0.2136455E+00
        -11   -1    0    0    0    0  0.00000000000E+00  0.00000000000E+00  0.50000499739E+01  0.50000500000E+01  0.51100000000E-03 0.  1.
         11   -1    0    0    0    0 -0.00000000000E+00 -0.00000000000E+00 -0.50000499739E+01  0.50000500000E+01  0.51100000000E-03 0. -1.
         50    1    1    2    0    0 -0.21592240121E-01  0.36755623523E-02  0.45019893341E-02  0.50000500000E+01  0.50000000000E+01 0.  1.
         50    1    1    2    0    0  0.21592240121E-01 -0.36755623523E-02 -0.45019893341E-02  0.50000500000E+01  0.50000000000E+01 0. -1.
</event>
<event>
 4    1  0.4973396E-021  0.5000050E+01  0.7818608E-02  0.2136455E+00
        -11   -1    0    0    0    0  0.00000000000E+00  0.00000000000E+00  0.50000499739E+01  0.50000500000E+01  0.51100000000E-03 0.  1.
         11   -1    0    0    0    0 -0.00000000000E+00 -0.00000000000E+00 -0.50000499739E+01  0.50000500000E+01  0.51100000000E-03 0. -1.
         50    1    1    2    0    0  0.59051486673E-04 -0.12056550318E-01 -0.18831850874E-01  0.50000500000E+01  0.50000000000E+01 0. -1.
         50    1    1    2    0    0 -0.59051486673E-04  0.12056550318E-01  0.18831850874E-01  0.50000500000E+01  0.50000000000E+01 0.  1.
</event>
<event>
 4    1  0.4973396E-021  0.5000050E+01  0.7818608E-02  0.2136455E+00
        -11   -1    0    0    0    0  0.00000000000E+00  0.00000000000E+00  0.50000499739E+01  0.50000500000E+01  0.51100000000E-03 0. -1.
         11   -1    0    0    0    0 -0.00000000000E+00 -0.00000000000E+00 -0.50000499739E+01  0.50000500000E+01  0.51100000000E-03 0.  1.
         50    1    1    2    0    0 -0.17285807465E-01  0.28671023455E-02  0.13891835172E-01  0.50000500000E+01  0.50000000000E+01 0.  0.
         50    1    1    2    0    0  0.17285807465E-01 -0.28671023455E-02 -0.13891835172E-01  0.50000500000E+01  0.50000000000E+01 0.  0.
</event>
<event>
 4    1  0.4973396E-021  0.5000050E+01  0.7818608E-02  0.2136455E+00
        -11   -1    0    0    0    0  0.00000000000E+00  0.00000000000E+00  0.50000499739E+01  0.50000500000E+01  0.51100000000E-03 0.  1.
         11   -1    0    0    0    0 -0.00000000000E+00 -0.00000000000E+00 -0.50000499739E+01  0.50000500000E+01  0.51100000000E-03 0. -1.
         50    1    1    2    0    0 -0.74287918199E-02  0.11074667089E-01  0.17949019499E-01  0.50000500000E+01  0.50000000000E+01 0.  0.
         50    1    1    2    0    0  0.74287918199E-02 -0.11074667089E-01 -0.17949019499E-01  0.50000500000E+01  0.50000000000E+01 0. -1.
</event>
<event>
 4    1  0.4973396E-021  0.5000050E+01  0.7818608E-02  0.2136455E+00
        -11   -1    0    0    0    0  0.00000000000E+00  0.00000000000E+00  0.50000499739E+01  0.50000500000E+01  0.51100000000E-03 0. -1.
         11   -1    0    0    0    0 -0.00000000000E+00 -0.00000000000E+00 -0.50000499739E+01  0.50000500000E+01  0.51100000000E-03 0.  1.
         50    1    1    2    0    0  0.17134700901E-01  0.10378522950E-01  0.99343236514E-02  0.50000500000E+01  0.50000000000E+01 0.  1.
         50    1    1    2    0    0 -0.17134700901E-01 -0.10378522950E-01 -0.99343236514E-02  0.50000500000E+01  0.50000000000E+01 0.  0.
</event>
<event>
 4    1  0.4973396E-021  0.5000050E+01  0.7818608E-02  0.2136455E+00
        -11   -1    0    0    0    0  0.00000000000E+00  0.00000000000E+00  0.50000499739E+01  0.50000500000E+01  0.51100000000E-03 0.  1.
         11   -1    0    0    0    0 -0.00000000000E+00 -0.00000000000E+00 -0.50000499739E+01  0.50000500000E+01  0.51100000000E-03 0. -1.
         50    1    1    2    0    0  0.17260133583E-01 -0.15910019151E-02 -0.14126535371E-01  0.50000500000E+01  0.50000000000E+01 0.  0.
         50    1    1    2    0    0 -0.17260133583E-01  0.15910019151E-02  0.14126535371E-01  0.50000500000E+01  0.50000000000E+01 0. -1.
</event>
<event>
 4    1  0.4973396E-021  0.5000050E+01  0.7818608E-02  0.2136455E+00
        -11   -1    0    0    0    0  0.00000000000E+00  0.00000000000E+00  0.50000499739E+01  0.50000500000E+01  0.51100000000E-03 0. -1.
         11   -1    0    0    0    0 -0.00000000000E+00 -0.00000000000E+00 -0.50000499739E+01  0.50000500000E+01  0.51100000000E-03 0.  1.
         50    1    1    2    0    0  0.12372866320E-01  0.84856013846E-02  0.16580387455E-01  0.50000500000E+01  0.50000000000E+01 0. -1.
         50    1    1    2    0    0 -0.12372866320E-01 -0.84856013846E-02 -0.16580387455E-01  0.50000500000E+01  0.50000000000E+01 0.  1.
</event>
<event>
 4    1  0.4973396E-021  0.5000050E+01  0.7818608E-02  0.2136455E+00
        -11   -1    0    0    0    0  0.00000000000E+00  0.00000000000E+00  0.50000499739E+01  0.50000500000E+01  0.51100000000E-03 0. -1.
         11   -1    0    0    0    0 -0.00000000000E+00 -0.00000000000E+00 -0.50000499739E+01  0.50000500000E+01  0.51100000000E-03 0.  1.
         50    1    1    2    0    0  0.12605961367E-01 -0.18209110725E-01 -0.30855347385E-02  0.50000500000E+01  0.50000000000E+01 0. -1.
         50    1    1    2    0    0 -0.12605961367E-01  0.18209110725E-01  0.30855347385E-02  0.50000500000E+01  0.50000000000E+01 0.  1.
</event>
<event>
 4    1  0.4973396E-021  0.5000050E+01  0.7818608E-02  0.2136455E+00
        -11   -1    0    0    0    0  0.00000000000E+00  0.00000000000E+00  0.50000499739E+01  0.50000500000E+01  0.51100000000E-03 0. -1.
         11   -1    0    0    0    0 -0.00000000000E+00 -0.00000000000E+00 -0.50000499739E+01  0.50000500000E+01  0.51100000000E-03 0.  1.
         50    1    1    2    0    0  0.10219214062E-01 -0.18514120003E-01 -0.72661905069E-02  0.50000500000E+01  0.50000000000E+01 0.  1.
         50    1    1    2    0    0 -0.10219214062E-01  0.18514120003E-01  0.72661905069E-02  0.50000500000E+01  0.50000000000E+01 0. -1.
</event>
<event>
 4    1  0.4973396E-021  0.5000050E+01  0.7818608E-02  0.2136455E+00
        -11   -1    0    0    0    0  0.00000000000E+00  0.00000000000E+00  0.50000499739E+01  0.50000500000E+01  0.51100000000E-03 0.  1.
         11   -1    0    0    0    0 -0.00000000000E+00 -0.00000000000E+00 -0.50000499739E+01  0.50000500000E+01  0.51100000000E-03 0. -1.
         50    1    1    2    0    0 -0.14443124615E-01  0.41543762537E-02 -0.16557167913E-01  0.50000500000E+01  0.50000000000E+01 0. -1.
         50    1    1    2    0    0  0.14443124615E-01 -0.41543762537E-02  0.16557167913E-01  0.50000500000E+01  0.50000000000E+01 0.  1.
</event>
<event>
 4    1  0.4973396E-021  0.5000050E+01  0.7818608E-02  0.2136455E+00
        -11   -1    0    0    0    0  0.00000000000E+00  0.00000000000E+00  0.50000499739E+01  0.50000500000E+01  0.51100000000E-03 0. -1.
         11   -1    0    0    0    0 -0.00000000000E+00 -0.00000000000E+00 -0.50000499739E+01  0.50000500000E+01  0.51100000000E-03 0.  1.
         50    1    1    2    0    0 -0.19821809890E-01  0.10022197677E-01  0.25795167023E-02  0.50000500000E+01  0.50000000000E+01 0. -1.
         50    1    1    2    0    0  0.19821809890E-01 -0.10022197677E-01 -0.25795167023E-02  0.50000500000E+01  0.50000000000E+01 0.  1.
</event>
<event>
 4    1  0.4973396E-021  0.5000050E+01  0.7818608E-02  0.2136455E+00
        -11   -1    0    0    0    0  0.00000000000E+00  0.00000000000E+00  0.50000499739E+01  0.50000500000E+01  0.51100000000E-03 0. -1.
         11   -1    0    0    0    0 -0.00000000000E+00 -0.00000000000E+00 -0.50000499739E+01  0.50000500000E+01  0.51100000000E-03 0.  1.
         50    1    1    2    0    0 -0.15491009921E-01 -0.15845295711E-01 -0.29929442783E-02  0.50000500000E+01  0.50000000000E+01 0. -1.
         50    1    1    2    0    0  0.15491009921E-01  0.15845295711E-01  0.29929442783E-02  0.50000500000E+01  0.50000000000E+01 0.  0.
</event>
<event>
 4    1  0.4973396E-021  0.5000050E+01  0.7818608E-02  0.2136455E+00
        -11   -1    0    0    0    0  0.00000000000E+00  0.00000000000E+00  0.50000499739E+01  0.50000500000E+01  0.51100000000E-03 0.  1.
         11   -1    0    0    0    0 -0.00000000000E+00 -0.00000000000E+00 -0.50000499739E+01  0.50000500000E+01  0.51100000000E-03 0. -1.
         50    1    1    2    0    0 -0.66118326095E-02 -0.19062920698E-01 -0.96380093374E-02  0.50000500000E+01  0.50000000000E+01 0. -1.
         50    1    1    2    0    0  0.66118326095E-02  0.19062920698E-01  0.96380093374E-02  0.50000500000E+01  0.50000000000E+01 0.  1.
</event>
<event>
 4    1  0.4973396E-021  0.5000050E+01  0.7818608E-02  0.2136455E+00
        -11   -1    0    0    0    0  0.00000000000E+00  0.00000000000E+00  0.50000499739E+01  0.50000500000E+01  0.51100000000E-03 0.  1.
         11   -1    0    0    0    0 -0.00000000000E+00 -0.00000000000E+00 -0.50000499739E+01  0.50000500000E+01  0.51100000000E-03 0. -1.
         50    1    1    2    0    0 -0.17783158252E-01 -0.11386899260E-01 -0.73552911451E-02  0.50000500000E+01  0.50000000000E+01 0.  0.
         50    1    1    2    0    0  0.17783158252E-01  0.11386899260E-01  0.73552911451E-02  0.50000500000E+01  0.50000000000E+01 0.  0.
</event>
<event>
 4    1  0.4973396E-021  0.5000050E+01  0.7818608E-02  0.2136455E+00
        -11   -1    0    0    0    0  0.00000000000E+00  0.00000000000E+00  0.50000499739E+01  0.50000500000E+01  0.51100000000E-03 0. -1.
         11   -1    0    0    0    0 -0.00000000000E+00 -0.00000000000E+00 -0.50000499739E+01  0.50000500000E+01  0.51100000000E-03 0.  1.
         50    1    1    2    0    0  0.20489836943E-01 -0.45556041212E-02  0.77081484904E-02  0.50000500000E+01  0.50000000000E+01 0. -1.
         50    1    1    2    0    0 -0.20489836943E-01  0.45556041212E-02 -0.77081484904E-02  0.50000500000E+01  0.50000000000E+01 0.  1.
</event>
<event>
 4    1  0.4973396E-021  0.5000050E+01  0.7818608E-02  0.2136455E+00
        -11   -1    0    0    0    0  0.00000000000E+00  0.00000000000E+00  0.50000499739E+01  0.50000500000E+01  0.51100000000E-03 0.  1.
         11   -1    0    0    0    0 -0.00000000000E+00 -0.00000000000E+00 -0.50000499739E+01  0.50000500000E+01  0.51100000000E-03 0. -1.
         50    1    1    2    0    0  0.25500688297E-02  0.78068608656E-02  0.20797898268E-01  0.50000500000E+01  0.50000000000E+01 0.  0.
         50    1    1    2    0    0 -0.25500688297E-02 -0.78068608656E-02 -0.20797898268E-01  0.50000500000E+01  0.50000000000E+01 0. -1.
</event>
<event>
 4    1  0.4973396E-021  0.5000050E+01  0.7818608E-02  0.2136455E+00
        -11   -1    0    0    0    0  0.00000000000E+00  0.00000000000E+00  0.50000499739E+01  0.50000500000E+01  0.51100000000E-03 0. -1.
         11   -1    0    0    0    0 -0.00000000000E+00 -0.00000000000E+00 -0.50000499739E+01  0.50000500000E+01  0.51100000000E-03 0.  1.
         50    1    1    2    0    0 -0.81149804788E-02 -0.19996999368E-01 -0.58540249485E-02  0.50000500000E+01  0.50000000000E+01 0.  1.
         50    1    1    2    0    0  0.81149804788E-02  0.19996999368E-01  0.58540249485E-02  0.50000500000E+01  0.50000000000E+01 0. -1.
</event>
<event>
 4    1  0.4973396E-021  0.5000050E+01  0.7818608E-02  0.2136455E+00
        -11   -1    0    0    0    0  0.00000000000E+00  0.00000000000E+00  0.50000499739E+01  0.50000500000E+01  0.51100000000E-03 0.  1.
         11   -1    0    0    0    0 -0.00000000000E+00 -0.00000000000E+00 -0.50000499739E+01  0.50000500000E+01  0.51100000000E-03 0. -1.
         50    1    1    2    0    0  0.28956272117E-02 -0.17034900850E-01  0.14192603570E-01  0.50000500000E+01  0.50000000000E+01 0.  1.
         50    1    1    2    0    0 -0.28956272117E-02  0.17034900850E-01 -0.14192603570E-01  0.50000500000E+01  0.50000000000E+01 0. -1.
</event>
<event>
 4    1  0.4973396E-021  0.5000050E+01  0.7818608E-02  0.2136455E+00
        -11   -1    0    0    0    0  0.00000000000E+00  0.00000000000E+00  0.50000499739E+01  0.50000500000E+01  0.51100000000E-03 0.  1.
         11   -1    0    0    0    0 -0.00000000000E+00 -0.00000000000E+00 -0.50000499739E+01  0.50000500000E+01  0.51100000000E-03 0. -1.
         50    1    1    2    0    0  0.72688168152E-02 -0.23225483825E-02 -0.21018386501E-01  0.50000500000E+01  0.50000000000E+01 0. -1.
         50    1    1    2    0    0 -0.72688168152E-02  0.23225483825E-02  0.21018386501E-01  0.50000500000E+01  0.50000000000E+01 0.  0.
</event>
<event>
 4    1  0.4973396E-021  0.5000050E+01  0.7818608E-02  0.2136455E+00
        -11   -1    0    0    0    0  0.00000000000E+00  0.00000000000E+00  0.50000499739E+01  0.50000500000E+01  0.51100000000E-03 0. -1.
         11   -1    0    0    0    0 -0.00000000000E+00 -0.00000000000E+00 -0.50000499739E+01  0.50000500000E+01  0.51100000000E-03 0.  1.
         50    1    1    2    0    0 -0.18603424894E-01  0.12290265662E-01 -0.16924692469E-02  0.50000500000E+01  0.50000000000E+01 0.  0.
         50    1    1    2    0    0  0.18603424894E-01 -0.12290265662E-01  0.16924692469E-02  0.50000500000E+01  0.50000000000E+01 0. -1.
</event>
<event>
 4    1  0.4973396E-021  0.5000050E+01  0.7818608E-02  0.2136455E+00
        -11   -1    0    0    0    0  0.00000000000E+00  0.00000000000E+00  0.50000499739E+01  0.50000500000E+01  0.51100000000E-03 0. -1.
         11   -1    0    0    0    0 -0.00000000000E+00 -0.00000000000E+00 -0.50000499739E+01  0.50000500000E+01  0.51100000000E-03 0.  1.
         50    1    1    2    0    0  0.20461746517E-01 -0.84806916750E-02  0.30655012964E-02  0.50000500000E+01  0.50000000000E+01 0.  1.
         50    1    1    2    0    0 -0.20461746517E-01  0.84806916750E-02 -0.30655012964E-02  0.50000500000E+01  0.50000000000E+01 0.  0.
</event>
<event>
 4    1  0.4973396E-021  0.5000050E+01  0.7818608E-02  0.2136455E+00
        -11   -1    0    0    0    0  0.00000000000E+00  0.00000000000E+00  0.50000499739E+01  0.50000500000E+01  0.51100000000E-03 0. -1.
         11   -1    0    0    0    0 -0.00000000000E+00 -0.00000000000E+00 -0.50000499739E+01  0.50000500000E+01  0.51100000000E-03 0.  1.
         50    1    1    2    0    0 -0.98186035910E-02  0.18196820088E-01  0.85131229408E-02  0.50000500000E+01  0.50000000000E+01 0.  0.
         50    1    1    2    0    0  0.98186035910E-02 -0.18196820088E-01 -0.85131229408E-02  0.50000500000E+01  0.50000000000E+01 0.  0.
</event>
<event>
 4    1  0.4973396E-021  0.5000050E+01  0.7818608E-02  0.2136455E+00
        -11   -1    0    0    0    0  0.00000000000E+00  0.00000000000E+00  0.50000499739E+01  0.50000500000E+01  0.51100000000E-03 0.  1.
         11   -1    0    0    0    0 -0.00000000000E+00 -0.00000000000E+00 -0.50000499739E+01  0.50000500000E+01  0.51100000000E-03 0. -1.
         50    1    1    2    0    0  0.11078668402E-01 -0.51825178916E-02 -0.18719164371E-01  0.50000500000E+01  0.50000000000E+01 0.  0.
         50    1    1    2    0    0 -0.11078668402E-01  0.51825178916E-02  0.18719164371E-01  0.50000500000E+01  0.50000000000E+01 0.  1.
</event>
<event>
 4    1  0.4973396E-021  0.5000050E+01  0.7818608E-02  0.2136455E+00
        -11   -1    0    0    0    0  0.00000000000E+00  0.00000000000E+00  0.50000499739E+01  0.50000500000E+01  0.51100000000E-03 0. -1.
         11   -1    0    0    0    0 -0.00000000000E+00 -0.00000000000E+00 -0.50000499739E+01  0.50000500000E+01  0.51100000000E-03 0.  1.
         50    1    1    2    0    0  0.17208146526E-02 -0.16711007918E-01 -0.14757490007E-01  0.50000500000E+01  0.50000000000E+01 0.  1.
         50    1    1    2    0    0 -0.17208146526E-02  0.16711007918E-01  0.14757490007E-01  0.50000500000E+01  0.50000000000E+01 0. -1.
</event>
<event>
 4    1  0.4973396E-021  0.5000050E+01  0.7818608E-02  0.2136455E+00
        -11   -1    0    0    0    0  0.00000000000E+00  0.00000000000E+00  0.50000499739E+01  0.50000500000E+01  0.51100000000E-03 0. -1.
         11   -1    0    0    0    0 -0.00000000000E+00 -0.00000000000E+00 -0.50000499739E+01  0.50000500000E+01  0.51100000000E-03 0.  1.
         50    1    1    2    0    0  0.15586128022E-01  0.14908958142E-01  0.58989897782E-02  0.50000500000E+01  0.50000000000E+01 0.  1.
         50    1    1    2    0    0 -0.15586128022E-01 -0.14908958142E-01 -0.58989897782E-02  0.50000500000E+01  0.50000000000E+01 0.  0.
</event>
<event>
 4    1  0.4973396E-021  0.5000050E+01  0.7818608E-02  0.2136455E+00
        -11   -1    0    0    0    0  0.00000000000E+00  0.00000000000E+00  0.50000499739E+01  0.50000500000E+01  0.51100000000E-03 0.  1.
         11   -1    0    0    0    0 -0.00000000000E+00 -0.00000000000E+00 -0.50000499739E+01  0.50000500000E+01  0.51100000000E-03 0. -1.
         50    1    1    2    0    0 -0.45644078473E-03  0.21663095465E-01  0.55230839821E-02  0.50000500000E+01  0.50000000000E+01 0.  1.
         50    1    1    2    0    0  0.45644078473E-03 -0.21663095465E-01 -0.55230839821E-02  0.50000500000E+01  0.50000000000E+01 0. -1.
</event>
<event>
 4    1  0.4973396E-021  0.5000050E+01  0.7818608E-02  0.2136455E+00
        -11   -1    0    0    0    0  0.00000000000E+00  0.00000000000E+00  0.50000499739E+01  0.50000500000E+01  0.51100000000E-03 0. -1.
         11   -1    0    0    0    0 -0.00000000000E+00 -0.00000000000E+00 -0.50000499739E+01  0.50000500000E+01  0.51100000000E-03 0.  1.
         50    1    1    2    0    0 -0.72239903280E-02 -0.10322097687E-01 -0.18473515179E-01  0.50000500000E+01  0.50000000000E+01 0.  0.
         50    1    1    2    0    0  0.72239903280E-02  0.10322097687E-01  0.18473515179E-01  0.50000500000E+01  0.50000000000E+01 0. -1.
</event>
<event>
 4    1  0.4973396E-021  0.5000050E+01  0.7818608E-02  0.2136455E+00
        -11   -1    0    0    0    0  0.00000000000E+00  0.00000000000E+00  0.50000499739E+01  0.50000500000E+01  0.51100000000E-03 0.  1.
         11   -1    0    0    0    0 -0.00000000000E+00 -0.00000000000E+00 -0.50000499739E+01  0.50000500000E+01  0.51100000000E-03 0. -1.
         50    1    1    2    0    0  0.26735302443E-02 -0.22174534193E-01  0.10699389494E-02  0.50000500000E+01  0.50000000000E+01 0.  0.
         50    1    1    2    0    0 -0.26735302443E-02  0.22174534193E-01 -0.10699389494E-02  0.50000500000E+01  0.50000000000E+01 0.  1.
</event>
<event>
 4    1  0.4973396E-021  0.5000050E+01  0.7818608E-02  0.2136455E+00
        -11   -1    0    0    0    0  0.00000000000E+00  0.00000000000E+00  0.50000499739E+01  0.50000500000E+01  0.51100000000E-03 0. -1.
         11   -1    0    0    0    0 -0.00000000000E+00 -0.00000000000E+00 -0.50000499739E+01  0.50000500000E+01  0.51100000000E-03 0.  1.
         50    1    1    2    0    0  0.69167974720E-02  0.20159800471E-01 -0.67633466344E-02  0.50000500000E+01  0.50000000000E+01 0.  1.
         50    1    1    2    0    0 -0.69167974720E-02 -0.20159800471E-01  0.67633466344E-02  0.50000500000E+01  0.50000000000E+01 0. -1.
</event>
<event>
 4    1  0.4973396E-021  0.5000050E+01  0.7818608E-02  0.2136455E+00
        -11   -1    0    0    0    0  0.00000000000E+00  0.00000000000E+00  0.50000499739E+01  0.50000500000E+01  0.51100000000E-03 0. -1.
         11   -1    0    0    0    0 -0.00000000000E+00 -0.00000000000E+00 -0.50000499739E+01  0.50000500000E+01  0.51100000000E-03 0.  1.
         50    1    1    2    0    0 -0.22263213023E-01 -0.20800386137E-02 -0.15901333399E-03  0.50000500000E+01  0.50000000000E+01 0.  0.
         50    1    1    2    0    0  0.22263213023E-01  0.20800386137E-02  0.15901333399E-03  0.50000500000E+01  0.50000000000E+01 0.  1.
</event>
<event>
 4    1  0.4973396E-021  0.5000050E+01  0.7818608E-02  0.2136455E+00
        -11   -1    0    0    0    0  0.00000000000E+00  0.00000000000E+00  0.50000499739E+01  0.50000500000E+01  0.51100000000E-03 0. -1.
         11   -1    0    0    0    0 -0.00000000000E+00 -0.00000000000E+00 -0.50000499739E+01  0.50000500000E+01  0.51100000000E-03 0.  1.
         50    1    1    2    0    0  0.17049786080E-01  0.12067920628E-01 -0.79795104064E-02  0.50000500000E+01  0.50000000000E+01 0.  1.
         50    1    1    2    0    0 -0.17049786080E-01 -0.12067920628E-01  0.79795104064E-02  0.50000500000E+01  0.50000000000E+01 0. -1.
</event>
<event>
 4    1  0.4973396E-021  0.5000050E+01  0.7818608E-02  0.2136455E+00
        -11   -1    0    0    0    0  0.00000000000E+00  0.00000000000E+00  0.50000499739E+01  0.50000500000E+01  0.51100000000E-03 0. -1.
         11   -1    0    0    0    0 -0.00000000000E+00 -0.00000000000E+00 -0.50000499739E+01  0.50000500000E+01  0.51100000000E-03 0.  1.
         50    1    1    2    0    0  0.20298057179E-01  0.12036582709E-02  0.93028265332E-02  0.50000500000E+01  0.50000000000E+01 0. -1.
         50    1    1    2    0    0 -0.20298057179E-01 -0.12036582709E-02 -0.93028265332E-02  0.50000500000E+01  0.50000000000E+01 0.  1.
</event>
<event>
 4    1  0.4973396E-021  0.5000050E+01  0.7818608E-02  0.2136455E+00
        -11   -1    0    0    0    0  0.00000000000E+00  0.00000000000E+00  0.50000499739E+01  0.50000500000E+01  0.51100000000E-03 0. -1.
         11   -1    0    0    0    0 -0.00000000000E+00 -0.00000000000E+00 -0.50000499739E+01  0.50000500000E+01  0.51100000000E-03 0.  1.
         50    1    1    2    0    0 -0.35968573636E-02  0.45729293701E-02  0.21590586701E-01  0.50000500000E+01  0.50000000000E+01 0.  0.
         50    1    1    2    0    0  0.35968573636E-02 -0.45729293701E-02 -0.21590586701E-01  0.50000500000E+01  0.50000000000E+01 0.  1.
</event>
<event>
 4    1  0.4973396E-021  0.5000050E+01  0.7818608E-02  0.2136455E+00
        -11   -1    0    0    0    0  0.00000000000E+00  0.00000000000E+00  0.50000499739E+01  0.50000500000E+01  0.51100000000E-03 0.  1.
         11   -1    0    0    0    0 -0.00000000000E+00 -0.00000000000E+00 -0.50000499739E+01  0.50000500000E+01  0.51100000000E-03 0. -1.
         50    1    1    2    0    0  0.90683303317E-02  0.19824804041E-01  0.49744376294E-02  0.50000500000E+01  0.50000000000E+01 0. -1.
         50    1    1    2    0    0 -0.90683303317E-02 -0.19824804041E-01 -0.49744376294E-02  0.50000500000E+01  0.50000000000E+01 0.  0.
</event>
<event>
 4    1  0.4973396E-021  0.5000050E+01  0.7818608E-02  0.2136455E+00
        -11   -1    0    0    0    0  0.00000000000E+00  0.00000000000E+00  0.50000499739E+01  0.50000500000E+01  0.51100000000E-03 0. -1.
         11   -1    0    0    0    0 -0.00000000000E+00 -0.00000000000E+00 -0.50000499739E+01  0.50000500000E+01  0.51100000000E-03 0.  1.
         50    1    1    2    0    0  0.10408531818E-01 -0.84236945609E-02 -0.17908275610E-01  0.50000500000E+01  0.50000000000E+01 0.  1.
         50    1    1    2    0    0 -0.10408531818E-01  0.84236945609E-02  0.17908275610E-01  0.50000500000E+01  0.50000000000E+01 0. -1.
</event>
<event>
 4    1  0.4973396E-021  0.5000050E+01  0.7818608E-02  0.2136455E+00
        -11   -1    0    0    0    0  0.00000000000E+00  0.00000000000E+00  0.50000499739E+01  0.50000500000E+01  0.51100000000E-03 0.  1.
         11   -1    0    0    0    0 -0.00000000000E+00 -0.00000000000E+00 -0.50000499739E+01  0.50000500000E+01  0.51100000000E-03 0. -1.
         50    1    1    2    0    0 -0.13097253747E-01 -0.11241439181E-01  0.14215994141E-01  0.50000500000E+01  0.50000000000E+01 0.  1.
         50    1    1    2    0    0  0.13097253747E-01  0.11241439181E-01 -0.14215994141E-01  0.50000500000E+01  0.50000000000E+01 0. -1.
</event>
<event>
 4    1  0.4973396E-021  0.5000050E+01  0.7818608E-02  0.2136455E+00
        -11   -1    0    0    0    0  0.00000000000E+00  0.00000000000E+00  0.50000499739E+01  0.50000500000E+01  0.51100000000E-03 0. -1.
         11   -1    0    0    0    0 -0.00000000000E+00 -0.00000000000E+00 -0.50000499739E+01  0.50000500000E+01  0.51100000000E-03 0.  1.
         50    1    1    2    0    0  0.85383001895E-02 -0.15810962205E-01 -0.13308395998E-01  0.50000500000E+01  0.50000000000E+01 0.  1.
         50    1    1    2    0    0 -0.85383001895E-02  0.15810962205E-01  0.13308395998E-01  0.50000500000E+01  0.50000000000E+01 0.  1.
</event>
<event>
 4    1  0.4973396E-021  0.5000050E+01  0.7818608E-02  0.2136455E+00
        -11   -1    0    0    0    0  0.00000000000E+00  0.00000000000E+00  0.50000499739E+01  0.50000500000E+01  0.51100000000E-03 0.  1.
         11   -1    0    0    0    0 -0.00000000000E+00 -0.00000000000E+00 -0.50000499739E+01  0.50000500000E+01  0.51100000000E-03 0. -1.
         50    1    1    2    0    0 -0.70859854053E-02 -0.30643875190E-02 -0.20985729436E-01  0.50000500000E+01  0.50000000000E+01 0. -1.
         50    1    1    2    0    0  0.70859854053E-02  0.30643875190E-02  0.20985729436E-01  0.50000500000E+01  0.50000000000E+01 0.  1.
</event>
<event>
 4    1  0.4973396E-021  0.5000050E+01  0.7818608E-02  0.2136455E+00
        -11   -1    0    0    0    0  0.00000000000E+00  0.00000000000E+00  0.50000499739E+01  0.50000500000E+01  0.51100000000E-03 0.  1.
         11   -1    0    0    0    0 -0.00000000000E+00 -0.00000000000E+00 -0.50000499739E+01  0.50000500000E+01  0.51100000000E-03 0. -1.
         50    1    1    2    0    0  0.20521449294E-01  0.87710922379E-02  0.13930397740E-02  0.50000500000E+01  0.50000000000E+01 0.  1.
         50    1    1    2    0    0 -0.20521449294E-01 -0.87710922379E-02 -0.13930397740E-02  0.50000500000E+01  0.50000000000E+01 0.  0.
</event>
<event>
 4    1  0.4973396E-021  0.5000050E+01  0.7818608E-02  0.2136455E+00
        -11   -1    0    0    0    0  0.00000000000E+00  0.00000000000E+00  0.50000499739E+01  0.50000500000E+01  0.51100000000E-03 0. -1.
         11   -1    0    0    0    0 -0.00000000000E+00 -0.00000000000E+00 -0.50000499739E+01  0.50000500000E+01  0.51100000000E-03 0.  1.
         50    1    1    2    0    0 -0.50699340521E-03 -0.16544951562E-01 -0.15033630150E-01  0.50000500000E+01  0.50000000000E+01 0. -1.
         50    1    1    2    0    0  0.50699340521E-03  0.16544951562E-01  0.15033630150E-01  0.50000500000E+01  0.50000000000E+01 0. -1.
</event>
<event>
 4    1  0.4973396E-021  0.5000050E+01  0.7818608E-02  0.2136455E+00
        -11   -1    0    0    0    0  0.00000000000E+00  0.00000000000E+00  0.50000499739E+01  0.50000500000E+01  0.51100000000E-03 0.  1.
         11   -1    0    0    0    0 -0.00000000000E+00 -0.00000000000E+00 -0.50000499739E+01  0.50000500000E+01  0.51100000000E-03 0. -1.
         50    1    1    2    0    0  0.12083798192E-01  0.47148605924E-02  0.18214126684E-01  0.50000500000E+01  0.50000000000E+01 0.  1.
         50    1    1    2    0    0 -0.12083798192E-01 -0.47148605924E-02 -0.18214126684E-01  0.50000500000E+01  0.50000000000E+01 0. -1.
</event>
<event>
 4    1  0.4973396E-021  0.5000050E+01  0.7818608E-02  0.2136455E+00
        -11   -1    0    0    0    0  0.00000000000E+00  0.00000000000E+00  0.50000499739E+01  0.50000500000E+01  0.51100000000E-03 0.  1.
         11   -1    0    0    0    0 -0.00000000000E+00 -0.00000000000E+00 -0.50000499739E+01  0.50000500000E+01  0.51100000000E-03 0. -1.
         50    1    1    2    0    0 -0.14529226521E-01 -0.44323734084E-02  0.16409087198E-01  0.50000500000E+01  0.50000000000E+01 0.  1.
         50    1    1    2    0    0  0.14529226521E-01  0.44323734084E-02 -0.16409087198E-01  0.50000500000E+01  0.50000000000E+01 0. -1.
</event>
<event>
 4    1  0.4973396E-021  0.5000050E+01  0.7818608E-02  0.2136455E+00
        -11   -1    0    0    0    0  0.00000000000E+00  0.00000000000E+00  0.50000499739E+01  0.50000500000E+01  0.51100000000E-03 0. -1.
         11   -1    0    0    0    0 -0.00000000000E+00 -0.00000000000E+00 -0.50000499739E+01  0.50000500000E+01  0.51100000000E-03 0.  1.
         50    1    1    2    0    0  0.63039009416E-02 -0.65662117624E-02  0.20424206129E-01  0.50000500000E+01  0.50000000000E+01 0. -1.
         50    1    1    2    0    0 -0.63039009416E-02  0.65662117624E-02 -0.20424206129E-01  0.50000500000E+01  0.50000000000E+01 0.  1.
</event>
<event>
 4    1  0.4973396E-021  0.5000050E+01  0.7818608E-02  0.2136455E+00
        -11   -1    0    0    0    0  0.00000000000E+00  0.00000000000E+00  0.50000499739E+01  0.50000500000E+01  0.51100000000E-03 0. -1.
         11   -1    0    0    0    0 -0.00000000000E+00 -0.00000000000E+00 -0.50000499739E+01  0.50000500000E+01  0.51100000000E-03 0.  1.
         50    1    1    2    0    0  0.17170718394E-01  0.12394930357E-01  0.71787625175E-02  0.50000500000E+01  0.50000000000E+01 0. -1.
         50    1    1    2    0    0 -0.17170718394E-01 -0.12394930357E-01 -0.71787625175E-02  0.50000500000E+01  0.50000000000E+01 0.  0.
</event>
<event>
 4    1  0.4973396E-021  0.5000050E+01  0.7818608E-02  0.2136455E+00
        -11   -1    0    0    0    0  0.00000000000E+00  0.00000000000E+00  0.50000499739E+01  0.50000500000E+01  0.51100000000E-03 0.  1.
         11   -1    0    0    0    0 -0.00000000000E+00 -0.00000000000E+00 -0.50000499739E+01  0.50000500000E+01  0.51100000000E-03 0. -1.
         50    1    1    2    0    0  0.95726088459E-02  0.19357821978E-01 -0.58002058726E-02  0.50000500000E+01  0.50000000000E+01 0.  0.
         50    1    1    2    0    0 -0.95726088459E-02 -0.19357821978E-01  0.58002058726E-02  0.50000500000E+01  0.50000000000E+01 0.  1.
</event>
<event>
 4    1  0.4973396E-021  0.5000050E+01  0.7818608E-02  0.2136455E+00
        -11   -1    0    0    0    0  0.00000000000E+00  0.00000000000E+00  0.50000499739E+01  0.50000500000E+01  0.51100000000E-03 0.  1.
         11   -1    0    0    0    0 -0.00000000000E+00 -0.00000000000E+00 -0.50000499739E+01  0.50000500000E+01  0.51100000000E-03 0. -1.
         50    1    1    2    0    0 -0.20125761675E-01 -0.95803838631E-02 -0.17811406543E-02  0.50000500000E+01  0.50000000000E+01 0.  0.
         50    1    1    2    0    0  0.20125761675E-01  0.95803838631E-02  0.17811406543E-02  0.50000500000E+01  0.50000000000E+01 0. -1.
</event>
<event>
 4    1  0.4973396E-021  0.5000050E+01  0.7818608E-02  0.2136455E+00
        -11   -1    0    0    0    0  0.00000000000E+00  0.00000000000E+00  0.50000499739E+01  0.50000500000E+01  0.51100000000E-03 0.  1.
         11   -1    0    0    0    0 -0.00000000000E+00 -0.00000000000E+00 -0.50000499739E+01  0.50000500000E+01  0.51100000000E-03 0. -1.
         50    1    1    2    0    0 -0.82004821327E-02  0.19407814007E-01  0.74894157495E-02  0.50000500000E+01  0.50000000000E+01 0.  1.
         50    1    1    2    0    0  0.82004821327E-02 -0.19407814007E-01 -0.74894157495E-02  0.50000500000E+01  0.50000000000E+01 0. -1.
</event>
<event>
 4    1  0.4973396E-021  0.5000050E+01  0.7818608E-02  0.2136455E+00
        -11   -1    0    0    0    0  0.00000000000E+00  0.00000000000E+00  0.50000499739E+01  0.50000500000E+01  0.51100000000E-03 0. -1.
         11   -1    0    0    0    0 -0.00000000000E+00 -0.00000000000E+00 -0.50000499739E+01  0.50000500000E+01  0.51100000000E-03 0.  1.
         50    1    1    2    0    0 -0.14088671730E-01 -0.16963122922E-01  0.37100255540E-02  0.50000500000E+01  0.50000000000E+01 0. -1.
         50    1    1    2    0    0  0.14088671730E-01  0.16963122922E-01 -0.37100255540E-02  0.50000500000E+01  0.50000000000E+01 0.  1.
</event>
<event>
 4    1  0.4973396E-021  0.5000050E+01  0.7818608E-02  0.2136455E+00
        -11   -1    0    0    0    0  0.00000000000E+00  0.00000000000E+00  0.50000499739E+01  0.50000500000E+01  0.51100000000E-03 0. -1.
         11   -1    0    0    0    0 -0.00000000000E+00 -0.00000000000E+00 -0.50000499739E+01  0.50000500000E+01  0.51100000000E-03 0.  1.
         50    1    1    2    0    0  0.20311453003E-01  0.83670238355E-02 -0.41761572090E-02  0.50000500000E+01  0.50000000000E+01 0.  1.
         50    1    1    2    0    0 -0.20311453003E-01 -0.83670238355E-02  0.41761572090E-02  0.50000500000E+01  0.50000000000E+01 0. -1.
</event>
<event>
 4    1  0.4973396E-021  0.5000050E+01  0.7818608E-02  0.2136455E+00
        -11   -1    0    0    0    0  0.00000000000E+00  0.00000000000E+00  0.50000499739E+01  0.50000500000E+01  0.51100000000E-03 0. -1.
         11   -1    0    0    0    0 -0.00000000000E+00 -0.00000000000E+00 -0.50000499739E+01  0.50000500000E+01  0.51100000000E-03 0.  1.
         50    1    1    2    0    0  0.99619150402E-02  0.84753995838E-02  0.18136437098E-01  0.50000500000E+01  0.50000000000E+01 0.  1.
         50    1    1    2    0    0 -0.99619150402E-02 -0.84753995838E-02 -0.18136437098E-01  0.50000500000E+01  0.50000000000E+01 0.  1.
</event>
<event>
 4    1  0.4973396E-021  0.5000050E+01  0.7818608E-02  0.2136455E+00
        -11   -1    0    0    0    0  0.00000000000E+00  0.00000000000E+00  0.50000499739E+01  0.50000500000E+01  0.51100000000E-03 0.  1.
         11   -1    0    0    0    0 -0.00000000000E+00 -0.00000000000E+00 -0.50000499739E+01  0.50000500000E+01  0.51100000000E-03 0. -1.
         50    1    1    2    0    0  0.52395029101E-02  0.51620640771E-02 -0.21116420239E-01  0.50000500000E+01  0.50000000000E+01 0. -1.
         50    1    1    2    0    0 -0.52395029101E-02 -0.51620640771E-02  0.21116420239E-01  0.50000500000E+01  0.50000000000E+01 0.  1.
</event>
<event>
 4    1  0.4973396E-021  0.5000050E+01  0.7818608E-02  0.2136455E+00
        -11   -1    0    0    0    0  0.00000000000E+00  0.00000000000E+00  0.50000499739E+01  0.50000500000E+01  0.51100000000E-03 0. -1.
         11   -1    0    0    0    0 -0.00000000000E+00 -0.00000000000E+00 -0.50000499739E+01  0.50000500000E+01  0.51100000000E-03 0.  1.
         50    1    1    2    0    0 -0.21898824774E-01  0.26978359884E-02 -0.36284506990E-02  0.50000500000E+01  0.50000000000E+01 0.  0.
         50    1    1    2    0    0  0.21898824774E-01 -0.26978359884E-02  0.36284506990E-02  0.50000500000E+01  0.50000000000E+01 0.  0.
</event>
<event>
 4    1  0.4973396E-021  0.5000050E+01  0.7818608E-02  0.2136455E+00
        -11   -1    0    0    0    0  0.00000000000E+00  0.00000000000E+00  0.50000499739E+01  0.50000500000E+01  0.51100000000E-03 0.  1.
         11   -1    0    0    0    0 -0.00000000000E+00 -0.00000000000E+00 -0.50000499739E+01  0.50000500000E+01  0.51100000000E-03 0. -1.
         50    1    1    2    0    0  0.20729342508E-01  0.65833598489E-02  0.51919391627E-02  0.50000500000E+01  0.50000000000E+01 0.  0.
         50    1    1    2    0    0 -0.20729342508E-01 -0.65833598489E-02 -0.51919391627E-02  0.50000500000E+01  0.50000000000E+01 0.  1.
</event>
<event>
 4    1  0.4973396E-021  0.5000050E+01  0.7818608E-02  0.2136455E+00
        -11   -1    0    0    0    0  0.00000000000E+00  0.00000000000E+00  0.50000499739E+01  0.50000500000E+01  0.51100000000E-03 0.  1.
         11   -1    0    0    0    0 -0.00000000000E+00 -0.00000000000E+00 -0.50000499739E+01  0.50000500000E+01  0.51100000000E-03 0. -1.
         50    1    1    2    0    0 -0.50213468391E-02 -0.87346238323E-02 -0.19962337599E-01  0.50000500000E+01  0.50000000000E+01 0.  0.
         50    1    1    2    0    0  0.50213468391E-02  0.87346238323E-02  0.19962337599E-01  0.50000500000E+01  0.50000000000E+01 0.  1.
</event>
<event>
 4    1  0.4973396E-021  0.5000050E+01  0.7818608E-02  0.2136455E+00
        -11   -1    0    0    0    0  0.00000000000E+00  0.00000000000E+00  0.50000499739E+01  0.50000500000E+01  0.51100000000E-03 0.  1.
         11   -1    0    0    0    0 -0.00000000000E+00 -0.00000000000E+00 -0.50000499739E+01  0.50000500000E+01  0.51100000000E-03 0. -1.
         50    1    1    2    0    0 -0.43413572672E-02 -0.66415708750E-02 -0.20905612964E-01  0.50000500000E+01  0.50000000000E+01 0.  0.
         50    1    1    2    0    0  0.43413572672E-02  0.66415708750E-02  0.20905612964E-01  0.50000500000E+01  0.50000000000E+01 0.  1.
</event>
<event>
 4    1  0.4973396E-021  0.5000050E+01  0.7818608E-02  0.2136455E+00
        -11   -1    0    0    0    0  0.00000000000E+00  0.00000000000E+00  0.50000499739E+01  0.50000500000E+01  0.51100000000E-03 0. -1.
         11   -1    0    0    0    0 -0.00000000000E+00 -0.00000000000E+00 -0.50000499739E+01  0.50000500000E+01  0.51100000000E-03 0.  1.
         50    1    1    2    0    0 -0.12941474622E-01  0.12389074277E-01  0.13380268053E-01  0.50000500000E+01  0.50000000000E+01 0.  0.
         50    1    1    2    0    0  0.12941474622E-01 -0.12389074277E-01 -0.13380268053E-01  0.50000500000E+01  0.50000000000E+01 0.  0.
</event>
<event>
 4    1  0.4973396E-021  0.5000050E+01  0.7818608E-02  0.2136455E+00
        -11   -1    0    0    0    0  0.00000000000E+00  0.00000000000E+00  0.50000499739E+01  0.50000500000E+01  0.51100000000E-03 0. -1.
         11   -1    0    0    0    0 -0.00000000000E+00 -0.00000000000E+00 -0.50000499739E+01  0.50000500000E+01  0.51100000000E-03 0.  1.
         50    1    1    2    0    0 -0.15415283364E-01  0.91474047905E-02  0.13367741933E-01  0.50000500000E+01  0.50000000000E+01 0.  0.
         50    1    1    2    0    0  0.15415283364E-01 -0.91474047905E-02 -0.13367741933E-01  0.50000500000E+01  0.50000000000E+01 0. -1.
</event>
<event>
 4    1  0.4973396E-021  0.5000050E+01  0.7818608E-02  0.2136455E+00
        -11   -1    0    0    0    0  0.00000000000E+00  0.00000000000E+00  0.50000499739E+01  0.50000500000E+01  0.51100000000E-03 0. -1.
         11   -1    0    0    0    0 -0.00000000000E+00 -0.00000000000E+00 -0.50000499739E+01  0.50000500000E+01  0.51100000000E-03 0.  1.
         50    1    1    2    0    0  0.11595240532E-01  0.54083614985E-02 -0.18338552912E-01  0.50000500000E+01  0.50000000000E+01 0.  0.
         50    1    1    2    0    0 -0.11595240532E-01 -0.54083614985E-02  0.18338552912E-01  0.50000500000E+01  0.50000000000E+01 0.  0.
</event>
<event>
 4    1  0.4973396E-021  0.5000050E+01  0.7818608E-02  0.2136455E+00
        -11   -1    0    0    0    0  0.00000000000E+00  0.00000000000E+00  0.50000499739E+01  0.50000500000E+01  0.51100000000E-03 0.  1.
         11   -1    0    0    0    0 -0.00000000000E+00 -0.00000000000E+00 -0.50000499739E+01  0.50000500000E+01  0.51100000000E-03 0. -1.
         50    1    1    2    0    0  0.19688051090E-01  0.63891545275E-02 -0.84594236631E-02  0.50000500000E+01  0.50000000000E+01 0.  1.
         50    1    1    2    0    0 -0.19688051090E-01 -0.63891545275E-02  0.84594236631E-02  0.50000500000E+01  0.50000000000E+01 0.  0.
</event>
<event>
 4    1  0.4973396E-021  0.5000050E+01  0.7818608E-02  0.2136455E+00
        -11   -1    0    0    0    0  0.00000000000E+00  0.00000000000E+00  0.50000499739E+01  0.50000500000E+01  0.51100000000E-03 0.  1.
         11   -1    0    0    0    0 -0.00000000000E+00 -0.00000000000E+00 -0.50000499739E+01  0.50000500000E+01  0.51100000000E-03 0. -1.
         50    1    1    2    0    0  0.15080801058E-02 -0.11123722113E-01  0.19338846934E-01  0.50000500000E+01  0.50000000000E+01 0.  1.
         50    1    1    2    0    0 -0.15080801058E-02  0.11123722113E-01 -0.19338846934E-01  0.50000500000E+01  0.50000000000E+01 0. -1.
</event>
<event>
 4    1  0.4973396E-021  0.5000050E+01  0.7818608E-02  0.2136455E+00
        -11   -1    0    0    0    0  0.00000000000E+00  0.00000000000E+00  0.50000499739E+01  0.50000500000E+01  0.51100000000E-03 0.  1.
         11   -1    0    0    0    0 -0.00000000000E+00 -0.00000000000E+00 -0.50000499739E+01  0.50000500000E+01  0.51100000000E-03 0. -1.
         50    1    1    2    0    0 -0.16757114612E-01 -0.92165830788E-02  0.11586898042E-01  0.50000500000E+01  0.50000000000E+01 0.  1.
         50    1    1    2    0    0  0.16757114612E-01  0.92165830788E-02 -0.11586898042E-01  0.50000500000E+01  0.50000000000E+01 0. -1.
</event>
<event>
 4    1  0.4973396E-021  0.5000050E+01  0.7818608E-02  0.2136455E+00
        -11   -1    0    0    0    0  0.00000000000E+00  0.00000000000E+00  0.50000499739E+01  0.50000500000E+01  0.51100000000E-03 0. -1.
         11   -1    0    0    0    0 -0.00000000000E+00 -0.00000000000E+00 -0.50000499739E+01  0.50000500000E+01  0.51100000000E-03 0.  1.
         50    1    1    2    0    0 -0.16342486906E-01 -0.16748356522E-02 -0.15169724693E-01  0.50000500000E+01  0.50000000000E+01 0.  1.
         50    1    1    2    0    0  0.16342486906E-01  0.16748356522E-02  0.15169724693E-01  0.50000500000E+01  0.50000000000E+01 0. -1.
</event>
<event>
 4    1  0.4973396E-021  0.5000050E+01  0.7818608E-02  0.2136455E+00
        -11   -1    0    0    0    0  0.00000000000E+00  0.00000000000E+00  0.50000499739E+01  0.50000500000E+01  0.51100000000E-03 0.  1.
         11   -1    0    0    0    0 -0.00000000000E+00 -0.00000000000E+00 -0.50000499739E+01  0.50000500000E+01  0.51100000000E-03 0. -1.
         50    1    1    2    0    0  0.45336289761E-02 -0.16098755880E-01  0.14841791247E-01  0.50000500000E+01  0.50000000000E+01 0.  1.
         50    1    1    2    0    0 -0.45336289761E-02  0.16098755880E-01 -0.14841791247E-01  0.50000500000E+01  0.50000000000E+01 0. -1.
</event>
<event>
 4    1  0.4973396E-021  0.5000050E+01  0.7818608E-02  0.2136455E+00
        -11   -1    0    0    0    0  0.00000000000E+00  0.00000000000E+00  0.50000499739E+01  0.50000500000E+01  0.51100000000E-03 0.  1.
         11   -1    0    0    0    0 -0.00000000000E+00 -0.00000000000E+00 -0.50000499739E+01  0.50000500000E+01  0.51100000000E-03 0. -1.
         50    1    1    2    0    0  0.33604148601E-02 -0.52396716256E-02 -0.21476870191E-01  0.50000500000E+01  0.50000000000E+01 0. -1.
         50    1    1    2    0    0 -0.33604148601E-02  0.52396716256E-02  0.21476870191E-01  0.50000500000E+01  0.50000000000E+01 0.  0.
</event>
<event>
 4    1  0.4973396E-021  0.5000050E+01  0.7818608E-02  0.2136455E+00
        -11   -1    0    0    0    0  0.00000000000E+00  0.00000000000E+00  0.50000499739E+01  0.50000500000E+01  0.51100000000E-03 0. -1.
         11   -1    0    0    0    0 -0.00000000000E+00 -0.00000000000E+00 -0.50000499739E+01  0.50000500000E+01  0.51100000000E-03 0.  1.
         50    1    1    2    0    0 -0.18156275624E-01 -0.42168377323E-02  0.12351940536E-01  0.50000500000E+01  0.50000000000E+01 0.  0.
         50    1    1    2    0    0  0.18156275624E-01  0.42168377323E-02 -0.12351940536E-01  0.50000500000E+01  0.50000000000E+01 0.  0.
</event>
<event>
 4    1  0.4973396E-021  0.5000050E+01  0.7818608E-02  0.2136455E+00
        -11   -1    0    0    0    0  0.00000000000E+00  0.00000000000E+00  0.50000499739E+01  0.50000500000E+01  0.51100000000E-03 0.  1.
         11   -1    0    0    0    0 -0.00000000000E+00 -0.00000000000E+00 -0.50000499739E+01  0.50000500000E+01  0.51100000000E-03 0. -1.
         50    1    1    2    0    0 -0.63664834201E-02  0.89387663654E-02 -0.19482526651E-01  0.50000500000E+01  0.50000000000E+01 0.  1.
         50    1    1    2    0    0  0.63664834201E-02 -0.89387663654E-02  0.19482526651E-01  0.50000500000E+01  0.50000000000E+01 0.  1.
</event>
<event>
 4    1  0.4973396E-021  0.5000050E+01  0.7818608E-02  0.2136455E+00
        -11   -1    0    0    0    0  0.00000000000E+00  0.00000000000E+00  0.50000499739E+01  0.50000500000E+01  0.51100000000E-03 0.  1.
         11   -1    0    0    0    0 -0.00000000000E+00 -0.00000000000E+00 -0.50000499739E+01  0.50000500000E+01  0.51100000000E-03 0. -1.
         50    1    1    2    0    0 -0.16351732541E-02  0.18632034989E-01 -0.12254630985E-01  0.50000500000E+01  0.50000000000E+01 0. -1.
         50    1    1    2    0    0  0.16351732541E-02 -0.18632034989E-01  0.12254630985E-01  0.50000500000E+01  0.50000000000E+01 0. -1.
</event>
<event>
 4    1  0.4973396E-021  0.5000050E+01  0.7818608E-02  0.2136455E+00
        -11   -1    0    0    0    0  0.00000000000E+00  0.00000000000E+00  0.50000499739E+01  0.50000500000E+01  0.51100000000E-03 0.  1.
         11   -1    0    0    0    0 -0.00000000000E+00 -0.00000000000E+00 -0.50000499739E+01  0.50000500000E+01  0.51100000000E-03 0. -1.
         50    1    1    2    0    0  0.18789851259E-02  0.22171700882E-01  0.22107905633E-02  0.50000500000E+01  0.50000000000E+01 0.  1.
         50    1    1    2    0    0 -0.18789851259E-02 -0.22171700882E-01 -0.22107905633E-02  0.50000500000E+01  0.50000000000E+01 0. -1.
</event>
<event>
 4    1  0.4973396E-021  0.5000050E+01  0.7818608E-02  0.2136455E+00
        -11   -1    0    0    0    0  0.00000000000E+00  0.00000000000E+00  0.50000499739E+01  0.50000500000E+01  0.51100000000E-03 0.  1.
         11   -1    0    0    0    0 -0.00000000000E+00 -0.00000000000E+00 -0.50000499739E+01  0.50000500000E+01  0.51100000000E-03 0. -1.
         50    1    1    2    0    0  0.13554501389E-01  0.44574232120E-02 -0.17216543509E-01  0.50000500000E+01  0.50000000000E+01 0. -1.
         50    1    1    2    0    0 -0.13554501389E-01 -0.44574232120E-02  0.17216543509E-01  0.50000500000E+01  0.50000000000E+01 0.  1.
</event>
<event>
 4    1  0.4973396E-021  0.5000050E+01  0.7818608E-02  0.2136455E+00
        -11   -1    0    0    0    0  0.00000000000E+00  0.00000000000E+00  0.50000499739E+01  0.50000500000E+01  0.51100000000E-03 0.  1.
         11   -1    0    0    0    0 -0.00000000000E+00 -0.00000000000E+00 -0.50000499739E+01  0.50000500000E+01  0.51100000000E-03 0. -1.
         50    1    1    2    0    0 -0.11644888686E-01 -0.10522880268E-01 -0.15926960110E-01  0.50000500000E+01  0.50000000000E+01 0. -1.
         50    1    1    2    0    0  0.11644888686E-01  0.10522880268E-01  0.15926960110E-01  0.50000500000E+01  0.50000000000E+01 0.  1.
</event>
<event>
 4    1  0.4973396E-021  0.5000050E+01  0.7818608E-02  0.2136455E+00
        -11   -1    0    0    0    0  0.00000000000E+00  0.00000000000E+00  0.50000499739E+01  0.50000500000E+01  0.51100000000E-03 0.  1.
         11   -1    0    0    0    0 -0.00000000000E+00 -0.00000000000E+00 -0.50000499739E+01  0.50000500000E+01  0.51100000000E-03 0. -1.
         50    1    1    2    0    0  0.61258577239E-02  0.20150026665E-01 -0.75135073391E-02  0.50000500000E+01  0.50000000000E+01 0.  0.
         50    1    1    2    0    0 -0.61258577239E-02 -0.20150026665E-01  0.75135073391E-02  0.50000500000E+01  0.50000000000E+01 0. -1.
</event>
<event>
 4    1  0.4973396E-021  0.5000050E+01  0.7818608E-02  0.2136455E+00
        -11   -1    0    0    0    0  0.00000000000E+00  0.00000000000E+00  0.50000499739E+01  0.50000500000E+01  0.51100000000E-03 0.  1.
         11   -1    0    0    0    0 -0.00000000000E+00 -0.00000000000E+00 -0.50000499739E+01  0.50000500000E+01  0.51100000000E-03 0. -1.
         50    1    1    2    0    0  0.20111394961E-01 -0.89641599129E-02  0.38959119289E-02  0.50000500000E+01  0.50000000000E+01 0. -1.
         50    1    1    2    0    0 -0.20111394961E-01  0.89641599129E-02 -0.38959119289E-02  0.50000500000E+01  0.50000000000E+01 0.  1.
</event>
<event>
 4    1  0.4973396E-021  0.5000050E+01  0.7818608E-02  0.2136455E+00
        -11   -1    0    0    0    0  0.00000000000E+00  0.00000000000E+00  0.50000499739E+01  0.50000500000E+01  0.51100000000E-03 0.  1.
         11   -1    0    0    0    0 -0.00000000000E+00 -0.00000000000E+00 -0.50000499739E+01  0.50000500000E+01  0.51100000000E-03 0. -1.
         50    1    1    2    0    0  0.43250616107E-03 -0.19060789365E-02 -0.22275149865E-01  0.50000500000E+01  0.50000000000E+01 0.  0.
         50    1    1    2    0    0 -0.43250616107E-03  0.19060789365E-02  0.22275149865E-01  0.50000500000E+01  0.50000000000E+01 0.  1.
</event>
<event>
 4    1  0.4973396E-021  0.5000050E+01  0.7818608E-02  0.2136455E+00
        -11   -1    0    0    0    0  0.00000000000E+00  0.00000000000E+00  0.50000499739E+01  0.50000500000E+01  0.51100000000E-03 0. -1.
         11   -1    0    0    0    0 -0.00000000000E+00 -0.00000000000E+00 -0.50000499739E+01  0.50000500000E+01  0.51100000000E-03 0.  1.
         50    1    1    2    0    0  0.29333459292E-02 -0.10649226734E-01 -0.19442015112E-01  0.50000500000E+01  0.50000000000E+01 0.  1.
         50    1    1    2    0    0 -0.29333459292E-02  0.10649226734E-01  0.19442015112E-01  0.50000500000E+01  0.50000000000E+01 0.  0.
</event>
<event>
 4    1  0.4973396E-021  0.5000050E+01  0.7818608E-02  0.2136455E+00
        -11   -1    0    0    0    0  0.00000000000E+00  0.00000000000E+00  0.50000499739E+01  0.50000500000E+01  0.51100000000E-03 0.  1.
         11   -1    0    0    0    0 -0.00000000000E+00 -0.00000000000E+00 -0.50000499739E+01  0.50000500000E+01  0.51100000000E-03 0. -1.
         50    1    1    2    0    0  0.64796072414E-02 -0.13564677778E-01 -0.16553449996E-01  0.50000500000E+01  0.50000000000E+01 0. -1.
         50    1    1    2    0    0 -0.64796072414E-02  0.13564677778E-01  0.16553449996E-01  0.50000500000E+01  0.50000000000E+01 0.  1.
</event>
<event>
 4    1  0.4973396E-021  0.5000050E+01  0.7818608E-02  0.2136455E+00
        -11   -1    0    0    0    0  0.00000000000E+00  0.00000000000E+00  0.50000499739E+01  0.50000500000E+01  0.51100000000E-03 0.  1.
         11   -1    0    0    0    0 -0.00000000000E+00 -0.00000000000E+00 -0.50000499739E+01  0.50000500000E+01  0.51100000000E-03 0. -1.
         50    1    1    2    0    0 -0.25689721150E-02 -0.21007076364E-01  0.72184226043E-02  0.50000500000E+01  0.50000000000E+01 0. -1.
         50    1    1    2    0    0  0.25689721150E-02  0.21007076364E-01 -0.72184226043E-02  0.50000500000E+01  0.50000000000E+01 0.  1.
</event>
<event>
 4    1  0.4973396E-021  0.5000050E+01  0.7818608E-02  0.2136455E+00
        -11   -1    0    0    0    0  0.00000000000E+00  0.00000000000E+00  0.50000499739E+01  0.50000500000E+01  0.51100000000E-03 0.  1.
         11   -1    0    0    0    0 -0.00000000000E+00 -0.00000000000E+00 -0.50000499739E+01  0.50000500000E+01  0.51100000000E-03 0. -1.
         50    1    1    2    0    0 -0.18338458052E-01  0.57745262395E-02  0.11417456064E-01  0.50000500000E+01  0.50000000000E+01 0. -1.
         50    1    1    2    0    0  0.18338458052E-01 -0.57745262395E-02 -0.11417456064E-01  0.50000500000E+01  0.50000000000E+01 0.  0.
</event>
<event>
 4    1  0.4973396E-021  0.5000050E+01  0.7818608E-02  0.2136455E+00
        -11   -1    0    0    0    0  0.00000000000E+00  0.00000000000E+00  0.50000499739E+01  0.50000500000E+01  0.51100000000E-03 0.  1.
         11   -1    0    0    0    0 -0.00000000000E+00 -0.00000000000E+00 -0.50000499739E+01  0.50000500000E+01  0.51100000000E-03 0. -1.
         50    1    1    2    0    0 -0.91913020983E-02  0.13573789359E-01  0.15207718704E-01  0.50000500000E+01  0.50000000000E+01 0.  1.
         50    1    1    2    0    0  0.91913020983E-02 -0.13573789359E-01 -0.15207718704E-01  0.50000500000E+01  0.50000000000E+01 0. -1.
</event>
<event>
 4    1  0.4973396E-021  0.5000050E+01  0.7818608E-02  0.2136455E+00
        -11   -1    0    0    0    0  0.00000000000E+00  0.00000000000E+00  0.50000499739E+01  0.50000500000E+01  0.51100000000E-03 0. -1.
         11   -1    0    0    0    0 -0.00000000000E+00 -0.00000000000E+00 -0.50000499739E+01  0.50000500000E+01  0.51100000000E-03 0.  1.
         50    1    1    2    0    0  0.13794215232E-01  0.14237115843E-01 -0.10345368945E-01  0.50000500000E+01  0.50000000000E+01 0.  1.
         50    1    1    2    0    0 -0.13794215232E-01 -0.14237115843E-01  0.10345368945E-01  0.50000500000E+01  0.50000000000E+01 0.  1.
</event>
<event>
 4    1  0.4973396E-021  0.5000050E+01  0.7818608E-02  0.2136455E+00
        -11   -1    0    0    0    0  0.00000000000E+00  0.00000000000E+00  0.50000499739E+01  0.50000500000E+01  0.51100000000E-03 0. -1.
         11   -1    0    0    0    0 -0.00000000000E+00 -0.00000000000E+00 -0.50000499739E+01  0.50000500000E+01  0.51100000000E-03 0.  1.
         50    1    1    2    0    0  0.21937573430E-01  0.84066747741E-03  0.42471932117E-02  0.50000500000E+01  0.50000000000E+01 0. -1.
         50    1    1    2    0    0 -0.21937573430E-01 -0.84066747741E-03 -0.42471932117E-02  0.50000500000E+01  0.50000000000E+01 0.  1.
</event>
<event>
 4    1  0.4973396E-021  0.5000050E+01  0.7818608E-02  0.2136455E+00
        -11   -1    0    0    0    0  0.00000000000E+00  0.00000000000E+00  0.50000499739E+01  0.50000500000E+01  0.51100000000E-03 0.  1.
         11   -1    0    0    0    0 -0.00000000000E+00 -0.00000000000E+00 -0.50000499739E+01  0.50000500000E+01  0.51100000000E-03 0. -1.
         50    1    1    2    0    0  0.85813353853E-02 -0.69518985449E-02  0.19443103909E-01  0.50000500000E+01  0.50000000000E+01 0.  0.
         50    1    1    2    0    0 -0.85813353853E-02  0.69518985449E-02 -0.19443103909E-01  0.50000500000E+01  0.50000000000E+01 0. -1.
</event>
<event>
 4    1  0.4973396E-021  0.5000050E+01  0.7818608E-02  0.2136455E+00
        -11   -1    0    0    0    0  0.00000000000E+00  0.00000000000E+00  0.50000499739E+01  0.50000500000E+01  0.51100000000E-03 0. -1.
         11   -1    0    0    0    0 -0.00000000000E+00 -0.00000000000E+00 -0.50000499739E+01  0.50000500000E+01  0.51100000000E-03 0.  1.
         50    1    1    2    0    0  0.15103223141E-01 -0.14432578046E-01 -0.79747001006E-02  0.50000500000E+01  0.50000000000E+01 0.  1.
         50    1    1    2    0    0 -0.15103223141E-01  0.14432578046E-01  0.79747001006E-02  0.50000500000E+01  0.50000000000E+01 0. -1.
</event>
<event>
 4    1  0.4973396E-021  0.5000050E+01  0.7818608E-02  0.2136455E+00
        -11   -1    0    0    0    0  0.00000000000E+00  0.00000000000E+00  0.50000499739E+01  0.50000500000E+01  0.51100000000E-03 0. -1.
         11   -1    0    0    0    0 -0.00000000000E+00 -0.00000000000E+00 -0.50000499739E+01  0.50000500000E+01  0.51100000000E-03 0.  1.
         50    1    1    2    0    0 -0.19504536806E-01  0.64774319833E-02  0.88101316045E-02  0.50000500000E+01  0.50000000000E+01 0.  1.
         50    1    1    2    0    0  0.19504536806E-01 -0.64774319833E-02 -0.88101316045E-02  0.50000500000E+01  0.50000000000E+01 0.  0.
</event>
<event>
 4    1  0.4973396E-021  0.5000050E+01  0.7818608E-02  0.2136455E+00
        -11   -1    0    0    0    0  0.00000000000E+00  0.00000000000E+00  0.50000499739E+01  0.50000500000E+01  0.51100000000E-03 0. -1.
         11   -1    0    0    0    0 -0.00000000000E+00 -0.00000000000E+00 -0.50000499739E+01  0.50000500000E+01  0.51100000000E-03 0.  1.
         50    1    1    2    0    0  0.10809823016E-01  0.18333150411E-01  0.68589957256E-02  0.50000500000E+01  0.50000000000E+01 0.  1.
         50    1    1    2    0    0 -0.10809823016E-01 -0.18333150411E-01 -0.68589957256E-02  0.50000500000E+01  0.50000000000E+01 0.  0.
</event>
<event>
 4    1  0.4973396E-021  0.5000050E+01  0.7818608E-02  0.2136455E+00
        -11   -1    0    0    0    0  0.00000000000E+00  0.00000000000E+00  0.50000499739E+01  0.50000500000E+01  0.51100000000E-03 0. -1.
         11   -1    0    0    0    0 -0.00000000000E+00 -0.00000000000E+00 -0.50000499739E+01  0.50000500000E+01  0.51100000000E-03 0.  1.
         50    1    1    2    0    0  0.19729426411E-01 -0.32419957249E-02 -0.10012077567E-01  0.50000500000E+01  0.50000000000E+01 0.  0.
         50    1    1    2    0    0 -0.19729426411E-01  0.32419957249E-02  0.10012077567E-01  0.50000500000E+01  0.50000000000E+01 0.  0.
</event>
<event>
 4    1  0.4973396E-021  0.5000050E+01  0.7818608E-02  0.2136455E+00
        -11   -1    0    0    0    0  0.00000000000E+00  0.00000000000E+00  0.50000499739E+01  0.50000500000E+01  0.51100000000E-03 0.  1.
         11   -1    0    0    0    0 -0.00000000000E+00 -0.00000000000E+00 -0.50000499739E+01  0.50000500000E+01  0.51100000000E-03 0. -1.
         50    1    1    2    0    0  0.73582410882E-03 -0.19427925209E-01 -0.11046120811E-01  0.50000500000E+01  0.50000000000E+01 0.  0.
         50    1    1    2    0    0 -0.73582410882E-03  0.19427925209E-01  0.11046120811E-01  0.50000500000E+01  0.50000000000E+01 0.  0.
</event>
<event>
 4    1  0.4973396E-021  0.5000050E+01  0.7818608E-02  0.2136455E+00
        -11   -1    0    0    0    0  0.00000000000E+00  0.00000000000E+00  0.50000499739E+01  0.50000500000E+01  0.51100000000E-03 0.  1.
         11   -1    0    0    0    0 -0.00000000000E+00 -0.00000000000E+00 -0.50000499739E+01  0.50000500000E+01  0.51100000000E-03 0. -1.
         50    1    1    2    0    0  0.20427270709E-01 -0.63401276853E-02  0.65216479742E-02  0.50000500000E+01  0.50000000000E+01 0.  1.
         50    1    1    2    0    0 -0.20427270709E-01  0.63401276853E-02 -0.65216479742E-02  0.50000500000E+01  0.50000000000E+01 0. -1.
</event>
<event>
 4    1  0.4973396E-021  0.5000050E+01  0.7818608E-02  0.2136455E+00
        -11   -1    0    0    0    0  0.00000000000E+00  0.00000000000E+00  0.50000499739E+01  0.50000500000E+01  0.51100000000E-03 0. -1.
         11   -1    0    0    0    0 -0.00000000000E+00 -0.00000000000E+00 -0.50000499739E+01  0.50000500000E+01  0.51100000000E-03 0.  1.
         50    1    1    2    0    0  0.14998217774E-01 -0.39752924874E-02 -0.16101335759E-01  0.50000500000E+01  0.50000000000E+01 0.  1.
         50    1    1    2    0    0 -0.14998217774E-01  0.39752924874E-02  0.16101335759E-01  0.50000500000E+01  0.50000000000E+01 0. -1.
</event>
<event>
 4    1  0.4973396E-021  0.5000050E+01  0.7818608E-02  0.2136455E+00
        -11   -1    0    0    0    0  0.00000000000E+00  0.00000000000E+00  0.50000499739E+01  0.50000500000E+01  0.51100000000E-03 0. -1.
         11   -1    0    0    0    0 -0.00000000000E+00 -0.00000000000E+00 -0.50000499739E+01  0.50000500000E+01  0.51100000000E-03 0.  1.
         50    1    1    2    0    0  0.13923420737E-01 -0.15415259044E-01 -0.82771156574E-02  0.50000500000E+01  0.50000000000E+01 0.  1.
         50    1    1    2    0    0 -0.13923420737E-01  0.15415259044E-01  0.82771156574E-02  0.50000500000E+01  0.50000000000E+01 0. -1.
</event>
<event>
 4    1  0.4973396E-021  0.5000050E+01  0.7818608E-02  0.2136455E+00
        -11   -1    0    0    0    0  0.00000000000E+00  0.00000000000E+00  0.50000499739E+01  0.50000500000E+01  0.51100000000E-03 0.  1.
         11   -1    0    0    0    0 -0.00000000000E+00 -0.00000000000E+00 -0.50000499739E+01  0.50000500000E+01  0.51100000000E-03 0. -1.
         50    1    1    2    0    0  0.12520451682E-01  0.18526598767E-01  0.76992155455E-04  0.50000500000E+01  0.50000000000E+01 0.  1.
         50    1    1    2    0    0 -0.12520451682E-01 -0.18526598767E-01 -0.76992155455E-04  0.50000500000E+01  0.50000000000E+01 0.  0.
</event>
<event>
 4    1  0.4973396E-021  0.5000050E+01  0.7818608E-02  0.2136455E+00
        -11   -1    0    0    0    0  0.00000000000E+00  0.00000000000E+00  0.50000499739E+01  0.50000500000E+01  0.51100000000E-03 0.  1.
         11   -1    0    0    0    0 -0.00000000000E+00 -0.00000000000E+00 -0.50000499739E+01  0.50000500000E+01  0.51100000000E-03 0. -1.
         50    1    1    2    0    0  0.95728725949E-02  0.19486481120E-01 -0.53516038560E-02  0.50000500000E+01  0.50000000000E+01 0.  0.
         50    1    1    2    0    0 -0.95728725949E-02 -0.19486481120E-01  0.53516038560E-02  0.50000500000E+01  0.50000000000E+01 0.  0.
</event>
<event>
 4    1  0.4973396E-021  0.5000050E+01  0.7818608E-02  0.2136455E+00
        -11   -1    0    0    0    0  0.00000000000E+00  0.00000000000E+00  0.50000499739E+01  0.50000500000E+01  0.51100000000E-03 0. -1.
         11   -1    0    0    0    0 -0.00000000000E+00 -0.00000000000E+00 -0.50000499739E+01  0.50000500000E+01  0.51100000000E-03 0.  1.
         50    1    1    2    0    0 -0.12615582854E-01  0.13500678248E-01  0.12592904990E-01  0.50000500000E+01  0.50000000000E+01 0.  1.
         50    1    1    2    0    0  0.12615582854E-01 -0.13500678248E-01 -0.12592904990E-01  0.50000500000E+01  0.50000000000E+01 0.  0.
</event>
<event>
 4    1  0.4973396E-021  0.5000050E+01  0.7818608E-02  0.2136455E+00
        -11   -1    0    0    0    0  0.00000000000E+00  0.00000000000E+00  0.50000499739E+01  0.50000500000E+01  0.51100000000E-03 0.  1.
         11   -1    0    0    0    0 -0.00000000000E+00 -0.00000000000E+00 -0.50000499739E+01  0.50000500000E+01  0.51100000000E-03 0. -1.
         50    1    1    2    0    0  0.20545387685E-01 -0.27286946550E-02 -0.83930787178E-02  0.50000500000E+01  0.50000000000E+01 0.  0.
         50    1    1    2    0    0 -0.20545387685E-01  0.27286946550E-02  0.83930787178E-02  0.50000500000E+01  0.50000000000E+01 0. -1.
</event>
<event>
 4    1  0.4973396E-021  0.5000050E+01  0.7818608E-02  0.2136455E+00
        -11   -1    0    0    0    0  0.00000000000E+00  0.00000000000E+00  0.50000499739E+01  0.50000500000E+01  0.51100000000E-03 0. -1.
         11   -1    0    0    0    0 -0.00000000000E+00 -0.00000000000E+00 -0.50000499739E+01  0.50000500000E+01  0.51100000000E-03 0.  1.
         50    1    1    2    0    0 -0.51704868925E-03  0.52522841164E-02  0.21728982310E-01  0.50000500000E+01  0.50000000000E+01 0. -1.
         50    1    1    2    0    0  0.51704868925E-03 -0.52522841164E-02 -0.21728982310E-01  0.50000500000E+01  0.50000000000E+01 0.  0.
</event>
<event>
 4    1  0.4973396E-021  0.5000050E+01  0.7818608E-02  0.2136455E+00
        -11   -1    0    0    0    0  0.00000000000E+00  0.00000000000E+00  0.50000499739E+01  0.50000500000E+01  0.51100000000E-03 0. -1.
         11   -1    0    0    0    0 -0.00000000000E+00 -0.00000000000E+00 -0.50000499739E+01  0.50000500000E+01  0.51100000000E-03 0.  1.
         50    1    1    2    0    0 -0.13562027253E-01 -0.17774950092E-01  0.35364674357E-03  0.50000500000E+01  0.50000000000E+01 0.  0.
         50    1    1    2    0    0  0.13562027253E-01  0.17774950092E-01 -0.35364674357E-03  0.50000500000E+01  0.50000000000E+01 0. -1.
</event>
<event>
 4    1  0.4973396E-021  0.5000050E+01  0.7818608E-02  0.2136455E+00
        -11   -1    0    0    0    0  0.00000000000E+00  0.00000000000E+00  0.50000499739E+01  0.50000500000E+01  0.51100000000E-03 0. -1.
         11   -1    0    0    0    0 -0.00000000000E+00 -0.00000000000E+00 -0.50000499739E+01  0.50000500000E+01  0.51100000000E-03 0.  1.
         50    1    1    2    0    0 -0.35534152864E-03  0.22350118353E-01 -0.59028975276E-03  0.50000500000E+01  0.50000000000E+01 0. -1.
         50    1    1    2    0    0  0.35534152864E-03 -0.22350118353E-01  0.59028975276E-03  0.50000500000E+01  0.50000000000E+01 0.  1.
</event>
<event>
 4    1  0.4973396E-021  0.5000050E+01  0.7818608E-02  0.2136455E+00
        -11   -1    0    0    0    0  0.00000000000E+00  0.00000000000E+00  0.50000499739E+01  0.50000500000E+01  0.51100000000E-03 0. -1.
         11   -1    0    0    0    0 -0.00000000000E+00 -0.00000000000E+00 -0.50000499739E+01  0.50000500000E+01  0.51100000000E-03 0.  1.
         50    1    1    2    0    0  0.27369577983E-02  0.71702657731E-02  0.21002353457E-01  0.50000500000E+01  0.50000000000E+01 0. -1.
         50    1    1    2    0    0 -0.27369577983E-02 -0.71702657731E-02 -0.21002353457E-01  0.50000500000E+01  0.50000000000E+01 0.  0.
</event>
<event>
 4    1  0.4973396E-021  0.5000050E+01  0.7818608E-02  0.2136455E+00
        -11   -1    0    0    0    0  0.00000000000E+00  0.00000000000E+00  0.50000499739E+01  0.50000500000E+01  0.51100000000E-03 0.  1.
         11   -1    0    0    0    0 -0.00000000000E+00 -0.00000000000E+00 -0.50000499739E+01  0.50000500000E+01  0.51100000000E-03 0. -1.
         50    1    1    2    0    0  0.15399959761E-01 -0.14845200847E-01  0.65164216534E-02  0.50000500000E+01  0.50000000000E+01 0. -1.
         50    1    1    2    0    0 -0.15399959761E-01  0.14845200847E-01 -0.65164216534E-02  0.50000500000E+01  0.50000000000E+01 0.  0.
</event>
<event>
 4    1  0.4973396E-021  0.5000050E+01  0.7818608E-02  0.2136455E+00
        -11   -1    0    0    0    0  0.00000000000E+00  0.00000000000E+00  0.50000499739E+01  0.50000500000E+01  0.51100000000E-03 0. -1.
         11   -1    0    0    0    0 -0.00000000000E+00 -0.00000000000E+00 -0.50000499739E+01  0.50000500000E+01  0.51100000000E-03 0.  1.
         50    1    1    2    0    0  0.17723648623E-01 -0.72093107294E-02 -0.11571543471E-01  0.50000500000E+01  0.50000000000E+01 0. -1.
         50    1    1    2    0    0 -0.17723648623E-01  0.72093107294E-02  0.11571543471E-01  0.50000500000E+01  0.50000000000E+01 0. -1.
</event>
<event>
 4    1  0.4973396E-021  0.5000050E+01  0.7818608E-02  0.2136455E+00
        -11   -1    0    0    0    0  0.00000000000E+00  0.00000000000E+00  0.50000499739E+01  0.50000500000E+01  0.51100000000E-03 0. -1.
         11   -1    0    0    0    0 -0.00000000000E+00 -0.00000000000E+00 -0.50000499739E+01  0.50000500000E+01  0.51100000000E-03 0.  1.
         50    1    1    2    0    0  0.16062350674E-01  0.12606227441E-01  0.91151752881E-02  0.50000500000E+01  0.50000000000E+01 0.  0.
         50    1    1    2    0    0 -0.16062350674E-01 -0.12606227441E-01 -0.91151752881E-02  0.50000500000E+01  0.50000000000E+01 0.  0.
</event>
<event>
 4    1  0.4973396E-021  0.5000050E+01  0.7818608E-02  0.2136455E+00
        -11   -1    0    0    0    0  0.00000000000E+00  0.00000000000E+00  0.50000499739E+01  0.50000500000E+01  0.51100000000E-03 0. -1.
         11   -1    0    0    0    0 -0.00000000000E+00 -0.00000000000E+00 -0.50000499739E+01  0.50000500000E+01  0.51100000000E-03 0.  1.
         50    1    1    2    0    0 -0.16776820076E-01 -0.14659817977E-01  0.19053989161E-02  0.50000500000E+01  0.50000000000E+01 0. -1.
         50    1    1    2    0    0  0.16776820076E-01  0.14659817977E-01 -0.19053989161E-02  0.50000500000E+01  0.50000000000E+01 0.  0.
</event>
<event>
 4    1  0.4973396E-021  0.5000050E+01  0.7818608E-02  0.2136455E+00
        -11   -1    0    0    0    0  0.00000000000E+00  0.00000000000E+00  0.50000499739E+01  0.50000500000E+01  0.51100000000E-03 0. -1.
         11   -1    0    0    0    0 -0.00000000000E+00 -0.00000000000E+00 -0.50000499739E+01  0.50000500000E+01  0.51100000000E-03 0.  1.
         50    1    1    2    0    0 -0.10701500326E-01  0.10107665091E-01 -0.16831978409E-01  0.50000500000E+01  0.50000000000E+01 0.  0.
         50    1    1    2    0    0  0.10701500326E-01 -0.10107665091E-01  0.16831978409E-01  0.50000500000E+01  0.50000000000E+01 0.  1.
</event>
<event>
 4    1  0.4973396E-021  0.5000050E+01  0.7818608E-02  0.2136455E+00
        -11   -1    0    0    0    0  0.00000000000E+00  0.00000000000E+00  0.50000499739E+01  0.50000500000E+01  0.51100000000E-03 0. -1.
         11   -1    0    0    0    0 -0.00000000000E+00 -0.00000000000E+00 -0.50000499739E+01  0.50000500000E+01  0.51100000000E-03 0.  1.
         50    1    1    2    0    0 -0.31073360793E-02 -0.22028533712E-01  0.22562502013E-02  0.50000500000E+01  0.50000000000E+01 0. -1.
         50    1    1    2    0    0  0.31073360793E-02  0.22028533712E-01 -0.22562502013E-02  0.50000500000E+01  0.50000000000E+01 0.  1.
</event>
<event>
 4    1  0.4973396E-021  0.5000050E+01  0.7818608E-02  0.2136455E+00
        -11   -1    0    0    0    0  0.00000000000E+00  0.00000000000E+00  0.50000499739E+01  0.50000500000E+01  0.51100000000E-03 0.  1.
         11   -1    0    0    0    0 -0.00000000000E+00 -0.00000000000E+00 -0.50000499739E+01  0.50000500000E+01  0.51100000000E-03 0. -1.
         50    1    1    2    0    0 -0.14073684372E-01  0.15986321523E-01  0.68096572847E-02  0.50000500000E+01  0.50000000000E+01 0.  1.
         50    1    1    2    0    0  0.14073684372E-01 -0.15986321523E-01 -0.68096572847E-02  0.50000500000E+01  0.50000000000E+01 0. -1.
</event>
<event>
 4    1  0.4973396E-021  0.5000050E+01  0.7818608E-02  0.2136455E+00
        -11   -1    0    0    0    0  0.00000000000E+00  0.00000000000E+00  0.50000499739E+01  0.50000500000E+01  0.51100000000E-03 0.  1.
         11   -1    0    0    0    0 -0.00000000000E+00 -0.00000000000E+00 -0.50000499739E+01  0.50000500000E+01  0.51100000000E-03 0. -1.
         50    1    1    2    0    0 -0.17036007187E-01  0.22479062786E-03  0.14481934550E-01  0.50000500000E+01  0.50000000000E+01 0.  1.
         50    1    1    2    0    0  0.17036007187E-01 -0.22479062786E-03 -0.14481934550E-01  0.50000500000E+01  0.50000000000E+01 0. -1.
</event>
<event>
 4    1  0.4973396E-021  0.5000050E+01  0.7818608E-02  0.2136455E+00
        -11   -1    0    0    0    0  0.00000000000E+00  0.00000000000E+00  0.50000499739E+01  0.50000500000E+01  0.51100000000E-03 0.  1.
         11   -1    0    0    0    0 -0.00000000000E+00 -0.00000000000E+00 -0.50000499739E+01  0.50000500000E+01  0.51100000000E-03 0. -1.
         50    1    1    2    0    0 -0.43389562795E-02 -0.21930912105E-01  0.45940464790E-03  0.50000500000E+01  0.50000000000E+01 0.  0.
         50    1    1    2    0    0  0.43389562795E-02  0.21930912105E-01 -0.45940464790E-03  0.50000500000E+01  0.50000000000E+01 0. -1.
</event>
<event>
 4    1  0.4973396E-021  0.5000050E+01  0.7818608E-02  0.2136455E+00
        -11   -1    0    0    0    0  0.00000000000E+00  0.00000000000E+00  0.50000499739E+01  0.50000500000E+01  0.51100000000E-03 0.  1.
         11   -1    0    0    0    0 -0.00000000000E+00 -0.00000000000E+00 -0.50000499739E+01  0.50000500000E+01  0.51100000000E-03 0. -1.
         50    1    1    2    0    0 -0.11066390358E-01  0.15618968448E-01  0.11557911967E-01  0.50000500000E+01  0.50000000000E+01 0. -1.
         50    1    1    2    0    0  0.11066390358E-01 -0.15618968448E-01 -0.11557911967E-01  0.50000500000E+01  0.50000000000E+01 0. -1.
</event>
<event>
 4    1  0.4973396E-021  0.5000050E+01  0.7818608E-02  0.2136455E+00
        -11   -1    0    0    0    0  0.00000000000E+00  0.00000000000E+00  0.50000499739E+01  0.50000500000E+01  0.51100000000E-03 0.  1.
         11   -1    0    0    0    0 -0.00000000000E+00 -0.00000000000E+00 -0.50000499739E+01  0.50000500000E+01  0.51100000000E-03 0. -1.
         50    1    1    2    0    0  0.12005849965E-01 -0.46442200699E-02 -0.18283689085E-01  0.50000500000E+01  0.50000000000E+01 0. -1.
         50    1    1    2    0    0 -0.12005849965E-01  0.46442200699E-02  0.18283689085E-01  0.50000500000E+01  0.50000000000E+01 0.  0.
</event>
<event>
 4    1  0.4973396E-021  0.5000050E+01  0.7818608E-02  0.2136455E+00
        -11   -1    0    0    0    0  0.00000000000E+00  0.00000000000E+00  0.50000499739E+01  0.50000500000E+01  0.51100000000E-03 0.  1.
         11   -1    0    0    0    0 -0.00000000000E+00 -0.00000000000E+00 -0.50000499739E+01  0.50000500000E+01  0.51100000000E-03 0. -1.
         50    1    1    2    0    0 -0.35874847190E-02 -0.11573921595E-01  0.18792998491E-01  0.50000500000E+01  0.50000000000E+01 0.  1.
         50    1    1    2    0    0  0.35874847190E-02  0.11573921595E-01 -0.18792998491E-01  0.50000500000E+01  0.50000000000E+01 0. -1.
</event>
<event>
 4    1  0.4973396E-021  0.5000050E+01  0.7818608E-02  0.2136455E+00
        -11   -1    0    0    0    0  0.00000000000E+00  0.00000000000E+00  0.50000499739E+01  0.50000500000E+01  0.51100000000E-03 0.  1.
         11   -1    0    0    0    0 -0.00000000000E+00 -0.00000000000E+00 -0.50000499739E+01  0.50000500000E+01  0.51100000000E-03 0. -1.
         50    1    1    2    0    0 -0.88298604933E-02  0.14766662696E-01 -0.14282217492E-01  0.50000500000E+01  0.50000000000E+01 0.  0.
         50    1    1    2    0    0  0.88298604933E-02 -0.14766662696E-01  0.14282217492E-01  0.50000500000E+01  0.50000000000E+01 0. -1.
</event>
<event>
 4    1  0.4973396E-021  0.5000050E+01  0.7818608E-02  0.2136455E+00
        -11   -1    0    0    0    0  0.00000000000E+00  0.00000000000E+00  0.50000499739E+01  0.50000500000E+01  0.51100000000E-03 0. -1.
         11   -1    0    0    0    0 -0.00000000000E+00 -0.00000000000E+00 -0.50000499739E+01  0.50000500000E+01  0.51100000000E-03 0.  1.
         50    1    1    2    0    0 -0.17373002633E-01 -0.12092324857E-01 -0.72081175816E-02  0.50000500000E+01  0.50000000000E+01 0.  0.
         50    1    1    2    0    0  0.17373002633E-01  0.12092324857E-01  0.72081175816E-02  0.50000500000E+01  0.50000000000E+01 0.  0.
</event>
<event>
 4    1  0.4973396E-021  0.5000050E+01  0.7818608E-02  0.2136455E+00
        -11   -1    0    0    0    0  0.00000000000E+00  0.00000000000E+00  0.50000499739E+01  0.50000500000E+01  0.51100000000E-03 0. -1.
         11   -1    0    0    0    0 -0.00000000000E+00 -0.00000000000E+00 -0.50000499739E+01  0.50000500000E+01  0.51100000000E-03 0.  1.
         50    1    1    2    0    0 -0.16161865914E-01  0.12472894406E-01  0.91226912309E-02  0.50000500000E+01  0.50000000000E+01 0. -1.
         50    1    1    2    0    0  0.16161865914E-01 -0.12472894406E-01 -0.91226912309E-02  0.50000500000E+01  0.50000000000E+01 0.  1.
</event>
<event>
 4    1  0.4973396E-021  0.5000050E+01  0.7818608E-02  0.2136455E+00
        -11   -1    0    0    0    0  0.00000000000E+00  0.00000000000E+00  0.50000499739E+01  0.50000500000E+01  0.51100000000E-03 0. -1.
         11   -1    0    0    0    0 -0.00000000000E+00 -0.00000000000E+00 -0.50000499739E+01  0.50000500000E+01  0.51100000000E-03 0.  1.
         50    1    1    2    0    0  0.67130169541E-02 -0.73317746514E-02  0.20029552762E-01  0.50000500000E+01  0.50000000000E+01 0.  0.
         50    1    1    2    0    0 -0.67130169541E-02  0.73317746514E-02 -0.20029552762E-01  0.50000500000E+01  0.50000000000E+01 0.  1.
</event>
<event>
 4    1  0.4973396E-021  0.5000050E+01  0.7818608E-02  0.2136455E+00
        -11   -1    0    0    0    0  0.00000000000E+00  0.00000000000E+00  0.50000499739E+01  0.50000500000E+01  0.51100000000E-03 0.  1.
         11   -1    0    0    0    0 -0.00000000000E+00 -0.00000000000E+00 -0.50000499739E+01  0.50000500000E+01  0.51100000000E-03 0. -1.
         50    1    1    2    0    0 -0.12850053544E-01 -0.14705999619E-01  0.10890922786E-01  0.50000500000E+01  0.50000000000E+01 0.  1.
         50    1    1    2    0    0  0.12850053544E-01  0.14705999619E-01 -0.10890922786E-01  0.50000500000E+01  0.50000000000E+01 0. -1.
</event>
<event>
 4    1  0.4973396E-021  0.5000050E+01  0.7818608E-02  0.2136455E+00
        -11   -1    0    0    0    0  0.00000000000E+00  0.00000000000E+00  0.50000499739E+01  0.50000500000E+01  0.51100000000E-03 0.  1.
         11   -1    0    0    0    0 -0.00000000000E+00 -0.00000000000E+00 -0.50000499739E+01  0.50000500000E+01  0.51100000000E-03 0. -1.
         50    1    1    2    0    0  0.26871786468E-02  0.21491412932E-01 -0.55588435035E-02  0.50000500000E+01  0.50000000000E+01 0. -1.
         50    1    1    2    0    0 -0.26871786468E-02 -0.21491412932E-01  0.55588435035E-02  0.50000500000E+01  0.50000000000E+01 0.  1.
</event>
<event>
 4    1  0.4973396E-021  0.5000050E+01  0.7818608E-02  0.2136455E+00
        -11   -1    0    0    0    0  0.00000000000E+00  0.00000000000E+00  0.50000499739E+01  0.50000500000E+01  0.51100000000E-03 0.  1.
         11   -1    0    0    0    0 -0.00000000000E+00 -0.00000000000E+00 -0.50000499739E+01  0.50000500000E+01  0.51100000000E-03 0. -1.
         50    1    1    2    0    0  0.17348521919E-01  0.13138669146E-01 -0.51387411213E-02  0.50000500000E+01  0.50000000000E+01 0.  1.
         50    1    1    2    0    0 -0.17348521919E-01 -0.13138669146E-01  0.51387411213E-02  0.50000500000E+01  0.50000000000E+01 0.  0.
</event>
<event>
 4    1  0.4973396E-021  0.5000050E+01  0.7818608E-02  0.2136455E+00
        -11   -1    0    0    0    0  0.00000000000E+00  0.00000000000E+00  0.50000499739E+01  0.50000500000E+01  0.51100000000E-03 0.  1.
         11   -1    0    0    0    0 -0.00000000000E+00 -0.00000000000E+00 -0.50000499739E+01  0.50000500000E+01  0.51100000000E-03 0. -1.
         50    1    1    2    0    0  0.17308254695E-01  0.13587630955E-01 -0.39753118671E-02  0.50000500000E+01  0.50000000000E+01 0. -1.
         50    1    1    2    0    0 -0.17308254695E-01 -0.13587630955E-01  0.39753118671E-02  0.50000500000E+01  0.50000000000E+01 0.  1.
</event>
<event>
 4    1  0.4973396E-021  0.5000050E+01  0.7818608E-02  0.2136455E+00
        -11   -1    0    0    0    0  0.00000000000E+00  0.00000000000E+00  0.50000499739E+01  0.50000500000E+01  0.51100000000E-03 0.  1.
         11   -1    0    0    0    0 -0.00000000000E+00 -0.00000000000E+00 -0.50000499739E+01  0.50000500000E+01  0.51100000000E-03 0. -1.
         50    1    1    2    0    0 -0.14944969761E-01  0.16605268934E-01 -0.95677712553E-03  0.50000500000E+01  0.50000000000E+01 0. -1.
         50    1    1    2    0    0  0.14944969761E-01 -0.16605268934E-01  0.95677712553E-03  0.50000500000E+01  0.50000000000E+01 0.  0.
</event>
<event>
 4    1  0.4973396E-021  0.5000050E+01  0.7818608E-02  0.2136455E+00
        -11   -1    0    0    0    0  0.00000000000E+00  0.00000000000E+00  0.50000499739E+01  0.50000500000E+01  0.51100000000E-03 0.  1.
         11   -1    0    0    0    0 -0.00000000000E+00 -0.00000000000E+00 -0.50000499739E+01  0.50000500000E+01  0.51100000000E-03 0. -1.
         50    1    1    2    0    0  0.21391387407E-01 -0.51352056147E-03 -0.64920983837E-02  0.50000500000E+01  0.50000000000E+01 0. -1.
         50    1    1    2    0    0 -0.21391387407E-01  0.51352056147E-03  0.64920983837E-02  0.50000500000E+01  0.50000000000E+01 0.  0.
</event>
<event>
 4    1  0.4973396E-021  0.5000050E+01  0.7818608E-02  0.2136455E+00
        -11   -1    0    0    0    0  0.00000000000E+00  0.00000000000E+00  0.50000499739E+01  0.50000500000E+01  0.51100000000E-03 0.  1.
         11   -1    0    0    0    0 -0.00000000000E+00 -0.00000000000E+00 -0.50000499739E+01  0.50000500000E+01  0.51100000000E-03 0. -1.
         50    1    1    2    0    0 -0.37378883518E-02  0.10729789097E-01 -0.19258824383E-01  0.50000500000E+01  0.50000000000E+01 0.  0.
         50    1    1    2    0    0  0.37378883518E-02 -0.10729789097E-01  0.19258824383E-01  0.50000500000E+01  0.50000000000E+01 0.  1.
</event>
<event>
 4    1  0.4973396E-021  0.5000050E+01  0.7818608E-02  0.2136455E+00
        -11   -1    0    0    0    0  0.00000000000E+00  0.00000000000E+00  0.50000499739E+01  0.50000500000E+01  0.51100000000E-03 0. -1.
         11   -1    0    0    0    0 -0.00000000000E+00 -0.00000000000E+00 -0.50000499739E+01  0.50000500000E+01  0.51100000000E-03 0.  1.
         50    1    1    2    0    0  0.17956331690E-01  0.90344305187E-02  0.97954947529E-02  0.50000500000E+01  0.50000000000E+01 0.  0.
         50    1    1    2    0    0 -0.17956331690E-01 -0.90344305187E-02 -0.97954947529E-02  0.50000500000E+01  0.50000000000E+01 0. -1.
</event>
<event>
 4    1  0.4973396E-021  0.5000050E+01  0.7818608E-02  0.2136455E+00
        -11   -1    0    0    0    0  0.00000000000E+00  0.00000000000E+00  0.50000499739E+01  0.50000500000E+01  0.51100000000E-03 0. -1.
         11   -1    0    0    0    0 -0.00000000000E+00 -0.00000000000E+00 -0.50000499739E+01  0.50000500000E+01  0.51100000000E-03 0.  1.
         50    1    1    2    0    0  0.33742278552E-02 -0.21668875122E-01  0.43677153461E-02  0.50000500000E+01  0.50000000000E+01 0.  1.
         50    1    1    2    0    0 -0.33742278552E-02  0.21668875122E-01 -0.43677153461E-02  0.50000500000E+01  0.50000000000E+01 0. -1.
</event>
<event>
 4    1  0.4973396E-021  0.5000050E+01  0.7818608E-02  0.2136455E+00
        -11   -1    0    0    0    0  0.00000000000E+00  0.00000000000E+00  0.50000499739E+01  0.50000500000E+01  0.51100000000E-03 0. -1.
         11   -1    0    0    0    0 -0.00000000000E+00 -0.00000000000E+00 -0.50000499739E+01  0.50000500000E+01  0.51100000000E-03 0.  1.
         50    1    1    2    0    0 -0.14831472926E-01  0.16700417328E-01  0.10611182393E-02  0.50000500000E+01  0.50000000000E+01 0.  0.
         50    1    1    2    0    0  0.14831472926E-01 -0.16700417328E-01 -0.10611182393E-02  0.50000500000E+01  0.50000000000E+01 0. -1.
</event>
<event>
 4    1  0.4973396E-021  0.5000050E+01  0.7818608E-02  0.2136455E+00
        -11   -1    0    0    0    0  0.00000000000E+00  0.00000000000E+00  0.50000499739E+01  0.50000500000E+01  0.51100000000E-03 0. -1.
         11   -1    0    0    0    0 -0.00000000000E+00 -0.00000000000E+00 -0.50000499739E+01  0.50000500000E+01  0.51100000000E-03 0.  1.
         50    1    1    2    0    0  0.18082304146E-01 -0.50432400245E-02  0.12149012586E-01  0.50000500000E+01  0.50000000000E+01 0.  1.
         50    1    1    2    0    0 -0.18082304146E-01  0.50432400245E-02 -0.12149012586E-01  0.50000500000E+01  0.50000000000E+01 0.  0.
</event>
<event>
 4    1  0.4973396E-021  0.5000050E+01  0.7818608E-02  0.2136455E+00
        -11   -1    0    0    0    0  0.00000000000E+00  0.00000000000E+00  0.50000499739E+01  0.50000500000E+01  0.51100000000E-03 0.  1.
         11   -1    0    0    0    0 -0.00000000000E+00 -0.00000000000E+00 -0.50000499739E+01  0.50000500000E+01  0.51100000000E-03 0. -1.
         50    1    1    2    0    0  0.20416231758E-01 -0.85029441989E-02 -0.32984724886E-02  0.50000500000E+01  0.50000000000E+01 0.  0.
         50    1    1    2    0    0 -0.20416231758E-01  0.85029441989E-02  0.32984724886E-02  0.50000500000E+01  0.50000000000E+01 0. -1.
</event>
<event>
 4    1  0.4973396E-021  0.5000050E+01  0.7818608E-02  0.2136455E+00
        -11   -1    0    0    0    0  0.00000000000E+00  0.00000000000E+00  0.50000499739E+01  0.50000500000E+01  0.51100000000E-03 0.  1.
         11   -1    0    0    0    0 -0.00000000000E+00 -0.00000000000E+00 -0.50000499739E+01  0.50000500000E+01  0.51100000000E-03 0. -1.
         50    1    1    2    0    0 -0.50342336697E-02  0.76952079447E-03 -0.21773075784E-01  0.50000500000E+01  0.50000000000E+01 0. -1.
         50    1    1    2    0    0  0.50342336697E-02 -0.76952079447E-03  0.21773075784E-01  0.50000500000E+01  0.50000000000E+01 0.  0.
</event>
<event>
 4    1  0.4973396E-021  0.5000050E+01  0.7818608E-02  0.2136455E+00
        -11   -1    0    0    0    0  0.00000000000E+00  0.00000000000E+00  0.50000499739E+01  0.50000500000E+01  0.51100000000E-03 0. -1.
         11   -1    0    0    0    0 -0.00000000000E+00 -0.00000000000E+00 -0.50000499739E+01  0.50000500000E+01  0.51100000000E-03 0.  1.
         50    1    1    2    0    0  0.21200306612E-01 -0.63505061870E-02  0.31969627343E-02  0.50000500000E+01  0.50000000000E+01 0.  1.
         50    1    1    2    0    0 -0.21200306612E-01  0.63505061870E-02 -0.31969627343E-02  0.50000500000E+01  0.50000000000E+01 0. -1.
</event>
<event>
 4    1  0.4973396E-021  0.5000050E+01  0.7818608E-02  0.2136455E+00
        -11   -1    0    0    0    0  0.00000000000E+00  0.00000000000E+00  0.50000499739E+01  0.50000500000E+01  0.51100000000E-03 0. -1.
         11   -1    0    0    0    0 -0.00000000000E+00 -0.00000000000E+00 -0.50000499739E+01  0.50000500000E+01  0.51100000000E-03 0.  1.
         50    1    1    2    0    0 -0.68716608328E-02 -0.17868644439E-01 -0.11553974352E-01  0.50000500000E+01  0.50000000000E+01 0.  1.
         50    1    1    2    0    0  0.68716608328E-02  0.17868644439E-01  0.11553974352E-01  0.50000500000E+01  0.50000000000E+01 0. -1.
</event>
<event>
 4    1  0.4973396E-021  0.5000050E+01  0.7818608E-02  0.2136455E+00
        -11   -1    0    0    0    0  0.00000000000E+00  0.00000000000E+00  0.50000499739E+01  0.50000500000E+01  0.51100000000E-03 0. -1.
         11   -1    0    0    0    0 -0.00000000000E+00 -0.00000000000E+00 -0.50000499739E+01  0.50000500000E+01  0.51100000000E-03 0.  1.
         50    1    1    2    0    0  0.24107216417E-02 -0.22010658958E-01 -0.31179822618E-02  0.50000500000E+01  0.50000000000E+01 0. -1.
         50    1    1    2    0    0 -0.24107216417E-02  0.22010658958E-01  0.31179822618E-02  0.50000500000E+01  0.50000000000E+01 0.  1.
</event>
<event>
 4    1  0.4973396E-021  0.5000050E+01  0.7818608E-02  0.2136455E+00
        -11   -1    0    0    0    0  0.00000000000E+00  0.00000000000E+00  0.50000499739E+01  0.50000500000E+01  0.51100000000E-03 0.  1.
         11   -1    0    0    0    0 -0.00000000000E+00 -0.00000000000E+00 -0.50000499739E+01  0.50000500000E+01  0.51100000000E-03 0. -1.
         50    1    1    2    0    0 -0.69967216830E-02 -0.20317844225E-01  0.61833317672E-02  0.50000500000E+01  0.50000000000E+01 0.  1.
         50    1    1    2    0    0  0.69967216830E-02  0.20317844225E-01 -0.61833317672E-02  0.50000500000E+01  0.50000000000E+01 0. -1.
</event>
<event>
 4    1  0.4973396E-021  0.5000050E+01  0.7818608E-02  0.2136455E+00
        -11   -1    0    0    0    0  0.00000000000E+00  0.00000000000E+00  0.50000499739E+01  0.50000500000E+01  0.51100000000E-03 0.  1.
         11   -1    0    0    0    0 -0.00000000000E+00 -0.00000000000E+00 -0.50000499739E+01  0.50000500000E+01  0.51100000000E-03 0. -1.
         50    1    1    2    0    0 -0.21066686705E-01  0.49142165477E-02 -0.56610676537E-02  0.50000500000E+01  0.50000000000E+01 0.  0.
         50    1    1    2    0    0  0.21066686705E-01 -0.49142165477E-02  0.56610676537E-02  0.50000500000E+01  0.50000000000E+01 0. -1.
</event>
<event>
 4    1  0.4973396E-021  0.5000050E+01  0.7818608E-02  0.2136455E+00
        -11   -1    0    0    0    0  0.00000000000E+00  0.00000000000E+00  0.50000499739E+01  0.50000500000E+01  0.51100000000E-03 0.  1.
         11   -1    0    0    0    0 -0.00000000000E+00 -0.00000000000E+00 -0.50000499739E+01  0.50000500000E+01  0.51100000000E-03 0. -1.
         50    1    1    2    0    0 -0.16340727041E-01  0.13537893054E-01  0.70504320025E-02  0.50000500000E+01  0.50000000000E+01 0. -1.
         50    1    1    2    0    0  0.16340727041E-01 -0.13537893054E-01 -0.70504320025E-02  0.50000500000E+01  0.50000000000E+01 0.  0.
</event>
<event>
 4    1  0.4973396E-021  0.5000050E+01  0.7818608E-02  0.2136455E+00
        -11   -1    0    0    0    0  0.00000000000E+00  0.00000000000E+00  0.50000499739E+01  0.50000500000E+01  0.51100000000E-03 0.  1.
         11   -1    0    0    0    0 -0.00000000000E+00 -0.00000000000E+00 -0.50000499739E+01  0.50000500000E+01  0.51100000000E-03 0. -1.
         50    1    1    2    0    0  0.16677421503E-02  0.26589344789E-02  0.22139358698E-01  0.50000500000E+01  0.50000000000E+01 0.  0.
         50    1    1    2    0    0 -0.16677421503E-02 -0.26589344789E-02 -0.22139358698E-01  0.50000500000E+01  0.50000000000E+01 0. -1.
</event>
<event>
 4    1  0.4973396E-021  0.5000050E+01  0.7818608E-02  0.2136455E+00
        -11   -1    0    0    0    0  0.00000000000E+00  0.00000000000E+00  0.50000499739E+01  0.50000500000E+01  0.51100000000E-03 0.  1.
         11   -1    0    0    0    0 -0.00000000000E+00 -0.00000000000E+00 -0.50000499739E+01  0.50000500000E+01  0.51100000000E-03 0. -1.
         50    1    1    2    0    0  0.16621251161E-02 -0.11257957596E-03 -0.22298591120E-01  0.50000500000E+01  0.50000000000E+01 0.  0.
         50    1    1    2    0    0 -0.16621251161E-02  0.11257957596E-03  0.22298591120E-01  0.50000500000E+01  0.50000000000E+01 0.  1.
</event>
<event>
 4    1  0.4973396E-021  0.5000050E+01  0.7818608E-02  0.2136455E+00
        -11   -1    0    0    0    0  0.00000000000E+00  0.00000000000E+00  0.50000499739E+01  0.50000500000E+01  0.51100000000E-03 0.  1.
         11   -1    0    0    0    0 -0.00000000000E+00 -0.00000000000E+00 -0.50000499739E+01  0.50000500000E+01  0.51100000000E-03 0. -1.
         50    1    1    2    0    0  0.55728380733E-02 -0.19374941348E-01  0.96725189872E-02  0.50000500000E+01  0.50000000000E+01 0.  1.
         50    1    1    2    0    0 -0.55728380733E-02  0.19374941348E-01 -0.96725189872E-02  0.50000500000E+01  0.50000000000E+01 0.  1.
</event>
<event>
 4    1  0.4973396E-021  0.5000050E+01  0.7818608E-02  0.2136455E+00
        -11   -1    0    0    0    0  0.00000000000E+00  0.00000000000E+00  0.50000499739E+01  0.50000500000E+01  0.51100000000E-03 0.  1.
         11   -1    0    0    0    0 -0.00000000000E+00 -0.00000000000E+00 -0.50000499739E+01  0.50000500000E+01  0.51100000000E-03 0. -1.
         50    1    1    2    0    0 -0.76065910482E-02 -0.10533186507E-01 -0.18198743216E-01  0.50000500000E+01  0.50000000000E+01 0. -1.
         50    1    1    2    0    0  0.76065910482E-02  0.10533186507E-01  0.18198743216E-01  0.50000500000E+01  0.50000000000E+01 0.  0.
</event>
<event>
 4    1  0.4973396E-021  0.5000050E+01  0.7818608E-02  0.2136455E+00
        -11   -1    0    0    0    0  0.00000000000E+00  0.00000000000E+00  0.50000499739E+01  0.50000500000E+01  0.51100000000E-03 0. -1.
         11   -1    0    0    0    0 -0.00000000000E+00 -0.00000000000E+00 -0.50000499739E+01  0.50000500000E+01  0.51100000000E-03 0.  1.
         50    1    1    2    0    0 -0.15901115682E-01  0.80717127158E-02 -0.13490903376E-01  0.50000500000E+01  0.50000000000E+01 0.  1.
         50    1    1    2    0    0  0.15901115682E-01 -0.80717127158E-02  0.13490903376E-01  0.50000500000E+01  0.50000000000E+01 0. -1.
</event>
<event>
 4    1  0.4973396E-021  0.5000050E+01  0.7818608E-02  0.2136455E+00
        -11   -1    0    0    0    0  0.00000000000E+00  0.00000000000E+00  0.50000499739E+01  0.50000500000E+01  0.51100000000E-03 0.  1.
         11   -1    0    0    0    0 -0.00000000000E+00 -0.00000000000E+00 -0.50000499739E+01  0.50000500000E+01  0.51100000000E-03 0. -1.
         50    1    1    2    0    0 -0.17584270384E-01  0.13416361161E-01 -0.32859075260E-02  0.50000500000E+01  0.50000000000E+01 0.  0.
         50    1    1    2    0    0  0.17584270384E-01 -0.13416361161E-01  0.32859075260E-02  0.50000500000E+01  0.50000000000E+01 0.  1.
</event>
<event>
 4    1  0.4973396E-021  0.5000050E+01  0.7818608E-02  0.2136455E+00
        -11   -1    0    0    0    0  0.00000000000E+00  0.00000000000E+00  0.50000499739E+01  0.50000500000E+01  0.51100000000E-03 0. -1.
         11   -1    0    0    0    0 -0.00000000000E+00 -0.00000000000E+00 -0.50000499739E+01  0.50000500000E+01  0.51100000000E-03 0.  1.
         50    1    1    2    0    0  0.21787821441E-03 -0.13192998831E-01  0.18052695392E-01  0.50000500000E+01  0.50000000000E+01 0. -1.
         50    1    1    2    0    0 -0.21787821441E-03  0.13192998831E-01 -0.18052695392E-01  0.50000500000E+01  0.50000000000E+01 0.  0.
</event>
<event>
 4    1  0.4973396E-021  0.5000050E+01  0.7818608E-02  0.2136455E+00
        -11   -1    0    0    0    0  0.00000000000E+00  0.00000000000E+00  0.50000499739E+01  0.50000500000E+01  0.51100000000E-03 0.  1.
         11   -1    0    0    0    0 -0.00000000000E+00 -0.00000000000E+00 -0.50000499739E+01  0.50000500000E+01  0.51100000000E-03 0. -1.
         50    1    1    2    0    0  0.21558967323E-01  0.31941357933E-02 -0.50010923295E-02  0.50000500000E+01  0.50000000000E+01 0. -1.
         50    1    1    2    0    0 -0.21558967323E-01 -0.31941357933E-02  0.50010923295E-02  0.50000500000E+01  0.50000000000E+01 0.  1.
</event>
<event>
 4    1  0.4973396E-021  0.5000050E+01  0.7818608E-02  0.2136455E+00
        -11   -1    0    0    0    0  0.00000000000E+00  0.00000000000E+00  0.50000499739E+01  0.50000500000E+01  0.51100000000E-03 0.  1.
         11   -1    0    0    0    0 -0.00000000000E+00 -0.00000000000E+00 -0.50000499739E+01  0.50000500000E+01  0.51100000000E-03 0. -1.
         50    1    1    2    0    0  0.11268563774E-01 -0.18801036390E-01  0.44207466710E-02  0.50000500000E+01  0.50000000000E+01 0.  1.
         50    1    1    2    0    0 -0.11268563774E-01  0.18801036390E-01 -0.44207466710E-02  0.50000500000E+01  0.50000000000E+01 0. -1.
</event>
<event>
 4    1  0.4973396E-021  0.5000050E+01  0.7818608E-02  0.2136455E+00
        -11   -1    0    0    0    0  0.00000000000E+00  0.00000000000E+00  0.50000499739E+01  0.50000500000E+01  0.51100000000E-03 0.  1.
         11   -1    0    0    0    0 -0.00000000000E+00 -0.00000000000E+00 -0.50000499739E+01  0.50000500000E+01  0.51100000000E-03 0. -1.
         50    1    1    2    0    0  0.11958914885E-01 -0.13225457717E-01 -0.13493484463E-01  0.50000500000E+01  0.50000000000E+01 0.  1.
         50    1    1    2    0    0 -0.11958914885E-01  0.13225457717E-01  0.13493484463E-01  0.50000500000E+01  0.50000000000E+01 0. -1.
</event>
<event>
 4    1  0.4973396E-021  0.5000050E+01  0.7818608E-02  0.2136455E+00
        -11   -1    0    0    0    0  0.00000000000E+00  0.00000000000E+00  0.50000499739E+01  0.50000500000E+01  0.51100000000E-03 0. -1.
         11   -1    0    0    0    0 -0.00000000000E+00 -0.00000000000E+00 -0.50000499739E+01  0.50000500000E+01  0.51100000000E-03 0.  1.
         50    1    1    2    0    0  0.17159733859E-02 -0.21651070550E-01  0.53187479147E-02  0.50000500000E+01  0.50000000000E+01 0. -1.
         50    1    1    2    0    0 -0.17159733859E-02  0.21651070550E-01 -0.53187479147E-02  0.50000500000E+01  0.50000000000E+01 0.  1.
</event>
<event>
 4    1  0.4973396E-021  0.5000050E+01  0.7818608E-02  0.2136455E+00
        -11   -1    0    0    0    0  0.00000000000E+00  0.00000000000E+00  0.50000499739E+01  0.50000500000E+01  0.51100000000E-03 0.  1.
         11   -1    0    0    0    0 -0.00000000000E+00 -0.00000000000E+00 -0.50000499739E+01  0.50000500000E+01  0.51100000000E-03 0. -1.
         50    1    1    2    0    0 -0.12465926502E-01  0.12745902062E-01 -0.13496116369E-01  0.50000500000E+01  0.50000000000E+01 0.  0.
         50    1    1    2    0    0  0.12465926502E-01 -0.12745902062E-01  0.13496116369E-01  0.50000500000E+01  0.50000000000E+01 0.  0.
</event>
<event>
 4    1  0.4973396E-021  0.5000050E+01  0.7818608E-02  0.2136455E+00
        -11   -1    0    0    0    0  0.00000000000E+00  0.00000000000E+00  0.50000499739E+01  0.50000500000E+01  0.51100000000E-03 0.  1.
         11   -1    0    0    0    0 -0.00000000000E+00 -0.00000000000E+00 -0.50000499739E+01  0.50000500000E+01  0.51100000000E-03 0. -1.
         50    1    1    2    0    0 -0.25522963129E-02 -0.21624443577E-01  0.50864254159E-02  0.50000500000E+01  0.50000000000E+01 0.  1.
         50    1    1    2    0    0  0.25522963129E-02  0.21624443577E-01 -0.50864254159E-02  0.50000500000E+01  0.50000000000E+01 0. -1.
</event>
<event>
 4    1  0.4973396E-021  0.5000050E+01  0.7818608E-02  0.2136455E+00
        -11   -1    0    0    0    0  0.00000000000E+00  0.00000000000E+00  0.50000499739E+01  0.50000500000E+01  0.51100000000E-03 0.  1.
         11   -1    0    0    0    0 -0.00000000000E+00 -0.00000000000E+00 -0.50000499739E+01  0.50000500000E+01  0.51100000000E-03 0. -1.
         50    1    1    2    0    0  0.82902248290E-02  0.20766016424E-01  0.21733421309E-03  0.50000500000E+01  0.50000000000E+01 0. -1.
         50    1    1    2    0    0 -0.82902248290E-02 -0.20766016424E-01 -0.21733421309E-03  0.50000500000E+01  0.50000000000E+01 0.  0.
</event>
<event>
 4    1  0.4973396E-021  0.5000050E+01  0.7818608E-02  0.2136455E+00
        -11   -1    0    0    0    0  0.00000000000E+00  0.00000000000E+00  0.50000499739E+01  0.50000500000E+01  0.51100000000E-03 0. -1.
         11   -1    0    0    0    0 -0.00000000000E+00 -0.00000000000E+00 -0.50000499739E+01  0.50000500000E+01  0.51100000000E-03 0.  1.
         50    1    1    2    0    0  0.12463604792E-01 -0.12924485338E-01 -0.13327367869E-01  0.50000500000E+01  0.50000000000E+01 0.  0.
         50    1    1    2    0    0 -0.12463604792E-01  0.12924485338E-01  0.13327367869E-01  0.50000500000E+01  0.50000000000E+01 0.  0.
</event>
<event>
 4    1  0.4973396E-021  0.5000050E+01  0.7818608E-02  0.2136455E+00
        -11   -1    0    0    0    0  0.00000000000E+00  0.00000000000E+00  0.50000499739E+01  0.50000500000E+01  0.51100000000E-03 0.  1.
         11   -1    0    0    0    0 -0.00000000000E+00 -0.00000000000E+00 -0.50000499739E+01  0.50000500000E+01  0.51100000000E-03 0. -1.
         50    1    1    2    0    0 -0.20338251841E-01  0.61963848546E-02  0.69255199640E-02  0.50000500000E+01  0.50000000000E+01 0.  1.
         50    1    1    2    0    0  0.20338251841E-01 -0.61963848546E-02 -0.69255199640E-02  0.50000500000E+01  0.50000000000E+01 0. -1.
</event>
<event>
 4    1  0.4973396E-021  0.5000050E+01  0.7818608E-02  0.2136455E+00
        -11   -1    0    0    0    0  0.00000000000E+00  0.00000000000E+00  0.50000499739E+01  0.50000500000E+01  0.51100000000E-03 0.  1.
         11   -1    0    0    0    0 -0.00000000000E+00 -0.00000000000E+00 -0.50000499739E+01  0.50000500000E+01  0.51100000000E-03 0. -1.
         50    1    1    2    0    0 -0.39725342949E-02  0.99303725287E-02 -0.19636933893E-01  0.50000500000E+01  0.50000000000E+01 0. -1.
         50    1    1    2    0    0  0.39725342949E-02 -0.99303725287E-02  0.19636933893E-01  0.50000500000E+01  0.50000000000E+01 0.  1.
</event>
<event>
 4    1  0.4973396E-021  0.5000050E+01  0.7818608E-02  0.2136455E+00
        -11   -1    0    0    0    0  0.00000000000E+00  0.00000000000E+00  0.50000499739E+01  0.50000500000E+01  0.51100000000E-03 0.  1.
         11   -1    0    0    0    0 -0.00000000000E+00 -0.00000000000E+00 -0.50000499739E+01  0.50000500000E+01  0.51100000000E-03 0. -1.
         50    1    1    2    0    0  0.20761062179E-01  0.21999651445E-02 -0.80088045660E-02  0.50000500000E+01  0.50000000000E+01 0.  0.
         50    1    1    2    0    0 -0.20761062179E-01 -0.21999651445E-02  0.80088045660E-02  0.50000500000E+01  0.50000000000E+01 0.  0.
</event>
<event>
 4    1  0.4973396E-021  0.5000050E+01  0.7818608E-02  0.2136455E+00
        -11   -1    0    0    0    0  0.00000000000E+00  0.00000000000E+00  0.50000499739E+01  0.50000500000E+01  0.51100000000E-03 0.  1.
         11   -1    0    0    0    0 -0.00000000000E+00 -0.00000000000E+00 -0.50000499739E+01  0.50000500000E+01  0.51100000000E-03 0. -1.
         50    1    1    2    0    0 -0.10728521905E-01 -0.19616154635E-01  0.32832158882E-03  0.50000500000E+01  0.50000000000E+01 0. -1.
         50    1    1    2    0    0  0.10728521905E-01  0.19616154635E-01 -0.32832158882E-03  0.50000500000E+01  0.50000000000E+01 0.  0.
</event>
<event>
 4    1  0.4973396E-021  0.5000050E+01  0.7818608E-02  0.2136455E+00
        -11   -1    0    0    0    0  0.00000000000E+00  0.00000000000E+00  0.50000499739E+01  0.50000500000E+01  0.51100000000E-03 0.  1.
         11   -1    0    0    0    0 -0.00000000000E+00 -0.00000000000E+00 -0.50000499739E+01  0.50000500000E+01  0.51100000000E-03 0. -1.
         50    1    1    2    0    0 -0.20810716217E-01  0.80830180039E-02 -0.12575414479E-02  0.50000500000E+01  0.50000000000E+01 0.  1.
         50    1    1    2    0    0  0.20810716217E-01 -0.80830180039E-02  0.12575414479E-02  0.50000500000E+01  0.50000000000E+01 0.  0.
</event>
<event>
 4    1  0.4973396E-021  0.5000050E+01  0.7818608E-02  0.2136455E+00
        -11   -1    0    0    0    0  0.00000000000E+00  0.00000000000E+00  0.50000499739E+01  0.50000500000E+01  0.51100000000E-03 0.  1.
         11   -1    0    0    0    0 -0.00000000000E+00 -0.00000000000E+00 -0.50000499739E+01  0.50000500000E+01  0.51100000000E-03 0. -1.
         50    1    1    2    0    0 -0.76113524611E-02  0.10035622145E-01 -0.18475824796E-01  0.50000500000E+01  0.50000000000E+01 0. -1.
         50    1    1    2    0    0  0.76113524611E-02 -0.10035622145E-01  0.18475824796E-01  0.50000500000E+01  0.50000000000E+01 0.  0.
</event>
<event>
 4    1  0.4973396E-021  0.5000050E+01  0.7818608E-02  0.2136455E+00
        -11   -1    0    0    0    0  0.00000000000E+00  0.00000000000E+00  0.50000499739E+01  0.50000500000E+01  0.51100000000E-03 0.  1.
         11   -1    0    0    0    0 -0.00000000000E+00 -0.00000000000E+00 -0.50000499739E+01  0.50000500000E+01  0.51100000000E-03 0. -1.
         50    1    1    2    0    0  0.14647035986E-01  0.15385299827E-01  0.69827921404E-02  0.50000500000E+01  0.50000000000E+01 0.  1.
         50    1    1    2    0    0 -0.14647035986E-01 -0.15385299827E-01 -0.69827921404E-02  0.50000500000E+01  0.50000000000E+01 0. -1.
</event>
<event>
 4    1  0.4973396E-021  0.5000050E+01  0.7818608E-02  0.2136455E+00
        -11   -1    0    0    0    0  0.00000000000E+00  0.00000000000E+00  0.50000499739E+01  0.50000500000E+01  0.51100000000E-03 0.  1.
         11   -1    0    0    0    0 -0.00000000000E+00 -0.00000000000E+00 -0.50000499739E+01  0.50000500000E+01  0.51100000000E-03 0. -1.
         50    1    1    2    0    0 -0.16913532059E-01 -0.12818352593E-01 -0.70444850830E-02  0.50000500000E+01  0.50000000000E+01 0. -1.
         50    1    1    2    0    0  0.16913532059E-01  0.12818352593E-01  0.70444850830E-02  0.50000500000E+01  0.50000000000E+01 0.  1.
</event>
<event>
 4    1  0.4973396E-021  0.5000050E+01  0.7818608E-02  0.2136455E+00
        -11   -1    0    0    0    0  0.00000000000E+00  0.00000000000E+00  0.50000499739E+01  0.50000500000E+01  0.51100000000E-03 0.  1.
         11   -1    0    0    0    0 -0.00000000000E+00 -0.00000000000E+00 -0.50000499739E+01  0.50000500000E+01  0.51100000000E-03 0. -1.
         50    1    1    2    0    0  0.18725874161E-01  0.64802795789E-02  0.10360989985E-01  0.50000500000E+01  0.50000000000E+01 0.  0.
         50    1    1    2    0    0 -0.18725874161E-01 -0.64802795789E-02 -0.10360989985E-01  0.50000500000E+01  0.50000000000E+01 0.  0.
</event>
<event>
 4    1  0.4973396E-021  0.5000050E+01  0.7818608E-02  0.2136455E+00
        -11   -1    0    0    0    0  0.00000000000E+00  0.00000000000E+00  0.50000499739E+01  0.50000500000E+01  0.51100000000E-03 0.  1.
         11   -1    0    0    0    0 -0.00000000000E+00 -0.00000000000E+00 -0.50000499739E+01  0.50000500000E+01  0.51100000000E-03 0. -1.
         50    1    1    2    0    0  0.13758352765E-01 -0.13694525138E-01  0.11098207532E-01  0.50000500000E+01  0.50000000000E+01 0. -1.
         50    1    1    2    0    0 -0.13758352765E-01  0.13694525138E-01 -0.11098207532E-01  0.50000500000E+01  0.50000000000E+01 0.  0.
</event>
<event>
 4    1  0.4973396E-021  0.5000050E+01  0.7818608E-02  0.2136455E+00
        -11   -1    0    0    0    0  0.00000000000E+00  0.00000000000E+00  0.50000499739E+01  0.50000500000E+01  0.51100000000E-03 0.  1.
         11   -1    0    0    0    0 -0.00000000000E+00 -0.00000000000E+00 -0.50000499739E+01  0.50000500000E+01  0.51100000000E-03 0. -1.
         50    1    1    2    0    0 -0.43884482965E-04 -0.17861502300E-01 -0.13452409068E-01  0.50000500000E+01  0.50000000000E+01 0.  1.
         50    1    1    2    0    0  0.43884482965E-04  0.17861502300E-01  0.13452409068E-01  0.50000500000E+01  0.50000000000E+01 0.  1.
</event>
<event>
 4    1  0.4973396E-021  0.5000050E+01  0.7818608E-02  0.2136455E+00
        -11   -1    0    0    0    0  0.00000000000E+00  0.00000000000E+00  0.50000499739E+01  0.50000500000E+01  0.51100000000E-03 0. -1.
         11   -1    0    0    0    0 -0.00000000000E+00 -0.00000000000E+00 -0.50000499739E+01  0.50000500000E+01  0.51100000000E-03 0.  1.
         50    1    1    2    0    0 -0.11275354570E-01 -0.27951355334E-02 -0.19106441235E-01  0.50000500000E+01  0.50000000000E+01 0.  1.
         50    1    1    2    0    0  0.11275354570E-01  0.27951355334E-02  0.19106441235E-01  0.50000500000E+01  0.50000000000E+01 0.  0.
</event>
<event>
 4    1  0.4973396E-021  0.5000050E+01  0.7818608E-02  0.2136455E+00
        -11   -1    0    0    0    0  0.00000000000E+00  0.00000000000E+00  0.50000499739E+01  0.50000500000E+01  0.51100000000E-03 0.  1.
         11   -1    0    0    0    0 -0.00000000000E+00 -0.00000000000E+00 -0.50000499739E+01  0.50000500000E+01  0.51100000000E-03 0. -1.
         50    1    1    2    0    0  0.27049614983E-02 -0.17065509549E-01 -0.14193451558E-01  0.50000500000E+01  0.50000000000E+01 0. -1.
         50    1    1    2    0    0 -0.27049614983E-02  0.17065509549E-01  0.14193451558E-01  0.50000500000E+01  0.50000000000E+01 0. -1.
</event>
<event>
 4    1  0.4973396E-021  0.5000050E+01  0.7818608E-02  0.2136455E+00
        -11   -1    0    0    0    0  0.00000000000E+00  0.00000000000E+00  0.50000499739E+01  0.50000500000E+01  0.51100000000E-03 0. -1.
         11   -1    0    0    0    0 -0.00000000000E+00 -0.00000000000E+00 -0.50000499739E+01  0.50000500000E+01  0.51100000000E-03 0.  1.
         50    1    1    2    0    0 -0.74468605126E-02  0.14851784800E-01 -0.14965669272E-01  0.50000500000E+01  0.50000000000E+01 0.  1.
         50    1    1    2    0    0  0.74468605126E-02 -0.14851784800E-01  0.14965669272E-01  0.50000500000E+01  0.50000000000E+01 0. -1.
</event>
<event>
 4    1  0.4973396E-021  0.5000050E+01  0.7818608E-02  0.2136455E+00
        -11   -1    0    0    0    0  0.00000000000E+00  0.00000000000E+00  0.50000499739E+01  0.50000500000E+01  0.51100000000E-03 0.  1.
         11   -1    0    0    0    0 -0.00000000000E+00 -0.00000000000E+00 -0.50000499739E+01  0.50000500000E+01  0.51100000000E-03 0. -1.
         50    1    1    2    0    0 -0.21726211129E-01  0.52551124848E-02  0.59836673513E-03  0.50000500000E+01  0.50000000000E+01 0. -1.
         50    1    1    2    0    0  0.21726211129E-01 -0.52551124848E-02 -0.59836673513E-03  0.50000500000E+01  0.50000000000E+01 0.  0.
</event>
<event>
 4    1  0.4973396E-021  0.5000050E+01  0.7818608E-02  0.2136455E+00
        -11   -1    0    0    0    0  0.00000000000E+00  0.00000000000E+00  0.50000499739E+01  0.50000500000E+01  0.51100000000E-03 0.  1.
         11   -1    0    0    0    0 -0.00000000000E+00 -0.00000000000E+00 -0.50000499739E+01  0.50000500000E+01  0.51100000000E-03 0. -1.
         50    1    1    2    0    0 -0.16471058848E-01  0.11148868372E-01  0.10218094464E-01  0.50000500000E+01  0.50000000000E+01 0.  1.
         50    1    1    2    0    0  0.16471058848E-01 -0.11148868372E-01 -0.10218094464E-01  0.50000500000E+01  0.50000000000E+01 0. -1.
</event>
<event>
 4    1  0.4973396E-021  0.5000050E+01  0.7818608E-02  0.2136455E+00
        -11   -1    0    0    0    0  0.00000000000E+00  0.00000000000E+00  0.50000499739E+01  0.50000500000E+01  0.51100000000E-03 0.  1.
         11   -1    0    0    0    0 -0.00000000000E+00 -0.00000000000E+00 -0.50000499739E+01  0.50000500000E+01  0.51100000000E-03 0. -1.
         50    1    1    2    0    0  0.89383895604E-02 -0.18375661077E-01 -0.90798002212E-02  0.50000500000E+01  0.50000000000E+01 0. -1.
         50    1    1    2    0    0 -0.89383895604E-02  0.18375661077E-01  0.90798002212E-02  0.50000500000E+01  0.50000000000E+01 0.  1.
</event>
<event>
 4    1  0.4973396E-021  0.5000050E+01  0.7818608E-02  0.2136455E+00
        -11   -1    0    0    0    0  0.00000000000E+00  0.00000000000E+00  0.50000499739E+01  0.50000500000E+01  0.51100000000E-03 0.  1.
         11   -1    0    0    0    0 -0.00000000000E+00 -0.00000000000E+00 -0.50000499739E+01  0.50000500000E+01  0.51100000000E-03 0. -1.
         50    1    1    2    0    0  0.87689492250E-02  0.20536414557E-01  0.11677785043E-02  0.50000500000E+01  0.50000000000E+01 0. -1.
         50    1    1    2    0    0 -0.87689492250E-02 -0.20536414557E-01 -0.11677785043E-02  0.50000500000E+01  0.50000000000E+01 0.  1.
</event>
<event>
 4    1  0.4973396E-021  0.5000050E+01  0.7818608E-02  0.2136455E+00
        -11   -1    0    0    0    0  0.00000000000E+00  0.00000000000E+00  0.50000499739E+01  0.50000500000E+01  0.51100000000E-03 0. -1.
         11   -1    0    0    0    0 -0.00000000000E+00 -0.00000000000E+00 -0.50000499739E+01  0.50000500000E+01  0.51100000000E-03 0.  1.
         50    1    1    2    0    0  0.17723747287E-01  0.13587809153E-01  0.11147755524E-02  0.50000500000E+01  0.50000000000E+01 0.  1.
         50    1    1    2    0    0 -0.17723747287E-01 -0.13587809153E-01 -0.11147755524E-02  0.50000500000E+01  0.50000000000E+01 0. -1.
</event>
<event>
 4    1  0.4973396E-021  0.5000050E+01  0.7818608E-02  0.2136455E+00
        -11   -1    0    0    0    0  0.00000000000E+00  0.00000000000E+00  0.50000499739E+01  0.50000500000E+01  0.51100000000E-03 0.  1.
         11   -1    0    0    0    0 -0.00000000000E+00 -0.00000000000E+00 -0.50000499739E+01  0.50000500000E+01  0.51100000000E-03 0. -1.
         50    1    1    2    0    0 -0.66839135259E-02 -0.17360064339E-01  0.12407899344E-01  0.50000500000E+01  0.50000000000E+01 0.  0.
         50    1    1    2    0    0  0.66839135259E-02  0.17360064339E-01 -0.12407899344E-01  0.50000500000E+01  0.50000000000E+01 0.  1.
</event>
<event>
 4    1  0.4973396E-021  0.5000050E+01  0.7818608E-02  0.2136455E+00
        -11   -1    0    0    0    0  0.00000000000E+00  0.00000000000E+00  0.50000499739E+01  0.50000500000E+01  0.51100000000E-03 0. -1.
         11   -1    0    0    0    0 -0.00000000000E+00 -0.00000000000E+00 -0.50000499739E+01  0.50000500000E+01  0.51100000000E-03 0.  1.
         50    1    1    2    0    0 -0.25741487633E-02 -0.19232499451E-01  0.11112480506E-01  0.50000500000E+01  0.50000000000E+01 0. -1.
         50    1    1    2    0    0  0.25741487633E-02  0.19232499451E-01 -0.11112480506E-01  0.50000500000E+01  0.50000000000E+01 0.  1.
</event>
<event>
 4    1  0.4973396E-021  0.5000050E+01  0.7818608E-02  0.2136455E+00
        -11   -1    0    0    0    0  0.00000000000E+00  0.00000000000E+00  0.50000499739E+01  0.50000500000E+01  0.51100000000E-03 0.  1.
         11   -1    0    0    0    0 -0.00000000000E+00 -0.00000000000E+00 -0.50000499739E+01  0.50000500000E+01  0.51100000000E-03 0. -1.
         50    1    1    2    0    0  0.11870814791E-02 -0.15104976519E-01 -0.16444847884E-01  0.50000500000E+01  0.50000000000E+01 0. -1.
         50    1    1    2    0    0 -0.11870814791E-02  0.15104976519E-01  0.16444847884E-01  0.50000500000E+01  0.50000000000E+01 0.  1.
</event>
<event>
 4    1  0.4973396E-021  0.5000050E+01  0.7818608E-02  0.2136455E+00
        -11   -1    0    0    0    0  0.00000000000E+00  0.00000000000E+00  0.50000499739E+01  0.50000500000E+01  0.51100000000E-03 0.  1.
         11   -1    0    0    0    0 -0.00000000000E+00 -0.00000000000E+00 -0.50000499739E+01  0.50000500000E+01  0.51100000000E-03 0. -1.
         50    1    1    2    0    0 -0.54332221808E-02 -0.11720279955E-01  0.18251510472E-01  0.50000500000E+01  0.50000000000E+01 0.  0.
         50    1    1    2    0    0  0.54332221808E-02  0.11720279955E-01 -0.18251510472E-01  0.50000500000E+01  0.50000000000E+01 0. -1.
</event>
<event>
 4    1  0.4973396E-021  0.5000050E+01  0.7818608E-02  0.2136455E+00
        -11   -1    0    0    0    0  0.00000000000E+00  0.00000000000E+00  0.50000499739E+01  0.50000500000E+01  0.51100000000E-03 0. -1.
         11   -1    0    0    0    0 -0.00000000000E+00 -0.00000000000E+00 -0.50000499739E+01  0.50000500000E+01  0.51100000000E-03 0.  1.
         50    1    1    2    0    0  0.91217715281E-02  0.19651394721E-01  0.55333958578E-02  0.50000500000E+01  0.50000000000E+01 0. -1.
         50    1    1    2    0    0 -0.91217715281E-02 -0.19651394721E-01 -0.55333958578E-02  0.50000500000E+01  0.50000000000E+01 0.  1.
</event>
<event>
 4    1  0.4973396E-021  0.5000050E+01  0.7818608E-02  0.2136455E+00
        -11   -1    0    0    0    0  0.00000000000E+00  0.00000000000E+00  0.50000499739E+01  0.50000500000E+01  0.51100000000E-03 0.  1.
         11   -1    0    0    0    0 -0.00000000000E+00 -0.00000000000E+00 -0.50000499739E+01  0.50000500000E+01  0.51100000000E-03 0. -1.
         50    1    1    2    0    0  0.16617603645E-01  0.11382729406E-01 -0.97103666441E-02  0.50000500000E+01  0.50000000000E+01 0. -1.
         50    1    1    2    0    0 -0.16617603645E-01 -0.11382729406E-01  0.97103666441E-02  0.50000500000E+01  0.50000000000E+01 0.  1.
</event>
<event>
 4    1  0.4973396E-021  0.5000050E+01  0.7818608E-02  0.2136455E+00
        -11   -1    0    0    0    0  0.00000000000E+00  0.00000000000E+00  0.50000499739E+01  0.50000500000E+01  0.51100000000E-03 0.  1.
         11   -1    0    0    0    0 -0.00000000000E+00 -0.00000000000E+00 -0.50000499739E+01  0.50000500000E+01  0.51100000000E-03 0. -1.
         50    1    1    2    0    0  0.21737600144E-01 -0.32725522085E-03 -0.52318394474E-02  0.50000500000E+01  0.50000000000E+01 0. -1.
         50    1    1    2    0    0 -0.21737600144E-01  0.32725522085E-03  0.52318394474E-02  0.50000500000E+01  0.50000000000E+01 0.  1.
</event>
<event>
 4    1  0.4973396E-021  0.5000050E+01  0.7818608E-02  0.2136455E+00
        -11   -1    0    0    0    0  0.00000000000E+00  0.00000000000E+00  0.50000499739E+01  0.50000500000E+01  0.51100000000E-03 0.  1.
         11   -1    0    0    0    0 -0.00000000000E+00 -0.00000000000E+00 -0.50000499739E+01  0.50000500000E+01  0.51100000000E-03 0. -1.
         50    1    1    2    0    0 -0.48280505074E-02 -0.21177380982E-01 -0.53113993475E-02  0.50000500000E+01  0.50000000000E+01 0. -1.
         50    1    1    2    0    0  0.48280505074E-02  0.21177380982E-01  0.53113993475E-02  0.50000500000E+01  0.50000000000E+01 0.  1.
</event>
<event>
 4    1  0.4973396E-021  0.5000050E+01  0.7818608E-02  0.2136455E+00
        -11   -1    0    0    0    0  0.00000000000E+00  0.00000000000E+00  0.50000499739E+01  0.50000500000E+01  0.51100000000E-03 0.  1.
         11   -1    0    0    0    0 -0.00000000000E+00 -0.00000000000E+00 -0.50000499739E+01  0.50000500000E+01  0.51100000000E-03 0. -1.
         50    1    1    2    0    0 -0.86108249964E-03  0.20763640503E-01  0.82542274011E-02  0.50000500000E+01  0.50000000000E+01 0. -1.
         50    1    1    2    0    0  0.86108249964E-03 -0.20763640503E-01 -0.82542274011E-02  0.50000500000E+01  0.50000000000E+01 0.  0.
</event>
<event>
 4    1  0.4973396E-021  0.5000050E+01  0.7818608E-02  0.2136455E+00
        -11   -1    0    0    0    0  0.00000000000E+00  0.00000000000E+00  0.50000499739E+01  0.50000500000E+01  0.51100000000E-03 0. -1.
         11   -1    0    0    0    0 -0.00000000000E+00 -0.00000000000E+00 -0.50000499739E+01  0.50000500000E+01  0.51100000000E-03 0.  1.
         50    1    1    2    0    0  0.33958211436E-02 -0.91809900502E-02 -0.20104236381E-01  0.50000500000E+01  0.50000000000E+01 0.  1.
         50    1    1    2    0    0 -0.33958211436E-02  0.91809900502E-02  0.20104236381E-01  0.50000500000E+01  0.50000000000E+01 0.  0.
</event>
<event>
 4    1  0.4973396E-021  0.5000050E+01  0.7818608E-02  0.2136455E+00
        -11   -1    0    0    0    0  0.00000000000E+00  0.00000000000E+00  0.50000499739E+01  0.50000500000E+01  0.51100000000E-03 0. -1.
         11   -1    0    0    0    0 -0.00000000000E+00 -0.00000000000E+00 -0.50000499739E+01  0.50000500000E+01  0.51100000000E-03 0.  1.
         50    1    1    2    0    0  0.75893251832E-02  0.21026355788E-01  0.54498213552E-03  0.50000500000E+01  0.50000000000E+01 0.  1.
         50    1    1    2    0    0 -0.75893251832E-02 -0.21026355788E-01 -0.54498213552E-03  0.50000500000E+01  0.50000000000E+01 0.  0.
</event>
<event>
 4    1  0.4973396E-021  0.5000050E+01  0.7818608E-02  0.2136455E+00
        -11   -1    0    0    0    0  0.00000000000E+00  0.00000000000E+00  0.50000499739E+01  0.50000500000E+01  0.51100000000E-03 0.  1.
         11   -1    0    0    0    0 -0.00000000000E+00 -0.00000000000E+00 -0.50000499739E+01  0.50000500000E+01  0.51100000000E-03 0. -1.
         50    1    1    2    0    0  0.11048594152E-01 -0.10408378800E-01  0.16419400659E-01  0.50000500000E+01  0.50000000000E+01 0.  1.
         50    1    1    2    0    0 -0.11048594152E-01  0.10408378800E-01 -0.16419400659E-01  0.50000500000E+01  0.50000000000E+01 0.  1.
</event>
<event>
 4    1  0.4973396E-021  0.5000050E+01  0.7818608E-02  0.2136455E+00
        -11   -1    0    0    0    0  0.00000000000E+00  0.00000000000E+00  0.50000499739E+01  0.50000500000E+01  0.51100000000E-03 0. -1.
         11   -1    0    0    0    0 -0.00000000000E+00 -0.00000000000E+00 -0.50000499739E+01  0.50000500000E+01  0.51100000000E-03 0.  1.
         50    1    1    2    0    0 -0.12665899905E-02 -0.18661904762E-01 -0.12252818469E-01  0.50000500000E+01  0.50000000000E+01 0. -1.
         50    1    1    2    0    0  0.12665899905E-02  0.18661904762E-01  0.12252818469E-01  0.50000500000E+01  0.50000000000E+01 0.  0.
</event>
<event>
 4    1  0.4973396E-021  0.5000050E+01  0.7818608E-02  0.2136455E+00
        -11   -1    0    0    0    0  0.00000000000E+00  0.00000000000E+00  0.50000499739E+01  0.50000500000E+01  0.51100000000E-03 0.  1.
         11   -1    0    0    0    0 -0.00000000000E+00 -0.00000000000E+00 -0.50000499739E+01  0.50000500000E+01  0.51100000000E-03 0. -1.
         50    1    1    2    0    0 -0.60093257592E-03  0.15980705624E-02  0.22295460312E-01  0.50000500000E+01  0.50000000000E+01 0.  0.
         50    1    1    2    0    0  0.60093257592E-03 -0.15980705624E-02 -0.22295460312E-01  0.50000500000E+01  0.50000000000E+01 0. -1.
</event>
<event>
 4    1  0.4973396E-021  0.5000050E+01  0.7818608E-02  0.2136455E+00
        -11   -1    0    0    0    0  0.00000000000E+00  0.00000000000E+00  0.50000499739E+01  0.50000500000E+01  0.51100000000E-03 0. -1.
         11   -1    0    0    0    0 -0.00000000000E+00 -0.00000000000E+00 -0.50000499739E+01  0.50000500000E+01  0.51100000000E-03 0.  1.
         50    1    1    2    0    0  0.19851543610E-01  0.99219602699E-02  0.27337557838E-02  0.50000500000E+01  0.50000000000E+01 0. -1.
         50    1    1    2    0    0 -0.19851543610E-01 -0.99219602699E-02 -0.27337557838E-02  0.50000500000E+01  0.50000000000E+01 0.  0.
</event>
<event>
 4    1  0.4973396E-021  0.5000050E+01  0.7818608E-02  0.2136455E+00
        -11   -1    0    0    0    0  0.00000000000E+00  0.00000000000E+00  0.50000499739E+01  0.50000500000E+01  0.51100000000E-03 0.  1.
         11   -1    0    0    0    0 -0.00000000000E+00 -0.00000000000E+00 -0.50000499739E+01  0.50000500000E+01  0.51100000000E-03 0. -1.
         50    1    1    2    0    0 -0.16179909455E-01  0.68528268948E-02 -0.13829381533E-01  0.50000500000E+01  0.50000000000E+01 0. -1.
         50    1    1    2    0    0  0.16179909455E-01 -0.68528268948E-02  0.13829381533E-01  0.50000500000E+01  0.50000000000E+01 0.  1.
</event>
<event>
 4    1  0.4973396E-021  0.5000050E+01  0.7818608E-02  0.2136455E+00
        -11   -1    0    0    0    0  0.00000000000E+00  0.00000000000E+00  0.50000499739E+01  0.50000500000E+01  0.51100000000E-03 0.  1.
         11   -1    0    0    0    0 -0.00000000000E+00 -0.00000000000E+00 -0.50000499739E+01  0.50000500000E+01  0.51100000000E-03 0. -1.
         50    1    1    2    0    0  0.62686952314E-02  0.10042867164E-01 -0.18969627809E-01  0.50000500000E+01  0.50000000000E+01 0. -1.
         50    1    1    2    0    0 -0.62686952314E-02 -0.10042867164E-01  0.18969627809E-01  0.50000500000E+01  0.50000000000E+01 0.  1.
</event>
<event>
 4    1  0.4973396E-021  0.5000050E+01  0.7818608E-02  0.2136455E+00
        -11   -1    0    0    0    0  0.00000000000E+00  0.00000000000E+00  0.50000499739E+01  0.50000500000E+01  0.51100000000E-03 0. -1.
         11   -1    0    0    0    0 -0.00000000000E+00 -0.00000000000E+00 -0.50000499739E+01  0.50000500000E+01  0.51100000000E-03 0.  1.
         50    1    1    2    0    0  0.26885172386E-02  0.19791558596E-01 -0.10053287193E-01  0.50000500000E+01  0.50000000000E+01 0.  1.
         50    1    1    2    0    0 -0.26885172386E-02 -0.19791558596E-01  0.10053287193E-01  0.50000500000E+01  0.50000000000E+01 0. -1.
</event>
<event>
 4    1  0.4973396E-021  0.5000050E+01  0.7818608E-02  0.2136455E+00
        -11   -1    0    0    0    0  0.00000000000E+00  0.00000000000E+00  0.50000499739E+01  0.50000500000E+01  0.51100000000E-03 0. -1.
         11   -1    0    0    0    0 -0.00000000000E+00 -0.00000000000E+00 -0.50000499739E+01  0.50000500000E+01  0.51100000000E-03 0.  1.
         50    1    1    2    0    0 -0.20353352032E-01  0.77178268284E-02  0.51165134697E-02  0.50000500000E+01  0.50000000000E+01 0.  0.
         50    1    1    2    0    0  0.20353352032E-01 -0.77178268284E-02 -0.51165134697E-02  0.50000500000E+01  0.50000000000E+01 0.  0.
</event>
<event>
 4    1  0.4973396E-021  0.5000050E+01  0.7818608E-02  0.2136455E+00
        -11   -1    0    0    0    0  0.00000000000E+00  0.00000000000E+00  0.50000499739E+01  0.50000500000E+01  0.51100000000E-03 0.  1.
         11   -1    0    0    0    0 -0.00000000000E+00 -0.00000000000E+00 -0.50000499739E+01  0.50000500000E+01  0.51100000000E-03 0. -1.
         50    1    1    2    0    0 -0.97215733186E-02 -0.16365157499E-01  0.11733504688E-01  0.50000500000E+01  0.50000000000E+01 0.  1.
         50    1    1    2    0    0  0.97215733186E-02  0.16365157499E-01 -0.11733504688E-01  0.50000500000E+01  0.50000000000E+01 0. -1.
</event>
<event>
 4    1  0.4973396E-021  0.5000050E+01  0.7818608E-02  0.2136455E+00
        -11   -1    0    0    0    0  0.00000000000E+00  0.00000000000E+00  0.50000499739E+01  0.50000500000E+01  0.51100000000E-03 0.  1.
         11   -1    0    0    0    0 -0.00000000000E+00 -0.00000000000E+00 -0.50000499739E+01  0.50000500000E+01  0.51100000000E-03 0. -1.
         50    1    1    2    0    0 -0.20449634457E-01  0.82722773302E-02  0.36584666655E-02  0.50000500000E+01  0.50000000000E+01 0.  1.
         50    1    1    2    0    0  0.20449634457E-01 -0.82722773302E-02 -0.36584666655E-02  0.50000500000E+01  0.50000000000E+01 0. -1.
</event>
<event>
 4    1  0.4973396E-021  0.5000050E+01  0.7818608E-02  0.2136455E+00
        -11   -1    0    0    0    0  0.00000000000E+00  0.00000000000E+00  0.50000499739E+01  0.50000500000E+01  0.51100000000E-03 0. -1.
         11   -1    0    0    0    0 -0.00000000000E+00 -0.00000000000E+00 -0.50000499739E+01  0.50000500000E+01  0.51100000000E-03 0.  1.
         50    1    1    2    0    0  0.67416698141E-02  0.43715610906E-02 -0.20867243271E-01  0.50000500000E+01  0.50000000000E+01 0.  1.
         50    1    1    2    0    0 -0.67416698141E-02 -0.43715610906E-02  0.20867243271E-01  0.50000500000E+01  0.50000000000E+01 0.  0.
</event>
<event>
 4    1  0.4973396E-021  0.5000050E+01  0.7818608E-02  0.2136455E+00
        -11   -1    0    0    0    0  0.00000000000E+00  0.00000000000E+00  0.50000499739E+01  0.50000500000E+01  0.51100000000E-03 0. -1.
         11   -1    0    0    0    0 -0.00000000000E+00 -0.00000000000E+00 -0.50000499739E+01  0.50000500000E+01  0.51100000000E-03 0.  1.
         50    1    1    2    0    0  0.18920486521E-01  0.92320221975E-02 -0.75357452142E-02  0.50000500000E+01  0.50000000000E+01 0.  1.
         50    1    1    2    0    0 -0.18920486521E-01 -0.92320221975E-02  0.75357452142E-02  0.50000500000E+01  0.50000000000E+01 0. -1.
</event>
<event>
 4    1  0.4973396E-021  0.5000050E+01  0.7818608E-02  0.2136455E+00
        -11   -1    0    0    0    0  0.00000000000E+00  0.00000000000E+00  0.50000499739E+01  0.50000500000E+01  0.51100000000E-03 0. -1.
         11   -1    0    0    0    0 -0.00000000000E+00 -0.00000000000E+00 -0.50000499739E+01  0.50000500000E+01  0.51100000000E-03 0.  1.
         50    1    1    2    0    0 -0.18104851009E-01 -0.45099358343E-02  0.12323852835E-01  0.50000500000E+01  0.50000000000E+01 0.  1.
         50    1    1    2    0    0  0.18104851009E-01  0.45099358343E-02 -0.12323852835E-01  0.50000500000E+01  0.50000000000E+01 0.  1.
</event>
<event>
 4    1  0.4973396E-021  0.5000050E+01  0.7818608E-02  0.2136455E+00
        -11   -1    0    0    0    0  0.00000000000E+00  0.00000000000E+00  0.50000499739E+01  0.50000500000E+01  0.51100000000E-03 0. -1.
         11   -1    0    0    0    0 -0.00000000000E+00 -0.00000000000E+00 -0.50000499739E+01  0.50000500000E+01  0.51100000000E-03 0.  1.
         50    1    1    2    0    0 -0.95509765478E-02  0.14278042617E-01 -0.14314986762E-01  0.50000500000E+01  0.50000000000E+01 0.  0.
         50    1    1    2    0    0  0.95509765478E-02 -0.14278042617E-01  0.14314986762E-01  0.50000500000E+01  0.50000000000E+01 0.  0.
</event>
<event>
 4    1  0.4973396E-021  0.5000050E+01  0.7818608E-02  0.2136455E+00
        -11   -1    0    0    0    0  0.00000000000E+00  0.00000000000E+00  0.50000499739E+01  0.50000500000E+01  0.51100000000E-03 0. -1.
         11   -1    0    0    0    0 -0.00000000000E+00 -0.00000000000E+00 -0.50000499739E+01  0.50000500000E+01  0.51100000000E-03 0.  1.
         50    1    1    2    0    0  0.19730218276E-01  0.10328157607E-01  0.20124977565E-02  0.50000500000E+01  0.50000000000E+01 0.  1.
         50    1    1    2    0    0 -0.19730218276E-01 -0.10328157607E-01 -0.20124977565E-02  0.50000500000E+01  0.50000000000E+01 0.  0.
</event>
<event>
 4    1  0.4973396E-021  0.5000050E+01  0.7818608E-02  0.2136455E+00
        -11   -1    0    0    0    0  0.00000000000E+00  0.00000000000E+00  0.50000499739E+01  0.50000500000E+01  0.51100000000E-03 0. -1.
         11   -1    0    0    0    0 -0.00000000000E+00 -0.00000000000E+00 -0.50000499739E+01  0.50000500000E+01  0.51100000000E-03 0.  1.
         50    1    1    2    0    0 -0.12675694453E-01 -0.15688696578E-01  0.96537075675E-02  0.50000500000E+01  0.50000000000E+01 0.  0.
         50    1    1    2    0    0  0.12675694453E-01  0.15688696578E-01 -0.96537075675E-02  0.50000500000E+01  0.50000000000E+01 0.  0.
</event>
<event>
 4    1  0.4973396E-021  0.5000050E+01  0.7818608E-02  0.2136455E+00
        -11   -1    0    0    0    0  0.00000000000E+00  0.00000000000E+00  0.50000499739E+01  0.50000500000E+01  0.51100000000E-03 0. -1.
         11   -1    0    0    0    0 -0.00000000000E+00 -0.00000000000E+00 -0.50000499739E+01  0.50000500000E+01  0.51100000000E-03 0.  1.
         50    1    1    2    0    0  0.14261403768E-01  0.13372921407E-01  0.10852641872E-01  0.50000500000E+01  0.50000000000E+01 0. -1.
         50    1    1    2    0    0 -0.14261403768E-01 -0.13372921407E-01 -0.10852641872E-01  0.50000500000E+01  0.50000000000E+01 0.  1.
</event>
<event>
 4    1  0.4973396E-021  0.5000050E+01  0.7818608E-02  0.2136455E+00
        -11   -1    0    0    0    0  0.00000000000E+00  0.00000000000E+00  0.50000499739E+01  0.50000500000E+01  0.51100000000E-03 0.  1.
         11   -1    0    0    0    0 -0.00000000000E+00 -0.00000000000E+00 -0.50000499739E+01  0.50000500000E+01  0.51100000000E-03 0. -1.
         50    1    1    2    0    0  0.11618317242E-01 -0.50345838924E-02  0.18430142959E-01  0.50000500000E+01  0.50000000000E+01 0.  1.
         50    1    1    2    0    0 -0.11618317242E-01  0.50345838924E-02 -0.18430142959E-01  0.50000500000E+01  0.50000000000E+01 0. -1.
</event>
<event>
 4    1  0.4973396E-021  0.5000050E+01  0.7818608E-02  0.2136455E+00
        -11   -1    0    0    0    0  0.00000000000E+00  0.00000000000E+00  0.50000499739E+01  0.50000500000E+01  0.51100000000E-03 0. -1.
         11   -1    0    0    0    0 -0.00000000000E+00 -0.00000000000E+00 -0.50000499739E+01  0.50000500000E+01  0.51100000000E-03 0.  1.
         50    1    1    2    0    0 -0.18546115698E-01  0.76414626476E-02 -0.98819097903E-02  0.50000500000E+01  0.50000000000E+01 0.  1.
         50    1    1    2    0    0  0.18546115698E-01 -0.76414626476E-02  0.98819097903E-02  0.50000500000E+01  0.50000000000E+01 0. -1.
</event>
<event>
 4    1  0.4973396E-021  0.5000050E+01  0.7818608E-02  0.2136455E+00
        -11   -1    0    0    0    0  0.00000000000E+00  0.00000000000E+00  0.50000499739E+01  0.50000500000E+01  0.51100000000E-03 0. -1.
         11   -1    0    0    0    0 -0.00000000000E+00 -0.00000000000E+00 -0.50000499739E+01  0.50000500000E+01  0.51100000000E-03 0.  1.
         50    1    1    2    0    0 -0.71263010398E-03 -0.22326934016E-01 -0.10013369938E-02  0.50000500000E+01  0.50000000000E+01 0. -1.
         50    1    1    2    0    0  0.71263010398E-03  0.22326934016E-01  0.10013369938E-02  0.50000500000E+01  0.50000000000E+01 0.  1.
</event>
<event>
 4    1  0.4973396E-021  0.5000050E+01  0.7818608E-02  0.2136455E+00
        -11   -1    0    0    0    0  0.00000000000E+00  0.00000000000E+00  0.50000499739E+01  0.50000500000E+01  0.51100000000E-03 0. -1.
         11   -1    0    0    0    0 -0.00000000000E+00 -0.00000000000E+00 -0.50000499739E+01  0.50000500000E+01  0.51100000000E-03 0.  1.
         50    1    1    2    0    0  0.18270423956E-02  0.22248785403E-01 -0.12868427222E-02  0.50000500000E+01  0.50000000000E+01 0. -1.
         50    1    1    2    0    0 -0.18270423956E-02 -0.22248785403E-01  0.12868427222E-02  0.50000500000E+01  0.50000000000E+01 0.  0.
</event>
<event>
 4    1  0.4973396E-021  0.5000050E+01  0.7818608E-02  0.2136455E+00
        -11   -1    0    0    0    0  0.00000000000E+00  0.00000000000E+00  0.50000499739E+01  0.50000500000E+01  0.51100000000E-03 0. -1.
         11   -1    0    0    0    0 -0.00000000000E+00 -0.00000000000E+00 -0.50000499739E+01  0.50000500000E+01  0.51100000000E-03 0.  1.
         50    1    1    2    0    0 -0.16283941237E-01 -0.60411464986E-03  0.15312439494E-01  0.50000500000E+01  0.50000000000E+01 0.  0.
         50    1    1    2    0    0  0.16283941237E-01  0.60411464986E-03 -0.15312439494E-01  0.50000500000E+01  0.50000000000E+01 0.  0.
</event>
<event>
 4    1  0.4973396E-021  0.5000050E+01  0.7818608E-02  0.2136455E+00
        -11   -1    0    0    0    0  0.00000000000E+00  0.00000000000E+00  0.50000499739E+01  0.50000500000E+01  0.51100000000E-03 0. -1.
         11   -1    0    0    0    0 -0.00000000000E+00 -0.00000000000E+00 -0.50000499739E+01  0.50000500000E+01  0.51100000000E-03 0.  1.
         50    1    1    2    0    0  0.14227568942E-01  0.16691591106E-01 -0.43554067920E-02  0.50000500000E+01  0.50000000000E+01 0.  1.
         50    1    1    2    0    0 -0.14227568942E-01 -0.16691591106E-01  0.43554067920E-02  0.50000500000E+01  0.50000000000E+01 0. -1.
</event>
<event>
 4    1  0.4973396E-021  0.5000050E+01  0.7818608E-02  0.2136455E+00
        -11   -1    0    0    0    0  0.00000000000E+00  0.00000000000E+00  0.50000499739E+01  0.50000500000E+01  0.51100000000E-03 0.  1.
         11   -1    0    0    0    0 -0.00000000000E+00 -0.00000000000E+00 -0.50000499739E+01  0.50000500000E+01  0.51100000000E-03 0. -1.
         50    1    1    2    0    0  0.59317670868E-02 -0.58252859396E-02  0.20757713818E-01  0.50000500000E+01  0.50000000000E+01 0.  0.
         50    1    1    2    0    0 -0.59317670868E-02  0.58252859396E-02 -0.20757713818E-01  0.50000500000E+01  0.50000000000E+01 0. -1.
</event>
<event>
 4    1  0.4973396E-021  0.5000050E+01  0.7818608E-02  0.2136455E+00
        -11   -1    0    0    0    0  0.00000000000E+00  0.00000000000E+00  0.50000499739E+01  0.50000500000E+01  0.51100000000E-03 0.  1.
         11   -1    0    0    0    0 -0.00000000000E+00 -0.00000000000E+00 -0.50000499739E+01  0.50000500000E+01  0.51100000000E-03 0. -1.
         50    1    1    2    0    0 -0.86289498912E-02  0.15781922312E-01  0.13284376234E-01  0.50000500000E+01  0.50000000000E+01 0.  1.
         50    1    1    2    0    0  0.86289498912E-02 -0.15781922312E-01 -0.13284376234E-01  0.50000500000E+01  0.50000000000E+01 0. -1.
</event>
<event>
 4    1  0.4973396E-021  0.5000050E+01  0.7818608E-02  0.2136455E+00
        -11   -1    0    0    0    0  0.00000000000E+00  0.00000000000E+00  0.50000499739E+01  0.50000500000E+01  0.51100000000E-03 0. -1.
         11   -1    0    0    0    0 -0.00000000000E+00 -0.00000000000E+00 -0.50000499739E+01  0.50000500000E+01  0.51100000000E-03 0.  1.
         50    1    1    2    0    0 -0.22251243559E-01  0.10134575944E-02 -0.19640681730E-02  0.50000500000E+01  0.50000000000E+01 0. -1.
         50    1    1    2    0    0  0.22251243559E-01 -0.10134575944E-02  0.19640681730E-02  0.50000500000E+01  0.50000000000E+01 0.  1.
</event>
<event>
 4    1  0.4973396E-021  0.5000050E+01  0.7818608E-02  0.2136455E+00
        -11   -1    0    0    0    0  0.00000000000E+00  0.00000000000E+00  0.50000499739E+01  0.50000500000E+01  0.51100000000E-03 0. -1.
         11   -1    0    0    0    0 -0.00000000000E+00 -0.00000000000E+00 -0.50000499739E+01  0.50000500000E+01  0.51100000000E-03 0.  1.
         50    1    1    2    0    0  0.44027673905E-02  0.18716367489E-01  0.11415591413E-01  0.50000500000E+01  0.50000000000E+01 0.  1.
         50    1    1    2    0    0 -0.44027673905E-02 -0.18716367489E-01 -0.11415591413E-01  0.50000500000E+01  0.50000000000E+01 0.  0.
</event>
<event>
 4    1  0.4973396E-021  0.5000050E+01  0.7818608E-02  0.2136455E+00
        -11   -1    0    0    0    0  0.00000000000E+00  0.00000000000E+00  0.50000499739E+01  0.50000500000E+01  0.51100000000E-03 0. -1.
         11   -1    0    0    0    0 -0.00000000000E+00 -0.00000000000E+00 -0.50000499739E+01  0.50000500000E+01  0.51100000000E-03 0.  1.
         50    1    1    2    0    0  0.19877242989E-01 -0.95150340460E-02  0.37897016058E-02  0.50000500000E+01  0.50000000000E+01 0.  1.
         50    1    1    2    0    0 -0.19877242989E-01  0.95150340460E-02 -0.37897016058E-02  0.50000500000E+01  0.50000000000E+01 0. -1.
</event>
<event>
 4    1  0.4973396E-021  0.5000050E+01  0.7818608E-02  0.2136455E+00
        -11   -1    0    0    0    0  0.00000000000E+00  0.00000000000E+00  0.50000499739E+01  0.50000500000E+01  0.51100000000E-03 0. -1.
         11   -1    0    0    0    0 -0.00000000000E+00 -0.00000000000E+00 -0.50000499739E+01  0.50000500000E+01  0.51100000000E-03 0.  1.
         50    1    1    2    0    0 -0.11393506721E-01 -0.19178846078E-01 -0.15369995827E-02  0.50000500000E+01  0.50000000000E+01 0.  1.
         50    1    1    2    0    0  0.11393506721E-01  0.19178846078E-01  0.15369995827E-02  0.50000500000E+01  0.50000000000E+01 0. -1.
</event>
<event>
 4    1  0.4973396E-021  0.5000050E+01  0.7818608E-02  0.2136455E+00
        -11   -1    0    0    0    0  0.00000000000E+00  0.00000000000E+00  0.50000499739E+01  0.50000500000E+01  0.51100000000E-03 0.  1.
         11   -1    0    0    0    0 -0.00000000000E+00 -0.00000000000E+00 -0.50000499739E+01  0.50000500000E+01  0.51100000000E-03 0. -1.
         50    1    1    2    0    0  0.38230935313E-02 -0.96758052040E-02 -0.19793060640E-01  0.50000500000E+01  0.50000000000E+01 0.  0.
         50    1    1    2    0    0 -0.38230935313E-02  0.96758052040E-02  0.19793060640E-01  0.50000500000E+01  0.50000000000E+01 0.  0.
</event>
<event>
 4    1  0.4973396E-021  0.5000050E+01  0.7818608E-02  0.2136455E+00
        -11   -1    0    0    0    0  0.00000000000E+00  0.00000000000E+00  0.50000499739E+01  0.50000500000E+01  0.51100000000E-03 0. -1.
         11   -1    0    0    0    0 -0.00000000000E+00 -0.00000000000E+00 -0.50000499739E+01  0.50000500000E+01  0.51100000000E-03 0.  1.
         50    1    1    2    0    0  0.19670886475E-01 -0.86717246703E-04  0.10632554040E-01  0.50000500000E+01  0.50000000000E+01 0. -1.
         50    1    1    2    0    0 -0.19670886475E-01  0.86717246703E-04 -0.10632554040E-01  0.50000500000E+01  0.50000000000E+01 0.  1.
</event>
<event>
 4    1  0.4973396E-021  0.5000050E+01  0.7818608E-02  0.2136455E+00
        -11   -1    0    0    0    0  0.00000000000E+00  0.00000000000E+00  0.50000499739E+01  0.50000500000E+01  0.51100000000E-03 0. -1.
         11   -1    0    0    0    0 -0.00000000000E+00 -0.00000000000E+00 -0.50000499739E+01  0.50000500000E+01  0.51100000000E-03 0.  1.
         50    1    1    2    0    0  0.73287914017E-02  0.19080339654E-01  0.90681836821E-02  0.50000500000E+01  0.50000000000E+01 0.  1.
         50    1    1    2    0    0 -0.73287914017E-02 -0.19080339654E-01 -0.90681836821E-02  0.50000500000E+01  0.50000000000E+01 0. -1.
</event>
<event>
 4    1  0.4973396E-021  0.5000050E+01  0.7818608E-02  0.2136455E+00
        -11   -1    0    0    0    0  0.00000000000E+00  0.00000000000E+00  0.50000499739E+01  0.50000500000E+01  0.51100000000E-03 0. -1.
         11   -1    0    0    0    0 -0.00000000000E+00 -0.00000000000E+00 -0.50000499739E+01  0.50000500000E+01  0.51100000000E-03 0.  1.
         50    1    1    2    0    0  0.10496221674E-01 -0.19744155613E-01 -0.12235776733E-04  0.50000500000E+01  0.50000000000E+01 0.  1.
         50    1    1    2    0    0 -0.10496221674E-01  0.19744155613E-01  0.12235776733E-04  0.50000500000E+01  0.50000000000E+01 0. -1.
</event>
<event>
 4    1  0.4973396E-021  0.5000050E+01  0.7818608E-02  0.2136455E+00
        -11   -1    0    0    0    0  0.00000000000E+00  0.00000000000E+00  0.50000499739E+01  0.50000500000E+01  0.51100000000E-03 0.  1.
         11   -1    0    0    0    0 -0.00000000000E+00 -0.00000000000E+00 -0.50000499739E+01  0.50000500000E+01  0.51100000000E-03 0. -1.
         50    1    1    2    0    0 -0.63336595271E-02  0.16759302562E-01  0.13379575278E-01  0.50000500000E+01  0.50000000000E+01 0.  1.
         50    1    1    2    0    0  0.63336595271E-02 -0.16759302562E-01 -0.13379575278E-01  0.50000500000E+01  0.50000000000E+01 0. -1.
</event>
<event>
 4    1  0.4973396E-021  0.5000050E+01  0.7818608E-02  0.2136455E+00
        -11   -1    0    0    0    0  0.00000000000E+00  0.00000000000E+00  0.50000499739E+01  0.50000500000E+01  0.51100000000E-03 0. -1.
         11   -1    0    0    0    0 -0.00000000000E+00 -0.00000000000E+00 -0.50000499739E+01  0.50000500000E+01  0.51100000000E-03 0.  1.
         50    1    1    2    0    0  0.98369230539E-04 -0.19417101502E-01  0.11089138504E-01  0.50000500000E+01  0.50000000000E+01 0.  1.
         50    1    1    2    0    0 -0.98369230539E-04  0.19417101502E-01 -0.11089138504E-01  0.50000500000E+01  0.50000000000E+01 0.  0.
</event>
<event>
 4    1  0.4973396E-021  0.5000050E+01  0.7818608E-02  0.2136455E+00
        -11   -1    0    0    0    0  0.00000000000E+00  0.00000000000E+00  0.50000499739E+01  0.50000500000E+01  0.51100000000E-03 0.  1.
         11   -1    0    0    0    0 -0.00000000000E+00 -0.00000000000E+00 -0.50000499739E+01  0.50000500000E+01  0.51100000000E-03 0. -1.
         50    1    1    2    0    0 -0.12473486271E-01 -0.15092089437E-01  0.10800160956E-01  0.50000500000E+01  0.50000000000E+01 0. -1.
         50    1    1    2    0    0  0.12473486271E-01  0.15092089437E-01 -0.10800160956E-01  0.50000500000E+01  0.50000000000E+01 0.  1.
</event>
<event>
 4    1  0.4973396E-021  0.5000050E+01  0.7818608E-02  0.2136455E+00
        -11   -1    0    0    0    0  0.00000000000E+00  0.00000000000E+00  0.50000499739E+01  0.50000500000E+01  0.51100000000E-03 0.  1.
         11   -1    0    0    0    0 -0.00000000000E+00 -0.00000000000E+00 -0.50000499739E+01  0.50000500000E+01  0.51100000000E-03 0. -1.
         50    1    1    2    0    0 -0.15776928823E-01  0.12085169838E-01  0.10248887105E-01  0.50000500000E+01  0.50000000000E+01 0.  1.
         50    1    1    2    0    0  0.15776928823E-01 -0.12085169838E-01 -0.10248887105E-01  0.50000500000E+01  0.50000000000E+01 0. -1.
</event>
<event>
 4    1  0.4973396E-021  0.5000050E+01  0.7818608E-02  0.2136455E+00
        -11   -1    0    0    0    0  0.00000000000E+00  0.00000000000E+00  0.50000499739E+01  0.50000500000E+01  0.51100000000E-03 0.  1.
         11   -1    0    0    0    0 -0.00000000000E+00 -0.00000000000E+00 -0.50000499739E+01  0.50000500000E+01  0.51100000000E-03 0. -1.
         50    1    1    2    0    0  0.95039623517E-02 -0.13128117407E-01  0.15405509825E-01  0.50000500000E+01  0.50000000000E+01 0.  1.
         50    1    1    2    0    0 -0.95039623517E-02  0.13128117407E-01 -0.15405509825E-01  0.50000500000E+01  0.50000000000E+01 0. -1.
</event>
<event>
 4    1  0.4973396E-021  0.5000050E+01  0.7818608E-02  0.2136455E+00
        -11   -1    0    0    0    0  0.00000000000E+00  0.00000000000E+00  0.50000499739E+01  0.50000500000E+01  0.51100000000E-03 0. -1.
         11   -1    0    0    0    0 -0.00000000000E+00 -0.00000000000E+00 -0.50000499739E+01  0.50000500000E+01  0.51100000000E-03 0.  1.
         50    1    1    2    0    0 -0.79888836957E-02 -0.76021719852E-02  0.19452177729E-01  0.50000500000E+01  0.50000000000E+01 0. -1.
         50    1    1    2    0    0  0.79888836957E-02  0.76021719852E-02 -0.19452177729E-01  0.50000500000E+01  0.50000000000E+01 0.  0.
</event>
<event>
 4    1  0.4973396E-021  0.5000050E+01  0.7818608E-02  0.2136455E+00
        -11   -1    0    0    0    0  0.00000000000E+00  0.00000000000E+00  0.50000499739E+01  0.50000500000E+01  0.51100000000E-03 0. -1.
         11   -1    0    0    0    0 -0.00000000000E+00 -0.00000000000E+00 -0.50000499739E+01  0.50000500000E+01  0.51100000000E-03 0.  1.
         50    1    1    2    0    0  0.16602550193E-01 -0.96624757135E-02  0.11445278073E-01  0.50000500000E+01  0.50000000000E+01 0. -1.
         50    1    1    2    0    0 -0.16602550193E-01  0.96624757135E-02 -0.11445278073E-01  0.50000500000E+01  0.50000000000E+01 0. -1.
</event>
<event>
 4    1  0.4973396E-021  0.5000050E+01  0.7818608E-02  0.2136455E+00
        -11   -1    0    0    0    0  0.00000000000E+00  0.00000000000E+00  0.50000499739E+01  0.50000500000E+01  0.51100000000E-03 0.  1.
         11   -1    0    0    0    0 -0.00000000000E+00 -0.00000000000E+00 -0.50000499739E+01  0.50000500000E+01  0.51100000000E-03 0. -1.
         50    1    1    2    0    0  0.17408239269E-01  0.11428194382E-01 -0.81456785300E-02  0.50000500000E+01  0.50000000000E+01 0.  0.
         50    1    1    2    0    0 -0.17408239269E-01 -0.11428194382E-01  0.81456785300E-02  0.50000500000E+01  0.50000000000E+01 0. -1.
</event>
<event>
 4    1  0.4973396E-021  0.5000050E+01  0.7818608E-02  0.2136455E+00
        -11   -1    0    0    0    0  0.00000000000E+00  0.00000000000E+00  0.50000499739E+01  0.50000500000E+01  0.51100000000E-03 0. -1.
         11   -1    0    0    0    0 -0.00000000000E+00 -0.00000000000E+00 -0.50000499739E+01  0.50000500000E+01  0.51100000000E-03 0.  1.
         50    1    1    2    0    0  0.90485270652E-02  0.19538711759E-01  0.60303731853E-02  0.50000500000E+01  0.50000000000E+01 0. -1.
         50    1    1    2    0    0 -0.90485270652E-02 -0.19538711759E-01 -0.60303731853E-02  0.50000500000E+01  0.50000000000E+01 0.  1.
</event>
<event>
 4    1  0.4973396E-021  0.5000050E+01  0.7818608E-02  0.2136455E+00
        -11   -1    0    0    0    0  0.00000000000E+00  0.00000000000E+00  0.50000499739E+01  0.50000500000E+01  0.51100000000E-03 0.  1.
         11   -1    0    0    0    0 -0.00000000000E+00 -0.00000000000E+00 -0.50000499739E+01  0.50000500000E+01  0.51100000000E-03 0. -1.
         50    1    1    2    0    0  0.18314370178E-01 -0.71277139531E-02  0.10666866400E-01  0.50000500000E+01  0.50000000000E+01 0.  0.
         50    1    1    2    0    0 -0.18314370178E-01  0.71277139531E-02 -0.10666866400E-01  0.50000500000E+01  0.50000000000E+01 0.  0.
</event>
<event>
 4    1  0.4973396E-021  0.5000050E+01  0.7818608E-02  0.2136455E+00
        -11   -1    0    0    0    0  0.00000000000E+00  0.00000000000E+00  0.50000499739E+01  0.50000500000E+01  0.51100000000E-03 0.  1.
         11   -1    0    0    0    0 -0.00000000000E+00 -0.00000000000E+00 -0.50000499739E+01  0.50000500000E+01  0.51100000000E-03 0. -1.
         50    1    1    2    0    0 -0.21240682089E-01 -0.13773733856E-02 -0.68511872661E-02  0.50000500000E+01  0.50000000000E+01 0. -1.
         50    1    1    2    0    0  0.21240682089E-01  0.13773733856E-02  0.68511872661E-02  0.50000500000E+01  0.50000000000E+01 0.  1.
</event>
<event>
 4    1  0.4973396E-021  0.5000050E+01  0.7818608E-02  0.2136455E+00
        -11   -1    0    0    0    0  0.00000000000E+00  0.00000000000E+00  0.50000499739E+01  0.50000500000E+01  0.51100000000E-03 0.  1.
         11   -1    0    0    0    0 -0.00000000000E+00 -0.00000000000E+00 -0.50000499739E+01  0.50000500000E+01  0.51100000000E-03 0. -1.
         50    1    1    2    0    0  0.21858844915E-01 -0.43408501282E-02  0.18304150145E-02  0.50000500000E+01  0.50000000000E+01 0. -1.
         50    1    1    2    0    0 -0.21858844915E-01  0.43408501282E-02 -0.18304150145E-02  0.50000500000E+01  0.50000000000E+01 0.  0.
</event>
<event>
 4    1  0.4973396E-021  0.5000050E+01  0.7818608E-02  0.2136455E+00
        -11   -1    0    0    0    0  0.00000000000E+00  0.00000000000E+00  0.50000499739E+01  0.50000500000E+01  0.51100000000E-03 0. -1.
         11   -1    0    0    0    0 -0.00000000000E+00 -0.00000000000E+00 -0.50000499739E+01  0.50000500000E+01  0.51100000000E-03 0.  1.
         50    1    1    2    0    0 -0.60553594889E-02 -0.21519371856E-01 -0.50175329114E-03  0.50000500000E+01  0.50000000000E+01 0. -1.
         50    1    1    2    0    0  0.60553594889E-02  0.21519371856E-01  0.50175329114E-03  0.50000500000E+01  0.50000000000E+01 0.  0.
</event>
<event>
 4    1  0.4973396E-021  0.5000050E+01  0.7818608E-02  0.2136455E+00
        -11   -1    0    0    0    0  0.00000000000E+00  0.00000000000E+00  0.50000499739E+01  0.50000500000E+01  0.51100000000E-03 0. -1.
         11   -1    0    0    0    0 -0.00000000000E+00 -0.00000000000E+00 -0.50000499739E+01  0.50000500000E+01  0.51100000000E-03 0.  1.
         50    1    1    2    0    0 -0.14137699689E-01  0.26616983880E-02  0.17118507797E-01  0.50000500000E+01  0.50000000000E+01 0. -1.
         50    1    1    2    0    0  0.14137699689E-01 -0.26616983880E-02 -0.17118507797E-01  0.50000500000E+01  0.50000000000E+01 0.  1.
</event>
<event>
 4    1  0.4973396E-021  0.5000050E+01  0.7818608E-02  0.2136455E+00
        -11   -1    0    0    0    0  0.00000000000E+00  0.00000000000E+00  0.50000499739E+01  0.50000500000E+01  0.51100000000E-03 0. -1.
         11   -1    0    0    0    0 -0.00000000000E+00 -0.00000000000E+00 -0.50000499739E+01  0.50000500000E+01  0.51100000000E-03 0.  1.
         50    1    1    2    0    0 -0.22004836694E-01  0.36133551492E-02 -0.16532775412E-02  0.50000500000E+01  0.50000000000E+01 0.  0.
         50    1    1    2    0    0  0.22004836694E-01 -0.36133551492E-02  0.16532775412E-02  0.50000500000E+01  0.50000000000E+01 0.  1.
</event>
<event>
 4    1  0.4973396E-021  0.5000050E+01  0.7818608E-02  0.2136455E+00
        -11   -1    0    0    0    0  0.00000000000E+00  0.00000000000E+00  0.50000499739E+01  0.50000500000E+01  0.51100000000E-03 0.  1.
         11   -1    0    0    0    0 -0.00000000000E+00 -0.00000000000E+00 -0.50000499739E+01  0.50000500000E+01  0.51100000000E-03 0. -1.
         50    1    1    2    0    0 -0.55217905839E-02 -0.75883022298E-02  0.20296058682E-01  0.50000500000E+01  0.50000000000E+01 0.  1.
         50    1    1    2    0    0  0.55217905839E-02  0.75883022298E-02 -0.20296058682E-01  0.50000500000E+01  0.50000000000E+01 0. -1.
</event>
<event>
 4    1  0.4973396E-021  0.5000050E+01  0.7818608E-02  0.2136455E+00
        -11   -1    0    0    0    0  0.00000000000E+00  0.00000000000E+00  0.50000499739E+01  0.50000500000E+01  0.51100000000E-03 0. -1.
         11   -1    0    0    0    0 -0.00000000000E+00 -0.00000000000E+00 -0.50000499739E+01  0.50000500000E+01  0.51100000000E-03 0.  1.
         50    1    1    2    0    0 -0.73424089590E-02 -0.63657970538E-02 -0.20138722863E-01  0.50000500000E+01  0.50000000000E+01 0.  1.
         50    1    1    2    0    0  0.73424089590E-02  0.63657970538E-02  0.20138722863E-01  0.50000500000E+01  0.50000000000E+01 0.  0.
</event>
<event>
 4    1  0.4973396E-021  0.5000050E+01  0.7818608E-02  0.2136455E+00
        -11   -1    0    0    0    0  0.00000000000E+00  0.00000000000E+00  0.50000499739E+01  0.50000500000E+01  0.51100000000E-03 0. -1.
         11   -1    0    0    0    0 -0.00000000000E+00 -0.00000000000E+00 -0.50000499739E+01  0.50000500000E+01  0.51100000000E-03 0.  1.
         50    1    1    2    0    0  0.44426369755E-02 -0.10624113502E-01 -0.19167516506E-01  0.50000500000E+01  0.50000000000E+01 0.  1.
         50    1    1    2    0    0 -0.44426369755E-02  0.10624113502E-01  0.19167516506E-01  0.50000500000E+01  0.50000000000E+01 0.  0.
</event>
<event>
 4    1  0.4973396E-021  0.5000050E+01  0.7818608E-02  0.2136455E+00
        -11   -1    0    0    0    0  0.00000000000E+00  0.00000000000E+00  0.50000499739E+01  0.50000500000E+01  0.51100000000E-03 0.  1.
         11   -1    0    0    0    0 -0.00000000000E+00 -0.00000000000E+00 -0.50000499739E+01  0.50000500000E+01  0.51100000000E-03 0. -1.
         50    1    1    2    0    0  0.57468005788E-02  0.13545533002E-01 -0.16837319228E-01  0.50000500000E+01  0.50000000000E+01 0. -1.
         50    1    1    2    0    0 -0.57468005788E-02 -0.13545533002E-01  0.16837319228E-01  0.50000500000E+01  0.50000000000E+01 0.  1.
</event>
<event>
 4    1  0.4973396E-021  0.5000050E+01  0.7818608E-02  0.2136455E+00
        -11   -1    0    0    0    0  0.00000000000E+00  0.00000000000E+00  0.50000499739E+01  0.50000500000E+01  0.51100000000E-03 0. -1.
         11   -1    0    0    0    0 -0.00000000000E+00 -0.00000000000E+00 -0.50000499739E+01  0.50000500000E+01  0.51100000000E-03 0.  1.
         50    1    1    2    0    0  0.13730016148E-01  0.44698965077E-02  0.17073639969E-01  0.50000500000E+01  0.50000000000E+01 0. -1.
         50    1    1    2    0    0 -0.13730016148E-01 -0.44698965077E-02 -0.17073639969E-01  0.50000500000E+01  0.50000000000E+01 0.  0.
</event>
<event>
 4    1  0.4973396E-021  0.5000050E+01  0.7818608E-02  0.2136455E+00
        -11   -1    0    0    0    0  0.00000000000E+00  0.00000000000E+00  0.50000499739E+01  0.50000500000E+01  0.51100000000E-03 0. -1.
         11   -1    0    0    0    0 -0.00000000000E+00 -0.00000000000E+00 -0.50000499739E+01  0.50000500000E+01  0.51100000000E-03 0.  1.
         50    1    1    2    0    0 -0.94779681630E-02 -0.39684541984E-02  0.19860060191E-01  0.50000500000E+01  0.50000000000E+01 0. -1.
         50    1    1    2    0    0  0.94779681630E-02  0.39684541984E-02 -0.19860060191E-01  0.50000500000E+01  0.50000000000E+01 0. -1.
</event>
<event>
 4    1  0.4973396E-021  0.5000050E+01  0.7818608E-02  0.2136455E+00
        -11   -1    0    0    0    0  0.00000000000E+00  0.00000000000E+00  0.50000499739E+01  0.50000500000E+01  0.51100000000E-03 0. -1.
         11   -1    0    0    0    0 -0.00000000000E+00 -0.00000000000E+00 -0.50000499739E+01  0.50000500000E+01  0.51100000000E-03 0.  1.
         50    1    1    2    0    0 -0.49907276011E-02 -0.12566531485E-01 -0.17809475693E-01  0.50000500000E+01  0.50000000000E+01 0.  0.
         50    1    1    2    0    0  0.49907276011E-02  0.12566531485E-01  0.17809475693E-01  0.50000500000E+01  0.50000000000E+01 0.  1.
</event>
<event>
 4    1  0.4973396E-021  0.5000050E+01  0.7818608E-02  0.2136455E+00
        -11   -1    0    0    0    0  0.00000000000E+00  0.00000000000E+00  0.50000499739E+01  0.50000500000E+01  0.51100000000E-03 0. -1.
         11   -1    0    0    0    0 -0.00000000000E+00 -0.00000000000E+00 -0.50000499739E+01  0.50000500000E+01  0.51100000000E-03 0.  1.
         50    1    1    2    0    0 -0.10323392504E-01  0.15706889710E-01  0.12112955165E-01  0.50000500000E+01  0.50000000000E+01 0. -1.
         50    1    1    2    0    0  0.10323392504E-01 -0.15706889710E-01 -0.12112955165E-01  0.50000500000E+01  0.50000000000E+01 0.  1.
</event>
<event>
 4    1  0.4973396E-021  0.5000050E+01  0.7818608E-02  0.2136455E+00
        -11   -1    0    0    0    0  0.00000000000E+00  0.00000000000E+00  0.50000499739E+01  0.50000500000E+01  0.51100000000E-03 0. -1.
         11   -1    0    0    0    0 -0.00000000000E+00 -0.00000000000E+00 -0.50000499739E+01  0.50000500000E+01  0.51100000000E-03 0.  1.
         50    1    1    2    0    0  0.11617383190E-01 -0.80989815412E-02 -0.17304490914E-01  0.50000500000E+01  0.50000000000E+01 0.  1.
         50    1    1    2    0    0 -0.11617383190E-01  0.80989815412E-02  0.17304490914E-01  0.50000500000E+01  0.50000000000E+01 0. -1.
</event>
<event>
 4    1  0.4973396E-021  0.5000050E+01  0.7818608E-02  0.2136455E+00
        -11   -1    0    0    0    0  0.00000000000E+00  0.00000000000E+00  0.50000499739E+01  0.50000500000E+01  0.51100000000E-03 0.  1.
         11   -1    0    0    0    0 -0.00000000000E+00 -0.00000000000E+00 -0.50000499739E+01  0.50000500000E+01  0.51100000000E-03 0. -1.
         50    1    1    2    0    0  0.77777165747E-03  0.22285428712E-01 -0.16604934148E-02  0.50000500000E+01  0.50000000000E+01 0. -1.
         50    1    1    2    0    0 -0.77777165747E-03 -0.22285428712E-01  0.16604934148E-02  0.50000500000E+01  0.50000000000E+01 0.  1.
</event>
<event>
 4    1  0.4973396E-021  0.5000050E+01  0.7818608E-02  0.2136455E+00
        -11   -1    0    0    0    0  0.00000000000E+00  0.00000000000E+00  0.50000499739E+01  0.50000500000E+01  0.51100000000E-03 0.  1.
         11   -1    0    0    0    0 -0.00000000000E+00 -0.00000000000E+00 -0.50000499739E+01  0.50000500000E+01  0.51100000000E-03 0. -1.
         50    1    1    2    0    0  0.12841178762E-01  0.18062808054E-01 -0.29734816643E-02  0.50000500000E+01  0.50000000000E+01 0. -1.
         50    1    1    2    0    0 -0.12841178762E-01 -0.18062808054E-01  0.29734816643E-02  0.50000500000E+01  0.50000000000E+01 0.  1.
</event>
<event>
 4    1  0.4973396E-021  0.5000050E+01  0.7818608E-02  0.2136455E+00
        -11   -1    0    0    0    0  0.00000000000E+00  0.00000000000E+00  0.50000499739E+01  0.50000500000E+01  0.51100000000E-03 0.  1.
         11   -1    0    0    0    0 -0.00000000000E+00 -0.00000000000E+00 -0.50000499739E+01  0.50000500000E+01  0.51100000000E-03 0. -1.
         50    1    1    2    0    0  0.20585732153E-01  0.85289546590E-02 -0.18673682402E-02  0.50000500000E+01  0.50000000000E+01 0. -1.
         50    1    1    2    0    0 -0.20585732153E-01 -0.85289546590E-02  0.18673682402E-02  0.50000500000E+01  0.50000000000E+01 0.  1.
</event>
<event>
 4    1  0.4973396E-021  0.5000050E+01  0.7818608E-02  0.2136455E+00
        -11   -1    0    0    0    0  0.00000000000E+00  0.00000000000E+00  0.50000499739E+01  0.50000500000E+01  0.51100000000E-03 0.  1.
         11   -1    0    0    0    0 -0.00000000000E+00 -0.00000000000E+00 -0.50000499739E+01  0.50000500000E+01  0.51100000000E-03 0. -1.
         50    1    1    2    0    0  0.14876732827E-02 -0.17507355618E-02  0.22242397649E-01  0.50000500000E+01  0.50000000000E+01 0.  1.
         50    1    1    2    0    0 -0.14876732827E-02  0.17507355618E-02 -0.22242397649E-01  0.50000500000E+01  0.50000000000E+01 0.  0.
</event>
<event>
 4    1  0.4973396E-021  0.5000050E+01  0.7818608E-02  0.2136455E+00
        -11   -1    0    0    0    0  0.00000000000E+00  0.00000000000E+00  0.50000499739E+01  0.50000500000E+01  0.51100000000E-03 0.  1.
         11   -1    0    0    0    0 -0.00000000000E+00 -0.00000000000E+00 -0.50000499739E+01  0.50000500000E+01  0.51100000000E-03 0. -1.
         50    1    1    2    0    0 -0.65822417474E-02  0.10889473943E-01  0.18387385644E-01  0.50000500000E+01  0.50000000000E+01 0.  1.
         50    1    1    2    0    0  0.65822417474E-02 -0.10889473943E-01 -0.18387385644E-01  0.50000500000E+01  0.50000000000E+01 0. -1.
</event>
<event>
 4    1  0.4973396E-021  0.5000050E+01  0.7818608E-02  0.2136455E+00
        -11   -1    0    0    0    0  0.00000000000E+00  0.00000000000E+00  0.50000499739E+01  0.50000500000E+01  0.51100000000E-03 0.  1.
         11   -1    0    0    0    0 -0.00000000000E+00 -0.00000000000E+00 -0.50000499739E+01  0.50000500000E+01  0.51100000000E-03 0. -1.
         50    1    1    2    0    0 -0.65924600589E-02  0.21324831436E-01  0.13392291113E-02  0.50000500000E+01  0.50000000000E+01 0. -1.
         50    1    1    2    0    0  0.65924600589E-02 -0.21324831436E-01 -0.13392291113E-02  0.50000500000E+01  0.50000000000E+01 0.  0.
</event>
<event>
 4    1  0.4973396E-021  0.5000050E+01  0.7818608E-02  0.2136455E+00
        -11   -1    0    0    0    0  0.00000000000E+00  0.00000000000E+00  0.50000499739E+01  0.50000500000E+01  0.51100000000E-03 0.  1.
         11   -1    0    0    0    0 -0.00000000000E+00 -0.00000000000E+00 -0.50000499739E+01  0.50000500000E+01  0.51100000000E-03 0. -1.
         50    1    1    2    0    0  0.15882469692E-01 -0.23357544143E-02  0.15565792874E-01  0.50000500000E+01  0.50000000000E+01 0. -1.
         50    1    1    2    0    0 -0.15882469692E-01  0.23357544143E-02 -0.15565792874E-01  0.50000500000E+01  0.50000000000E+01 0. -1.
</event>
<event>
 4    1  0.4973396E-021  0.5000050E+01  0.7818608E-02  0.2136455E+00
        -11   -1    0    0    0    0  0.00000000000E+00  0.00000000000E+00  0.50000499739E+01  0.50000500000E+01  0.51100000000E-03 0. -1.
         11   -1    0    0    0    0 -0.00000000000E+00 -0.00000000000E+00 -0.50000499739E+01  0.50000500000E+01  0.51100000000E-03 0.  1.
         50    1    1    2    0    0  0.17096997594E-01  0.12601185642E-01  0.69932319911E-02  0.50000500000E+01  0.50000000000E+01 0.  1.
         50    1    1    2    0    0 -0.17096997594E-01 -0.12601185642E-01 -0.69932319911E-02  0.50000500000E+01  0.50000000000E+01 0.  0.
</event>
<event>
 4    1  0.4973396E-021  0.5000050E+01  0.7818608E-02  0.2136455E+00
        -11   -1    0    0    0    0  0.00000000000E+00  0.00000000000E+00  0.50000499739E+01  0.50000500000E+01  0.51100000000E-03 0.  1.
         11   -1    0    0    0    0 -0.00000000000E+00 -0.00000000000E+00 -0.50000499739E+01  0.50000500000E+01  0.51100000000E-03 0. -1.
         50    1    1    2    0    0 -0.20584005998E-01  0.67886155277E-02 -0.54968987876E-02  0.50000500000E+01  0.50000000000E+01 0.  0.
         50    1    1    2    0    0  0.20584005998E-01 -0.67886155277E-02  0.54968987876E-02  0.50000500000E+01  0.50000000000E+01 0. -1.
</event>
<event>
 4    1  0.4973396E-021  0.5000050E+01  0.7818608E-02  0.2136455E+00
        -11   -1    0    0    0    0  0.00000000000E+00  0.00000000000E+00  0.50000499739E+01  0.50000500000E+01  0.51100000000E-03 0.  1.
         11   -1    0    0    0    0 -0.00000000000E+00 -0.00000000000E+00 -0.50000499739E+01  0.50000500000E+01  0.51100000000E-03 0. -1.
         50    1    1    2    0    0 -0.20358773092E-01 -0.42888383585E-02  0.81932120521E-02  0.50000500000E+01  0.50000000000E+01 0.  0.
         50    1    1    2    0    0  0.20358773092E-01  0.42888383585E-02 -0.81932120521E-02  0.50000500000E+01  0.50000000000E+01 0.  1.
</event>
<event>
 4    1  0.4973396E-021  0.5000050E+01  0.7818608E-02  0.2136455E+00
        -11   -1    0    0    0    0  0.00000000000E+00  0.00000000000E+00  0.50000499739E+01  0.50000500000E+01  0.51100000000E-03 0. -1.
         11   -1    0    0    0    0 -0.00000000000E+00 -0.00000000000E+00 -0.50000499739E+01  0.50000500000E+01  0.51100000000E-03 0.  1.
         50    1    1    2    0    0 -0.41741436713E-02 -0.16101345572E-01  0.14944085632E-01  0.50000500000E+01  0.50000000000E+01 0. -1.
         50    1    1    2    0    0  0.41741436713E-02  0.16101345572E-01 -0.14944085632E-01  0.50000500000E+01  0.50000000000E+01 0.  1.
</event>
<event>
 4    1  0.4973396E-021  0.5000050E+01  0.7818608E-02  0.2136455E+00
        -11   -1    0    0    0    0  0.00000000000E+00  0.00000000000E+00  0.50000499739E+01  0.50000500000E+01  0.51100000000E-03 0.  1.
         11   -1    0    0    0    0 -0.00000000000E+00 -0.00000000000E+00 -0.50000499739E+01  0.50000500000E+01  0.51100000000E-03 0. -1.
         50    1    1    2    0    0 -0.15203336786E-01  0.11541133324E-01 -0.11647458614E-01  0.50000500000E+01  0.50000000000E+01 0. -1.
         50    1    1    2    0    0  0.15203336786E-01 -0.11541133324E-01  0.11647458614E-01  0.50000500000E+01  0.50000000000E+01 0.  1.
</event>
<event>
 4    1  0.4973396E-021  0.5000050E+01  0.7818608E-02  0.2136455E+00
        -11   -1    0    0    0    0  0.00000000000E+00  0.00000000000E+00  0.50000499739E+01  0.50000500000E+01  0.51100000000E-03 0. -1.
         11   -1    0    0    0    0 -0.00000000000E+00 -0.00000000000E+00 -0.50000499739E+01  0.50000500000E+01  0.51100000000E-03 0.  1.
         50    1    1    2    0    0  0.97194900732E-02 -0.46476202614E-02  0.19594224624E-01  0.50000500000E+01  0.50000000000E+01 0.  0.
         50    1    1    2    0    0 -0.97194900732E-02  0.46476202614E-02 -0.19594224624E-01  0.50000500000E+01  0.50000000000E+01 0.  1.
</event>
<event>
 4    1  0.4973396E-021  0.5000050E+01  0.7818608E-02  0.2136455E+00
        -11   -1    0    0    0    0  0.00000000000E+00  0.00000000000E+00  0.50000499739E+01  0.50000500000E+01  0.51100000000E-03 0.  1.
         11   -1    0    0    0    0 -0.00000000000E+00 -0.00000000000E+00 -0.50000499739E+01  0.50000500000E+01  0.51100000000E-03 0. -1.
         50    1    1    2    0    0  0.14741019362E-01 -0.29831241652E-02  0.16547078848E-01  0.50000500000E+01  0.50000000000E+01 0. -1.
         50    1    1    2    0    0 -0.14741019362E-01  0.29831241652E-02 -0.16547078848E-01  0.50000500000E+01  0.50000000000E+01 0. -1.
</event>
<event>
 4    1  0.4973396E-021  0.5000050E+01  0.7818608E-02  0.2136455E+00
        -11   -1    0    0    0    0  0.00000000000E+00  0.00000000000E+00  0.50000499739E+01  0.50000500000E+01  0.51100000000E-03 0. -1.
         11   -1    0    0    0    0 -0.00000000000E+00 -0.00000000000E+00 -0.50000499739E+01  0.50000500000E+01  0.51100000000E-03 0.  1.
         50    1    1    2    0    0  0.15025306470E-01 -0.50434017514E-02  0.15773609741E-01  0.50000500000E+01  0.50000000000E+01 0.  0.
         50    1    1    2    0    0 -0.15025306470E-01  0.50434017514E-02 -0.15773609741E-01  0.50000500000E+01  0.50000000000E+01 0.  0.
</event>
<event>
 4    1  0.4973396E-021  0.5000050E+01  0.7818608E-02  0.2136455E+00
        -11   -1    0    0    0    0  0.00000000000E+00  0.00000000000E+00  0.50000499739E+01  0.50000500000E+01  0.51100000000E-03 0.  1.
         11   -1    0    0    0    0 -0.00000000000E+00 -0.00000000000E+00 -0.50000499739E+01  0.50000500000E+01  0.51100000000E-03 0. -1.
         50    1    1    2    0    0 -0.12644293814E-01  0.46997588575E-02  0.17833580701E-01  0.50000500000E+01  0.50000000000E+01 0.  1.
         50    1    1    2    0    0  0.12644293814E-01 -0.46997588575E-02 -0.17833580701E-01  0.50000500000E+01  0.50000000000E+01 0. -1.
</event>
<event>
 4    1  0.4973396E-021  0.5000050E+01  0.7818608E-02  0.2136455E+00
        -11   -1    0    0    0    0  0.00000000000E+00  0.00000000000E+00  0.50000499739E+01  0.50000500000E+01  0.51100000000E-03 0. -1.
         11   -1    0    0    0    0 -0.00000000000E+00 -0.00000000000E+00 -0.50000499739E+01  0.50000500000E+01  0.51100000000E-03 0.  1.
         50    1    1    2    0    0 -0.16294215506E-01  0.30609294849E-02  0.15004391082E-01  0.50000500000E+01  0.50000000000E+01 0. -1.
         50    1    1    2    0    0  0.16294215506E-01 -0.30609294849E-02 -0.15004391082E-01  0.50000500000E+01  0.50000000000E+01 0.  1.
</event>
<event>
 4    1  0.4973396E-021  0.5000050E+01  0.7818608E-02  0.2136455E+00
        -11   -1    0    0    0    0  0.00000000000E+00  0.00000000000E+00  0.50000499739E+01  0.50000500000E+01  0.51100000000E-03 0.  1.
         11   -1    0    0    0    0 -0.00000000000E+00 -0.00000000000E+00 -0.50000499739E+01  0.50000500000E+01  0.51100000000E-03 0. -1.
         50    1    1    2    0    0  0.18733147775E-01  0.11212862851E-01  0.48314988478E-02  0.50000500000E+01  0.50000000000E+01 0. -1.
         50    1    1    2    0    0 -0.18733147775E-01 -0.11212862851E-01 -0.48314988478E-02  0.50000500000E+01  0.50000000000E+01 0.  0.
</event>
<event>
 4    1  0.4973396E-021  0.5000050E+01  0.7818608E-02  0.2136455E+00
        -11   -1    0    0    0    0  0.00000000000E+00  0.00000000000E+00  0.50000499739E+01  0.50000500000E+01  0.51100000000E-03 0.  1.
         11   -1    0    0    0    0 -0.00000000000E+00 -0.00000000000E+00 -0.50000499739E+01  0.50000500000E+01  0.51100000000E-03 0. -1.
         50    1    1    2    0    0 -0.83786933656E-02 -0.34045197660E-03  0.20728822686E-01  0.50000500000E+01  0.50000000000E+01 0.  1.
         50    1    1    2    0    0  0.83786933656E-02  0.34045197660E-03 -0.20728822686E-01  0.50000500000E+01  0.50000000000E+01 0.  0.
</event>
<event>
 4    1  0.4973396E-021  0.5000050E+01  0.7818608E-02  0.2136455E+00
        -11   -1    0    0    0    0  0.00000000000E+00  0.00000000000E+00  0.50000499739E+01  0.50000500000E+01  0.51100000000E-03 0.  1.
         11   -1    0    0    0    0 -0.00000000000E+00 -0.00000000000E+00 -0.50000499739E+01  0.50000500000E+01  0.51100000000E-03 0. -1.
         50    1    1    2    0    0 -0.13136141372E-01 -0.17120209936E-01 -0.58602646347E-02  0.50000500000E+01  0.50000000000E+01 0. -1.
         50    1    1    2    0    0  0.13136141372E-01  0.17120209936E-01  0.58602646347E-02  0.50000500000E+01  0.50000000000E+01 0.  1.
</event>
<event>
 4    1  0.4973396E-021  0.5000050E+01  0.7818608E-02  0.2136455E+00
        -11   -1    0    0    0    0  0.00000000000E+00  0.00000000000E+00  0.50000499739E+01  0.50000500000E+01  0.51100000000E-03 0.  1.
         11   -1    0    0    0    0 -0.00000000000E+00 -0.00000000000E+00 -0.50000499739E+01  0.50000500000E+01  0.51100000000E-03 0. -1.
         50    1    1    2    0    0  0.12211298305E-01 -0.18077351507E-01 -0.49087733886E-02  0.50000500000E+01  0.50000000000E+01 0.  0.
         50    1    1    2    0    0 -0.12211298305E-01  0.18077351507E-01  0.49087733886E-02  0.50000500000E+01  0.50000000000E+01 0. -1.
</event>
<event>
 4    1  0.4973396E-021  0.5000050E+01  0.7818608E-02  0.2136455E+00
        -11   -1    0    0    0    0  0.00000000000E+00  0.00000000000E+00  0.50000499739E+01  0.50000500000E+01  0.51100000000E-03 0. -1.
         11   -1    0    0    0    0 -0.00000000000E+00 -0.00000000000E+00 -0.50000499739E+01  0.50000500000E+01  0.51100000000E-03 0.  1.
         50    1    1    2    0    0 -0.21484034594E-01  0.60529169824E-02 -0.13419961049E-02  0.50000500000E+01  0.50000000000E+01 0.  0.
         50    1    1    2    0    0  0.21484034594E-01 -0.60529169824E-02  0.13419961049E-02  0.50000500000E+01  0.50000000000E+01 0.  0.
</event>
<event>
 4    1  0.4973396E-021  0.5000050E+01  0.7818608E-02  0.2136455E+00
        -11   -1    0    0    0    0  0.00000000000E+00  0.00000000000E+00  0.50000499739E+01  0.50000500000E+01  0.51100000000E-03 0.  1.
         11   -1    0    0    0    0 -0.00000000000E+00 -0.00000000000E+00 -0.50000499739E+01  0.50000500000E+01  0.51100000000E-03 0. -1.
         50    1    1    2    0    0 -0.10611026558E-01  0.15956953414E-01  0.11523204985E-01  0.50000500000E+01  0.50000000000E+01 0.  1.
         50    1    1    2    0    0  0.10611026558E-01 -0.15956953414E-01 -0.11523204985E-01  0.50000500000E+01  0.50000000000E+01 0. -1.
</event>
<event>
 4    1  0.4973396E-021  0.5000050E+01  0.7818608E-02  0.2136455E+00
        -11   -1    0    0    0    0  0.00000000000E+00  0.00000000000E+00  0.50000499739E+01  0.50000500000E+01  0.51100000000E-03 0.  1.
         11   -1    0    0    0    0 -0.00000000000E+00 -0.00000000000E+00 -0.50000499739E+01  0.50000500000E+01  0.51100000000E-03 0. -1.
         50    1    1    2    0    0  0.27116064776E-02 -0.77826574514E-02 -0.20786532498E-01  0.50000500000E+01  0.50000000000E+01 0.  0.
         50    1    1    2    0    0 -0.27116064776E-02  0.77826574514E-02  0.20786532498E-01  0.50000500000E+01  0.50000000000E+01 0.  1.
</event>
<event>
 4    1  0.4973396E-021  0.5000050E+01  0.7818608E-02  0.2136455E+00
        -11   -1    0    0    0    0  0.00000000000E+00  0.00000000000E+00  0.50000499739E+01  0.50000500000E+01  0.51100000000E-03 0.  1.
         11   -1    0    0    0    0 -0.00000000000E+00 -0.00000000000E+00 -0.50000499739E+01  0.50000500000E+01  0.51100000000E-03 0. -1.
         50    1    1    2    0    0  0.21324224013E-01 -0.23451380741E-02 -0.63071624078E-02  0.50000500000E+01  0.50000000000E+01 0.  0.
         50    1    1    2    0    0 -0.21324224013E-01  0.23451380741E-02  0.63071624078E-02  0.50000500000E+01  0.50000000000E+01 0.  0.
</event>
<event>
 4    1  0.4973396E-021  0.5000050E+01  0.7818608E-02  0.2136455E+00
        -11   -1    0    0    0    0  0.00000000000E+00  0.00000000000E+00  0.50000499739E+01  0.50000500000E+01  0.51100000000E-03 0.  1.
         11   -1    0    0    0    0 -0.00000000000E+00 -0.00000000000E+00 -0.50000499739E+01  0.50000500000E+01  0.51100000000E-03 0. -1.
         50    1    1    2    0    0 -0.33103621471E-02  0.14090785186E-01  0.17043877942E-01  0.50000500000E+01  0.50000000000E+01 0.  0.
         50    1    1    2    0    0  0.33103621471E-02 -0.14090785186E-01 -0.17043877942E-01  0.50000500000E+01  0.50000000000E+01 0.  0.
</event>
<event>
 4    1  0.4973396E-021  0.5000050E+01  0.7818608E-02  0.2136455E+00
        -11   -1    0    0    0    0  0.00000000000E+00  0.00000000000E+00  0.50000499739E+01  0.50000500000E+01  0.51100000000E-03 0.  1.
         11   -1    0    0    0    0 -0.00000000000E+00 -0.00000000000E+00 -0.50000499739E+01  0.50000500000E+01  0.51100000000E-03 0. -1.
         50    1    1    2    0    0 -0.21130154064E-01 -0.46330547855E-02  0.56616157225E-02  0.50000500000E+01  0.50000000000E+01 0. -1.
         50    1    1    2    0    0  0.21130154064E-01  0.46330547855E-02 -0.56616157225E-02  0.50000500000E+01  0.50000000000E+01 0.  0.
</event>
<event>
 4    1  0.4973396E-021  0.5000050E+01  0.7818608E-02  0.2136455E+00
        -11   -1    0    0    0    0  0.00000000000E+00  0.00000000000E+00  0.50000499739E+01  0.50000500000E+01  0.51100000000E-03 0. -1.
         11   -1    0    0    0    0 -0.00000000000E+00 -0.00000000000E+00 -0.50000499739E+01  0.50000500000E+01  0.51100000000E-03 0.  1.
         50    1    1    2    0    0 -0.17932343508E-01 -0.13179584964E-01  0.21753382468E-02  0.50000500000E+01  0.50000000000E+01 0.  0.
         50    1    1    2    0    0  0.17932343508E-01  0.13179584964E-01 -0.21753382468E-02  0.50000500000E+01  0.50000000000E+01 0. -1.
</event>
<event>
 4    1  0.4973396E-021  0.5000050E+01  0.7818608E-02  0.2136455E+00
        -11   -1    0    0    0    0  0.00000000000E+00  0.00000000000E+00  0.50000499739E+01  0.50000500000E+01  0.51100000000E-03 0. -1.
         11   -1    0    0    0    0 -0.00000000000E+00 -0.00000000000E+00 -0.50000499739E+01  0.50000500000E+01  0.51100000000E-03 0.  1.
         50    1    1    2    0    0  0.15222906104E-01 -0.16327758824E-01  0.12922544430E-02  0.50000500000E+01  0.50000000000E+01 0.  1.
         50    1    1    2    0    0 -0.15222906104E-01  0.16327758824E-01 -0.12922544430E-02  0.50000500000E+01  0.50000000000E+01 0. -1.
</event>
<event>
 4    1  0.4973396E-021  0.5000050E+01  0.7818608E-02  0.2136455E+00
        -11   -1    0    0    0    0  0.00000000000E+00  0.00000000000E+00  0.50000499739E+01  0.50000500000E+01  0.51100000000E-03 0.  1.
         11   -1    0    0    0    0 -0.00000000000E+00 -0.00000000000E+00 -0.50000499739E+01  0.50000500000E+01  0.51100000000E-03 0. -1.
         50    1    1    2    0    0  0.17048602746E-02  0.22292071639E-01 -0.39936636986E-03  0.50000500000E+01  0.50000000000E+01 0.  1.
         50    1    1    2    0    0 -0.17048602746E-02 -0.22292071639E-01  0.39936636986E-03  0.50000500000E+01  0.50000000000E+01 0.  0.
</event>
<event>
 4    1  0.4973396E-021  0.5000050E+01  0.7818608E-02  0.2136455E+00
        -11   -1    0    0    0    0  0.00000000000E+00  0.00000000000E+00  0.50000499739E+01  0.50000500000E+01  0.51100000000E-03 0.  1.
         11   -1    0    0    0    0 -0.00000000000E+00 -0.00000000000E+00 -0.50000499739E+01  0.50000500000E+01  0.51100000000E-03 0. -1.
         50    1    1    2    0    0 -0.11601407316E-01 -0.16347856392E-01 -0.99074436503E-02  0.50000500000E+01  0.50000000000E+01 0.  0.
         50    1    1    2    0    0  0.11601407316E-01  0.16347856392E-01  0.99074436503E-02  0.50000500000E+01  0.50000000000E+01 0. -1.
</event>
<event>
 4    1  0.4973396E-021  0.5000050E+01  0.7818608E-02  0.2136455E+00
        -11   -1    0    0    0    0  0.00000000000E+00  0.00000000000E+00  0.50000499739E+01  0.50000500000E+01  0.51100000000E-03 0.  1.
         11   -1    0    0    0    0 -0.00000000000E+00 -0.00000000000E+00 -0.50000499739E+01  0.50000500000E+01  0.51100000000E-03 0. -1.
         50    1    1    2    0    0 -0.13529420110E-01  0.17755850725E-01 -0.12988674023E-02  0.50000500000E+01  0.50000000000E+01 0.  0.
         50    1    1    2    0    0  0.13529420110E-01 -0.17755850725E-01  0.12988674023E-02  0.50000500000E+01  0.50000000000E+01 0. -1.
</event>
<event>
 4    1  0.4973396E-021  0.5000050E+01  0.7818608E-02  0.2136455E+00
        -11   -1    0    0    0    0  0.00000000000E+00  0.00000000000E+00  0.50000499739E+01  0.50000500000E+01  0.51100000000E-03 0. -1.
         11   -1    0    0    0    0 -0.00000000000E+00 -0.00000000000E+00 -0.50000499739E+01  0.50000500000E+01  0.51100000000E-03 0.  1.
         50    1    1    2    0    0  0.60642074868E-02  0.10046192707E-01  0.19034229683E-01  0.50000500000E+01  0.50000000000E+01 0.  0.
         50    1    1    2    0    0 -0.60642074868E-02 -0.10046192707E-01 -0.19034229683E-01  0.50000500000E+01  0.50000000000E+01 0.  1.
</event>
<event>
 4    1  0.4973396E-021  0.5000050E+01  0.7818608E-02  0.2136455E+00
        -11   -1    0    0    0    0  0.00000000000E+00  0.00000000000E+00  0.50000499739E+01  0.50000500000E+01  0.51100000000E-03 0.  1.
         11   -1    0    0    0    0 -0.00000000000E+00 -0.00000000000E+00 -0.50000499739E+01  0.50000500000E+01  0.51100000000E-03 0. -1.
         50    1    1    2    0    0  0.10500709404E-01  0.90000856168E-02  0.17570886742E-01  0.50000500000E+01  0.50000000000E+01 0.  1.
         50    1    1    2    0    0 -0.10500709404E-01 -0.90000856168E-02 -0.17570886742E-01  0.50000500000E+01  0.50000000000E+01 0. -1.
</event>
<event>
 4    1  0.4973396E-021  0.5000050E+01  0.7818608E-02  0.2136455E+00
        -11   -1    0    0    0    0  0.00000000000E+00  0.00000000000E+00  0.50000499739E+01  0.50000500000E+01  0.51100000000E-03 0. -1.
         11   -1    0    0    0    0 -0.00000000000E+00 -0.00000000000E+00 -0.50000499739E+01  0.50000500000E+01  0.51100000000E-03 0.  1.
         50    1    1    2    0    0 -0.49997498890E-02  0.54670833130E-02  0.21097772420E-01  0.50000500000E+01  0.50000000000E+01 0. -1.
         50    1    1    2    0    0  0.49997498890E-02 -0.54670833130E-02 -0.21097772420E-01  0.50000500000E+01  0.50000000000E+01 0.  1.
</event>
<event>
 4    1  0.4973396E-021  0.5000050E+01  0.7818608E-02  0.2136455E+00
        -11   -1    0    0    0    0  0.00000000000E+00  0.00000000000E+00  0.50000499739E+01  0.50000500000E+01  0.51100000000E-03 0.  1.
         11   -1    0    0    0    0 -0.00000000000E+00 -0.00000000000E+00 -0.50000499739E+01  0.50000500000E+01  0.51100000000E-03 0. -1.
         50    1    1    2    0    0  0.13347791883E-01  0.39339608651E-02 -0.17503225525E-01  0.50000500000E+01  0.50000000000E+01 0. -1.
         50    1    1    2    0    0 -0.13347791883E-01 -0.39339608651E-02  0.17503225525E-01  0.50000500000E+01  0.50000000000E+01 0.  1.
</event>
<event>
 4    1  0.4973396E-021  0.5000050E+01  0.7818608E-02  0.2136455E+00
        -11   -1    0    0    0    0  0.00000000000E+00  0.00000000000E+00  0.50000499739E+01  0.50000500000E+01  0.51100000000E-03 0.  1.
         11   -1    0    0    0    0 -0.00000000000E+00 -0.00000000000E+00 -0.50000499739E+01  0.50000500000E+01  0.51100000000E-03 0. -1.
         50    1    1    2    0    0  0.17734498064E-01  0.12109449888E-02 -0.13565533188E-01  0.50000500000E+01  0.50000000000E+01 0.  0.
         50    1    1    2    0    0 -0.17734498064E-01 -0.12109449888E-02  0.13565533188E-01  0.50000500000E+01  0.50000000000E+01 0.  0.
</event>
<event>
 4    1  0.4973396E-021  0.5000050E+01  0.7818608E-02  0.2136455E+00
        -11   -1    0    0    0    0  0.00000000000E+00  0.00000000000E+00  0.50000499739E+01  0.50000500000E+01  0.51100000000E-03 0. -1.
         11   -1    0    0    0    0 -0.00000000000E+00 -0.00000000000E+00 -0.50000499739E+01  0.50000500000E+01  0.51100000000E-03 0.  1.
         50    1    1    2    0    0 -0.21546420033E-01  0.49231448624E-02  0.33936600304E-02  0.50000500000E+01  0.50000000000E+01 0. -1.
         50    1    1    2    0    0  0.21546420033E-01 -0.49231448624E-02 -0.33936600304E-02  0.50000500000E+01  0.50000000000E+01 0.  1.
</event>
<event>
 4    1  0.4973396E-021  0.5000050E+01  0.7818608E-02  0.2136455E+00
        -11   -1    0    0    0    0  0.00000000000E+00  0.00000000000E+00  0.50000499739E+01  0.50000500000E+01  0.51100000000E-03 0. -1.
         11   -1    0    0    0    0 -0.00000000000E+00 -0.00000000000E+00 -0.50000499739E+01  0.50000500000E+01  0.51100000000E-03 0.  1.
         50    1    1    2    0    0 -0.10379995409E-01  0.15905544916E-01  0.11801348916E-01  0.50000500000E+01  0.50000000000E+01 0.  0.
         50    1    1    2    0    0  0.10379995409E-01 -0.15905544916E-01 -0.11801348916E-01  0.50000500000E+01  0.50000000000E+01 0.  0.
</event>
<event>
 4    1  0.4973396E-021  0.5000050E+01  0.7818608E-02  0.2136455E+00
        -11   -1    0    0    0    0  0.00000000000E+00  0.00000000000E+00  0.50000499739E+01  0.50000500000E+01  0.51100000000E-03 0. -1.
         11   -1    0    0    0    0 -0.00000000000E+00 -0.00000000000E+00 -0.50000499739E+01  0.50000500000E+01  0.51100000000E-03 0.  1.
         50    1    1    2    0    0  0.10354977022E-01  0.18197053464E-01  0.78513817968E-02  0.50000500000E+01  0.50000000000E+01 0.  0.
         50    1    1    2    0    0 -0.10354977022E-01 -0.18197053464E-01 -0.78513817968E-02  0.50000500000E+01  0.50000000000E+01 0.  0.
</event>
<event>
 4    1  0.4973396E-021  0.5000050E+01  0.7818608E-02  0.2136455E+00
        -11   -1    0    0    0    0  0.00000000000E+00  0.00000000000E+00  0.50000499739E+01  0.50000500000E+01  0.51100000000E-03 0. -1.
         11   -1    0    0    0    0 -0.00000000000E+00 -0.00000000000E+00 -0.50000499739E+01  0.50000500000E+01  0.51100000000E-03 0.  1.
         50    1    1    2    0    0 -0.13918255245E-02  0.17089299535E-01  0.14353437327E-01  0.50000500000E+01  0.50000000000E+01 0. -1.
         50    1    1    2    0    0  0.13918255245E-02 -0.17089299535E-01 -0.14353437327E-01  0.50000500000E+01  0.50000000000E+01 0.  1.
</event>
<event>
 4    1  0.4973396E-021  0.5000050E+01  0.7818608E-02  0.2136455E+00
        -11   -1    0    0    0    0  0.00000000000E+00  0.00000000000E+00  0.50000499739E+01  0.50000500000E+01  0.51100000000E-03 0. -1.
         11   -1    0    0    0    0 -0.00000000000E+00 -0.00000000000E+00 -0.50000499739E+01  0.50000500000E+01  0.51100000000E-03 0.  1.
         50    1    1    2    0    0  0.14383937629E-01 -0.16552513601E-01  0.43725429405E-02  0.50000500000E+01  0.50000000000E+01 0.  1.
         50    1    1    2    0    0 -0.14383937629E-01  0.16552513601E-01 -0.43725429405E-02  0.50000500000E+01  0.50000000000E+01 0.  0.
</event>
<event>
 4    1  0.4973396E-021  0.5000050E+01  0.7818608E-02  0.2136455E+00
        -11   -1    0    0    0    0  0.00000000000E+00  0.00000000000E+00  0.50000499739E+01  0.50000500000E+01  0.51100000000E-03 0.  1.
         11   -1    0    0    0    0 -0.00000000000E+00 -0.00000000000E+00 -0.50000499739E+01  0.50000500000E+01  0.51100000000E-03 0. -1.
         50    1    1    2    0    0 -0.15186256460E-01  0.84455384926E-02 -0.14073130224E-01  0.50000500000E+01  0.50000000000E+01 0.  1.
         50    1    1    2    0    0  0.15186256460E-01 -0.84455384926E-02  0.14073130224E-01  0.50000500000E+01  0.50000000000E+01 0. -1.
</event>
<event>
 4    1  0.4973396E-021  0.5000050E+01  0.7818608E-02  0.2136455E+00
        -11   -1    0    0    0    0  0.00000000000E+00  0.00000000000E+00  0.50000499739E+01  0.50000500000E+01  0.51100000000E-03 0. -1.
         11   -1    0    0    0    0 -0.00000000000E+00 -0.00000000000E+00 -0.50000499739E+01  0.50000500000E+01  0.51100000000E-03 0.  1.
         50    1    1    2    0    0  0.12060237196E-01  0.83829344595E-02  0.16860592772E-01  0.50000500000E+01  0.50000000000E+01 0.  0.
         50    1    1    2    0    0 -0.12060237196E-01 -0.83829344595E-02 -0.16860592772E-01  0.50000500000E+01  0.50000000000E+01 0.  0.
</event>
<event>
 4    1  0.4973396E-021  0.5000050E+01  0.7818608E-02  0.2136455E+00
        -11   -1    0    0    0    0  0.00000000000E+00  0.00000000000E+00  0.50000499739E+01  0.50000500000E+01  0.51100000000E-03 0. -1.
         11   -1    0    0    0    0 -0.00000000000E+00 -0.00000000000E+00 -0.50000499739E+01  0.50000500000E+01  0.51100000000E-03 0.  1.
         50    1    1    2    0    0 -0.16819890429E-01  0.69250820682E-02  0.13005269098E-01  0.50000500000E+01  0.50000000000E+01 0.  1.
         50    1    1    2    0    0  0.16819890429E-01 -0.69250820682E-02 -0.13005269098E-01  0.50000500000E+01  0.50000000000E+01 0.  0.
</event>
<event>
 4    1  0.4973396E-021  0.5000050E+01  0.7818608E-02  0.2136455E+00
        -11   -1    0    0    0    0  0.00000000000E+00  0.00000000000E+00  0.50000499739E+01  0.50000500000E+01  0.51100000000E-03 0. -1.
         11   -1    0    0    0    0 -0.00000000000E+00 -0.00000000000E+00 -0.50000499739E+01  0.50000500000E+01  0.51100000000E-03 0.  1.
         50    1    1    2    0    0 -0.16278132973E-01 -0.14113644305E-01  0.59858108347E-02  0.50000500000E+01  0.50000000000E+01 0.  1.
         50    1    1    2    0    0  0.16278132973E-01  0.14113644305E-01 -0.59858108347E-02  0.50000500000E+01  0.50000000000E+01 0.  0.
</event>
<event>
 4    1  0.4973396E-021  0.5000050E+01  0.7818608E-02  0.2136455E+00
        -11   -1    0    0    0    0  0.00000000000E+00  0.00000000000E+00  0.50000499739E+01  0.50000500000E+01  0.51100000000E-03 0.  1.
         11   -1    0    0    0    0 -0.00000000000E+00 -0.00000000000E+00 -0.50000499739E+01  0.50000500000E+01  0.51100000000E-03 0. -1.
         50    1    1    2    0    0 -0.20255155316E-03 -0.15781348965E-01  0.15840154598E-01  0.50000500000E+01  0.50000000000E+01 0.  0.
         50    1    1    2    0    0  0.20255155316E-03  0.15781348965E-01 -0.15840154598E-01  0.50000500000E+01  0.50000000000E+01 0.  0.
</event>
<event>
 4    1  0.4973396E-021  0.5000050E+01  0.7818608E-02  0.2136455E+00
        -11   -1    0    0    0    0  0.00000000000E+00  0.00000000000E+00  0.50000499739E+01  0.50000500000E+01  0.51100000000E-03 0.  1.
         11   -1    0    0    0    0 -0.00000000000E+00 -0.00000000000E+00 -0.50000499739E+01  0.50000500000E+01  0.51100000000E-03 0. -1.
         50    1    1    2    0    0  0.15654637418E-01  0.14848749594E-02  0.15897483249E-01  0.50000500000E+01  0.50000000000E+01 0.  0.
         50    1    1    2    0    0 -0.15654637418E-01 -0.14848749594E-02 -0.15897483249E-01  0.50000500000E+01  0.50000000000E+01 0.  0.
</event>
<event>
 4    1  0.4973396E-021  0.5000050E+01  0.7818608E-02  0.2136455E+00
        -11   -1    0    0    0    0  0.00000000000E+00  0.00000000000E+00  0.50000499739E+01  0.50000500000E+01  0.51100000000E-03 0. -1.
         11   -1    0    0    0    0 -0.00000000000E+00 -0.00000000000E+00 -0.50000499739E+01  0.50000500000E+01  0.51100000000E-03 0.  1.
         50    1    1    2    0    0  0.84924982627E-03  0.21307353403E-01  0.67288903767E-02  0.50000500000E+01  0.50000000000E+01 0.  1.
         50    1    1    2    0    0 -0.84924982627E-03 -0.21307353403E-01 -0.67288903767E-02  0.50000500000E+01  0.50000000000E+01 0.  0.
</event>
<event>
 4    1  0.4973396E-021  0.5000050E+01  0.7818608E-02  0.2136455E+00
        -11   -1    0    0    0    0  0.00000000000E+00  0.00000000000E+00  0.50000499739E+01  0.50000500000E+01  0.51100000000E-03 0. -1.
         11   -1    0    0    0    0 -0.00000000000E+00 -0.00000000000E+00 -0.50000499739E+01  0.50000500000E+01  0.51100000000E-03 0.  1.
         50    1    1    2    0    0  0.21870898554E-01 -0.44016081841E-02 -0.15139821064E-02  0.50000500000E+01  0.50000000000E+01 0.  1.
         50    1    1    2    0    0 -0.21870898554E-01  0.44016081841E-02  0.15139821064E-02  0.50000500000E+01  0.50000000000E+01 0. -1.
</event>
<event>
 4    1  0.4973396E-021  0.5000050E+01  0.7818608E-02  0.2136455E+00
        -11   -1    0    0    0    0  0.00000000000E+00  0.00000000000E+00  0.50000499739E+01  0.50000500000E+01  0.51100000000E-03 0. -1.
         11   -1    0    0    0    0 -0.00000000000E+00 -0.00000000000E+00 -0.50000499739E+01  0.50000500000E+01  0.51100000000E-03 0.  1.
         50    1    1    2    0    0 -0.93475498039E-02  0.19441501642E-01  0.58867500865E-02  0.50000500000E+01  0.50000000000E+01 0.  1.
         50    1    1    2    0    0  0.93475498039E-02 -0.19441501642E-01 -0.58867500865E-02  0.50000500000E+01  0.50000000000E+01 0.  0.
</event>
<event>
 4    1  0.4973396E-021  0.5000050E+01  0.7818608E-02  0.2136455E+00
        -11   -1    0    0    0    0  0.00000000000E+00  0.00000000000E+00  0.50000499739E+01  0.50000500000E+01  0.51100000000E-03 0. -1.
         11   -1    0    0    0    0 -0.00000000000E+00 -0.00000000000E+00 -0.50000499739E+01  0.50000500000E+01  0.51100000000E-03 0.  1.
         50    1    1    2    0    0  0.19838692498E-01  0.98187170386E-02  0.31656872350E-02  0.50000500000E+01  0.50000000000E+01 0.  1.
         50    1    1    2    0    0 -0.19838692498E-01 -0.98187170386E-02 -0.31656872350E-02  0.50000500000E+01  0.50000000000E+01 0. -1.
</event>
<event>
 4    1  0.4973396E-021  0.5000050E+01  0.7818608E-02  0.2136455E+00
        -11   -1    0    0    0    0  0.00000000000E+00  0.00000000000E+00  0.50000499739E+01  0.50000500000E+01  0.51100000000E-03 0. -1.
         11   -1    0    0    0    0 -0.00000000000E+00 -0.00000000000E+00 -0.50000499739E+01  0.50000500000E+01  0.51100000000E-03 0.  1.
         50    1    1    2    0    0 -0.19875067046E-01  0.76409608644E-02 -0.68264139178E-02  0.50000500000E+01  0.50000000000E+01 0.  1.
         50    1    1    2    0    0  0.19875067046E-01 -0.76409608644E-02  0.68264139178E-02  0.50000500000E+01  0.50000000000E+01 0. -1.
</event>
<event>
 4    1  0.4973396E-021  0.5000050E+01  0.7818608E-02  0.2136455E+00
        -11   -1    0    0    0    0  0.00000000000E+00  0.00000000000E+00  0.50000499739E+01  0.50000500000E+01  0.51100000000E-03 0. -1.
         11   -1    0    0    0    0 -0.00000000000E+00 -0.00000000000E+00 -0.50000499739E+01  0.50000500000E+01  0.51100000000E-03 0.  1.
         50    1    1    2    0    0 -0.36373282190E-02 -0.19502059990E-01  0.10317073207E-01  0.50000500000E+01  0.50000000000E+01 0.  0.
         50    1    1    2    0    0  0.36373282190E-02  0.19502059990E-01 -0.10317073207E-01  0.50000500000E+01  0.50000000000E+01 0.  0.
</event>
<event>
 4    1  0.4973396E-021  0.5000050E+01  0.7818608E-02  0.2136455E+00
        -11   -1    0    0    0    0  0.00000000000E+00  0.00000000000E+00  0.50000499739E+01  0.50000500000E+01  0.51100000000E-03 0.  1.
         11   -1    0    0    0    0 -0.00000000000E+00 -0.00000000000E+00 -0.50000499739E+01  0.50000500000E+01  0.51100000000E-03 0. -1.
         50    1    1    2    0    0 -0.11458304532E-01 -0.19176933277E-01 -0.97723454403E-03  0.50000500000E+01  0.50000000000E+01 0.  0.
         50    1    1    2    0    0  0.11458304532E-01  0.19176933277E-01  0.97723454403E-03  0.50000500000E+01  0.50000000000E+01 0.  1.
</event>
<event>
 4    1  0.4973396E-021  0.5000050E+01  0.7818608E-02  0.2136455E+00
        -11   -1    0    0    0    0  0.00000000000E+00  0.00000000000E+00  0.50000499739E+01  0.50000500000E+01  0.51100000000E-03 0. -1.
         11   -1    0    0    0    0 -0.00000000000E+00 -0.00000000000E+00 -0.50000499739E+01  0.50000500000E+01  0.51100000000E-03 0.  1.
         50    1    1    2    0    0 -0.13623908267E-01  0.91291813086E-02  0.15200318160E-01  0.50000500000E+01  0.50000000000E+01 0. -1.
         50    1    1    2    0    0  0.13623908267E-01 -0.91291813086E-02 -0.15200318160E-01  0.50000500000E+01  0.50000000000E+01 0.  1.
</event>
<event>
 4    1  0.4973396E-021  0.5000050E+01  0.7818608E-02  0.2136455E+00
        -11   -1    0    0    0    0  0.00000000000E+00  0.00000000000E+00  0.50000499739E+01  0.50000500000E+01  0.51100000000E-03 0. -1.
         11   -1    0    0    0    0 -0.00000000000E+00 -0.00000000000E+00 -0.50000499739E+01  0.50000500000E+01  0.51100000000E-03 0.  1.
         50    1    1    2    0    0  0.90480456781E-02  0.19150242912E-01 -0.71696280100E-02  0.50000500000E+01  0.50000000000E+01 0.  0.
         50    1    1    2    0    0 -0.90480456781E-02 -0.19150242912E-01  0.71696280100E-02  0.50000500000E+01  0.50000000000E+01 0.  0.
</event>
<event>
 4    1  0.4973396E-021  0.5000050E+01  0.7818608E-02  0.2136455E+00
        -11   -1    0    0    0    0  0.00000000000E+00  0.00000000000E+00  0.50000499739E+01  0.50000500000E+01  0.51100000000E-03 0.  1.
         11   -1    0    0    0    0 -0.00000000000E+00 -0.00000000000E+00 -0.50000499739E+01  0.50000500000E+01  0.51100000000E-03 0. -1.
         50    1    1    2    0    0 -0.13734226849E-01  0.16934699035E-01 -0.49587782228E-02  0.50000500000E+01  0.50000000000E+01 0. -1.
         50    1    1    2    0    0  0.13734226849E-01 -0.16934699035E-01  0.49587782228E-02  0.50000500000E+01  0.50000000000E+01 0.  0.
</event>
<event>
 4    1  0.4973396E-021  0.5000050E+01  0.7818608E-02  0.2136455E+00
        -11   -1    0    0    0    0  0.00000000000E+00  0.00000000000E+00  0.50000499739E+01  0.50000500000E+01  0.51100000000E-03 0.  1.
         11   -1    0    0    0    0 -0.00000000000E+00 -0.00000000000E+00 -0.50000499739E+01  0.50000500000E+01  0.51100000000E-03 0. -1.
         50    1    1    2    0    0 -0.17284239203E-01 -0.77657565874E-02  0.11872261780E-01  0.50000500000E+01  0.50000000000E+01 0.  0.
         50    1    1    2    0    0  0.17284239203E-01  0.77657565874E-02 -0.11872261780E-01  0.50000500000E+01  0.50000000000E+01 0.  0.
</event>
<event>
 4    1  0.4973396E-021  0.5000050E+01  0.7818608E-02  0.2136455E+00
        -11   -1    0    0    0    0  0.00000000000E+00  0.00000000000E+00  0.50000499739E+01  0.50000500000E+01  0.51100000000E-03 0.  1.
         11   -1    0    0    0    0 -0.00000000000E+00 -0.00000000000E+00 -0.50000499739E+01  0.50000500000E+01  0.51100000000E-03 0. -1.
         50    1    1    2    0    0  0.12266306496E-01  0.18311481991E-01 -0.37722476377E-02  0.50000500000E+01  0.50000000000E+01 0. -1.
         50    1    1    2    0    0 -0.12266306496E-01 -0.18311481991E-01  0.37722476377E-02  0.50000500000E+01  0.50000000000E+01 0.  1.
</event>
<event>
 4    1  0.4973396E-021  0.5000050E+01  0.7818608E-02  0.2136455E+00
        -11   -1    0    0    0    0  0.00000000000E+00  0.00000000000E+00  0.50000499739E+01  0.50000500000E+01  0.51100000000E-03 0. -1.
         11   -1    0    0    0    0 -0.00000000000E+00 -0.00000000000E+00 -0.50000499739E+01  0.50000500000E+01  0.51100000000E-03 0.  1.
         50    1    1    2    0    0  0.65895172741E-02  0.13988538943E-01 -0.16152446884E-01  0.50000500000E+01  0.50000000000E+01 0.  1.
         50    1    1    2    0    0 -0.65895172741E-02 -0.13988538943E-01  0.16152446884E-01  0.50000500000E+01  0.50000000000E+01 0. -1.
</event>
<event>
 4    1  0.4973396E-021  0.5000050E+01  0.7818608E-02  0.2136455E+00
        -11   -1    0    0    0    0  0.00000000000E+00  0.00000000000E+00  0.50000499739E+01  0.50000500000E+01  0.51100000000E-03 0.  1.
         11   -1    0    0    0    0 -0.00000000000E+00 -0.00000000000E+00 -0.50000499739E+01  0.50000500000E+01  0.51100000000E-03 0. -1.
         50    1    1    2    0    0  0.69110769275E-02  0.21265733732E-01  0.89913996480E-04  0.50000500000E+01  0.50000000000E+01 0.  1.
         50    1    1    2    0    0 -0.69110769275E-02 -0.21265733732E-01 -0.89913996481E-04  0.50000500000E+01  0.50000000000E+01 0. -1.
</event>
<event>
 4    1  0.4973396E-021  0.5000050E+01  0.7818608E-02  0.2136455E+00
        -11   -1    0    0    0    0  0.00000000000E+00  0.00000000000E+00  0.50000499739E+01  0.50000500000E+01  0.51100000000E-03 0. -1.
         11   -1    0    0    0    0 -0.00000000000E+00 -0.00000000000E+00 -0.50000499739E+01  0.50000500000E+01  0.51100000000E-03 0.  1.
         50    1    1    2    0    0 -0.16825461949E-01  0.65554033737E-02  0.13188366723E-01  0.50000500000E+01  0.50000000000E+01 0. -1.
         50    1    1    2    0    0  0.16825461949E-01 -0.65554033737E-02 -0.13188366723E-01  0.50000500000E+01  0.50000000000E+01 0. -1.
</event>
<event>
 4    1  0.4973396E-021  0.5000050E+01  0.7818608E-02  0.2136455E+00
        -11   -1    0    0    0    0  0.00000000000E+00  0.00000000000E+00  0.50000499739E+01  0.50000500000E+01  0.51100000000E-03 0. -1.
         11   -1    0    0    0    0 -0.00000000000E+00 -0.00000000000E+00 -0.50000499739E+01  0.50000500000E+01  0.51100000000E-03 0.  1.
         50    1    1    2    0    0 -0.28268906902E-02  0.18776087933E-01 -0.11809729503E-01  0.50000500000E+01  0.50000000000E+01 0.  0.
         50    1    1    2    0    0  0.28268906902E-02 -0.18776087933E-01  0.11809729503E-01  0.50000500000E+01  0.50000000000E+01 0.  0.
</event>
<event>
 4    1  0.4973396E-021  0.5000050E+01  0.7818608E-02  0.2136455E+00
        -11   -1    0    0    0    0  0.00000000000E+00  0.00000000000E+00  0.50000499739E+01  0.50000500000E+01  0.51100000000E-03 0. -1.
         11   -1    0    0    0    0 -0.00000000000E+00 -0.00000000000E+00 -0.50000499739E+01  0.50000500000E+01  0.51100000000E-03 0.  1.
         50    1    1    2    0    0  0.13219405968E-01 -0.13002748706E-01 -0.12497132948E-01  0.50000500000E+01  0.50000000000E+01 0.  1.
         50    1    1    2    0    0 -0.13219405968E-01  0.13002748706E-01  0.12497132948E-01  0.50000500000E+01  0.50000000000E+01 0. -1.
</event>
<event>
 4    1  0.4973396E-021  0.5000050E+01  0.7818608E-02  0.2136455E+00
        -11   -1    0    0    0    0  0.00000000000E+00  0.00000000000E+00  0.50000499739E+01  0.50000500000E+01  0.51100000000E-03 0.  1.
         11   -1    0    0    0    0 -0.00000000000E+00 -0.00000000000E+00 -0.50000499739E+01  0.50000500000E+01  0.51100000000E-03 0. -1.
         50    1    1    2    0    0  0.21056899621E-01  0.71352021694E-02 -0.23871255418E-02  0.50000500000E+01  0.50000000000E+01 0. -1.
         50    1    1    2    0    0 -0.21056899621E-01 -0.71352021694E-02  0.23871255418E-02  0.50000500000E+01  0.50000000000E+01 0.  1.
</event>
<event>
 4    1  0.4973396E-021  0.5000050E+01  0.7818608E-02  0.2136455E+00
        -11   -1    0    0    0    0  0.00000000000E+00  0.00000000000E+00  0.50000499739E+01  0.50000500000E+01  0.51100000000E-03 0. -1.
         11   -1    0    0    0    0 -0.00000000000E+00 -0.00000000000E+00 -0.50000499739E+01  0.50000500000E+01  0.51100000000E-03 0.  1.
         50    1    1    2    0    0 -0.17306970580E-01 -0.80868436234E-02  0.11622143931E-01  0.50000500000E+01  0.50000000000E+01 0. -1.
         50    1    1    2    0    0  0.17306970580E-01  0.80868436234E-02 -0.11622143931E-01  0.50000500000E+01  0.50000000000E+01 0.  1.
</event>
<event>
 4    1  0.4973396E-021  0.5000050E+01  0.7818608E-02  0.2136455E+00
        -11   -1    0    0    0    0  0.00000000000E+00  0.00000000000E+00  0.50000499739E+01  0.50000500000E+01  0.51100000000E-03 0.  1.
         11   -1    0    0    0    0 -0.00000000000E+00 -0.00000000000E+00 -0.50000499739E+01  0.50000500000E+01  0.51100000000E-03 0. -1.
         50    1    1    2    0    0  0.70342310172E-02 -0.11977950770E-01 -0.17522864759E-01  0.50000500000E+01  0.50000000000E+01 0.  0.
         50    1    1    2    0    0 -0.70342310172E-02  0.11977950770E-01  0.17522864759E-01  0.50000500000E+01  0.50000000000E+01 0.  0.
</event>
<event>
 4    1  0.4973396E-021  0.5000050E+01  0.7818608E-02  0.2136455E+00
        -11   -1    0    0    0    0  0.00000000000E+00  0.00000000000E+00  0.50000499739E+01  0.50000500000E+01  0.51100000000E-03 0.  1.
         11   -1    0    0    0    0 -0.00000000000E+00 -0.00000000000E+00 -0.50000499739E+01  0.50000500000E+01  0.51100000000E-03 0. -1.
         50    1    1    2    0    0  0.93873497435E-02  0.15479481165E-01 -0.13125007720E-01  0.50000500000E+01  0.50000000000E+01 0. -1.
         50    1    1    2    0    0 -0.93873497435E-02 -0.15479481165E-01  0.13125007720E-01  0.50000500000E+01  0.50000000000E+01 0.  1.
</event>
<event>
 4    1  0.4973396E-021  0.5000050E+01  0.7818608E-02  0.2136455E+00
        -11   -1    0    0    0    0  0.00000000000E+00  0.00000000000E+00  0.50000499739E+01  0.50000500000E+01  0.51100000000E-03 0. -1.
         11   -1    0    0    0    0 -0.00000000000E+00 -0.00000000000E+00 -0.50000499739E+01  0.50000500000E+01  0.51100000000E-03 0.  1.
         50    1    1    2    0    0  0.34708111721E-02 -0.18770176437E-01  0.11646306124E-01  0.50000500000E+01  0.50000000000E+01 0.  1.
         50    1    1    2    0    0 -0.34708111721E-02  0.18770176437E-01 -0.11646306124E-01  0.50000500000E+01  0.50000000000E+01 0.  0.
</event>
<event>
 4    1  0.4973396E-021  0.5000050E+01  0.7818608E-02  0.2136455E+00
        -11   -1    0    0    0    0  0.00000000000E+00  0.00000000000E+00  0.50000499739E+01  0.50000500000E+01  0.51100000000E-03 0.  1.
         11   -1    0    0    0    0 -0.00000000000E+00 -0.00000000000E+00 -0.50000499739E+01  0.50000500000E+01  0.51100000000E-03 0. -1.
         50    1    1    2    0    0  0.13318433140E-01  0.16689641154E-01 -0.66391051219E-02  0.50000500000E+01  0.50000000000E+01 0.  0.
         50    1    1    2    0    0 -0.13318433140E-01 -0.16689641154E-01  0.66391051219E-02  0.50000500000E+01  0.50000000000E+01 0. -1.
</event>
<event>
 4    1  0.4973396E-021  0.5000050E+01  0.7818608E-02  0.2136455E+00
        -11   -1    0    0    0    0  0.00000000000E+00  0.00000000000E+00  0.50000499739E+01  0.50000500000E+01  0.51100000000E-03 0.  1.
         11   -1    0    0    0    0 -0.00000000000E+00 -0.00000000000E+00 -0.50000499739E+01  0.50000500000E+01  0.51100000000E-03 0. -1.
         50    1    1    2    0    0  0.91190316167E-02 -0.93715097399E-02  0.18138924102E-01  0.50000500000E+01  0.50000000000E+01 0.  1.
         50    1    1    2    0    0 -0.91190316167E-02  0.93715097399E-02 -0.18138924102E-01  0.50000500000E+01  0.50000000000E+01 0. -1.
</event>
<event>
 4    1  0.4973396E-021  0.5000050E+01  0.7818608E-02  0.2136455E+00
        -11   -1    0    0    0    0  0.00000000000E+00  0.00000000000E+00  0.50000499739E+01  0.50000500000E+01  0.51100000000E-03 0. -1.
         11   -1    0    0    0    0 -0.00000000000E+00 -0.00000000000E+00 -0.50000499739E+01  0.50000500000E+01  0.51100000000E-03 0.  1.
         50    1    1    2    0    0  0.20877971409E-01  0.29885196330E-02 -0.74284291908E-02  0.50000500000E+01  0.50000000000E+01 0. -1.
         50    1    1    2    0    0 -0.20877971409E-01 -0.29885196330E-02  0.74284291908E-02  0.50000500000E+01  0.50000000000E+01 0.  1.
</event>
<event>
 4    1  0.4973396E-021  0.5000050E+01  0.7818608E-02  0.2136455E+00
        -11   -1    0    0    0    0  0.00000000000E+00  0.00000000000E+00  0.50000499739E+01  0.50000500000E+01  0.51100000000E-03 0. -1.
         11   -1    0    0    0    0 -0.00000000000E+00 -0.00000000000E+00 -0.50000499739E+01  0.50000500000E+01  0.51100000000E-03 0.  1.
         50    1    1    2    0    0 -0.38887330701E-03  0.21586724491E-01 -0.58193301414E-02  0.50000500000E+01  0.50000000000E+01 0. -1.
         50    1    1    2    0    0  0.38887330701E-03 -0.21586724491E-01  0.58193301414E-02  0.50000500000E+01  0.50000000000E+01 0.  0.
</event>
<event>
 4    1  0.4973396E-021  0.5000050E+01  0.7818608E-02  0.2136455E+00
        -11   -1    0    0    0    0  0.00000000000E+00  0.00000000000E+00  0.50000499739E+01  0.50000500000E+01  0.51100000000E-03 0. -1.
         11   -1    0    0    0    0 -0.00000000000E+00 -0.00000000000E+00 -0.50000499739E+01  0.50000500000E+01  0.51100000000E-03 0.  1.
         50    1    1    2    0    0  0.26745120320E-02 -0.70792520391E-02 -0.21041237510E-01  0.50000500000E+01  0.50000000000E+01 0.  1.
         50    1    1    2    0    0 -0.26745120320E-02  0.70792520391E-02  0.21041237510E-01  0.50000500000E+01  0.50000000000E+01 0.  0.
</event>
<event>
 4    1  0.4973396E-021  0.5000050E+01  0.7818608E-02  0.2136455E+00
        -11   -1    0    0    0    0  0.00000000000E+00  0.00000000000E+00  0.50000499739E+01  0.50000500000E+01  0.51100000000E-03 0. -1.
         11   -1    0    0    0    0 -0.00000000000E+00 -0.00000000000E+00 -0.50000499739E+01  0.50000500000E+01  0.51100000000E-03 0.  1.
         50    1    1    2    0    0 -0.21938288738E-01  0.16388838090E-02  0.40035043556E-02  0.50000500000E+01  0.50000000000E+01 0. -1.
         50    1    1    2    0    0  0.21938288738E-01 -0.16388838090E-02 -0.40035043556E-02  0.50000500000E+01  0.50000000000E+01 0.  1.
</event>
<event>
 4    1  0.4973396E-021  0.5000050E+01  0.7818608E-02  0.2136455E+00
        -11   -1    0    0    0    0  0.00000000000E+00  0.00000000000E+00  0.50000499739E+01  0.50000500000E+01  0.51100000000E-03 0.  1.
         11   -1    0    0    0    0 -0.00000000000E+00 -0.00000000000E+00 -0.50000499739E+01  0.50000500000E+01  0.51100000000E-03 0. -1.
         50    1    1    2    0    0 -0.11024994662E-01  0.17289054917E-01  0.89185521682E-02  0.50000500000E+01  0.50000000000E+01 0. -1.
         50    1    1    2    0    0  0.11024994662E-01 -0.17289054917E-01 -0.89185521682E-02  0.50000500000E+01  0.50000000000E+01 0. -1.
</event>
<event>
 4    1  0.4973396E-021  0.5000050E+01  0.7818608E-02  0.2136455E+00
        -11   -1    0    0    0    0  0.00000000000E+00  0.00000000000E+00  0.50000499739E+01  0.50000500000E+01  0.51100000000E-03 0.  1.
         11   -1    0    0    0    0 -0.00000000000E+00 -0.00000000000E+00 -0.50000499739E+01  0.50000500000E+01  0.51100000000E-03 0. -1.
         50    1    1    2    0    0  0.13623458390E-01  0.16865508393E-01  0.54734365935E-02  0.50000500000E+01  0.50000000000E+01 0.  1.
         50    1    1    2    0    0 -0.13623458390E-01 -0.16865508393E-01 -0.54734365935E-02  0.50000500000E+01  0.50000000000E+01 0. -1.
</event>
<event>
 4    1  0.4973396E-021  0.5000050E+01  0.7818608E-02  0.2136455E+00
        -11   -1    0    0    0    0  0.00000000000E+00  0.00000000000E+00  0.50000499739E+01  0.50000500000E+01  0.51100000000E-03 0.  1.
         11   -1    0    0    0    0 -0.00000000000E+00 -0.00000000000E+00 -0.50000499739E+01  0.50000500000E+01  0.51100000000E-03 0. -1.
         50    1    1    2    0    0  0.14702525955E-01 -0.15306928055E-01  0.70381946584E-02  0.50000500000E+01  0.50000000000E+01 0.  1.
         50    1    1    2    0    0 -0.14702525955E-01  0.15306928055E-01 -0.70381946584E-02  0.50000500000E+01  0.50000000000E+01 0. -1.
</event>
<event>
 4    1  0.4973396E-021  0.5000050E+01  0.7818608E-02  0.2136455E+00
        -11   -1    0    0    0    0  0.00000000000E+00  0.00000000000E+00  0.50000499739E+01  0.50000500000E+01  0.51100000000E-03 0. -1.
         11   -1    0    0    0    0 -0.00000000000E+00 -0.00000000000E+00 -0.50000499739E+01  0.50000500000E+01  0.51100000000E-03 0.  1.
         50    1    1    2    0    0 -0.11027164852E-01  0.13100257684E-01 -0.14380103753E-01  0.50000500000E+01  0.50000000000E+01 0.  0.
         50    1    1    2    0    0  0.11027164852E-01 -0.13100257684E-01  0.14380103753E-01  0.50000500000E+01  0.50000000000E+01 0.  0.
</event>
<event>
 4    1  0.4973396E-021  0.5000050E+01  0.7818608E-02  0.2136455E+00
        -11   -1    0    0    0    0  0.00000000000E+00  0.00000000000E+00  0.50000499739E+01  0.50000500000E+01  0.51100000000E-03 0. -1.
         11   -1    0    0    0    0 -0.00000000000E+00 -0.00000000000E+00 -0.50000499739E+01  0.50000500000E+01  0.51100000000E-03 0.  1.
         50    1    1    2    0    0  0.11029799494E-01  0.60849841260E-03 -0.19441598515E-01  0.50000500000E+01  0.50000000000E+01 0.  1.
         50    1    1    2    0    0 -0.11029799494E-01 -0.60849841260E-03  0.19441598515E-01  0.50000500000E+01  0.50000000000E+01 0.  0.
</event>
<event>
 4    1  0.4973396E-021  0.5000050E+01  0.7818608E-02  0.2136455E+00
        -11   -1    0    0    0    0  0.00000000000E+00  0.00000000000E+00  0.50000499739E+01  0.50000500000E+01  0.51100000000E-03 0.  1.
         11   -1    0    0    0    0 -0.00000000000E+00 -0.00000000000E+00 -0.50000499739E+01  0.50000500000E+01  0.51100000000E-03 0. -1.
         50    1    1    2    0    0  0.93812962583E-02  0.16622762209E-01 -0.11648070958E-01  0.50000500000E+01  0.50000000000E+01 0. -1.
         50    1    1    2    0    0 -0.93812962583E-02 -0.16622762209E-01  0.11648070958E-01  0.50000500000E+01  0.50000000000E+01 0.  1.
</event>
<event>
 4    1  0.4973396E-021  0.5000050E+01  0.7818608E-02  0.2136455E+00
        -11   -1    0    0    0    0  0.00000000000E+00  0.00000000000E+00  0.50000499739E+01  0.50000500000E+01  0.51100000000E-03 0. -1.
         11   -1    0    0    0    0 -0.00000000000E+00 -0.00000000000E+00 -0.50000499739E+01  0.50000500000E+01  0.51100000000E-03 0.  1.
         50    1    1    2    0    0 -0.27272185134E-02 -0.17325515930E-01 -0.13870518265E-01  0.50000500000E+01  0.50000000000E+01 0. -1.
         50    1    1    2    0    0  0.27272185134E-02  0.17325515930E-01  0.13870518265E-01  0.50000500000E+01  0.50000000000E+01 0. -1.
</event>
<event>
 4    1  0.4973396E-021  0.5000050E+01  0.7818608E-02  0.2136455E+00
        -11   -1    0    0    0    0  0.00000000000E+00  0.00000000000E+00  0.50000499739E+01  0.50000500000E+01  0.51100000000E-03 0. -1.
         11   -1    0    0    0    0 -0.00000000000E+00 -0.00000000000E+00 -0.50000499739E+01  0.50000500000E+01  0.51100000000E-03 0.  1.
         50    1    1    2    0    0 -0.12806320968E-01 -0.17207372437E-01  0.63171969337E-02  0.50000500000E+01  0.50000000000E+01 0. -1.
         50    1    1    2    0    0  0.12806320968E-01  0.17207372437E-01 -0.63171969337E-02  0.50000500000E+01  0.50000000000E+01 0.  1.
</event>
<event>
 4    1  0.4973396E-021  0.5000050E+01  0.7818608E-02  0.2136455E+00
        -11   -1    0    0    0    0  0.00000000000E+00  0.00000000000E+00  0.50000499739E+01  0.50000500000E+01  0.51100000000E-03 0. -1.
         11   -1    0    0    0    0 -0.00000000000E+00 -0.00000000000E+00 -0.50000499739E+01  0.50000500000E+01  0.51100000000E-03 0.  1.
         50    1    1    2    0    0 -0.11226222514E-01 -0.17195699231E-01  0.88477316872E-02  0.50000500000E+01  0.50000000000E+01 0.  1.
         50    1    1    2    0    0  0.11226222514E-01  0.17195699231E-01 -0.88477316872E-02  0.50000500000E+01  0.50000000000E+01 0. -1.
</event>
<event>
 4    1  0.4973396E-021  0.5000050E+01  0.7818608E-02  0.2136455E+00
        -11   -1    0    0    0    0  0.00000000000E+00  0.00000000000E+00  0.50000499739E+01  0.50000500000E+01  0.51100000000E-03 0.  1.
         11   -1    0    0    0    0 -0.00000000000E+00 -0.00000000000E+00 -0.50000499739E+01  0.50000500000E+01  0.51100000000E-03 0. -1.
         50    1    1    2    0    0 -0.12030452570E-01 -0.18764760899E-01  0.17760797782E-02  0.50000500000E+01  0.50000000000E+01 0.  0.
         50    1    1    2    0    0  0.12030452570E-01  0.18764760899E-01 -0.17760797782E-02  0.50000500000E+01  0.50000000000E+01 0.  1.
</event>
<event>
 4    1  0.4973396E-021  0.5000050E+01  0.7818608E-02  0.2136455E+00
        -11   -1    0    0    0    0  0.00000000000E+00  0.00000000000E+00  0.50000499739E+01  0.50000500000E+01  0.51100000000E-03 0.  1.
         11   -1    0    0    0    0 -0.00000000000E+00 -0.00000000000E+00 -0.50000499739E+01  0.50000500000E+01  0.51100000000E-03 0. -1.
         50    1    1    2    0    0  0.10463187515E-01  0.17019651701E-01 -0.10042692019E-01  0.50000500000E+01  0.50000000000E+01 0.  1.
         50    1    1    2    0    0 -0.10463187515E-01 -0.17019651701E-01  0.10042692019E-01  0.50000500000E+01  0.50000000000E+01 0.  0.
</event>
<event>
 4    1  0.4973396E-021  0.5000050E+01  0.7818608E-02  0.2136455E+00
        -11   -1    0    0    0    0  0.00000000000E+00  0.00000000000E+00  0.50000499739E+01  0.50000500000E+01  0.51100000000E-03 0.  1.
         11   -1    0    0    0    0 -0.00000000000E+00 -0.00000000000E+00 -0.50000499739E+01  0.50000500000E+01  0.51100000000E-03 0. -1.
         50    1    1    2    0    0 -0.25133341031E-02 -0.71058143155E-02  0.21052150831E-01  0.50000500000E+01  0.50000000000E+01 0.  0.
         50    1    1    2    0    0  0.25133341031E-02  0.71058143155E-02 -0.21052150831E-01  0.50000500000E+01  0.50000000000E+01 0. -1.
</event>
<event>
 4    1  0.4973396E-021  0.5000050E+01  0.7818608E-02  0.2136455E+00
        -11   -1    0    0    0    0  0.00000000000E+00  0.00000000000E+00  0.50000499739E+01  0.50000500000E+01  0.51100000000E-03 0.  1.
         11   -1    0    0    0    0 -0.00000000000E+00 -0.00000000000E+00 -0.50000499739E+01  0.50000500000E+01  0.51100000000E-03 0. -1.
         50    1    1    2    0    0  0.77366683868E-02 -0.17937459496E-01  0.10880901116E-01  0.50000500000E+01  0.50000000000E+01 0.  1.
         50    1    1    2    0    0 -0.77366683868E-02  0.17937459496E-01 -0.10880901116E-01  0.50000500000E+01  0.50000000000E+01 0. -1.
</event>
<event>
 4    1  0.4973396E-021  0.5000050E+01  0.7818608E-02  0.2136455E+00
        -11   -1    0    0    0    0  0.00000000000E+00  0.00000000000E+00  0.50000499739E+01  0.50000500000E+01  0.51100000000E-03 0. -1.
         11   -1    0    0    0    0 -0.00000000000E+00 -0.00000000000E+00 -0.50000499739E+01  0.50000500000E+01  0.51100000000E-03 0.  1.
         50    1    1    2    0    0 -0.10410961977E-01 -0.89697981774E-02  0.17639645443E-01  0.50000500000E+01  0.50000000000E+01 0. -1.
         50    1    1    2    0    0  0.10410961977E-01  0.89697981774E-02 -0.17639645443E-01  0.50000500000E+01  0.50000000000E+01 0.  0.
</event>
<event>
 4    1  0.4973396E-021  0.5000050E+01  0.7818608E-02  0.2136455E+00
        -11   -1    0    0    0    0  0.00000000000E+00  0.00000000000E+00  0.50000499739E+01  0.50000500000E+01  0.51100000000E-03 0.  1.
         11   -1    0    0    0    0 -0.00000000000E+00 -0.00000000000E+00 -0.50000499739E+01  0.50000500000E+01  0.51100000000E-03 0. -1.
         50    1    1    2    0    0  0.18272572935E-01  0.12745330456E-01 -0.19162802288E-02  0.50000500000E+01  0.50000000000E+01 0.  1.
         50    1    1    2    0    0 -0.18272572935E-01 -0.12745330456E-01  0.19162802288E-02  0.50000500000E+01  0.50000000000E+01 0.  0.
</event>
<event>
 4    1  0.4973396E-021  0.5000050E+01  0.7818608E-02  0.2136455E+00
        -11   -1    0    0    0    0  0.00000000000E+00  0.00000000000E+00  0.50000499739E+01  0.50000500000E+01  0.51100000000E-03 0.  1.
         11   -1    0    0    0    0 -0.00000000000E+00 -0.00000000000E+00 -0.50000499739E+01  0.50000500000E+01  0.51100000000E-03 0. -1.
         50    1    1    2    0    0 -0.76528478430E-02  0.14552625765E-01 -0.15154454897E-01  0.50000500000E+01  0.50000000000E+01 0. -1.
         50    1    1    2    0    0  0.76528478430E-02 -0.14552625765E-01  0.15154454897E-01  0.50000500000E+01  0.50000000000E+01 0.  1.
</event>
<event>
 4    1  0.4973396E-021  0.5000050E+01  0.7818608E-02  0.2136455E+00
        -11   -1    0    0    0    0  0.00000000000E+00  0.00000000000E+00  0.50000499739E+01  0.50000500000E+01  0.51100000000E-03 0. -1.
         11   -1    0    0    0    0 -0.00000000000E+00 -0.00000000000E+00 -0.50000499739E+01  0.50000500000E+01  0.51100000000E-03 0.  1.
         50    1    1    2    0    0 -0.11851379696E-01 -0.15202986702E-01  0.11332100187E-01  0.50000500000E+01  0.50000000000E+01 0.  1.
         50    1    1    2    0    0  0.11851379696E-01  0.15202986702E-01 -0.11332100187E-01  0.50000500000E+01  0.50000000000E+01 0. -1.
</event>
<event>
 4    1  0.4973396E-021  0.5000050E+01  0.7818608E-02  0.2136455E+00
        -11   -1    0    0    0    0  0.00000000000E+00  0.00000000000E+00  0.50000499739E+01  0.50000500000E+01  0.51100000000E-03 0. -1.
         11   -1    0    0    0    0 -0.00000000000E+00 -0.00000000000E+00 -0.50000499739E+01  0.50000500000E+01  0.51100000000E-03 0.  1.
         50    1    1    2    0    0  0.12993750401E-02 -0.92465197524E-02 -0.20317873830E-01  0.50000500000E+01  0.50000000000E+01 0.  0.
         50    1    1    2    0    0 -0.12993750401E-02  0.92465197524E-02  0.20317873830E-01  0.50000500000E+01  0.50000000000E+01 0.  1.
</event>
<event>
 4    1  0.4973396E-021  0.5000050E+01  0.7818608E-02  0.2136455E+00
        -11   -1    0    0    0    0  0.00000000000E+00  0.00000000000E+00  0.50000499739E+01  0.50000500000E+01  0.51100000000E-03 0.  1.
         11   -1    0    0    0    0 -0.00000000000E+00 -0.00000000000E+00 -0.50000499739E+01  0.50000500000E+01  0.51100000000E-03 0. -1.
         50    1    1    2    0    0  0.13582248808E-01  0.17762484672E-01 -0.13840367990E-03  0.50000500000E+01  0.50000000000E+01 0.  0.
         50    1    1    2    0    0 -0.13582248808E-01 -0.17762484672E-01  0.13840367990E-03  0.50000500000E+01  0.50000000000E+01 0. -1.
</event>
<event>
 4    1  0.4973396E-021  0.5000050E+01  0.7818608E-02  0.2136455E+00
        -11   -1    0    0    0    0  0.00000000000E+00  0.00000000000E+00  0.50000499739E+01  0.50000500000E+01  0.51100000000E-03 0. -1.
         11   -1    0    0    0    0 -0.00000000000E+00 -0.00000000000E+00 -0.50000499739E+01  0.50000500000E+01  0.51100000000E-03 0.  1.
         50    1    1    2    0    0 -0.21936020935E-01  0.27005046909E-02  0.33942245018E-02  0.50000500000E+01  0.50000000000E+01 0. -1.
         50    1    1    2    0    0  0.21936020935E-01 -0.27005046909E-02 -0.33942245018E-02  0.50000500000E+01  0.50000000000E+01 0.  1.
</event>
<event>
 4    1  0.4973396E-021  0.5000050E+01  0.7818608E-02  0.2136455E+00
        -11   -1    0    0    0    0  0.00000000000E+00  0.00000000000E+00  0.50000499739E+01  0.50000500000E+01  0.51100000000E-03 0.  1.
         11   -1    0    0    0    0 -0.00000000000E+00 -0.00000000000E+00 -0.50000499739E+01  0.50000500000E+01  0.51100000000E-03 0. -1.
         50    1    1    2    0    0 -0.18478269683E-01  0.14450991480E-02 -0.12508706487E-01  0.50000500000E+01  0.50000000000E+01 0.  1.
         50    1    1    2    0    0  0.18478269683E-01 -0.14450991480E-02  0.12508706487E-01  0.50000500000E+01  0.50000000000E+01 0.  0.
</event>
<event>
 4    1  0.4973396E-021  0.5000050E+01  0.7818608E-02  0.2136455E+00
        -11   -1    0    0    0    0  0.00000000000E+00  0.00000000000E+00  0.50000499739E+01  0.50000500000E+01  0.51100000000E-03 0. -1.
         11   -1    0    0    0    0 -0.00000000000E+00 -0.00000000000E+00 -0.50000499739E+01  0.50000500000E+01  0.51100000000E-03 0.  1.
         50    1    1    2    0    0 -0.11563475816E-01 -0.19078642159E-01  0.15145759838E-02  0.50000500000E+01  0.50000000000E+01 0. -1.
         50    1    1    2    0    0  0.11563475816E-01  0.19078642159E-01 -0.15145759838E-02  0.50000500000E+01  0.50000000000E+01 0.  1.
</event>
<event>
 4    1  0.4973396E-021  0.5000050E+01  0.7818608E-02  0.2136455E+00
        -11   -1    0    0    0    0  0.00000000000E+00  0.00000000000E+00  0.50000499739E+01  0.50000500000E+01  0.51100000000E-03 0.  1.
         11   -1    0    0    0    0 -0.00000000000E+00 -0.00000000000E+00 -0.50000499739E+01  0.50000500000E+01  0.51100000000E-03 0. -1.
         50    1    1    2    0    0 -0.15485732048E-01  0.69960794608E-02 -0.14534423797E-01  0.50000500000E+01  0.50000000000E+01 0.  1.
         50    1    1    2    0    0  0.15485732048E-01 -0.69960794608E-02  0.14534423797E-01  0.50000500000E+01  0.50000000000E+01 0.  1.
</event>
<event>
 4    1  0.4973396E-021  0.5000050E+01  0.7818608E-02  0.2136455E+00
        -11   -1    0    0    0    0  0.00000000000E+00  0.00000000000E+00  0.50000499739E+01  0.50000500000E+01  0.51100000000E-03 0.  1.
         11   -1    0    0    0    0 -0.00000000000E+00 -0.00000000000E+00 -0.50000499739E+01  0.50000500000E+01  0.51100000000E-03 0. -1.
         50    1    1    2    0    0 -0.16543021579E-01 -0.43590398347E-02 -0.14398948182E-01  0.50000500000E+01  0.50000000000E+01 0.  0.
         50    1    1    2    0    0  0.16543021579E-01  0.43590398347E-02  0.14398948182E-01  0.50000500000E+01  0.50000000000E+01 0.  0.
</event>
<event>
 4    1  0.4973396E-021  0.5000050E+01  0.7818608E-02  0.2136455E+00
        -11   -1    0    0    0    0  0.00000000000E+00  0.00000000000E+00  0.50000499739E+01  0.50000500000E+01  0.51100000000E-03 0.  1.
         11   -1    0    0    0    0 -0.00000000000E+00 -0.00000000000E+00 -0.50000499739E+01  0.50000500000E+01  0.51100000000E-03 0. -1.
         50    1    1    2    0    0  0.34572361383E-02  0.13938454342E-01  0.17139705623E-01  0.50000500000E+01  0.50000000000E+01 0.  0.
         50    1    1    2    0    0 -0.34572361383E-02 -0.13938454342E-01 -0.17139705623E-01  0.50000500000E+01  0.50000000000E+01 0.  0.
</event>
<event>
 4    1  0.4973396E-021  0.5000050E+01  0.7818608E-02  0.2136455E+00
        -11   -1    0    0    0    0  0.00000000000E+00  0.00000000000E+00  0.50000499739E+01  0.50000500000E+01  0.51100000000E-03 0. -1.
         11   -1    0    0    0    0 -0.00000000000E+00 -0.00000000000E+00 -0.50000499739E+01  0.50000500000E+01  0.51100000000E-03 0.  1.
         50    1    1    2    0    0  0.17851334287E-01  0.10240031931E-01 -0.87449476958E-02  0.50000500000E+01  0.50000000000E+01 0. -1.
         50    1    1    2    0    0 -0.17851334287E-01 -0.10240031931E-01  0.87449476958E-02  0.50000500000E+01  0.50000000000E+01 0.  0.
</event>
<event>
 4    1  0.4973396E-021  0.5000050E+01  0.7818608E-02  0.2136455E+00
        -11   -1    0    0    0    0  0.00000000000E+00  0.00000000000E+00  0.50000499739E+01  0.50000500000E+01  0.51100000000E-03 0.  1.
         11   -1    0    0    0    0 -0.00000000000E+00 -0.00000000000E+00 -0.50000499739E+01  0.50000500000E+01  0.51100000000E-03 0. -1.
         50    1    1    2    0    0 -0.57493491013E-03 -0.20091989490E-01 -0.97971377548E-02  0.50000500000E+01  0.50000000000E+01 0.  1.
         50    1    1    2    0    0  0.57493491013E-03  0.20091989490E-01  0.97971377548E-02  0.50000500000E+01  0.50000000000E+01 0.  0.
</event>
<event>
 4    1  0.4973396E-021  0.5000050E+01  0.7818608E-02  0.2136455E+00
        -11   -1    0    0    0    0  0.00000000000E+00  0.00000000000E+00  0.50000499739E+01  0.50000500000E+01  0.51100000000E-03 0. -1.
         11   -1    0    0    0    0 -0.00000000000E+00 -0.00000000000E+00 -0.50000499739E+01  0.50000500000E+01  0.51100000000E-03 0.  1.
         50    1    1    2    0    0 -0.92927699450E-02  0.46332001598E-02  0.19803544709E-01  0.50000500000E+01  0.50000000000E+01 0. -1.
         50    1    1    2    0    0  0.92927699450E-02 -0.46332001598E-02 -0.19803544709E-01  0.50000500000E+01  0.50000000000E+01 0.  0.
</event>
<event>
 4    1  0.4973396E-021  0.5000050E+01  0.7818608E-02  0.2136455E+00
        -11   -1    0    0    0    0  0.00000000000E+00  0.00000000000E+00  0.50000499739E+01  0.50000500000E+01  0.51100000000E-03 0.  1.
         11   -1    0    0    0    0 -0.00000000000E+00 -0.00000000000E+00 -0.50000499739E+01  0.50000500000E+01  0.51100000000E-03 0. -1.
         50    1    1    2    0    0 -0.21267219079E-01 -0.57860507622E-02 -0.37722021689E-02  0.50000500000E+01  0.50000000000E+01 0.  1.
         50    1    1    2    0    0  0.21267219079E-01  0.57860507622E-02  0.37722021689E-02  0.50000500000E+01  0.50000000000E+01 0. -1.
</event>
<event>
 4    1  0.4973396E-021  0.5000050E+01  0.7818608E-02  0.2136455E+00
        -11   -1    0    0    0    0  0.00000000000E+00  0.00000000000E+00  0.50000499739E+01  0.50000500000E+01  0.51100000000E-03 0. -1.
         11   -1    0    0    0    0 -0.00000000000E+00 -0.00000000000E+00 -0.50000499739E+01  0.50000500000E+01  0.51100000000E-03 0.  1.
         50    1    1    2    0    0 -0.61589233300E-02  0.10537142765E-01 -0.18736029082E-01  0.50000500000E+01  0.50000000000E+01 0.  0.
         50    1    1    2    0    0  0.61589233300E-02 -0.10537142765E-01  0.18736029082E-01  0.50000500000E+01  0.50000000000E+01 0.  1.
</event>
<event>
 4    1  0.4973396E-021  0.5000050E+01  0.7818608E-02  0.2136455E+00
        -11   -1    0    0    0    0  0.00000000000E+00  0.00000000000E+00  0.50000499739E+01  0.50000500000E+01  0.51100000000E-03 0. -1.
         11   -1    0    0    0    0 -0.00000000000E+00 -0.00000000000E+00 -0.50000499739E+01  0.50000500000E+01  0.51100000000E-03 0.  1.
         50    1    1    2    0    0  0.40199128307E-03 -0.11110105646E-01  0.19401197271E-01  0.50000500000E+01  0.50000000000E+01 0. -1.
         50    1    1    2    0    0 -0.40199128307E-03  0.11110105646E-01 -0.19401197271E-01  0.50000500000E+01  0.50000000000E+01 0. -1.
</event>
<event>
 4    1  0.4973396E-021  0.5000050E+01  0.7818608E-02  0.2136455E+00
        -11   -1    0    0    0    0  0.00000000000E+00  0.00000000000E+00  0.50000499739E+01  0.50000500000E+01  0.51100000000E-03 0.  1.
         11   -1    0    0    0    0 -0.00000000000E+00 -0.00000000000E+00 -0.50000499739E+01  0.50000500000E+01  0.51100000000E-03 0. -1.
         50    1    1    2    0    0  0.13625905695E-01  0.14195789903E-01  0.10621522631E-01  0.50000500000E+01  0.50000000000E+01 0.  1.
         50    1    1    2    0    0 -0.13625905695E-01 -0.14195789903E-01 -0.10621522631E-01  0.50000500000E+01  0.50000000000E+01 0. -1.
</event>
<event>
 4    1  0.4973396E-021  0.5000050E+01  0.7818608E-02  0.2136455E+00
        -11   -1    0    0    0    0  0.00000000000E+00  0.00000000000E+00  0.50000499739E+01  0.50000500000E+01  0.51100000000E-03 0. -1.
         11   -1    0    0    0    0 -0.00000000000E+00 -0.00000000000E+00 -0.50000499739E+01  0.50000500000E+01  0.51100000000E-03 0.  1.
         50    1    1    2    0    0 -0.17736706591E-01  0.11711227649E-01 -0.69468616124E-02  0.50000500000E+01  0.50000000000E+01 0.  1.
         50    1    1    2    0    0  0.17736706591E-01 -0.11711227649E-01  0.69468616124E-02  0.50000500000E+01  0.50000000000E+01 0. -1.
</event>
<event>
 4    1  0.4973396E-021  0.5000050E+01  0.7818608E-02  0.2136455E+00
        -11   -1    0    0    0    0  0.00000000000E+00  0.00000000000E+00  0.50000499739E+01  0.50000500000E+01  0.51100000000E-03 0.  1.
         11   -1    0    0    0    0 -0.00000000000E+00 -0.00000000000E+00 -0.50000499739E+01  0.50000500000E+01  0.51100000000E-03 0. -1.
         50    1    1    2    0    0 -0.10923960098E-01 -0.20363614106E-02  0.19404196144E-01  0.50000500000E+01  0.50000000000E+01 0.  0.
         50    1    1    2    0    0  0.10923960098E-01  0.20363614106E-02 -0.19404196144E-01  0.50000500000E+01  0.50000000000E+01 0. -1.
</event>
<event>
 4    1  0.4973396E-021  0.5000050E+01  0.7818608E-02  0.2136455E+00
        -11   -1    0    0    0    0  0.00000000000E+00  0.00000000000E+00  0.50000499739E+01  0.50000500000E+01  0.51100000000E-03 0. -1.
         11   -1    0    0    0    0 -0.00000000000E+00 -0.00000000000E+00 -0.50000499739E+01  0.50000500000E+01  0.51100000000E-03 0.  1.
         50    1    1    2    0    0  0.46405646671E-02 -0.57051410446E-02  0.21116794862E-01  0.50000500000E+01  0.50000000000E+01 0. -1.
         50    1    1    2    0    0 -0.46405646671E-02  0.57051410446E-02 -0.21116794862E-01  0.50000500000E+01  0.50000000000E+01 0.  0.
</event>
<event>
 4    1  0.4973396E-021  0.5000050E+01  0.7818608E-02  0.2136455E+00
        -11   -1    0    0    0    0  0.00000000000E+00  0.00000000000E+00  0.50000499739E+01  0.50000500000E+01  0.51100000000E-03 0. -1.
         11   -1    0    0    0    0 -0.00000000000E+00 -0.00000000000E+00 -0.50000499739E+01  0.50000500000E+01  0.51100000000E-03 0.  1.
         50    1    1    2    0    0 -0.15024727758E-01  0.15410029520E-01 -0.60655622966E-02  0.50000500000E+01  0.50000000000E+01 0.  0.
         50    1    1    2    0    0  0.15024727758E-01 -0.15410029520E-01  0.60655622966E-02  0.50000500000E+01  0.50000000000E+01 0. -1.
</event>
<event>
 4    1  0.4973396E-021  0.5000050E+01  0.7818608E-02  0.2136455E+00
        -11   -1    0    0    0    0  0.00000000000E+00  0.00000000000E+00  0.50000499739E+01  0.50000500000E+01  0.51100000000E-03 0. -1.
         11   -1    0    0    0    0 -0.00000000000E+00 -0.00000000000E+00 -0.50000499739E+01  0.50000500000E+01  0.51100000000E-03 0.  1.
         50    1    1    2    0    0 -0.21469906250E-01 -0.16164415641E-02 -0.60359541318E-02  0.50000500000E+01  0.50000000000E+01 0.  1.
         50    1    1    2    0    0  0.21469906250E-01  0.16164415641E-02  0.60359541318E-02  0.50000500000E+01  0.50000000000E+01 0. -1.
</event>
<event>
 4    1  0.4973396E-021  0.5000050E+01  0.7818608E-02  0.2136455E+00
        -11   -1    0    0    0    0  0.00000000000E+00  0.00000000000E+00  0.50000499739E+01  0.50000500000E+01  0.51100000000E-03 0.  1.
         11   -1    0    0    0    0 -0.00000000000E+00 -0.00000000000E+00 -0.50000499739E+01  0.50000500000E+01  0.51100000000E-03 0. -1.
         50    1    1    2    0    0 -0.16951064969E-01  0.11938008800E-02 -0.14534054350E-01  0.50000500000E+01  0.50000000000E+01 0. -1.
         50    1    1    2    0    0  0.16951064969E-01 -0.11938008800E-02  0.14534054350E-01  0.50000500000E+01  0.50000000000E+01 0.  1.
</event>
<event>
 4    1  0.4973396E-021  0.5000050E+01  0.7818608E-02  0.2136455E+00
        -11   -1    0    0    0    0  0.00000000000E+00  0.00000000000E+00  0.50000499739E+01  0.50000500000E+01  0.51100000000E-03 0.  1.
         11   -1    0    0    0    0 -0.00000000000E+00 -0.00000000000E+00 -0.50000499739E+01  0.50000500000E+01  0.51100000000E-03 0. -1.
         50    1    1    2    0    0 -0.17441198782E-01  0.11738095428E-01 -0.76173617986E-02  0.50000500000E+01  0.50000000000E+01 0.  1.
         50    1    1    2    0    0  0.17441198782E-01 -0.11738095428E-01  0.76173617986E-02  0.50000500000E+01  0.50000000000E+01 0. -1.
</event>
<event>
 4    1  0.4973396E-021  0.5000050E+01  0.7818608E-02  0.2136455E+00
        -11   -1    0    0    0    0  0.00000000000E+00  0.00000000000E+00  0.50000499739E+01  0.50000500000E+01  0.51100000000E-03 0. -1.
         11   -1    0    0    0    0 -0.00000000000E+00 -0.00000000000E+00 -0.50000499739E+01  0.50000500000E+01  0.51100000000E-03 0.  1.
         50    1    1    2    0    0  0.36202145668E-02  0.16387655954E-01 -0.14776375700E-01  0.50000500000E+01  0.50000000000E+01 0.  0.
         50    1    1    2    0    0 -0.36202145668E-02 -0.16387655954E-01  0.14776375700E-01  0.50000500000E+01  0.50000000000E+01 0.  0.
</event>
<event>
 4    1  0.4973396E-021  0.5000050E+01  0.7818608E-02  0.2136455E+00
        -11   -1    0    0    0    0  0.00000000000E+00  0.00000000000E+00  0.50000499739E+01  0.50000500000E+01  0.51100000000E-03 0.  1.
         11   -1    0    0    0    0 -0.00000000000E+00 -0.00000000000E+00 -0.50000499739E+01  0.50000500000E+01  0.51100000000E-03 0. -1.
         50    1    1    2    0    0 -0.24271602206E-02 -0.14366521258E-01 -0.16962147865E-01  0.50000500000E+01  0.50000000000E+01 0. -1.
         50    1    1    2    0    0  0.24271602206E-02  0.14366521258E-01  0.16962147865E-01  0.50000500000E+01  0.50000000000E+01 0.  1.
</event>
<event>
 4    1  0.4973396E-021  0.5000050E+01  0.7818608E-02  0.2136455E+00
        -11   -1    0    0    0    0  0.00000000000E+00  0.00000000000E+00  0.50000499739E+01  0.50000500000E+01  0.51100000000E-03 0. -1.
         11   -1    0    0    0    0 -0.00000000000E+00 -0.00000000000E+00 -0.50000499739E+01  0.50000500000E+01  0.51100000000E-03 0.  1.
         50    1    1    2    0    0 -0.72833864214E-02  0.18193872952E-01 -0.10767440236E-01  0.50000500000E+01  0.50000000000E+01 0.  1.
         50    1    1    2    0    0  0.72833864214E-02 -0.18193872952E-01  0.10767440236E-01  0.50000500000E+01  0.50000000000E+01 0. -1.
</event>
<event>
 4    1  0.4973396E-021  0.5000050E+01  0.7818608E-02  0.2136455E+00
        -11   -1    0    0    0    0  0.00000000000E+00  0.00000000000E+00  0.50000499739E+01  0.50000500000E+01  0.51100000000E-03 0.  1.
         11   -1    0    0    0    0 -0.00000000000E+00 -0.00000000000E+00 -0.50000499739E+01  0.50000500000E+01  0.51100000000E-03 0. -1.
         50    1    1    2    0    0 -0.85816451276E-02  0.78375390656E-02 -0.19103163306E-01  0.50000500000E+01  0.50000000000E+01 0.  0.
         50    1    1    2    0    0  0.85816451276E-02 -0.78375390656E-02  0.19103163306E-01  0.50000500000E+01  0.50000000000E+01 0.  0.
</event>
<event>
 4    1  0.4973396E-021  0.5000050E+01  0.7818608E-02  0.2136455E+00
        -11   -1    0    0    0    0  0.00000000000E+00  0.00000000000E+00  0.50000499739E+01  0.50000500000E+01  0.51100000000E-03 0.  1.
         11   -1    0    0    0    0 -0.00000000000E+00 -0.00000000000E+00 -0.50000499739E+01  0.50000500000E+01  0.51100000000E-03 0. -1.
         50    1    1    2    0    0 -0.15836426702E-01  0.15786388271E-01 -0.58879816587E-05  0.50000500000E+01  0.50000000000E+01 0. -1.
         50    1    1    2    0    0  0.15836426702E-01 -0.15786388271E-01  0.58879816587E-05  0.50000500000E+01  0.50000000000E+01 0.  0.
</event>
<event>
 4    1  0.4973396E-021  0.5000050E+01  0.7818608E-02  0.2136455E+00
        -11   -1    0    0    0    0  0.00000000000E+00  0.00000000000E+00  0.50000499739E+01  0.50000500000E+01  0.51100000000E-03 0. -1.
         11   -1    0    0    0    0 -0.00000000000E+00 -0.00000000000E+00 -0.50000499739E+01  0.50000500000E+01  0.51100000000E-03 0.  1.
         50    1    1    2    0    0  0.95299004529E-02  0.19875448697E-01 -0.37616534198E-02  0.50000500000E+01  0.50000000000E+01 0. -1.
         50    1    1    2    0    0 -0.95299004529E-02 -0.19875448697E-01  0.37616534198E-02  0.50000500000E+01  0.50000000000E+01 0.  0.
</event>
<event>
 4    1  0.4973396E-021  0.5000050E+01  0.7818608E-02  0.2136455E+00
        -11   -1    0    0    0    0  0.00000000000E+00  0.00000000000E+00  0.50000499739E+01  0.50000500000E+01  0.51100000000E-03 0. -1.
         11   -1    0    0    0    0 -0.00000000000E+00 -0.00000000000E+00 -0.50000499739E+01  0.50000500000E+01  0.51100000000E-03 0.  1.
         50    1    1    2    0    0 -0.13506511706E-01 -0.11074354198E-01 -0.13961923959E-01  0.50000500000E+01  0.50000000000E+01 0.  0.
         50    1    1    2    0    0  0.13506511706E-01  0.11074354198E-01  0.13961923959E-01  0.50000500000E+01  0.50000000000E+01 0. -1.
</event>
<event>
 4    1  0.4973396E-021  0.5000050E+01  0.7818608E-02  0.2136455E+00
        -11   -1    0    0    0    0  0.00000000000E+00  0.00000000000E+00  0.50000499739E+01  0.50000500000E+01  0.51100000000E-03 0. -1.
         11   -1    0    0    0    0 -0.00000000000E+00 -0.00000000000E+00 -0.50000499739E+01  0.50000500000E+01  0.51100000000E-03 0.  1.
         50    1    1    2    0    0  0.11779231985E-01 -0.12642801150E-01 -0.14191961560E-01  0.50000500000E+01  0.50000000000E+01 0.  1.
         50    1    1    2    0    0 -0.11779231985E-01  0.12642801150E-01  0.14191961560E-01  0.50000500000E+01  0.50000000000E+01 0. -1.
</event>
<event>
 4    1  0.4973396E-021  0.5000050E+01  0.7818608E-02  0.2136455E+00
        -11   -1    0    0    0    0  0.00000000000E+00  0.00000000000E+00  0.50000499739E+01  0.50000500000E+01  0.51100000000E-03 0.  1.
         11   -1    0    0    0    0 -0.00000000000E+00 -0.00000000000E+00 -0.50000499739E+01  0.50000500000E+01  0.51100000000E-03 0. -1.
         50    1    1    2    0    0 -0.71161663145E-02  0.10102178607E-01  0.18636219154E-01  0.50000500000E+01  0.50000000000E+01 0. -1.
         50    1    1    2    0    0  0.71161663145E-02 -0.10102178607E-01 -0.18636219154E-01  0.50000500000E+01  0.50000000000E+01 0. -1.
</event>
<event>
 4    1  0.4973396E-021  0.5000050E+01  0.7818608E-02  0.2136455E+00
        -11   -1    0    0    0    0  0.00000000000E+00  0.00000000000E+00  0.50000499739E+01  0.50000500000E+01  0.51100000000E-03 0.  1.
         11   -1    0    0    0    0 -0.00000000000E+00 -0.00000000000E+00 -0.50000499739E+01  0.50000500000E+01  0.51100000000E-03 0. -1.
         50    1    1    2    0    0  0.11876534766E-01 -0.38490952892E-02 -0.18550872955E-01  0.50000500000E+01  0.50000000000E+01 0. -1.
         50    1    1    2    0    0 -0.11876534766E-01  0.38490952892E-02  0.18550872955E-01  0.50000500000E+01  0.50000000000E+01 0.  1.
</event>
<event>
 4    1  0.4973396E-021  0.5000050E+01  0.7818608E-02  0.2136455E+00
        -11   -1    0    0    0    0  0.00000000000E+00  0.00000000000E+00  0.50000499739E+01  0.50000500000E+01  0.51100000000E-03 0. -1.
         11   -1    0    0    0    0 -0.00000000000E+00 -0.00000000000E+00 -0.50000499739E+01  0.50000500000E+01  0.51100000000E-03 0.  1.
         50    1    1    2    0    0  0.83227636688E-02  0.17721272144E-01  0.10802343195E-01  0.50000500000E+01  0.50000000000E+01 0. -1.
         50    1    1    2    0    0 -0.83227636688E-02 -0.17721272144E-01 -0.10802343195E-01  0.50000500000E+01  0.50000000000E+01 0.  1.
</event>
<event>
 4    1  0.4973396E-021  0.5000050E+01  0.7818608E-02  0.2136455E+00
        -11   -1    0    0    0    0  0.00000000000E+00  0.00000000000E+00  0.50000499739E+01  0.50000500000E+01  0.51100000000E-03 0. -1.
         11   -1    0    0    0    0 -0.00000000000E+00 -0.00000000000E+00 -0.50000499739E+01  0.50000500000E+01  0.51100000000E-03 0.  1.
         50    1    1    2    0    0  0.21159942771E-02  0.71657844559E-02  0.21075497654E-01  0.50000500000E+01  0.50000000000E+01 0. -1.
         50    1    1    2    0    0 -0.21159942771E-02 -0.71657844559E-02 -0.21075497654E-01  0.50000500000E+01  0.50000000000E+01 0.  0.
</event>
<event>
 4    1  0.4973396E-021  0.5000050E+01  0.7818608E-02  0.2136455E+00
        -11   -1    0    0    0    0  0.00000000000E+00  0.00000000000E+00  0.50000499739E+01  0.50000500000E+01  0.51100000000E-03 0.  1.
         11   -1    0    0    0    0 -0.00000000000E+00 -0.00000000000E+00 -0.50000499739E+01  0.50000500000E+01  0.51100000000E-03 0. -1.
         50    1    1    2    0    0  0.10719477171E-01  0.18434364576E-01  0.67282621713E-02  0.50000500000E+01  0.50000000000E+01 0.  1.
         50    1    1    2    0    0 -0.10719477171E-01 -0.18434364576E-01 -0.67282621713E-02  0.50000500000E+01  0.50000000000E+01 0. -1.
</event>
<event>
 4    1  0.4973396E-021  0.5000050E+01  0.7818608E-02  0.2136455E+00
        -11   -1    0    0    0    0  0.00000000000E+00  0.00000000000E+00  0.50000499739E+01  0.50000500000E+01  0.51100000000E-03 0.  1.
         11   -1    0    0    0    0 -0.00000000000E+00 -0.00000000000E+00 -0.50000499739E+01  0.50000500000E+01  0.51100000000E-03 0. -1.
         50    1    1    2    0    0  0.15251610670E-01  0.16291272242E-01  0.14090140832E-02  0.50000500000E+01  0.50000000000E+01 0. -1.
         50    1    1    2    0    0 -0.15251610670E-01 -0.16291272242E-01 -0.14090140832E-02  0.50000500000E+01  0.50000000000E+01 0.  1.
</event>
<event>
 4    1  0.4973396E-021  0.5000050E+01  0.7818608E-02  0.2136455E+00
        -11   -1    0    0    0    0  0.00000000000E+00  0.00000000000E+00  0.50000499739E+01  0.50000500000E+01  0.51100000000E-03 0. -1.
         11   -1    0    0    0    0 -0.00000000000E+00 -0.00000000000E+00 -0.50000499739E+01  0.50000500000E+01  0.51100000000E-03 0.  1.
         50    1    1    2    0    0 -0.16294771731E-01  0.13173748393E-01 -0.78061045026E-02  0.50000500000E+01  0.50000000000E+01 0.  1.
         50    1    1    2    0    0  0.16294771731E-01 -0.13173748393E-01  0.78061045026E-02  0.50000500000E+01  0.50000000000E+01 0. -1.
</event>
<event>
 4    1  0.4973396E-021  0.5000050E+01  0.7818608E-02  0.2136455E+00
        -11   -1    0    0    0    0  0.00000000000E+00  0.00000000000E+00  0.50000499739E+01  0.50000500000E+01  0.51100000000E-03 0. -1.
         11   -1    0    0    0    0 -0.00000000000E+00 -0.00000000000E+00 -0.50000499739E+01  0.50000500000E+01  0.51100000000E-03 0.  1.
         50    1    1    2    0    0 -0.21368746477E-01  0.43428353479E-02 -0.49516618579E-02  0.50000500000E+01  0.50000000000E+01 0.  1.
         50    1    1    2    0    0  0.21368746477E-01 -0.43428353479E-02  0.49516618579E-02  0.50000500000E+01  0.50000000000E+01 0. -1.
</event>
<event>
 4    1  0.4973396E-021  0.5000050E+01  0.7818608E-02  0.2136455E+00
        -11   -1    0    0    0    0  0.00000000000E+00  0.00000000000E+00  0.50000499739E+01  0.50000500000E+01  0.51100000000E-03 0.  1.
         11   -1    0    0    0    0 -0.00000000000E+00 -0.00000000000E+00 -0.50000499739E+01  0.50000500000E+01  0.51100000000E-03 0. -1.
         50    1    1    2    0    0  0.18274644124E-01  0.98657515214E-02 -0.82889582613E-02  0.50000500000E+01  0.50000000000E+01 0.  1.
         50    1    1    2    0    0 -0.18274644124E-01 -0.98657515214E-02  0.82889582613E-02  0.50000500000E+01  0.50000000000E+01 0. -1.
</event>
<event>
 4    1  0.4973396E-021  0.5000050E+01  0.7818608E-02  0.2136455E+00
        -11   -1    0    0    0    0  0.00000000000E+00  0.00000000000E+00  0.50000499739E+01  0.50000500000E+01  0.51100000000E-03 0. -1.
         11   -1    0    0    0    0 -0.00000000000E+00 -0.00000000000E+00 -0.50000499739E+01  0.50000500000E+01  0.51100000000E-03 0.  1.
         50    1    1    2    0    0 -0.98491026913E-02  0.12771308504E-01 -0.15488426494E-01  0.50000500000E+01  0.50000000000E+01 0.  1.
         50    1    1    2    0    0  0.98491026913E-02 -0.12771308504E-01  0.15488426494E-01  0.50000500000E+01  0.50000000000E+01 0. -1.
</event>
<event>
 4    1  0.4973396E-021  0.5000050E+01  0.7818608E-02  0.2136455E+00
        -11   -1    0    0    0    0  0.00000000000E+00  0.00000000000E+00  0.50000499739E+01  0.50000500000E+01  0.51100000000E-03 0. -1.
         11   -1    0    0    0    0 -0.00000000000E+00 -0.00000000000E+00 -0.50000499739E+01  0.50000500000E+01  0.51100000000E-03 0.  1.
         50    1    1    2    0    0  0.64194332928E-02 -0.42879032187E-03 -0.21415170208E-01  0.50000500000E+01  0.50000000000E+01 0.  1.
         50    1    1    2    0    0 -0.64194332928E-02  0.42879032187E-03  0.21415170208E-01  0.50000500000E+01  0.50000000000E+01 0.  0.
</event>
<event>
 4    1  0.4973396E-021  0.5000050E+01  0.7818608E-02  0.2136455E+00
        -11   -1    0    0    0    0  0.00000000000E+00  0.00000000000E+00  0.50000499739E+01  0.50000500000E+01  0.51100000000E-03 0. -1.
         11   -1    0    0    0    0 -0.00000000000E+00 -0.00000000000E+00 -0.50000499739E+01  0.50000500000E+01  0.51100000000E-03 0.  1.
         50    1    1    2    0    0  0.15665789490E-02  0.45415540689E-02  0.21838558035E-01  0.50000500000E+01  0.50000000000E+01 0.  0.
         50    1    1    2    0    0 -0.15665789490E-02 -0.45415540689E-02 -0.21838558035E-01  0.50000500000E+01  0.50000000000E+01 0.  1.
</event>
<event>
 4    1  0.4973396E-021  0.5000050E+01  0.7818608E-02  0.2136455E+00
        -11   -1    0    0    0    0  0.00000000000E+00  0.00000000000E+00  0.50000499739E+01  0.50000500000E+01  0.51100000000E-03 0. -1.
         11   -1    0    0    0    0 -0.00000000000E+00 -0.00000000000E+00 -0.50000499739E+01  0.50000500000E+01  0.51100000000E-03 0.  1.
         50    1    1    2    0    0  0.30407916169E-02 -0.14737816718E-01 -0.16539433023E-01  0.50000500000E+01  0.50000000000E+01 0.  1.
         50    1    1    2    0    0 -0.30407916169E-02  0.14737816718E-01  0.16539433023E-01  0.50000500000E+01  0.50000000000E+01 0. -1.
</event>
<event>
 4    1  0.4973396E-021  0.5000050E+01  0.7818608E-02  0.2136455E+00
        -11   -1    0    0    0    0  0.00000000000E+00  0.00000000000E+00  0.50000499739E+01  0.50000500000E+01  0.51100000000E-03 0. -1.
         11   -1    0    0    0    0 -0.00000000000E+00 -0.00000000000E+00 -0.50000499739E+01  0.50000500000E+01  0.51100000000E-03 0.  1.
         50    1    1    2    0    0 -0.10537688221E-02 -0.15750918987E-01  0.15836685965E-01  0.50000500000E+01  0.50000000000E+01 0.  0.
         50    1    1    2    0    0  0.10537688221E-02  0.15750918987E-01 -0.15836685965E-01  0.50000500000E+01  0.50000000000E+01 0.  0.
</event>
<event>
 4    1  0.4973396E-021  0.5000050E+01  0.7818608E-02  0.2136455E+00
        -11   -1    0    0    0    0  0.00000000000E+00  0.00000000000E+00  0.50000499739E+01  0.50000500000E+01  0.51100000000E-03 0. -1.
         11   -1    0    0    0    0 -0.00000000000E+00 -0.00000000000E+00 -0.50000499739E+01  0.50000500000E+01  0.51100000000E-03 0.  1.
         50    1    1    2    0    0 -0.99014172466E-03 -0.23804428771E-02  0.22211609826E-01  0.50000500000E+01  0.50000000000E+01 0. -1.
         50    1    1    2    0    0  0.99014172466E-03  0.23804428771E-02 -0.22211609826E-01  0.50000500000E+01  0.50000000000E+01 0.  0.
</event>
<event>
 4    1  0.4973396E-021  0.5000050E+01  0.7818608E-02  0.2136455E+00
        -11   -1    0    0    0    0  0.00000000000E+00  0.00000000000E+00  0.50000499739E+01  0.50000500000E+01  0.51100000000E-03 0. -1.
         11   -1    0    0    0    0 -0.00000000000E+00 -0.00000000000E+00 -0.50000499739E+01  0.50000500000E+01  0.51100000000E-03 0.  1.
         50    1    1    2    0    0 -0.20020047086E-01 -0.76022091142E-02 -0.64347984623E-02  0.50000500000E+01  0.50000000000E+01 0.  1.
         50    1    1    2    0    0  0.20020047086E-01  0.76022091142E-02  0.64347984623E-02  0.50000500000E+01  0.50000000000E+01 0. -1.
</event>
<event>
 4    1  0.4973396E-021  0.5000050E+01  0.7818608E-02  0.2136455E+00
        -11   -1    0    0    0    0  0.00000000000E+00  0.00000000000E+00  0.50000499739E+01  0.50000500000E+01  0.51100000000E-03 0.  1.
         11   -1    0    0    0    0 -0.00000000000E+00 -0.00000000000E+00 -0.50000499739E+01  0.50000500000E+01  0.51100000000E-03 0. -1.
         50    1    1    2    0    0 -0.88892252098E-02  0.46842422773E-02 -0.19976036881E-01  0.50000500000E+01  0.50000000000E+01 0. -1.
         50    1    1    2    0    0  0.88892252098E-02 -0.46842422773E-02  0.19976036881E-01  0.50000500000E+01  0.50000000000E+01 0.  1.
</event>
<event>
 4    1  0.4973396E-021  0.5000050E+01  0.7818608E-02  0.2136455E+00
        -11   -1    0    0    0    0  0.00000000000E+00  0.00000000000E+00  0.50000499739E+01  0.50000500000E+01  0.51100000000E-03 0. -1.
         11   -1    0    0    0    0 -0.00000000000E+00 -0.00000000000E+00 -0.50000499739E+01  0.50000500000E+01  0.51100000000E-03 0.  1.
         50    1    1    2    0    0 -0.77571024986E-02  0.20971199179E-01  0.19663625485E-03  0.50000500000E+01  0.50000000000E+01 0.  1.
         50    1    1    2    0    0  0.77571024986E-02 -0.20971199179E-01 -0.19663625485E-03  0.50000500000E+01  0.50000000000E+01 0. -1.
</event>
<event>
 4    1  0.4973396E-021  0.5000050E+01  0.7818608E-02  0.2136455E+00
        -11   -1    0    0    0    0  0.00000000000E+00  0.00000000000E+00  0.50000499739E+01  0.50000500000E+01  0.51100000000E-03 0. -1.
         11   -1    0    0    0    0 -0.00000000000E+00 -0.00000000000E+00 -0.50000499739E+01  0.50000500000E+01  0.51100000000E-03 0.  1.
         50    1    1    2    0    0  0.16402289144E-01  0.68581014489E-02  0.13562221623E-01  0.50000500000E+01  0.50000000000E+01 0.  1.
         50    1    1    2    0    0 -0.16402289144E-01 -0.68581014489E-02 -0.13562221623E-01  0.50000500000E+01  0.50000000000E+01 0.  1.
</event>
<event>
 4    1  0.4973396E-021  0.5000050E+01  0.7818608E-02  0.2136455E+00
        -11   -1    0    0    0    0  0.00000000000E+00  0.00000000000E+00  0.50000499739E+01  0.50000500000E+01  0.51100000000E-03 0.  1.
         11   -1    0    0    0    0 -0.00000000000E+00 -0.00000000000E+00 -0.50000499739E+01  0.50000500000E+01  0.51100000000E-03 0. -1.
         50    1    1    2    0    0 -0.22298865313E-01 -0.47595118528E-03 -0.15926632533E-02  0.50000500000E+01  0.50000000000E+01 0.  1.
         50    1    1    2    0    0  0.22298865313E-01  0.47595118528E-03  0.15926632533E-02  0.50000500000E+01  0.50000000000E+01 0.  0.
</event>
<event>
 4    1  0.4973396E-021  0.5000050E+01  0.7818608E-02  0.2136455E+00
        -11   -1    0    0    0    0  0.00000000000E+00  0.00000000000E+00  0.50000499739E+01  0.50000500000E+01  0.51100000000E-03 0. -1.
         11   -1    0    0    0    0 -0.00000000000E+00 -0.00000000000E+00 -0.50000499739E+01  0.50000500000E+01  0.51100000000E-03 0.  1.
         50    1    1    2    0    0  0.14297665672E-01 -0.97513444505E-02 -0.14159468131E-01  0.50000500000E+01  0.50000000000E+01 0.  0.
         50    1    1    2    0    0 -0.14297665672E-01  0.97513444505E-02  0.14159468131E-01  0.50000500000E+01  0.50000000000E+01 0.  0.
</event>
<event>
 4    1  0.4973396E-021  0.5000050E+01  0.7818608E-02  0.2136455E+00
        -11   -1    0    0    0    0  0.00000000000E+00  0.00000000000E+00  0.50000499739E+01  0.50000500000E+01  0.51100000000E-03 0. -1.
         11   -1    0    0    0    0 -0.00000000000E+00 -0.00000000000E+00 -0.50000499739E+01  0.50000500000E+01  0.51100000000E-03 0.  1.
         50    1    1    2    0    0 -0.65870855443E-02 -0.20863773471E-01  0.46168994532E-02  0.50000500000E+01  0.50000000000E+01 0. -1.
         50    1    1    2    0    0  0.65870855443E-02  0.20863773471E-01 -0.46168994532E-02  0.50000500000E+01  0.50000000000E+01 0.  1.
</event>
<event>
 4    1  0.4973396E-021  0.5000050E+01  0.7818608E-02  0.2136455E+00
        -11   -1    0    0    0    0  0.00000000000E+00  0.00000000000E+00  0.50000499739E+01  0.50000500000E+01  0.51100000000E-03 0. -1.
         11   -1    0    0    0    0 -0.00000000000E+00 -0.00000000000E+00 -0.50000499739E+01  0.50000500000E+01  0.51100000000E-03 0.  1.
         50    1    1    2    0    0 -0.19953370275E-01 -0.11815527010E-02 -0.10023444911E-01  0.50000500000E+01  0.50000000000E+01 0.  1.
         50    1    1    2    0    0  0.19953370275E-01  0.11815527010E-02  0.10023444911E-01  0.50000500000E+01  0.50000000000E+01 0. -1.
</event>
<event>
 4    1  0.4973396E-021  0.5000050E+01  0.7818608E-02  0.2136455E+00
        -11   -1    0    0    0    0  0.00000000000E+00  0.00000000000E+00  0.50000499739E+01  0.50000500000E+01  0.51100000000E-03 0. -1.
         11   -1    0    0    0    0 -0.00000000000E+00 -0.00000000000E+00 -0.50000499739E+01  0.50000500000E+01  0.51100000000E-03 0.  1.
         50    1    1    2    0    0  0.15237791215E-01 -0.10943432812E-01  0.12167723582E-01  0.50000500000E+01  0.50000000000E+01 0.  1.
         50    1    1    2    0    0 -0.15237791215E-01  0.10943432812E-01 -0.12167723582E-01  0.50000500000E+01  0.50000000000E+01 0.  1.
</event>
<event>
 4    1  0.4973396E-021  0.5000050E+01  0.7818608E-02  0.2136455E+00
        -11   -1    0    0    0    0  0.00000000000E+00  0.00000000000E+00  0.50000499739E+01  0.50000500000E+01  0.51100000000E-03 0. -1.
         11   -1    0    0    0    0 -0.00000000000E+00 -0.00000000000E+00 -0.50000499739E+01  0.50000500000E+01  0.51100000000E-03 0.  1.
         50    1    1    2    0    0  0.35241078769E-02  0.19029179533E-01 -0.11201494988E-01  0.50000500000E+01  0.50000000000E+01 0. -1.
         50    1    1    2    0    0 -0.35241078769E-02 -0.19029179533E-01  0.11201494988E-01  0.50000500000E+01  0.50000000000E+01 0.  1.
</event>
<event>
 4    1  0.4973396E-021  0.5000050E+01  0.7818608E-02  0.2136455E+00
        -11   -1    0    0    0    0  0.00000000000E+00  0.00000000000E+00  0.50000499739E+01  0.50000500000E+01  0.51100000000E-03 0. -1.
         11   -1    0    0    0    0 -0.00000000000E+00 -0.00000000000E+00 -0.50000499739E+01  0.50000500000E+01  0.51100000000E-03 0.  1.
         50    1    1    2    0    0  0.13295689129E-01  0.55361263928E-02 -0.17104924880E-01  0.50000500000E+01  0.50000000000E+01 0.  1.
         50    1    1    2    0    0 -0.13295689129E-01 -0.55361263928E-02  0.17104924880E-01  0.50000500000E+01  0.50000000000E+01 0. -1.
</event>
<event>
 4    1  0.4973396E-021  0.5000050E+01  0.7818608E-02  0.2136455E+00
        -11   -1    0    0    0    0  0.00000000000E+00  0.00000000000E+00  0.50000499739E+01  0.50000500000E+01  0.51100000000E-03 0. -1.
         11   -1    0    0    0    0 -0.00000000000E+00 -0.00000000000E+00 -0.50000499739E+01  0.50000500000E+01  0.51100000000E-03 0.  1.
         50    1    1    2    0    0  0.20328576248E-01 -0.78234829256E-02  0.50541668582E-02  0.50000500000E+01  0.50000000000E+01 0.  0.
         50    1    1    2    0    0 -0.20328576248E-01  0.78234829256E-02 -0.50541668582E-02  0.50000500000E+01  0.50000000000E+01 0.  0.
</event>
<event>
 4    1  0.4973396E-021  0.5000050E+01  0.7818608E-02  0.2136455E+00
        -11   -1    0    0    0    0  0.00000000000E+00  0.00000000000E+00  0.50000499739E+01  0.50000500000E+01  0.51100000000E-03 0.  1.
         11   -1    0    0    0    0 -0.00000000000E+00 -0.00000000000E+00 -0.50000499739E+01  0.50000500000E+01  0.51100000000E-03 0. -1.
         50    1    1    2    0    0  0.21522352376E-01 -0.55754341529E-02  0.23885941877E-02  0.50000500000E+01  0.50000000000E+01 0. -1.
         50    1    1    2    0    0 -0.21522352376E-01  0.55754341529E-02 -0.23885941877E-02  0.50000500000E+01  0.50000000000E+01 0.  1.
</event>
<event>
 4    1  0.4973396E-021  0.5000050E+01  0.7818608E-02  0.2136455E+00
        -11   -1    0    0    0    0  0.00000000000E+00  0.00000000000E+00  0.50000499739E+01  0.50000500000E+01  0.51100000000E-03 0. -1.
         11   -1    0    0    0    0 -0.00000000000E+00 -0.00000000000E+00 -0.50000499739E+01  0.50000500000E+01  0.51100000000E-03 0.  1.
         50    1    1    2    0    0 -0.13427976316E-01  0.12742845315E-01 -0.12542401896E-01  0.50000500000E+01  0.50000000000E+01 0.  1.
         50    1    1    2    0    0  0.13427976316E-01 -0.12742845315E-01  0.12542401896E-01  0.50000500000E+01  0.50000000000E+01 0. -1.
</event>
<event>
 4    1  0.4973396E-021  0.5000050E+01  0.7818608E-02  0.2136455E+00
        -11   -1    0    0    0    0  0.00000000000E+00  0.00000000000E+00  0.50000499739E+01  0.50000500000E+01  0.51100000000E-03 0.  1.
         11   -1    0    0    0    0 -0.00000000000E+00 -0.00000000000E+00 -0.50000499739E+01  0.50000500000E+01  0.51100000000E-03 0. -1.
         50    1    1    2    0    0  0.12200504259E-01  0.15956365014E-01 -0.98257117473E-02  0.50000500000E+01  0.50000000000E+01 0. -1.
         50    1    1    2    0    0 -0.12200504259E-01 -0.15956365014E-01  0.98257117473E-02  0.50000500000E+01  0.50000000000E+01 0.  1.
</event>
<event>
 4    1  0.4973396E-021  0.5000050E+01  0.7818608E-02  0.2136455E+00
        -11   -1    0    0    0    0  0.00000000000E+00  0.00000000000E+00  0.50000499739E+01  0.50000500000E+01  0.51100000000E-03 0.  1.
         11   -1    0    0    0    0 -0.00000000000E+00 -0.00000000000E+00 -0.50000499739E+01  0.50000500000E+01  0.51100000000E-03 0. -1.
         50    1    1    2    0    0  0.22077032257E-01 -0.29355491279E-02 -0.19974228520E-02  0.50000500000E+01  0.50000000000E+01 0. -1.
         50    1    1    2    0    0 -0.22077032257E-01  0.29355491279E-02  0.19974228520E-02  0.50000500000E+01  0.50000000000E+01 0.  1.
</event>
<event>
 4    1  0.4973396E-021  0.5000050E+01  0.7818608E-02  0.2136455E+00
        -11   -1    0    0    0    0  0.00000000000E+00  0.00000000000E+00  0.50000499739E+01  0.50000500000E+01  0.51100000000E-03 0.  1.
         11   -1    0    0    0    0 -0.00000000000E+00 -0.00000000000E+00 -0.50000499739E+01  0.50000500000E+01  0.51100000000E-03 0. -1.
         50    1    1    2    0    0  0.44060195030E-02 -0.13461126253E-01  0.17302819774E-01  0.50000500000E+01  0.50000000000E+01 0.  1.
         50    1    1    2    0    0 -0.44060195030E-02  0.13461126253E-01 -0.17302819774E-01  0.50000500000E+01  0.50000000000E+01 0.  0.
</event>
<event>
 4    1  0.4973396E-021  0.5000050E+01  0.7818608E-02  0.2136455E+00
        -11   -1    0    0    0    0  0.00000000000E+00  0.00000000000E+00  0.50000499739E+01  0.50000500000E+01  0.51100000000E-03 0. -1.
         11   -1    0    0    0    0 -0.00000000000E+00 -0.00000000000E+00 -0.50000499739E+01  0.50000500000E+01  0.51100000000E-03 0.  1.
         50    1    1    2    0    0  0.11925137198E-01  0.16382686781E-01 -0.94552195446E-02  0.50000500000E+01  0.50000000000E+01 0.  0.
         50    1    1    2    0    0 -0.11925137198E-01 -0.16382686781E-01  0.94552195446E-02  0.50000500000E+01  0.50000000000E+01 0.  0.
</event>
<event>
 4    1  0.4973396E-021  0.5000050E+01  0.7818608E-02  0.2136455E+00
        -11   -1    0    0    0    0  0.00000000000E+00  0.00000000000E+00  0.50000499739E+01  0.50000500000E+01  0.51100000000E-03 0.  1.
         11   -1    0    0    0    0 -0.00000000000E+00 -0.00000000000E+00 -0.50000499739E+01  0.50000500000E+01  0.51100000000E-03 0. -1.
         50    1    1    2    0    0 -0.14543367812E-01 -0.11475838479E-01 -0.12521904163E-01  0.50000500000E+01  0.50000000000E+01 0.  1.
         50    1    1    2    0    0  0.14543367812E-01  0.11475838479E-01  0.12521904163E-01  0.50000500000E+01  0.50000000000E+01 0.  1.
</event>
<event>
 4    1  0.4973396E-021  0.5000050E+01  0.7818608E-02  0.2136455E+00
        -11   -1    0    0    0    0  0.00000000000E+00  0.00000000000E+00  0.50000499739E+01  0.50000500000E+01  0.51100000000E-03 0.  1.
         11   -1    0    0    0    0 -0.00000000000E+00 -0.00000000000E+00 -0.50000499739E+01  0.50000500000E+01  0.51100000000E-03 0. -1.
         50    1    1    2    0    0 -0.81426760232E-02 -0.18350514367E-01  0.98467227876E-02  0.50000500000E+01  0.50000000000E+01 0. -1.
         50    1    1    2    0    0  0.81426760232E-02  0.18350514367E-01 -0.98467227876E-02  0.50000500000E+01  0.50000000000E+01 0.  0.
</event>
<event>
 4    1  0.4973396E-021  0.5000050E+01  0.7818608E-02  0.2136455E+00
        -11   -1    0    0    0    0  0.00000000000E+00  0.00000000000E+00  0.50000499739E+01  0.50000500000E+01  0.51100000000E-03 0. -1.
         11   -1    0    0    0    0 -0.00000000000E+00 -0.00000000000E+00 -0.50000499739E+01  0.50000500000E+01  0.51100000000E-03 0.  1.
         50    1    1    2    0    0 -0.19346427753E-01  0.98883589992E-02 -0.52856966889E-02  0.50000500000E+01  0.50000000000E+01 0.  1.
         50    1    1    2    0    0  0.19346427753E-01 -0.98883589992E-02  0.52856966889E-02  0.50000500000E+01  0.50000000000E+01 0. -1.
</event>
<event>
 4    1  0.4973396E-021  0.5000050E+01  0.7818608E-02  0.2136455E+00
        -11   -1    0    0    0    0  0.00000000000E+00  0.00000000000E+00  0.50000499739E+01  0.50000500000E+01  0.51100000000E-03 0. -1.
         11   -1    0    0    0    0 -0.00000000000E+00 -0.00000000000E+00 -0.50000499739E+01  0.50000500000E+01  0.51100000000E-03 0.  1.
         50    1    1    2    0    0 -0.15194521403E-01 -0.14855706414E-01 -0.69596699826E-02  0.50000500000E+01  0.50000000000E+01 0. -1.
         50    1    1    2    0    0  0.15194521403E-01  0.14855706414E-01  0.69596699826E-02  0.50000500000E+01  0.50000000000E+01 0.  1.
</event>
<event>
 4    1  0.4973396E-021  0.5000050E+01  0.7818608E-02  0.2136455E+00
        -11   -1    0    0    0    0  0.00000000000E+00  0.00000000000E+00  0.50000499739E+01  0.50000500000E+01  0.51100000000E-03 0.  1.
         11   -1    0    0    0    0 -0.00000000000E+00 -0.00000000000E+00 -0.50000499739E+01  0.50000500000E+01  0.51100000000E-03 0. -1.
         50    1    1    2    0    0 -0.19879922259E-01  0.99927631437E-02  0.22216830887E-02  0.50000500000E+01  0.50000000000E+01 0.  1.
         50    1    1    2    0    0  0.19879922259E-01 -0.99927631437E-02 -0.22216830887E-02  0.50000500000E+01  0.50000000000E+01 0.  0.
</event>
<event>
 4    1  0.4973396E-021  0.5000050E+01  0.7818608E-02  0.2136455E+00
        -11   -1    0    0    0    0  0.00000000000E+00  0.00000000000E+00  0.50000499739E+01  0.50000500000E+01  0.51100000000E-03 0.  1.
         11   -1    0    0    0    0 -0.00000000000E+00 -0.00000000000E+00 -0.50000499739E+01  0.50000500000E+01  0.51100000000E-03 0. -1.
         50    1    1    2    0    0  0.62154053013E-02  0.12895106525E-01  0.17178110043E-01  0.50000500000E+01  0.50000000000E+01 0.  0.
         50    1    1    2    0    0 -0.62154053013E-02 -0.12895106525E-01 -0.17178110043E-01  0.50000500000E+01  0.50000000000E+01 0. -1.
</event>
<event>
 4    1  0.4973396E-021  0.5000050E+01  0.7818608E-02  0.2136455E+00
        -11   -1    0    0    0    0  0.00000000000E+00  0.00000000000E+00  0.50000499739E+01  0.50000500000E+01  0.51100000000E-03 0. -1.
         11   -1    0    0    0    0 -0.00000000000E+00 -0.00000000000E+00 -0.50000499739E+01  0.50000500000E+01  0.51100000000E-03 0.  1.
         50    1    1    2    0    0 -0.17842919925E-01  0.49431583287E-02  0.12537858440E-01  0.50000500000E+01  0.50000000000E+01 0. -1.
         50    1    1    2    0    0  0.17842919925E-01 -0.49431583287E-02 -0.12537858440E-01  0.50000500000E+01  0.50000000000E+01 0.  1.
</event>
<event>
 4    1  0.4973396E-021  0.5000050E+01  0.7818608E-02  0.2136455E+00
        -11   -1    0    0    0    0  0.00000000000E+00  0.00000000000E+00  0.50000499739E+01  0.50000500000E+01  0.51100000000E-03 0.  1.
         11   -1    0    0    0    0 -0.00000000000E+00 -0.00000000000E+00 -0.50000499739E+01  0.50000500000E+01  0.51100000000E-03 0. -1.
         50    1    1    2    0    0 -0.21347398064E-01 -0.18083759608E-02  0.64047538820E-02  0.50000500000E+01  0.50000000000E+01 0.  1.
         50    1    1    2    0    0  0.21347398064E-01  0.18083759608E-02 -0.64047538820E-02  0.50000500000E+01  0.50000000000E+01 0. -1.
</event>
<event>
 4    1  0.4973396E-021  0.5000050E+01  0.7818608E-02  0.2136455E+00
        -11   -1    0    0    0    0  0.00000000000E+00  0.00000000000E+00  0.50000499739E+01  0.50000500000E+01  0.51100000000E-03 0. -1.
         11   -1    0    0    0    0 -0.00000000000E+00 -0.00000000000E+00 -0.50000499739E+01  0.50000500000E+01  0.51100000000E-03 0.  1.
         50    1    1    2    0    0 -0.60453471732E-02  0.10626222009E-01 -0.18722705023E-01  0.50000500000E+01  0.50000000000E+01 0.  1.
         50    1    1    2    0    0  0.60453471732E-02 -0.10626222009E-01  0.18722705023E-01  0.50000500000E+01  0.50000000000E+01 0. -1.
</event>
<event>
 4    1  0.4973396E-021  0.5000050E+01  0.7818608E-02  0.2136455E+00
        -11   -1    0    0    0    0  0.00000000000E+00  0.00000000000E+00  0.50000499739E+01  0.50000500000E+01  0.51100000000E-03 0. -1.
         11   -1    0    0    0    0 -0.00000000000E+00 -0.00000000000E+00 -0.50000499739E+01  0.50000500000E+01  0.51100000000E-03 0.  1.
         50    1    1    2    0    0  0.33430886383E-02 -0.20780965067E-01  0.75483606990E-02  0.50000500000E+01  0.50000000000E+01 0.  0.
         50    1    1    2    0    0 -0.33430886383E-02  0.20780965067E-01 -0.75483606990E-02  0.50000500000E+01  0.50000000000E+01 0. -1.
</event>
<event>
 4    1  0.4973396E-021  0.5000050E+01  0.7818608E-02  0.2136455E+00
        -11   -1    0    0    0    0  0.00000000000E+00  0.00000000000E+00  0.50000499739E+01  0.50000500000E+01  0.51100000000E-03 0.  1.
         11   -1    0    0    0    0 -0.00000000000E+00 -0.00000000000E+00 -0.50000499739E+01  0.50000500000E+01  0.51100000000E-03 0. -1.
         50    1    1    2    0    0 -0.41034650493E-03  0.18715744647E-01 -0.12229268909E-01  0.50000500000E+01  0.50000000000E+01 0.  1.
         50    1    1    2    0    0  0.41034650493E-03 -0.18715744647E-01  0.12229268909E-01  0.50000500000E+01  0.50000000000E+01 0.  1.
</event>
<event>
 4    1  0.4973396E-021  0.5000050E+01  0.7818608E-02  0.2136455E+00
        -11   -1    0    0    0    0  0.00000000000E+00  0.00000000000E+00  0.50000499739E+01  0.50000500000E+01  0.51100000000E-03 0.  1.
         11   -1    0    0    0    0 -0.00000000000E+00 -0.00000000000E+00 -0.50000499739E+01  0.50000500000E+01  0.51100000000E-03 0. -1.
         50    1    1    2    0    0 -0.16417023317E-01  0.11113648392E-02  0.15140961450E-01  0.50000500000E+01  0.50000000000E+01 0.  1.
         50    1    1    2    0    0  0.16417023317E-01 -0.11113648392E-02 -0.15140961450E-01  0.50000500000E+01  0.50000000000E+01 0. -1.
</event>
<event>
 4    1  0.4973396E-021  0.5000050E+01  0.7818608E-02  0.2136455E+00
        -11   -1    0    0    0    0  0.00000000000E+00  0.00000000000E+00  0.50000499739E+01  0.50000500000E+01  0.51100000000E-03 0.  1.
         11   -1    0    0    0    0 -0.00000000000E+00 -0.00000000000E+00 -0.50000499739E+01  0.50000500000E+01  0.51100000000E-03 0. -1.
         50    1    1    2    0    0 -0.21183505772E-01  0.41299242768E-02  0.58485304723E-02  0.50000500000E+01  0.50000000000E+01 0.  0.
         50    1    1    2    0    0  0.21183505772E-01 -0.41299242768E-02 -0.58485304723E-02  0.50000500000E+01  0.50000000000E+01 0. -1.
</event>
<event>
 4    1  0.4973396E-021  0.5000050E+01  0.7818608E-02  0.2136455E+00
        -11   -1    0    0    0    0  0.00000000000E+00  0.00000000000E+00  0.50000499739E+01  0.50000500000E+01  0.51100000000E-03 0. -1.
         11   -1    0    0    0    0 -0.00000000000E+00 -0.00000000000E+00 -0.50000499739E+01  0.50000500000E+01  0.51100000000E-03 0.  1.
         50    1    1    2    0    0 -0.77054026972E-03 -0.64776122716E-02  0.21388064591E-01  0.50000500000E+01  0.50000000000E+01 0.  1.
         50    1    1    2    0    0  0.77054026972E-03  0.64776122716E-02 -0.21388064591E-01  0.50000500000E+01  0.50000000000E+01 0.  1.
</event>
<event>
 4    1  0.4973396E-021  0.5000050E+01  0.7818608E-02  0.2136455E+00
        -11   -1    0    0    0    0  0.00000000000E+00  0.00000000000E+00  0.50000499739E+01  0.50000500000E+01  0.51100000000E-03 0. -1.
         11   -1    0    0    0    0 -0.00000000000E+00 -0.00000000000E+00 -0.50000499739E+01  0.50000500000E+01  0.51100000000E-03 0.  1.
         50    1    1    2    0    0 -0.13439093146E-01  0.94431338690E-02 -0.15173018755E-01  0.50000500000E+01  0.50000000000E+01 0.  0.
         50    1    1    2    0    0  0.13439093146E-01 -0.94431338690E-02  0.15173018755E-01  0.50000500000E+01  0.50000000000E+01 0.  1.
</event>
<event>
 4    1  0.4973396E-021  0.5000050E+01  0.7818608E-02  0.2136455E+00
        -11   -1    0    0    0    0  0.00000000000E+00  0.00000000000E+00  0.50000499739E+01  0.50000500000E+01  0.51100000000E-03 0. -1.
         11   -1    0    0    0    0 -0.00000000000E+00 -0.00000000000E+00 -0.50000499739E+01  0.50000500000E+01  0.51100000000E-03 0.  1.
         50    1    1    2    0    0  0.54533176384E-03 -0.21879810466E-01  0.45802846238E-02  0.50000500000E+01  0.50000000000E+01 0. -1.
         50    1    1    2    0    0 -0.54533176384E-03  0.21879810466E-01 -0.45802846238E-02  0.50000500000E+01  0.50000000000E+01 0.  1.
</event>
<event>
 4    1  0.4973396E-021  0.5000050E+01  0.7818608E-02  0.2136455E+00
        -11   -1    0    0    0    0  0.00000000000E+00  0.00000000000E+00  0.50000499739E+01  0.50000500000E+01  0.51100000000E-03 0. -1.
         11   -1    0    0    0    0 -0.00000000000E+00 -0.00000000000E+00 -0.50000499739E+01  0.50000500000E+01  0.51100000000E-03 0.  1.
         50    1    1    2    0    0  0.10201659538E-01 -0.69100266056E-02 -0.18659586677E-01  0.50000500000E+01  0.50000000000E+01 0. -1.
         50    1    1    2    0    0 -0.10201659538E-01  0.69100266056E-02  0.18659586677E-01  0.50000500000E+01  0.50000000000E+01 0. -1.
</event>
<event>
 4    1  0.4973396E-021  0.5000050E+01  0.7818608E-02  0.2136455E+00
        -11   -1    0    0    0    0  0.00000000000E+00  0.00000000000E+00  0.50000499739E+01  0.50000500000E+01  0.51100000000E-03 0. -1.
         11   -1    0    0    0    0 -0.00000000000E+00 -0.00000000000E+00 -0.50000499739E+01  0.50000500000E+01  0.51100000000E-03 0.  1.
         50    1    1    2    0    0  0.11189977735E-01  0.19316351086E-01  0.12905343926E-02  0.50000500000E+01  0.50000000000E+01 0.  1.
         50    1    1    2    0    0 -0.11189977735E-01 -0.19316351086E-01 -0.12905343926E-02  0.50000500000E+01  0.50000000000E+01 0.  0.
</event>
<event>
 4    1  0.4973396E-021  0.5000050E+01  0.7818608E-02  0.2136455E+00
        -11   -1    0    0    0    0  0.00000000000E+00  0.00000000000E+00  0.50000499739E+01  0.50000500000E+01  0.51100000000E-03 0.  1.
         11   -1    0    0    0    0 -0.00000000000E+00 -0.00000000000E+00 -0.50000499739E+01  0.50000500000E+01  0.51100000000E-03 0. -1.
         50    1    1    2    0    0 -0.15792552044E-01  0.83253189480E-02 -0.13464281056E-01  0.50000500000E+01  0.50000000000E+01 0.  1.
         50    1    1    2    0    0  0.15792552044E-01 -0.83253189480E-02  0.13464281056E-01  0.50000500000E+01  0.50000000000E+01 0.  1.
</event>
<event>
 4    1  0.4973396E-021  0.5000050E+01  0.7818608E-02  0.2136455E+00
        -11   -1    0    0    0    0  0.00000000000E+00  0.00000000000E+00  0.50000499739E+01  0.50000500000E+01  0.51100000000E-03 0.  1.
         11   -1    0    0    0    0 -0.00000000000E+00 -0.00000000000E+00 -0.50000499739E+01  0.50000500000E+01  0.51100000000E-03 0. -1.
         50    1    1    2    0    0 -0.81071790301E-02 -0.13223620258E-01  0.16106272550E-01  0.50000500000E+01  0.50000000000E+01 0. -1.
         50    1    1    2    0    0  0.81071790301E-02  0.13223620258E-01 -0.16106272550E-01  0.50000500000E+01  0.50000000000E+01 0.  0.
</event>
<event>
 4    1  0.4973396E-021  0.5000050E+01  0.7818608E-02  0.2136455E+00
        -11   -1    0    0    0    0  0.00000000000E+00  0.00000000000E+00  0.50000499739E+01  0.50000500000E+01  0.51100000000E-03 0. -1.
         11   -1    0    0    0    0 -0.00000000000E+00 -0.00000000000E+00 -0.50000499739E+01  0.50000500000E+01  0.51100000000E-03 0.  1.
         50    1    1    2    0    0 -0.11308958688E-01  0.13997957994E-01  0.13272796442E-01  0.50000500000E+01  0.50000000000E+01 0. -1.
         50    1    1    2    0    0  0.11308958688E-01 -0.13997957994E-01 -0.13272796442E-01  0.50000500000E+01  0.50000000000E+01 0.  1.
</event>
<event>
 4    1  0.4973396E-021  0.5000050E+01  0.7818608E-02  0.2136455E+00
        -11   -1    0    0    0    0  0.00000000000E+00  0.00000000000E+00  0.50000499739E+01  0.50000500000E+01  0.51100000000E-03 0. -1.
         11   -1    0    0    0    0 -0.00000000000E+00 -0.00000000000E+00 -0.50000499739E+01  0.50000500000E+01  0.51100000000E-03 0.  1.
         50    1    1    2    0    0  0.95331245915E-02 -0.17440605851E-01  0.10244379097E-01  0.50000500000E+01  0.50000000000E+01 0. -1.
         50    1    1    2    0    0 -0.95331245915E-02  0.17440605851E-01 -0.10244379097E-01  0.50000500000E+01  0.50000000000E+01 0.  1.
</event>
<event>
 4    1  0.4973396E-021  0.5000050E+01  0.7818608E-02  0.2136455E+00
        -11   -1    0    0    0    0  0.00000000000E+00  0.00000000000E+00  0.50000499739E+01  0.50000500000E+01  0.51100000000E-03 0. -1.
         11   -1    0    0    0    0 -0.00000000000E+00 -0.00000000000E+00 -0.50000499739E+01  0.50000500000E+01  0.51100000000E-03 0.  1.
         50    1    1    2    0    0  0.56515429064E-02  0.59336755418E-03 -0.21626615031E-01  0.50000500000E+01  0.50000000000E+01 0.  0.
         50    1    1    2    0    0 -0.56515429064E-02 -0.59336755418E-03  0.21626615031E-01  0.50000500000E+01  0.50000000000E+01 0. -1.
</event>
<event>
 4    1  0.4973396E-021  0.5000050E+01  0.7818608E-02  0.2136455E+00
        -11   -1    0    0    0    0  0.00000000000E+00  0.00000000000E+00  0.50000499739E+01  0.50000500000E+01  0.51100000000E-03 0.  1.
         11   -1    0    0    0    0 -0.00000000000E+00 -0.00000000000E+00 -0.50000499739E+01  0.50000500000E+01  0.51100000000E-03 0. -1.
         50    1    1    2    0    0  0.60472183987E-02  0.20671222001E-01 -0.60111754780E-02  0.50000500000E+01  0.50000000000E+01 0. -1.
         50    1    1    2    0    0 -0.60472183987E-02 -0.20671222001E-01  0.60111754780E-02  0.50000500000E+01  0.50000000000E+01 0.  1.
</event>
<event>
 4    1  0.4973396E-021  0.5000050E+01  0.7818608E-02  0.2136455E+00
        -11   -1    0    0    0    0  0.00000000000E+00  0.00000000000E+00  0.50000499739E+01  0.50000500000E+01  0.51100000000E-03 0. -1.
         11   -1    0    0    0    0 -0.00000000000E+00 -0.00000000000E+00 -0.50000499739E+01  0.50000500000E+01  0.51100000000E-03 0.  1.
         50    1    1    2    0    0 -0.19671534901E-01  0.50828403003E-02 -0.93379842099E-02  0.50000500000E+01  0.50000000000E+01 0.  1.
         50    1    1    2    0    0  0.19671534901E-01 -0.50828403003E-02  0.93379842099E-02  0.50000500000E+01  0.50000000000E+01 0. -1.
</event>
<event>
 4    1  0.4973396E-021  0.5000050E+01  0.7818608E-02  0.2136455E+00
        -11   -1    0    0    0    0  0.00000000000E+00  0.00000000000E+00  0.50000499739E+01  0.50000500000E+01  0.51100000000E-03 0.  1.
         11   -1    0    0    0    0 -0.00000000000E+00 -0.00000000000E+00 -0.50000499739E+01  0.50000500000E+01  0.51100000000E-03 0. -1.
         50    1    1    2    0    0 -0.62505441034E-02 -0.21343900355E-01 -0.23175668352E-02  0.50000500000E+01  0.50000000000E+01 0.  1.
         50    1    1    2    0    0  0.62505441034E-02  0.21343900355E-01  0.23175668352E-02  0.50000500000E+01  0.50000000000E+01 0.  0.
</event>
<event>
 4    1  0.4973396E-021  0.5000050E+01  0.7818608E-02  0.2136455E+00
        -11   -1    0    0    0    0  0.00000000000E+00  0.00000000000E+00  0.50000499739E+01  0.50000500000E+01  0.51100000000E-03 0. -1.
         11   -1    0    0    0    0 -0.00000000000E+00 -0.00000000000E+00 -0.50000499739E+01  0.50000500000E+01  0.51100000000E-03 0.  1.
         50    1    1    2    0    0  0.16367672992E-01 -0.13997327565E-01  0.60146988186E-02  0.50000500000E+01  0.50000000000E+01 0.  1.
         50    1    1    2    0    0 -0.16367672992E-01  0.13997327565E-01 -0.60146988186E-02  0.50000500000E+01  0.50000000000E+01 0.  0.
</event>
<event>
 4    1  0.4973396E-021  0.5000050E+01  0.7818608E-02  0.2136455E+00
        -11   -1    0    0    0    0  0.00000000000E+00  0.00000000000E+00  0.50000499739E+01  0.50000500000E+01  0.51100000000E-03 0. -1.
         11   -1    0    0    0    0 -0.00000000000E+00 -0.00000000000E+00 -0.50000499739E+01  0.50000500000E+01  0.51100000000E-03 0.  1.
         50    1    1    2    0    0 -0.14057011003E-01  0.14368248064E-01 -0.97957332154E-02  0.50000500000E+01  0.50000000000E+01 0.  1.
         50    1    1    2    0    0  0.14057011003E-01 -0.14368248064E-01  0.97957332154E-02  0.50000500000E+01  0.50000000000E+01 0. -1.
</event>
<event>
 4    1  0.4973396E-021  0.5000050E+01  0.7818608E-02  0.2136455E+00
        -11   -1    0    0    0    0  0.00000000000E+00  0.00000000000E+00  0.50000499739E+01  0.50000500000E+01  0.51100000000E-03 0. -1.
         11   -1    0    0    0    0 -0.00000000000E+00 -0.00000000000E+00 -0.50000499739E+01  0.50000500000E+01  0.51100000000E-03 0.  1.
         50    1    1    2    0    0 -0.96378873768E-02  0.19569130294E-01  0.49155636954E-02  0.50000500000E+01  0.50000000000E+01 0. -1.
         50    1    1    2    0    0  0.96378873768E-02 -0.19569130294E-01 -0.49155636954E-02  0.50000500000E+01  0.50000000000E+01 0.  1.
</event>
<event>
 4    1  0.4973396E-021  0.5000050E+01  0.7818608E-02  0.2136455E+00
        -11   -1    0    0    0    0  0.00000000000E+00  0.00000000000E+00  0.50000499739E+01  0.50000500000E+01  0.51100000000E-03 0. -1.
         11   -1    0    0    0    0 -0.00000000000E+00 -0.00000000000E+00 -0.50000499739E+01  0.50000500000E+01  0.51100000000E-03 0.  1.
         50    1    1    2    0    0 -0.36186150264E-03 -0.15378767403E-01 -0.16228526409E-01  0.50000500000E+01  0.50000000000E+01 0. -1.
         50    1    1    2    0    0  0.36186150264E-03  0.15378767403E-01  0.16228526409E-01  0.50000500000E+01  0.50000000000E+01 0.  0.
</event>
<event>
 4    1  0.4973396E-021  0.5000050E+01  0.7818608E-02  0.2136455E+00
        -11   -1    0    0    0    0  0.00000000000E+00  0.00000000000E+00  0.50000499739E+01  0.50000500000E+01  0.51100000000E-03 0. -1.
         11   -1    0    0    0    0 -0.00000000000E+00 -0.00000000000E+00 -0.50000499739E+01  0.50000500000E+01  0.51100000000E-03 0.  1.
         50    1    1    2    0    0 -0.12033355990E-01  0.15416333472E-02  0.18783615473E-01  0.50000500000E+01  0.50000000000E+01 0. -1.
         50    1    1    2    0    0  0.12033355990E-01 -0.15416333472E-02 -0.18783615473E-01  0.50000500000E+01  0.50000000000E+01 0.  1.
</event>
<event>
 4    1  0.4973396E-021  0.5000050E+01  0.7818608E-02  0.2136455E+00
        -11   -1    0    0    0    0  0.00000000000E+00  0.00000000000E+00  0.50000499739E+01  0.50000500000E+01  0.51100000000E-03 0. -1.
         11   -1    0    0    0    0 -0.00000000000E+00 -0.00000000000E+00 -0.50000499739E+01  0.50000500000E+01  0.51100000000E-03 0.  1.
         50    1    1    2    0    0  0.11606806267E-02  0.21954070254E-01 -0.40833956174E-02  0.50000500000E+01  0.50000000000E+01 0.  1.
         50    1    1    2    0    0 -0.11606806267E-02 -0.21954070254E-01  0.40833956174E-02  0.50000500000E+01  0.50000000000E+01 0. -1.
</event>
<event>
 4    1  0.4973396E-021  0.5000050E+01  0.7818608E-02  0.2136455E+00
        -11   -1    0    0    0    0  0.00000000000E+00  0.00000000000E+00  0.50000499739E+01  0.50000500000E+01  0.51100000000E-03 0.  1.
         11   -1    0    0    0    0 -0.00000000000E+00 -0.00000000000E+00 -0.50000499739E+01  0.50000500000E+01  0.51100000000E-03 0. -1.
         50    1    1    2    0    0 -0.59638776949E-02 -0.16861370662E-01  0.13421208672E-01  0.50000500000E+01  0.50000000000E+01 0.  1.
         50    1    1    2    0    0  0.59638776949E-02  0.16861370662E-01 -0.13421208672E-01  0.50000500000E+01  0.50000000000E+01 0. -1.
</event>
<event>
 4    1  0.4973396E-021  0.5000050E+01  0.7818608E-02  0.2136455E+00
        -11   -1    0    0    0    0  0.00000000000E+00  0.00000000000E+00  0.50000499739E+01  0.50000500000E+01  0.51100000000E-03 0. -1.
         11   -1    0    0    0    0 -0.00000000000E+00 -0.00000000000E+00 -0.50000499739E+01  0.50000500000E+01  0.51100000000E-03 0.  1.
         50    1    1    2    0    0  0.36632669416E-02 -0.16821019053E-01 -0.14270118897E-01  0.50000500000E+01  0.50000000000E+01 0.  0.
         50    1    1    2    0    0 -0.36632669416E-02  0.16821019053E-01  0.14270118897E-01  0.50000500000E+01  0.50000000000E+01 0.  0.
</event>
<event>
 4    1  0.4973396E-021  0.5000050E+01  0.7818608E-02  0.2136455E+00
        -11   -1    0    0    0    0  0.00000000000E+00  0.00000000000E+00  0.50000499739E+01  0.50000500000E+01  0.51100000000E-03 0. -1.
         11   -1    0    0    0    0 -0.00000000000E+00 -0.00000000000E+00 -0.50000499739E+01  0.50000500000E+01  0.51100000000E-03 0.  1.
         50    1    1    2    0    0  0.16038252334E-01 -0.15502101896E-01 -0.15690120714E-02  0.50000500000E+01  0.50000000000E+01 0.  0.
         50    1    1    2    0    0 -0.16038252334E-01  0.15502101896E-01  0.15690120714E-02  0.50000500000E+01  0.50000000000E+01 0. -1.
</event>
<event>
 4    1  0.4973396E-021  0.5000050E+01  0.7818608E-02  0.2136455E+00
        -11   -1    0    0    0    0  0.00000000000E+00  0.00000000000E+00  0.50000499739E+01  0.50000500000E+01  0.51100000000E-03 0. -1.
         11   -1    0    0    0    0 -0.00000000000E+00 -0.00000000000E+00 -0.50000499739E+01  0.50000500000E+01  0.51100000000E-03 0.  1.
         50    1    1    2    0    0 -0.66427065432E-02 -0.42119699579E-02  0.20931704633E-01  0.50000500000E+01  0.50000000000E+01 0.  0.
         50    1    1    2    0    0  0.66427065432E-02  0.42119699579E-02 -0.20931704633E-01  0.50000500000E+01  0.50000000000E+01 0.  0.
</event>
<event>
 4    1  0.4973396E-021  0.5000050E+01  0.7818608E-02  0.2136455E+00
        -11   -1    0    0    0    0  0.00000000000E+00  0.00000000000E+00  0.50000499739E+01  0.50000500000E+01  0.51100000000E-03 0.  1.
         11   -1    0    0    0    0 -0.00000000000E+00 -0.00000000000E+00 -0.50000499739E+01  0.50000500000E+01  0.51100000000E-03 0. -1.
         50    1    1    2    0    0  0.21843013646E-01  0.17333828394E-02 -0.44587709975E-02  0.50000500000E+01  0.50000000000E+01 0. -1.
         50    1    1    2    0    0 -0.21843013646E-01 -0.17333828394E-02  0.44587709975E-02  0.50000500000E+01  0.50000000000E+01 0.  1.
</event>
<event>
 4    1  0.4973396E-021  0.5000050E+01  0.7818608E-02  0.2136455E+00
        -11   -1    0    0    0    0  0.00000000000E+00  0.00000000000E+00  0.50000499739E+01  0.50000500000E+01  0.51100000000E-03 0. -1.
         11   -1    0    0    0    0 -0.00000000000E+00 -0.00000000000E+00 -0.50000499739E+01  0.50000500000E+01  0.51100000000E-03 0.  1.
         50    1    1    2    0    0  0.10794204562E-01  0.76200804901E-02 -0.18039457342E-01  0.50000500000E+01  0.50000000000E+01 0.  0.
         50    1    1    2    0    0 -0.10794204562E-01 -0.76200804901E-02  0.18039457342E-01  0.50000500000E+01  0.50000000000E+01 0.  0.
</event>
<event>
 4    1  0.4973396E-021  0.5000050E+01  0.7818608E-02  0.2136455E+00
        -11   -1    0    0    0    0  0.00000000000E+00  0.00000000000E+00  0.50000499739E+01  0.50000500000E+01  0.51100000000E-03 0. -1.
         11   -1    0    0    0    0 -0.00000000000E+00 -0.00000000000E+00 -0.50000499739E+01  0.50000500000E+01  0.51100000000E-03 0.  1.
         50    1    1    2    0    0 -0.20347446515E-01  0.55986974645E-02 -0.73917864558E-02  0.50000500000E+01  0.50000000000E+01 0.  1.
         50    1    1    2    0    0  0.20347446515E-01 -0.55986974645E-02  0.73917864558E-02  0.50000500000E+01  0.50000000000E+01 0. -1.
</event>
<event>
 4    1  0.4973396E-021  0.5000050E+01  0.7818608E-02  0.2136455E+00
        -11   -1    0    0    0    0  0.00000000000E+00  0.00000000000E+00  0.50000499739E+01  0.50000500000E+01  0.51100000000E-03 0.  1.
         11   -1    0    0    0    0 -0.00000000000E+00 -0.00000000000E+00 -0.50000499739E+01  0.50000500000E+01  0.51100000000E-03 0. -1.
         50    1    1    2    0    0  0.15877536977E-01  0.10720068846E-01  0.11531974829E-01  0.50000500000E+01  0.50000000000E+01 0.  1.
         50    1    1    2    0    0 -0.15877536977E-01 -0.10720068846E-01 -0.11531974829E-01  0.50000500000E+01  0.50000000000E+01 0. -1.
</event>
<event>
 4    1  0.4973396E-021  0.5000050E+01  0.7818608E-02  0.2136455E+00
        -11   -1    0    0    0    0  0.00000000000E+00  0.00000000000E+00  0.50000499739E+01  0.50000500000E+01  0.51100000000E-03 0. -1.
         11   -1    0    0    0    0 -0.00000000000E+00 -0.00000000000E+00 -0.50000499739E+01  0.50000500000E+01  0.51100000000E-03 0.  1.
         50    1    1    2    0    0  0.11473227877E-01 -0.61644051087E-02  0.18176018589E-01  0.50000500000E+01  0.50000000000E+01 0.  0.
         50    1    1    2    0    0 -0.11473227877E-01  0.61644051087E-02 -0.18176018589E-01  0.50000500000E+01  0.50000000000E+01 0.  0.
</event>
<event>
 4    1  0.4973396E-021  0.5000050E+01  0.7818608E-02  0.2136455E+00
        -11   -1    0    0    0    0  0.00000000000E+00  0.00000000000E+00  0.50000499739E+01  0.50000500000E+01  0.51100000000E-03 0.  1.
         11   -1    0    0    0    0 -0.00000000000E+00 -0.00000000000E+00 -0.50000499739E+01  0.50000500000E+01  0.51100000000E-03 0. -1.
         50    1    1    2    0    0  0.15309536454E-01 -0.97480883702E-02  0.13061216126E-01  0.50000500000E+01  0.50000000000E+01 0.  1.
         50    1    1    2    0    0 -0.15309536454E-01  0.97480883702E-02 -0.13061216126E-01  0.50000500000E+01  0.50000000000E+01 0. -1.
</event>
<event>
 4    1  0.4973396E-021  0.5000050E+01  0.7818608E-02  0.2136455E+00
        -11   -1    0    0    0    0  0.00000000000E+00  0.00000000000E+00  0.50000499739E+01  0.50000500000E+01  0.51100000000E-03 0. -1.
         11   -1    0    0    0    0 -0.00000000000E+00 -0.00000000000E+00 -0.50000499739E+01  0.50000500000E+01  0.51100000000E-03 0.  1.
         50    1    1    2    0    0  0.18677537159E-01 -0.48081949961E-02  0.11315183011E-01  0.50000500000E+01  0.50000000000E+01 0. -1.
         50    1    1    2    0    0 -0.18677537159E-01  0.48081949961E-02 -0.11315183011E-01  0.50000500000E+01  0.50000000000E+01 0. -1.
</event>
<event>
 4    1  0.4973396E-021  0.5000050E+01  0.7818608E-02  0.2136455E+00
        -11   -1    0    0    0    0  0.00000000000E+00  0.00000000000E+00  0.50000499739E+01  0.50000500000E+01  0.51100000000E-03 0.  1.
         11   -1    0    0    0    0 -0.00000000000E+00 -0.00000000000E+00 -0.50000499739E+01  0.50000500000E+01  0.51100000000E-03 0. -1.
         50    1    1    2    0    0 -0.31860644379E-02 -0.20421869645E-01 -0.85322173916E-02  0.50000500000E+01  0.50000000000E+01 0.  0.
         50    1    1    2    0    0  0.31860644379E-02  0.20421869645E-01  0.85322173916E-02  0.50000500000E+01  0.50000000000E+01 0. -1.
</event>
<event>
 4    1  0.4973396E-021  0.5000050E+01  0.7818608E-02  0.2136455E+00
        -11   -1    0    0    0    0  0.00000000000E+00  0.00000000000E+00  0.50000499739E+01  0.50000500000E+01  0.51100000000E-03 0. -1.
         11   -1    0    0    0    0 -0.00000000000E+00 -0.00000000000E+00 -0.50000499739E+01  0.50000500000E+01  0.51100000000E-03 0.  1.
         50    1    1    2    0    0  0.13302520584E-01  0.11364536933E-01  0.13924537566E-01  0.50000500000E+01  0.50000000000E+01 0.  1.
         50    1    1    2    0    0 -0.13302520584E-01 -0.11364536933E-01 -0.13924537566E-01  0.50000500000E+01  0.50000000000E+01 0.  0.
</event>
<event>
 4    1  0.4973396E-021  0.5000050E+01  0.7818608E-02  0.2136455E+00
        -11   -1    0    0    0    0  0.00000000000E+00  0.00000000000E+00  0.50000499739E+01  0.50000500000E+01  0.51100000000E-03 0. -1.
         11   -1    0    0    0    0 -0.00000000000E+00 -0.00000000000E+00 -0.50000499739E+01  0.50000500000E+01  0.51100000000E-03 0.  1.
         50    1    1    2    0    0 -0.20329522015E-01 -0.68457891398E-02 -0.63125435202E-02  0.50000500000E+01  0.50000000000E+01 0.  1.
         50    1    1    2    0    0  0.20329522015E-01  0.68457891398E-02  0.63125435202E-02  0.50000500000E+01  0.50000000000E+01 0. -1.
</event>
<event>
 4    1  0.4973396E-021  0.5000050E+01  0.7818608E-02  0.2136455E+00
        -11   -1    0    0    0    0  0.00000000000E+00  0.00000000000E+00  0.50000499739E+01  0.50000500000E+01  0.51100000000E-03 0.  1.
         11   -1    0    0    0    0 -0.00000000000E+00 -0.00000000000E+00 -0.50000499739E+01  0.50000500000E+01  0.51100000000E-03 0. -1.
         50    1    1    2    0    0  0.18421236793E-01 -0.92167932793E-02 -0.87012215615E-02  0.50000500000E+01  0.50000000000E+01 0. -1.
         50    1    1    2    0    0 -0.18421236793E-01  0.92167932793E-02  0.87012215615E-02  0.50000500000E+01  0.50000000000E+01 0. -1.
</event>
<event>
 4    1  0.4973396E-021  0.5000050E+01  0.7818608E-02  0.2136455E+00
        -11   -1    0    0    0    0  0.00000000000E+00  0.00000000000E+00  0.50000499739E+01  0.50000500000E+01  0.51100000000E-03 0. -1.
         11   -1    0    0    0    0 -0.00000000000E+00 -0.00000000000E+00 -0.50000499739E+01  0.50000500000E+01  0.51100000000E-03 0.  1.
         50    1    1    2    0    0 -0.17623630465E-01  0.80977467867E-02  0.11128191507E-01  0.50000500000E+01  0.50000000000E+01 0. -1.
         50    1    1    2    0    0  0.17623630465E-01 -0.80977467867E-02 -0.11128191507E-01  0.50000500000E+01  0.50000000000E+01 0.  1.
</event>
<event>
 4    1  0.4973396E-021  0.5000050E+01  0.7818608E-02  0.2136455E+00
        -11   -1    0    0    0    0  0.00000000000E+00  0.00000000000E+00  0.50000499739E+01  0.50000500000E+01  0.51100000000E-03 0. -1.
         11   -1    0    0    0    0 -0.00000000000E+00 -0.00000000000E+00 -0.50000499739E+01  0.50000500000E+01  0.51100000000E-03 0.  1.
         50    1    1    2    0    0  0.21423277470E-01 -0.23806049220E-02  0.59479746681E-02  0.50000500000E+01  0.50000000000E+01 0.  0.
         50    1    1    2    0    0 -0.21423277470E-01  0.23806049220E-02 -0.59479746681E-02  0.50000500000E+01  0.50000000000E+01 0.  1.
</event>
<event>
 4    1  0.4973396E-021  0.5000050E+01  0.7818608E-02  0.2136455E+00
        -11   -1    0    0    0    0  0.00000000000E+00  0.00000000000E+00  0.50000499739E+01  0.50000500000E+01  0.51100000000E-03 0.  1.
         11   -1    0    0    0    0 -0.00000000000E+00 -0.00000000000E+00 -0.50000499739E+01  0.50000500000E+01  0.51100000000E-03 0. -1.
         50    1    1    2    0    0 -0.15424042245E-01  0.78206104504E-02 -0.14175312095E-01  0.50000500000E+01  0.50000000000E+01 0. -1.
         50    1    1    2    0    0  0.15424042245E-01 -0.78206104504E-02  0.14175312095E-01  0.50000500000E+01  0.50000000000E+01 0.  1.
</event>
<event>
 4    1  0.4973396E-021  0.5000050E+01  0.7818608E-02  0.2136455E+00
        -11   -1    0    0    0    0  0.00000000000E+00  0.00000000000E+00  0.50000499739E+01  0.50000500000E+01  0.51100000000E-03 0.  1.
         11   -1    0    0    0    0 -0.00000000000E+00 -0.00000000000E+00 -0.50000499739E+01  0.50000500000E+01  0.51100000000E-03 0. -1.
         50    1    1    2    0    0 -0.84180982353E-03 -0.20517560711E-01 -0.88500598118E-02  0.50000500000E+01  0.50000000000E+01 0. -1.
         50    1    1    2    0    0  0.84180982353E-03  0.20517560711E-01  0.88500598118E-02  0.50000500000E+01  0.50000000000E+01 0.  1.
</event>
<event>
 4    1  0.4973396E-021  0.5000050E+01  0.7818608E-02  0.2136455E+00
        -11   -1    0    0    0    0  0.00000000000E+00  0.00000000000E+00  0.50000499739E+01  0.50000500000E+01  0.51100000000E-03 0. -1.
         11   -1    0    0    0    0 -0.00000000000E+00 -0.00000000000E+00 -0.50000499739E+01  0.50000500000E+01  0.51100000000E-03 0.  1.
         50    1    1    2    0    0  0.14257028235E-01 -0.13361285344E-01  0.10872704349E-01  0.50000500000E+01  0.50000000000E+01 0.  1.
         50    1    1    2    0    0 -0.14257028235E-01  0.13361285344E-01 -0.10872704349E-01  0.50000500000E+01  0.50000000000E+01 0.  0.
</event>
<event>
 4    1  0.4973396E-021  0.5000050E+01  0.7818608E-02  0.2136455E+00
        -11   -1    0    0    0    0  0.00000000000E+00  0.00000000000E+00  0.50000499739E+01  0.50000500000E+01  0.51100000000E-03 0.  1.
         11   -1    0    0    0    0 -0.00000000000E+00 -0.00000000000E+00 -0.50000499739E+01  0.50000500000E+01  0.51100000000E-03 0. -1.
         50    1    1    2    0    0  0.54464486415E-02 -0.52064393260E-02  0.21053068345E-01  0.50000500000E+01  0.50000000000E+01 0.  0.
         50    1    1    2    0    0 -0.54464486415E-02  0.52064393260E-02 -0.21053068345E-01  0.50000500000E+01  0.50000000000E+01 0. -1.
</event>
<event>
 4    1  0.4973396E-021  0.5000050E+01  0.7818608E-02  0.2136455E+00
        -11   -1    0    0    0    0  0.00000000000E+00  0.00000000000E+00  0.50000499739E+01  0.50000500000E+01  0.51100000000E-03 0.  1.
         11   -1    0    0    0    0 -0.00000000000E+00 -0.00000000000E+00 -0.50000499739E+01  0.50000500000E+01  0.51100000000E-03 0. -1.
         50    1    1    2    0    0  0.71485013430E-02  0.21144164150E-01  0.13512035180E-02  0.50000500000E+01  0.50000000000E+01 0.  1.
         50    1    1    2    0    0 -0.71485013430E-02 -0.21144164150E-01 -0.13512035180E-02  0.50000500000E+01  0.50000000000E+01 0. -1.
</event>
<event>
 4    1  0.4973396E-021  0.5000050E+01  0.7818608E-02  0.2136455E+00
        -11   -1    0    0    0    0  0.00000000000E+00  0.00000000000E+00  0.50000499739E+01  0.50000500000E+01  0.51100000000E-03 0. -1.
         11   -1    0    0    0    0 -0.00000000000E+00 -0.00000000000E+00 -0.50000499739E+01  0.50000500000E+01  0.51100000000E-03 0.  1.
         50    1    1    2    0    0  0.21434980113E-01  0.54643635147E-02 -0.32687702445E-02  0.50000500000E+01  0.50000000000E+01 0.  1.
         50    1    1    2    0    0 -0.21434980113E-01 -0.54643635147E-02  0.32687702445E-02  0.50000500000E+01  0.50000000000E+01 0. -1.
</event>
<event>
 4    1  0.4973396E-021  0.5000050E+01  0.7818608E-02  0.2136455E+00
        -11   -1    0    0    0    0  0.00000000000E+00  0.00000000000E+00  0.50000499739E+01  0.50000500000E+01  0.51100000000E-03 0. -1.
         11   -1    0    0    0    0 -0.00000000000E+00 -0.00000000000E+00 -0.50000499739E+01  0.50000500000E+01  0.51100000000E-03 0.  1.
         50    1    1    2    0    0 -0.54043306190E-02 -0.10367371510E-01 -0.19060779589E-01  0.50000500000E+01  0.50000000000E+01 0.  1.
         50    1    1    2    0    0  0.54043306190E-02  0.10367371510E-01  0.19060779589E-01  0.50000500000E+01  0.50000000000E+01 0. -1.
</event>
<event>
 4    1  0.4973396E-021  0.5000050E+01  0.7818608E-02  0.2136455E+00
        -11   -1    0    0    0    0  0.00000000000E+00  0.00000000000E+00  0.50000499739E+01  0.50000500000E+01  0.51100000000E-03 0.  1.
         11   -1    0    0    0    0 -0.00000000000E+00 -0.00000000000E+00 -0.50000499739E+01  0.50000500000E+01  0.51100000000E-03 0. -1.
         50    1    1    2    0    0 -0.16033024343E-01  0.14121023778E-01 -0.65985845368E-02  0.50000500000E+01  0.50000000000E+01 0. -1.
         50    1    1    2    0    0  0.16033024343E-01 -0.14121023778E-01  0.65985845368E-02  0.50000500000E+01  0.50000000000E+01 0.  1.
</event>
<event>
 4    1  0.4973396E-021  0.5000050E+01  0.7818608E-02  0.2136455E+00
        -11   -1    0    0    0    0  0.00000000000E+00  0.00000000000E+00  0.50000499739E+01  0.50000500000E+01  0.51100000000E-03 0.  1.
         11   -1    0    0    0    0 -0.00000000000E+00 -0.00000000000E+00 -0.50000499739E+01  0.50000500000E+01  0.51100000000E-03 0. -1.
         50    1    1    2    0    0  0.13024876126E-01 -0.15345367010E-01 -0.97403702825E-02  0.50000500000E+01  0.50000000000E+01 0. -1.
         50    1    1    2    0    0 -0.13024876126E-01  0.15345367010E-01  0.97403702825E-02  0.50000500000E+01  0.50000000000E+01 0.  1.
</event>
<event>
 4    1  0.4973396E-021  0.5000050E+01  0.7818608E-02  0.2136455E+00
        -11   -1    0    0    0    0  0.00000000000E+00  0.00000000000E+00  0.50000499739E+01  0.50000500000E+01  0.51100000000E-03 0. -1.
         11   -1    0    0    0    0 -0.00000000000E+00 -0.00000000000E+00 -0.50000499739E+01  0.50000500000E+01  0.51100000000E-03 0.  1.
         50    1    1    2    0    0 -0.24268551349E-02 -0.20039600505E-01 -0.96191104453E-02  0.50000500000E+01  0.50000000000E+01 0.  0.
         50    1    1    2    0    0  0.24268551349E-02  0.20039600505E-01  0.96191104453E-02  0.50000500000E+01  0.50000000000E+01 0.  1.
</event>
<event>
 4    1  0.4973396E-021  0.5000050E+01  0.7818608E-02  0.2136455E+00
        -11   -1    0    0    0    0  0.00000000000E+00  0.00000000000E+00  0.50000499739E+01  0.50000500000E+01  0.51100000000E-03 0.  1.
         11   -1    0    0    0    0 -0.00000000000E+00 -0.00000000000E+00 -0.50000499739E+01  0.50000500000E+01  0.51100000000E-03 0. -1.
         50    1    1    2    0    0 -0.13519335646E-01  0.13007070851E-01  0.12167422553E-01  0.50000500000E+01  0.50000000000E+01 0.  1.
         50    1    1    2    0    0  0.13519335646E-01 -0.13007070851E-01 -0.12167422553E-01  0.50000500000E+01  0.50000000000E+01 0. -1.
</event>
<event>
 4    1  0.4973396E-021  0.5000050E+01  0.7818608E-02  0.2136455E+00
        -11   -1    0    0    0    0  0.00000000000E+00  0.00000000000E+00  0.50000499739E+01  0.50000500000E+01  0.51100000000E-03 0.  1.
         11   -1    0    0    0    0 -0.00000000000E+00 -0.00000000000E+00 -0.50000499739E+01  0.50000500000E+01  0.51100000000E-03 0. -1.
         50    1    1    2    0    0 -0.13453545430E-01 -0.68044542998E-02  0.16513752361E-01  0.50000500000E+01  0.50000000000E+01 0.  1.
         50    1    1    2    0    0  0.13453545430E-01  0.68044542998E-02 -0.16513752361E-01  0.50000500000E+01  0.50000000000E+01 0. -1.
</event>
<event>
 4    1  0.4973396E-021  0.5000050E+01  0.7818608E-02  0.2136455E+00
        -11   -1    0    0    0    0  0.00000000000E+00  0.00000000000E+00  0.50000499739E+01  0.50000500000E+01  0.51100000000E-03 0. -1.
         11   -1    0    0    0    0 -0.00000000000E+00 -0.00000000000E+00 -0.50000499739E+01  0.50000500000E+01  0.51100000000E-03 0.  1.
         50    1    1    2    0    0 -0.76643682300E-02 -0.19510603894E-01  0.77843622301E-02  0.50000500000E+01  0.50000000000E+01 0.  0.
         50    1    1    2    0    0  0.76643682300E-02  0.19510603894E-01 -0.77843622301E-02  0.50000500000E+01  0.50000000000E+01 0. -1.
</event>
<event>
 4    1  0.4973396E-021  0.5000050E+01  0.7818608E-02  0.2136455E+00
        -11   -1    0    0    0    0  0.00000000000E+00  0.00000000000E+00  0.50000499739E+01  0.50000500000E+01  0.51100000000E-03 0. -1.
         11   -1    0    0    0    0 -0.00000000000E+00 -0.00000000000E+00 -0.50000499739E+01  0.50000500000E+01  0.51100000000E-03 0.  1.
         50    1    1    2    0    0  0.14562288859E-01  0.14590835431E-01  0.86631267219E-02  0.50000500000E+01  0.50000000000E+01 0. -1.
         50    1    1    2    0    0 -0.14562288859E-01 -0.14590835431E-01 -0.86631267219E-02  0.50000500000E+01  0.50000000000E+01 0.  1.
</event>
<event>
 4    1  0.4973396E-021  0.5000050E+01  0.7818608E-02  0.2136455E+00
        -11   -1    0    0    0    0  0.00000000000E+00  0.00000000000E+00  0.50000499739E+01  0.50000500000E+01  0.51100000000E-03 0.  1.
         11   -1    0    0    0    0 -0.00000000000E+00 -0.00000000000E+00 -0.50000499739E+01  0.50000500000E+01  0.51100000000E-03 0. -1.
         50    1    1    2    0    0  0.75160810181E-02 -0.17755917847E-01  0.11324239822E-01  0.50000500000E+01  0.50000000000E+01 0. -1.
         50    1    1    2    0    0 -0.75160810181E-02  0.17755917847E-01 -0.11324239822E-01  0.50000500000E+01  0.50000000000E+01 0. -1.
</event>
<event>
 4    1  0.4973396E-021  0.5000050E+01  0.7818608E-02  0.2136455E+00
        -11   -1    0    0    0    0  0.00000000000E+00  0.00000000000E+00  0.50000499739E+01  0.50000500000E+01  0.51100000000E-03 0.  1.
         11   -1    0    0    0    0 -0.00000000000E+00 -0.00000000000E+00 -0.50000499739E+01  0.50000500000E+01  0.51100000000E-03 0. -1.
         50    1    1    2    0    0  0.20732294327E-01 -0.60035086750E-02 -0.58422902623E-02  0.50000500000E+01  0.50000000000E+01 0. -1.
         50    1    1    2    0    0 -0.20732294327E-01  0.60035086750E-02  0.58422902623E-02  0.50000500000E+01  0.50000000000E+01 0.  1.
</event>
<event>
 4    1  0.4973396E-021  0.5000050E+01  0.7818608E-02  0.2136455E+00
        -11   -1    0    0    0    0  0.00000000000E+00  0.00000000000E+00  0.50000499739E+01  0.50000500000E+01  0.51100000000E-03 0. -1.
         11   -1    0    0    0    0 -0.00000000000E+00 -0.00000000000E+00 -0.50000499739E+01  0.50000500000E+01  0.51100000000E-03 0.  1.
         50    1    1    2    0    0 -0.14356483827E-01  0.72131855474E-02  0.15551971784E-01  0.50000500000E+01  0.50000000000E+01 0. -1.
         50    1    1    2    0    0  0.14356483827E-01 -0.72131855474E-02 -0.15551971784E-01  0.50000500000E+01  0.50000000000E+01 0.  1.
</event>
<event>
 4    1  0.4973396E-021  0.5000050E+01  0.7818608E-02  0.2136455E+00
        -11   -1    0    0    0    0  0.00000000000E+00  0.00000000000E+00  0.50000499739E+01  0.50000500000E+01  0.51100000000E-03 0. -1.
         11   -1    0    0    0    0 -0.00000000000E+00 -0.00000000000E+00 -0.50000499739E+01  0.50000500000E+01  0.51100000000E-03 0.  1.
         50    1    1    2    0    0 -0.19739005633E-01 -0.97268195350E-03  0.10460786130E-01  0.50000500000E+01  0.50000000000E+01 0. -1.
         50    1    1    2    0    0  0.19739005633E-01  0.97268195350E-03 -0.10460786130E-01  0.50000500000E+01  0.50000000000E+01 0.  1.
</event>
<event>
 4    1  0.4973396E-021  0.5000050E+01  0.7818608E-02  0.2136455E+00
        -11   -1    0    0    0    0  0.00000000000E+00  0.00000000000E+00  0.50000499739E+01  0.50000500000E+01  0.51100000000E-03 0.  1.
         11   -1    0    0    0    0 -0.00000000000E+00 -0.00000000000E+00 -0.50000499739E+01  0.50000500000E+01  0.51100000000E-03 0. -1.
         50    1    1    2    0    0  0.13409222981E-01  0.14506427410E-01 -0.10476583547E-01  0.50000500000E+01  0.50000000000E+01 0. -1.
         50    1    1    2    0    0 -0.13409222981E-01 -0.14506427410E-01  0.10476583547E-01  0.50000500000E+01  0.50000000000E+01 0.  1.
</event>
<event>
 4    1  0.4973396E-021  0.5000050E+01  0.7818608E-02  0.2136455E+00
        -11   -1    0    0    0    0  0.00000000000E+00  0.00000000000E+00  0.50000499739E+01  0.50000500000E+01  0.51100000000E-03 0.  1.
         11   -1    0    0    0    0 -0.00000000000E+00 -0.00000000000E+00 -0.50000499739E+01  0.50000500000E+01  0.51100000000E-03 0. -1.
         50    1    1    2    0    0  0.15650625400E-01 -0.15970564770E-01  0.38542386617E-04  0.50000500000E+01  0.50000000000E+01 0.  1.
         50    1    1    2    0    0 -0.15650625400E-01  0.15970564770E-01 -0.38542386617E-04  0.50000500000E+01  0.50000000000E+01 0.  0.
</event>
<event>
 4    1  0.4973396E-021  0.5000050E+01  0.7818608E-02  0.2136455E+00
        -11   -1    0    0    0    0  0.00000000000E+00  0.00000000000E+00  0.50000499739E+01  0.50000500000E+01  0.51100000000E-03 0.  1.
         11   -1    0    0    0    0 -0.00000000000E+00 -0.00000000000E+00 -0.50000499739E+01  0.50000500000E+01  0.51100000000E-03 0. -1.
         50    1    1    2    0    0 -0.62190793411E-02  0.12830639767E-02 -0.21440132905E-01  0.50000500000E+01  0.50000000000E+01 0.  0.
         50    1    1    2    0    0  0.62190793411E-02 -0.12830639767E-02  0.21440132905E-01  0.50000500000E+01  0.50000000000E+01 0.  0.
</event>
<event>
 4    1  0.4973396E-021  0.5000050E+01  0.7818608E-02  0.2136455E+00
        -11   -1    0    0    0    0  0.00000000000E+00  0.00000000000E+00  0.50000499739E+01  0.50000500000E+01  0.51100000000E-03 0. -1.
         11   -1    0    0    0    0 -0.00000000000E+00 -0.00000000000E+00 -0.50000499739E+01  0.50000500000E+01  0.51100000000E-03 0.  1.
         50    1    1    2    0    0  0.92618671985E-02  0.16005354617E-01 -0.12571751652E-01  0.50000500000E+01  0.50000000000E+01 0. -1.
         50    1    1    2    0    0 -0.92618671985E-02 -0.16005354617E-01  0.12571751652E-01  0.50000500000E+01  0.50000000000E+01 0.  0.
</event>
<event>
 4    1  0.4973396E-021  0.5000050E+01  0.7818608E-02  0.2136455E+00
        -11   -1    0    0    0    0  0.00000000000E+00  0.00000000000E+00  0.50000499739E+01  0.50000500000E+01  0.51100000000E-03 0. -1.
         11   -1    0    0    0    0 -0.00000000000E+00 -0.00000000000E+00 -0.50000499739E+01  0.50000500000E+01  0.51100000000E-03 0.  1.
         50    1    1    2    0    0  0.11273813024E-01 -0.59663889661E-02 -0.18365888016E-01  0.50000500000E+01  0.50000000000E+01 0.  1.
         50    1    1    2    0    0 -0.11273813024E-01  0.59663889661E-02  0.18365888016E-01  0.50000500000E+01  0.50000000000E+01 0. -1.
</event>
<event>
 4    1  0.4973396E-021  0.5000050E+01  0.7818608E-02  0.2136455E+00
        -11   -1    0    0    0    0  0.00000000000E+00  0.00000000000E+00  0.50000499739E+01  0.50000500000E+01  0.51100000000E-03 0.  1.
         11   -1    0    0    0    0 -0.00000000000E+00 -0.00000000000E+00 -0.50000499739E+01  0.50000500000E+01  0.51100000000E-03 0. -1.
         50    1    1    2    0    0  0.29321763357E-02 -0.21327073247E-01  0.60465517977E-02  0.50000500000E+01  0.50000000000E+01 0.  0.
         50    1    1    2    0    0 -0.29321763357E-02  0.21327073247E-01 -0.60465517977E-02  0.50000500000E+01  0.50000000000E+01 0.  0.
</event>
<event>
 4    1  0.4973396E-021  0.5000050E+01  0.7818608E-02  0.2136455E+00
        -11   -1    0    0    0    0  0.00000000000E+00  0.00000000000E+00  0.50000499739E+01  0.50000500000E+01  0.51100000000E-03 0.  1.
         11   -1    0    0    0    0 -0.00000000000E+00 -0.00000000000E+00 -0.50000499739E+01  0.50000500000E+01  0.51100000000E-03 0. -1.
         50    1    1    2    0    0  0.12660892312E-01  0.31518783793E-03  0.18428373843E-01  0.50000500000E+01  0.50000000000E+01 0.  0.
         50    1    1    2    0    0 -0.12660892312E-01 -0.31518783793E-03 -0.18428373843E-01  0.50000500000E+01  0.50000000000E+01 0. -1.
</event>
<event>
 4    1  0.4973396E-021  0.5000050E+01  0.7818608E-02  0.2136455E+00
        -11   -1    0    0    0    0  0.00000000000E+00  0.00000000000E+00  0.50000499739E+01  0.50000500000E+01  0.51100000000E-03 0. -1.
         11   -1    0    0    0    0 -0.00000000000E+00 -0.00000000000E+00 -0.50000499739E+01  0.50000500000E+01  0.51100000000E-03 0.  1.
         50    1    1    2    0    0  0.21691582397E-01 -0.74015269370E-03  0.53786547662E-02  0.50000500000E+01  0.50000000000E+01 0. -1.
         50    1    1    2    0    0 -0.21691582397E-01  0.74015269370E-03 -0.53786547662E-02  0.50000500000E+01  0.50000000000E+01 0.  1.
</event>
<event>
 4    1  0.4973396E-021  0.5000050E+01  0.7818608E-02  0.2136455E+00
        -11   -1    0    0    0    0  0.00000000000E+00  0.00000000000E+00  0.50000499739E+01  0.50000500000E+01  0.51100000000E-03 0. -1.
         11   -1    0    0    0    0 -0.00000000000E+00 -0.00000000000E+00 -0.50000499739E+01  0.50000500000E+01  0.51100000000E-03 0.  1.
         50    1    1    2    0    0  0.19850343350E-01  0.96128009521E-02  0.36824484691E-02  0.50000500000E+01  0.50000000000E+01 0.  1.
         50    1    1    2    0    0 -0.19850343350E-01 -0.96128009521E-02 -0.36824484691E-02  0.50000500000E+01  0.50000000000E+01 0.  0.
</event>
<event>
 4    1  0.4973396E-021  0.5000050E+01  0.7818608E-02  0.2136455E+00
        -11   -1    0    0    0    0  0.00000000000E+00  0.00000000000E+00  0.50000499739E+01  0.50000500000E+01  0.51100000000E-03 0.  1.
         11   -1    0    0    0    0 -0.00000000000E+00 -0.00000000000E+00 -0.50000499739E+01  0.50000500000E+01  0.51100000000E-03 0. -1.
         50    1    1    2    0    0 -0.22206722539E-01  0.23436758443E-02  0.11709643986E-02  0.50000500000E+01  0.50000000000E+01 0.  1.
         50    1    1    2    0    0  0.22206722539E-01 -0.23436758443E-02 -0.11709643986E-02  0.50000500000E+01  0.50000000000E+01 0. -1.
</event>
<event>
 4    1  0.4973396E-021  0.5000050E+01  0.7818608E-02  0.2136455E+00
        -11   -1    0    0    0    0  0.00000000000E+00  0.00000000000E+00  0.50000499739E+01  0.50000500000E+01  0.51100000000E-03 0. -1.
         11   -1    0    0    0    0 -0.00000000000E+00 -0.00000000000E+00 -0.50000499739E+01  0.50000500000E+01  0.51100000000E-03 0.  1.
         50    1    1    2    0    0 -0.13835270861E-01  0.17538602115E-01 -0.99258049276E-03  0.50000500000E+01  0.50000000000E+01 0.  0.
         50    1    1    2    0    0  0.13835270861E-01 -0.17538602115E-01  0.99258049276E-03  0.50000500000E+01  0.50000000000E+01 0.  1.
</event>
<event>
 4    1  0.4973396E-021  0.5000050E+01  0.7818608E-02  0.2136455E+00
        -11   -1    0    0    0    0  0.00000000000E+00  0.00000000000E+00  0.50000499739E+01  0.50000500000E+01  0.51100000000E-03 0.  1.
         11   -1    0    0    0    0 -0.00000000000E+00 -0.00000000000E+00 -0.50000499739E+01  0.50000500000E+01  0.51100000000E-03 0. -1.
         50    1    1    2    0    0  0.16173924653E-01 -0.10335083123E-01  0.11471386932E-01  0.50000500000E+01  0.50000000000E+01 0.  1.
         50    1    1    2    0    0 -0.16173924653E-01  0.10335083123E-01 -0.11471386932E-01  0.50000500000E+01  0.50000000000E+01 0.  1.
</event>
<event>
 4    1  0.4973396E-021  0.5000050E+01  0.7818608E-02  0.2136455E+00
        -11   -1    0    0    0    0  0.00000000000E+00  0.00000000000E+00  0.50000499739E+01  0.50000500000E+01  0.51100000000E-03 0. -1.
         11   -1    0    0    0    0 -0.00000000000E+00 -0.00000000000E+00 -0.50000499739E+01  0.50000500000E+01  0.51100000000E-03 0.  1.
         50    1    1    2    0    0  0.16624462095E-01 -0.11915096276E-01 -0.90366056009E-02  0.50000500000E+01  0.50000000000E+01 0.  0.
         50    1    1    2    0    0 -0.16624462095E-01  0.11915096276E-01  0.90366056009E-02  0.50000500000E+01  0.50000000000E+01 0.  0.
</event>
<event>
 4    1  0.4973396E-021  0.5000050E+01  0.7818608E-02  0.2136455E+00
        -11   -1    0    0    0    0  0.00000000000E+00  0.00000000000E+00  0.50000499739E+01  0.50000500000E+01  0.51100000000E-03 0. -1.
         11   -1    0    0    0    0 -0.00000000000E+00 -0.00000000000E+00 -0.50000499739E+01  0.50000500000E+01  0.51100000000E-03 0.  1.
         50    1    1    2    0    0 -0.21097042480E-02  0.22107038762E-01 -0.26135196909E-02  0.50000500000E+01  0.50000000000E+01 0.  0.
         50    1    1    2    0    0  0.21097042480E-02 -0.22107038762E-01  0.26135196909E-02  0.50000500000E+01  0.50000000000E+01 0.  1.
</event>
<event>
 4    1  0.4973396E-021  0.5000050E+01  0.7818608E-02  0.2136455E+00
        -11   -1    0    0    0    0  0.00000000000E+00  0.00000000000E+00  0.50000499739E+01  0.50000500000E+01  0.51100000000E-03 0. -1.
         11   -1    0    0    0    0 -0.00000000000E+00 -0.00000000000E+00 -0.50000499739E+01  0.50000500000E+01  0.51100000000E-03 0.  1.
         50    1    1    2    0    0 -0.11814338162E-01  0.86788041132E-02  0.16884971808E-01  0.50000500000E+01  0.50000000000E+01 0.  0.
         50    1    1    2    0    0  0.11814338162E-01 -0.86788041132E-02 -0.16884971808E-01  0.50000500000E+01  0.50000000000E+01 0.  1.
</event>
<event>
 4    1  0.4973396E-021  0.5000050E+01  0.7818608E-02  0.2136455E+00
        -11   -1    0    0    0    0  0.00000000000E+00  0.00000000000E+00  0.50000499739E+01  0.50000500000E+01  0.51100000000E-03 0. -1.
         11   -1    0    0    0    0 -0.00000000000E+00 -0.00000000000E+00 -0.50000499739E+01  0.50000500000E+01  0.51100000000E-03 0.  1.
         50    1    1    2    0    0  0.59884676823E-02 -0.15912738709E-01 -0.14523274479E-01  0.50000500000E+01  0.50000000000E+01 0.  0.
         50    1    1    2    0    0 -0.59884676823E-02  0.15912738709E-01  0.14523274479E-01  0.50000500000E+01  0.50000000000E+01 0.  0.
</event>
<event>
 4    1  0.4973396E-021  0.5000050E+01  0.7818608E-02  0.2136455E+00
        -11   -1    0    0    0    0  0.00000000000E+00  0.00000000000E+00  0.50000499739E+01  0.50000500000E+01  0.51100000000E-03 0. -1.
         11   -1    0    0    0    0 -0.00000000000E+00 -0.00000000000E+00 -0.50000499739E+01  0.50000500000E+01  0.51100000000E-03 0.  1.
         50    1    1    2    0    0 -0.15407354533E-01  0.15379038349E-01  0.51089241271E-02  0.50000500000E+01  0.50000000000E+01 0.  1.
         50    1    1    2    0    0  0.15407354533E-01 -0.15379038349E-01 -0.51089241271E-02  0.50000500000E+01  0.50000000000E+01 0. -1.
</event>
<event>
 4    1  0.4973396E-021  0.5000050E+01  0.7818608E-02  0.2136455E+00
        -11   -1    0    0    0    0  0.00000000000E+00  0.00000000000E+00  0.50000499739E+01  0.50000500000E+01  0.51100000000E-03 0.  1.
         11   -1    0    0    0    0 -0.00000000000E+00 -0.00000000000E+00 -0.50000499739E+01  0.50000500000E+01  0.51100000000E-03 0. -1.
         50    1    1    2    0    0 -0.25488302679E-02 -0.21549253959E-02 -0.22110229777E-01  0.50000500000E+01  0.50000000000E+01 0. -1.
         50    1    1    2    0    0  0.25488302679E-02  0.21549253959E-02  0.22110229777E-01  0.50000500000E+01  0.50000000000E+01 0.  0.
</event>
<event>
 4    1  0.4973396E-021  0.5000050E+01  0.7818608E-02  0.2136455E+00
        -11   -1    0    0    0    0  0.00000000000E+00  0.00000000000E+00  0.50000499739E+01  0.50000500000E+01  0.51100000000E-03 0. -1.
         11   -1    0    0    0    0 -0.00000000000E+00 -0.00000000000E+00 -0.50000499739E+01  0.50000500000E+01  0.51100000000E-03 0.  1.
         50    1    1    2    0    0  0.20836481379E-01 -0.57967558807E-02  0.56781304128E-02  0.50000500000E+01  0.50000000000E+01 0. -1.
         50    1    1    2    0    0 -0.20836481379E-01  0.57967558807E-02 -0.56781304128E-02  0.50000500000E+01  0.50000000000E+01 0.  1.
</event>
<event>
 4    1  0.4973396E-021  0.5000050E+01  0.7818608E-02  0.2136455E+00
        -11   -1    0    0    0    0  0.00000000000E+00  0.00000000000E+00  0.50000499739E+01  0.50000500000E+01  0.51100000000E-03 0.  1.
         11   -1    0    0    0    0 -0.00000000000E+00 -0.00000000000E+00 -0.50000499739E+01  0.50000500000E+01  0.51100000000E-03 0. -1.
         50    1    1    2    0    0 -0.65317297316E-02 -0.42921634032E-05 -0.21385485458E-01  0.50000500000E+01  0.50000000000E+01 0. -1.
         50    1    1    2    0    0  0.65317297316E-02  0.42921634032E-05  0.21385485458E-01  0.50000500000E+01  0.50000000000E+01 0.  0.
</event>
<event>
 4    1  0.4973396E-021  0.5000050E+01  0.7818608E-02  0.2136455E+00
        -11   -1    0    0    0    0  0.00000000000E+00  0.00000000000E+00  0.50000499739E+01  0.50000500000E+01  0.51100000000E-03 0. -1.
         11   -1    0    0    0    0 -0.00000000000E+00 -0.00000000000E+00 -0.50000499739E+01  0.50000500000E+01  0.51100000000E-03 0.  1.
         50    1    1    2    0    0  0.19199800061E-01 -0.11358113417E-01 -0.15373474639E-02  0.50000500000E+01  0.50000000000E+01 0.  0.
         50    1    1    2    0    0 -0.19199800061E-01  0.11358113417E-01  0.15373474639E-02  0.50000500000E+01  0.50000000000E+01 0.  1.
</event>
<event>
 4    1  0.4973396E-021  0.5000050E+01  0.7818608E-02  0.2136455E+00
        -11   -1    0    0    0    0  0.00000000000E+00  0.00000000000E+00  0.50000499739E+01  0.50000500000E+01  0.51100000000E-03 0. -1.
         11   -1    0    0    0    0 -0.00000000000E+00 -0.00000000000E+00 -0.50000499739E+01  0.50000500000E+01  0.51100000000E-03 0.  1.
         50    1    1    2    0    0 -0.30580980178E-02  0.16651679519E-01  0.14607262087E-01  0.50000500000E+01  0.50000000000E+01 0.  1.
         50    1    1    2    0    0  0.30580980178E-02 -0.16651679519E-01 -0.14607262087E-01  0.50000500000E+01  0.50000000000E+01 0.  1.
</event>
<event>
 4    1  0.4973396E-021  0.5000050E+01  0.7818608E-02  0.2136455E+00
        -11   -1    0    0    0    0  0.00000000000E+00  0.00000000000E+00  0.50000499739E+01  0.50000500000E+01  0.51100000000E-03 0. -1.
         11   -1    0    0    0    0 -0.00000000000E+00 -0.00000000000E+00 -0.50000499739E+01  0.50000500000E+01  0.51100000000E-03 0.  1.
         50    1    1    2    0    0  0.27314308230E-02 -0.12347138236E-01  0.18441528218E-01  0.50000500000E+01  0.50000000000E+01 0.  0.
         50    1    1    2    0    0 -0.27314308230E-02  0.12347138236E-01 -0.18441528218E-01  0.50000500000E+01  0.50000000000E+01 0. -1.
</event>
<event>
 4    1  0.4973396E-021  0.5000050E+01  0.7818608E-02  0.2136455E+00
        -11   -1    0    0    0    0  0.00000000000E+00  0.00000000000E+00  0.50000499739E+01  0.50000500000E+01  0.51100000000E-03 0. -1.
         11   -1    0    0    0    0 -0.00000000000E+00 -0.00000000000E+00 -0.50000499739E+01  0.50000500000E+01  0.51100000000E-03 0.  1.
         50    1    1    2    0    0  0.20992003613E-01 -0.64849499837E-02  0.41573679183E-02  0.50000500000E+01  0.50000000000E+01 0.  0.
         50    1    1    2    0    0 -0.20992003613E-01  0.64849499837E-02 -0.41573679183E-02  0.50000500000E+01  0.50000000000E+01 0. -1.
</event>
<event>
 4    1  0.4973396E-021  0.5000050E+01  0.7818608E-02  0.2136455E+00
        -11   -1    0    0    0    0  0.00000000000E+00  0.00000000000E+00  0.50000499739E+01  0.50000500000E+01  0.51100000000E-03 0. -1.
         11   -1    0    0    0    0 -0.00000000000E+00 -0.00000000000E+00 -0.50000499739E+01  0.50000500000E+01  0.51100000000E-03 0.  1.
         50    1    1    2    0    0 -0.17510481030E-01 -0.13646943915E-01 -0.26732893333E-02  0.50000500000E+01  0.50000000000E+01 0. -1.
         50    1    1    2    0    0  0.17510481030E-01  0.13646943915E-01  0.26732893333E-02  0.50000500000E+01  0.50000000000E+01 0.  1.
</event>
<event>
 4    1  0.4973396E-021  0.5000050E+01  0.7818608E-02  0.2136455E+00
        -11   -1    0    0    0    0  0.00000000000E+00  0.00000000000E+00  0.50000499739E+01  0.50000500000E+01  0.51100000000E-03 0.  1.
         11   -1    0    0    0    0 -0.00000000000E+00 -0.00000000000E+00 -0.50000499739E+01  0.50000500000E+01  0.51100000000E-03 0. -1.
         50    1    1    2    0    0 -0.12627919342E-02  0.22249518039E-01 -0.18348851572E-02  0.50000500000E+01  0.50000000000E+01 0. -1.
         50    1    1    2    0    0  0.12627919342E-02 -0.22249518039E-01  0.18348851572E-02  0.50000500000E+01  0.50000000000E+01 0.  1.
</event>
<event>
 4    1  0.4973396E-021  0.5000050E+01  0.7818608E-02  0.2136455E+00
        -11   -1    0    0    0    0  0.00000000000E+00  0.00000000000E+00  0.50000499739E+01  0.50000500000E+01  0.51100000000E-03 0.  1.
         11   -1    0    0    0    0 -0.00000000000E+00 -0.00000000000E+00 -0.50000499739E+01  0.50000500000E+01  0.51100000000E-03 0. -1.
         50    1    1    2    0    0  0.15342753771E-01 -0.16266574122E-01 -0.31193811145E-04  0.50000500000E+01  0.50000000000E+01 0.  1.
         50    1    1    2    0    0 -0.15342753771E-01  0.16266574122E-01  0.31193811145E-04  0.50000500000E+01  0.50000000000E+01 0. -1.
</event>
<event>
 4    1  0.4973396E-021  0.5000050E+01  0.7818608E-02  0.2136455E+00
        -11   -1    0    0    0    0  0.00000000000E+00  0.00000000000E+00  0.50000499739E+01  0.50000500000E+01  0.51100000000E-03 0.  1.
         11   -1    0    0    0    0 -0.00000000000E+00 -0.00000000000E+00 -0.50000499739E+01  0.50000500000E+01  0.51100000000E-03 0. -1.
         50    1    1    2    0    0  0.42977543019E-02  0.17446290435E-01  0.13310099849E-01  0.50000500000E+01  0.50000000000E+01 0.  0.
         50    1    1    2    0    0 -0.42977543019E-02 -0.17446290435E-01 -0.13310099849E-01  0.50000500000E+01  0.50000000000E+01 0.  0.
</event>
<event>
 4    1  0.4973396E-021  0.5000050E+01  0.7818608E-02  0.2136455E+00
        -11   -1    0    0    0    0  0.00000000000E+00  0.00000000000E+00  0.50000499739E+01  0.50000500000E+01  0.51100000000E-03 0.  1.
         11   -1    0    0    0    0 -0.00000000000E+00 -0.00000000000E+00 -0.50000499739E+01  0.50000500000E+01  0.51100000000E-03 0. -1.
         50    1    1    2    0    0  0.11751381267E-01  0.69584015475E-02 -0.17705597596E-01  0.50000500000E+01  0.50000000000E+01 0. -1.
         50    1    1    2    0    0 -0.11751381267E-01 -0.69584015475E-02  0.17705597596E-01  0.50000500000E+01  0.50000000000E+01 0.  1.
</event>
<event>
 4    1  0.4973396E-021  0.5000050E+01  0.7818608E-02  0.2136455E+00
        -11   -1    0    0    0    0  0.00000000000E+00  0.00000000000E+00  0.50000499739E+01  0.50000500000E+01  0.51100000000E-03 0.  1.
         11   -1    0    0    0    0 -0.00000000000E+00 -0.00000000000E+00 -0.50000499739E+01  0.50000500000E+01  0.51100000000E-03 0. -1.
         50    1    1    2    0    0  0.20564128333E-01 -0.52204473310E-03  0.87662189799E-02  0.50000500000E+01  0.50000000000E+01 0.  0.
         50    1    1    2    0    0 -0.20564128333E-01  0.52204473310E-03 -0.87662189799E-02  0.50000500000E+01  0.50000000000E+01 0.  0.
</event>
<event>
 4    1  0.4973396E-021  0.5000050E+01  0.7818608E-02  0.2136455E+00
        -11   -1    0    0    0    0  0.00000000000E+00  0.00000000000E+00  0.50000499739E+01  0.50000500000E+01  0.51100000000E-03 0.  1.
         11   -1    0    0    0    0 -0.00000000000E+00 -0.00000000000E+00 -0.50000499739E+01  0.50000500000E+01  0.51100000000E-03 0. -1.
         50    1    1    2    0    0 -0.94908159257E-02 -0.17012890248E-01 -0.10976724396E-01  0.50000500000E+01  0.50000000000E+01 0. -1.
         50    1    1    2    0    0  0.94908159257E-02  0.17012890248E-01  0.10976724396E-01  0.50000500000E+01  0.50000000000E+01 0.  1.
</event>
<event>
 4    1  0.4973396E-021  0.5000050E+01  0.7818608E-02  0.2136455E+00
        -11   -1    0    0    0    0  0.00000000000E+00  0.00000000000E+00  0.50000499739E+01  0.50000500000E+01  0.51100000000E-03 0.  1.
         11   -1    0    0    0    0 -0.00000000000E+00 -0.00000000000E+00 -0.50000499739E+01  0.50000500000E+01  0.51100000000E-03 0. -1.
         50    1    1    2    0    0  0.23713092417E-02  0.18063668780E-01 -0.12964692926E-01  0.50000500000E+01  0.50000000000E+01 0.  0.
         50    1    1    2    0    0 -0.23713092417E-02 -0.18063668780E-01  0.12964692926E-01  0.50000500000E+01  0.50000000000E+01 0. -1.
</event>
<event>
 4    1  0.4973396E-021  0.5000050E+01  0.7818608E-02  0.2136455E+00
        -11   -1    0    0    0    0  0.00000000000E+00  0.00000000000E+00  0.50000499739E+01  0.50000500000E+01  0.51100000000E-03 0.  1.
         11   -1    0    0    0    0 -0.00000000000E+00 -0.00000000000E+00 -0.50000499739E+01  0.50000500000E+01  0.51100000000E-03 0. -1.
         50    1    1    2    0    0 -0.51813077025E-02 -0.12007615878E-01  0.18137632465E-01  0.50000500000E+01  0.50000000000E+01 0.  0.
         50    1    1    2    0    0  0.51813077025E-02  0.12007615878E-01 -0.18137632465E-01  0.50000500000E+01  0.50000000000E+01 0.  0.
</event>
<event>
 4    1  0.4973396E-021  0.5000050E+01  0.7818608E-02  0.2136455E+00
        -11   -1    0    0    0    0  0.00000000000E+00  0.00000000000E+00  0.50000499739E+01  0.50000500000E+01  0.51100000000E-03 0.  1.
         11   -1    0    0    0    0 -0.00000000000E+00 -0.00000000000E+00 -0.50000499739E+01  0.50000500000E+01  0.51100000000E-03 0. -1.
         50    1    1    2    0    0  0.29379598525E-02  0.17900085765E-01  0.13075083997E-01  0.50000500000E+01  0.50000000000E+01 0.  1.
         50    1    1    2    0    0 -0.29379598525E-02 -0.17900085765E-01 -0.13075083997E-01  0.50000500000E+01  0.50000000000E+01 0.  1.
</event>
<event>
 4    1  0.4973396E-021  0.5000050E+01  0.7818608E-02  0.2136455E+00
        -11   -1    0    0    0    0  0.00000000000E+00  0.00000000000E+00  0.50000499739E+01  0.50000500000E+01  0.51100000000E-03 0. -1.
         11   -1    0    0    0    0 -0.00000000000E+00 -0.00000000000E+00 -0.50000499739E+01  0.50000500000E+01  0.51100000000E-03 0.  1.
         50    1    1    2    0    0 -0.55520119341E-02  0.19809220510E-01  0.87619887160E-02  0.50000500000E+01  0.50000000000E+01 0.  1.
         50    1    1    2    0    0  0.55520119341E-02 -0.19809220510E-01 -0.87619887160E-02  0.50000500000E+01  0.50000000000E+01 0.  0.
</event>
<event>
 4    1  0.4973396E-021  0.5000050E+01  0.7818608E-02  0.2136455E+00
        -11   -1    0    0    0    0  0.00000000000E+00  0.00000000000E+00  0.50000499739E+01  0.50000500000E+01  0.51100000000E-03 0. -1.
         11   -1    0    0    0    0 -0.00000000000E+00 -0.00000000000E+00 -0.50000499739E+01  0.50000500000E+01  0.51100000000E-03 0.  1.
         50    1    1    2    0    0  0.21885392695E-01  0.11009024241E-02  0.44519771390E-02  0.50000500000E+01  0.50000000000E+01 0. -1.
         50    1    1    2    0    0 -0.21885392695E-01 -0.11009024241E-02 -0.44519771390E-02  0.50000500000E+01  0.50000000000E+01 0.  1.
</event>
<event>
 4    1  0.4973396E-021  0.5000050E+01  0.7818608E-02  0.2136455E+00
        -11   -1    0    0    0    0  0.00000000000E+00  0.00000000000E+00  0.50000499739E+01  0.50000500000E+01  0.51100000000E-03 0.  1.
         11   -1    0    0    0    0 -0.00000000000E+00 -0.00000000000E+00 -0.50000499739E+01  0.50000500000E+01  0.51100000000E-03 0. -1.
         50    1    1    2    0    0  0.13938503433E-01  0.11758770618E-01 -0.12940322082E-01  0.50000500000E+01  0.50000000000E+01 0.  0.
         50    1    1    2    0    0 -0.13938503433E-01 -0.11758770618E-01  0.12940322082E-01  0.50000500000E+01  0.50000000000E+01 0.  0.
</event>
<event>
 4    1  0.4973396E-021  0.5000050E+01  0.7818608E-02  0.2136455E+00
        -11   -1    0    0    0    0  0.00000000000E+00  0.00000000000E+00  0.50000499739E+01  0.50000500000E+01  0.51100000000E-03 0.  1.
         11   -1    0    0    0    0 -0.00000000000E+00 -0.00000000000E+00 -0.50000499739E+01  0.50000500000E+01  0.51100000000E-03 0. -1.
         50    1    1    2    0    0  0.18246807882E-01 -0.81749727266E-02  0.10011309756E-01  0.50000500000E+01  0.50000000000E+01 0.  0.
         50    1    1    2    0    0 -0.18246807882E-01  0.81749727266E-02 -0.10011309756E-01  0.50000500000E+01  0.50000000000E+01 0.  0.
</event>
<event>
 4    1  0.4973396E-021  0.5000050E+01  0.7818608E-02  0.2136455E+00
        -11   -1    0    0    0    0  0.00000000000E+00  0.00000000000E+00  0.50000499739E+01  0.50000500000E+01  0.51100000000E-03 0. -1.
         11   -1    0    0    0    0 -0.00000000000E+00 -0.00000000000E+00 -0.50000499739E+01  0.50000500000E+01  0.51100000000E-03 0.  1.
         50    1    1    2    0    0  0.95750391674E-02 -0.20023207290E-01 -0.27188774818E-02  0.50000500000E+01  0.50000000000E+01 0.  0.
         50    1    1    2    0    0 -0.95750391674E-02  0.20023207290E-01  0.27188774818E-02  0.50000500000E+01  0.50000000000E+01 0.  1.
</event>
<event>
 4    1  0.4973396E-021  0.5000050E+01  0.7818608E-02  0.2136455E+00
        -11   -1    0    0    0    0  0.00000000000E+00  0.00000000000E+00  0.50000499739E+01  0.50000500000E+01  0.51100000000E-03 0.  1.
         11   -1    0    0    0    0 -0.00000000000E+00 -0.00000000000E+00 -0.50000499739E+01  0.50000500000E+01  0.51100000000E-03 0. -1.
         50    1    1    2    0    0  0.13498597598E-01  0.16590992108E-01 -0.65214525791E-02  0.50000500000E+01  0.50000000000E+01 0. -1.
         50    1    1    2    0    0 -0.13498597598E-01 -0.16590992108E-01  0.65214525791E-02  0.50000500000E+01  0.50000000000E+01 0. -1.
</event>
<event>
 4    1  0.4973396E-021  0.5000050E+01  0.7818608E-02  0.2136455E+00
        -11   -1    0    0    0    0  0.00000000000E+00  0.00000000000E+00  0.50000499739E+01  0.50000500000E+01  0.51100000000E-03 0.  1.
         11   -1    0    0    0    0 -0.00000000000E+00 -0.00000000000E+00 -0.50000499739E+01  0.50000500000E+01  0.51100000000E-03 0. -1.
         50    1    1    2    0    0  0.11924890247E-01 -0.17972683342E-01  0.58976390255E-02  0.50000500000E+01  0.50000000000E+01 0.  0.
         50    1    1    2    0    0 -0.11924890247E-01  0.17972683342E-01 -0.58976390255E-02  0.50000500000E+01  0.50000000000E+01 0.  1.
</event>
<event>
 4    1  0.4973396E-021  0.5000050E+01  0.7818608E-02  0.2136455E+00
        -11   -1    0    0    0    0  0.00000000000E+00  0.00000000000E+00  0.50000499739E+01  0.50000500000E+01  0.51100000000E-03 0. -1.
         11   -1    0    0    0    0 -0.00000000000E+00 -0.00000000000E+00 -0.50000499739E+01  0.50000500000E+01  0.51100000000E-03 0.  1.
         50    1    1    2    0    0  0.86592385061E-02  0.26872836101E-02  0.20440122194E-01  0.50000500000E+01  0.50000000000E+01 0. -1.
         50    1    1    2    0    0 -0.86592385061E-02 -0.26872836101E-02 -0.20440122194E-01  0.50000500000E+01  0.50000000000E+01 0.  0.
</event>
<event>
 4    1  0.4973396E-021  0.5000050E+01  0.7818608E-02  0.2136455E+00
        -11   -1    0    0    0    0  0.00000000000E+00  0.00000000000E+00  0.50000499739E+01  0.50000500000E+01  0.51100000000E-03 0.  1.
         11   -1    0    0    0    0 -0.00000000000E+00 -0.00000000000E+00 -0.50000499739E+01  0.50000500000E+01  0.51100000000E-03 0. -1.
         50    1    1    2    0    0 -0.14359067736E-01 -0.14097257804E-01  0.97512561322E-02  0.50000500000E+01  0.50000000000E+01 0.  0.
         50    1    1    2    0    0  0.14359067736E-01  0.14097257804E-01 -0.97512561322E-02  0.50000500000E+01  0.50000000000E+01 0.  1.
</event>
<event>
 4    1  0.4973396E-021  0.5000050E+01  0.7818608E-02  0.2136455E+00
        -11   -1    0    0    0    0  0.00000000000E+00  0.00000000000E+00  0.50000499739E+01  0.50000500000E+01  0.51100000000E-03 0. -1.
         11   -1    0    0    0    0 -0.00000000000E+00 -0.00000000000E+00 -0.50000499739E+01  0.50000500000E+01  0.51100000000E-03 0.  1.
         50    1    1    2    0    0 -0.16500335170E-02 -0.15751954617E-01  0.15784670258E-01  0.50000500000E+01  0.50000000000E+01 0.  1.
         50    1    1    2    0    0  0.16500335170E-02  0.15751954617E-01 -0.15784670258E-01  0.50000500000E+01  0.50000000000E+01 0.  1.
</event>
<event>
 4    1  0.4973396E-021  0.5000050E+01  0.7818608E-02  0.2136455E+00
        -11   -1    0    0    0    0  0.00000000000E+00  0.00000000000E+00  0.50000499739E+01  0.50000500000E+01  0.51100000000E-03 0.  1.
         11   -1    0    0    0    0 -0.00000000000E+00 -0.00000000000E+00 -0.50000499739E+01  0.50000500000E+01  0.51100000000E-03 0. -1.
         50    1    1    2    0    0 -0.96425864746E-02  0.20040333900E-01 -0.23255199940E-02  0.50000500000E+01  0.50000000000E+01 0.  1.
         50    1    1    2    0    0  0.96425864746E-02 -0.20040333900E-01  0.23255199940E-02  0.50000500000E+01  0.50000000000E+01 0. -1.
</event>
<event>
 4    1  0.4973396E-021  0.5000050E+01  0.7818608E-02  0.2136455E+00
        -11   -1    0    0    0    0  0.00000000000E+00  0.00000000000E+00  0.50000499739E+01  0.50000500000E+01  0.51100000000E-03 0.  1.
         11   -1    0    0    0    0 -0.00000000000E+00 -0.00000000000E+00 -0.50000499739E+01  0.50000500000E+01  0.51100000000E-03 0. -1.
         50    1    1    2    0    0 -0.67997355097E-02  0.72549620942E-02  0.20028270570E-01  0.50000500000E+01  0.50000000000E+01 0.  0.
         50    1    1    2    0    0  0.67997355097E-02 -0.72549620942E-02 -0.20028270570E-01  0.50000500000E+01  0.50000000000E+01 0.  0.
</event>
<event>
 4    1  0.4973396E-021  0.5000050E+01  0.7818608E-02  0.2136455E+00
        -11   -1    0    0    0    0  0.00000000000E+00  0.00000000000E+00  0.50000499739E+01  0.50000500000E+01  0.51100000000E-03 0. -1.
         11   -1    0    0    0    0 -0.00000000000E+00 -0.00000000000E+00 -0.50000499739E+01  0.50000500000E+01  0.51100000000E-03 0.  1.
         50    1    1    2    0    0 -0.35980407286E-02  0.47155686639E-02  0.21559684949E-01  0.50000500000E+01  0.50000000000E+01 0. -1.
         50    1    1    2    0    0  0.35980407286E-02 -0.47155686639E-02 -0.21559684949E-01  0.50000500000E+01  0.50000000000E+01 0.  0.
</event>
<event>
 4    1  0.4973396E-021  0.5000050E+01  0.7818608E-02  0.2136455E+00
        -11   -1    0    0    0    0  0.00000000000E+00  0.00000000000E+00  0.50000499739E+01  0.50000500000E+01  0.51100000000E-03 0.  1.
         11   -1    0    0    0    0 -0.00000000000E+00 -0.00000000000E+00 -0.50000499739E+01  0.50000500000E+01  0.51100000000E-03 0. -1.
         50    1    1    2    0    0  0.25611928784E-02 -0.14584029590E-01 -0.16755562419E-01  0.50000500000E+01  0.50000000000E+01 0.  0.
         50    1    1    2    0    0 -0.25611928784E-02  0.14584029590E-01  0.16755562419E-01  0.50000500000E+01  0.50000000000E+01 0.  0.
</event>
<event>
 4    1  0.4973396E-021  0.5000050E+01  0.7818608E-02  0.2136455E+00
        -11   -1    0    0    0    0  0.00000000000E+00  0.00000000000E+00  0.50000499739E+01  0.50000500000E+01  0.51100000000E-03 0. -1.
         11   -1    0    0    0    0 -0.00000000000E+00 -0.00000000000E+00 -0.50000499739E+01  0.50000500000E+01  0.51100000000E-03 0.  1.
         50    1    1    2    0    0 -0.13713387902E-01 -0.12520058460E-01  0.12457673475E-01  0.50000500000E+01  0.50000000000E+01 0.  1.
         50    1    1    2    0    0  0.13713387902E-01  0.12520058460E-01 -0.12457673475E-01  0.50000500000E+01  0.50000000000E+01 0.  1.
</event>
<event>
 4    1  0.4973396E-021  0.5000050E+01  0.7818608E-02  0.2136455E+00
        -11   -1    0    0    0    0  0.00000000000E+00  0.00000000000E+00  0.50000499739E+01  0.50000500000E+01  0.51100000000E-03 0. -1.
         11   -1    0    0    0    0 -0.00000000000E+00 -0.00000000000E+00 -0.50000499739E+01  0.50000500000E+01  0.51100000000E-03 0.  1.
         50    1    1    2    0    0  0.15747973032E-01  0.15834937319E-01  0.11218758828E-02  0.50000500000E+01  0.50000000000E+01 0. -1.
         50    1    1    2    0    0 -0.15747973032E-01 -0.15834937319E-01 -0.11218758828E-02  0.50000500000E+01  0.50000000000E+01 0.  0.
</event>
<event>
 4    1  0.4973396E-021  0.5000050E+01  0.7818608E-02  0.2136455E+00
        -11   -1    0    0    0    0  0.00000000000E+00  0.00000000000E+00  0.50000499739E+01  0.50000500000E+01  0.51100000000E-03 0. -1.
         11   -1    0    0    0    0 -0.00000000000E+00 -0.00000000000E+00 -0.50000499739E+01  0.50000500000E+01  0.51100000000E-03 0.  1.
         50    1    1    2    0    0 -0.18356085175E-01 -0.12054839092E-01  0.42115901414E-02  0.50000500000E+01  0.50000000000E+01 0.  1.
         50    1    1    2    0    0  0.18356085175E-01  0.12054839092E-01 -0.42115901414E-02  0.50000500000E+01  0.50000000000E+01 0. -1.
</event>
<event>
 4    1  0.4973396E-021  0.5000050E+01  0.7818608E-02  0.2136455E+00
        -11   -1    0    0    0    0  0.00000000000E+00  0.00000000000E+00  0.50000499739E+01  0.50000500000E+01  0.51100000000E-03 0.  1.
         11   -1    0    0    0    0 -0.00000000000E+00 -0.00000000000E+00 -0.50000499739E+01  0.50000500000E+01  0.51100000000E-03 0. -1.
         50    1    1    2    0    0  0.10540788157E-01  0.94723205921E-02  0.17296514898E-01  0.50000500000E+01  0.50000000000E+01 0.  1.
         50    1    1    2    0    0 -0.10540788157E-01 -0.94723205921E-02 -0.17296514898E-01  0.50000500000E+01  0.50000000000E+01 0. -1.
</event>
<event>
 4    1  0.4973396E-021  0.5000050E+01  0.7818608E-02  0.2136455E+00
        -11   -1    0    0    0    0  0.00000000000E+00  0.00000000000E+00  0.50000499739E+01  0.50000500000E+01  0.51100000000E-03 0. -1.
         11   -1    0    0    0    0 -0.00000000000E+00 -0.00000000000E+00 -0.50000499739E+01  0.50000500000E+01  0.51100000000E-03 0.  1.
         50    1    1    2    0    0 -0.80669649232E-02  0.13204850601E-01 -0.16141824480E-01  0.50000500000E+01  0.50000000000E+01 0.  1.
         50    1    1    2    0    0  0.80669649232E-02 -0.13204850601E-01  0.16141824480E-01  0.50000500000E+01  0.50000000000E+01 0. -1.
</event>
<event>
 4    1  0.4973396E-021  0.5000050E+01  0.7818608E-02  0.2136455E+00
        -11   -1    0    0    0    0  0.00000000000E+00  0.00000000000E+00  0.50000499739E+01  0.50000500000E+01  0.51100000000E-03 0. -1.
         11   -1    0    0    0    0 -0.00000000000E+00 -0.00000000000E+00 -0.50000499739E+01  0.50000500000E+01  0.51100000000E-03 0.  1.
         50    1    1    2    0    0  0.40816697688E-02  0.20456034185E-01  0.80556276801E-02  0.50000500000E+01  0.50000000000E+01 0.  0.
         50    1    1    2    0    0 -0.40816697688E-02 -0.20456034185E-01 -0.80556276801E-02  0.50000500000E+01  0.50000000000E+01 0. -1.
</event>
<event>
 4    1  0.4973396E-021  0.5000050E+01  0.7818608E-02  0.2136455E+00
        -11   -1    0    0    0    0  0.00000000000E+00  0.00000000000E+00  0.50000499739E+01  0.50000500000E+01  0.51100000000E-03 0.  1.
         11   -1    0    0    0    0 -0.00000000000E+00 -0.00000000000E+00 -0.50000499739E+01  0.50000500000E+01  0.51100000000E-03 0. -1.
         50    1    1    2    0    0  0.92693561605E-02 -0.20269544937E-01  0.17964087585E-02  0.50000500000E+01  0.50000000000E+01 0.  0.
         50    1    1    2    0    0 -0.92693561605E-02  0.20269544937E-01 -0.17964087585E-02  0.50000500000E+01  0.50000000000E+01 0.  1.
</event>
<event>
 4    1  0.4973396E-021  0.5000050E+01  0.7818608E-02  0.2136455E+00
        -11   -1    0    0    0    0  0.00000000000E+00  0.00000000000E+00  0.50000499739E+01  0.50000500000E+01  0.51100000000E-03 0. -1.
         11   -1    0    0    0    0 -0.00000000000E+00 -0.00000000000E+00 -0.50000499739E+01  0.50000500000E+01  0.51100000000E-03 0.  1.
         50    1    1    2    0    0  0.14000008087E-01 -0.60137787634E-02 -0.16365718394E-01  0.50000500000E+01  0.50000000000E+01 0.  1.
         50    1    1    2    0    0 -0.14000008087E-01  0.60137787634E-02  0.16365718394E-01  0.50000500000E+01  0.50000000000E+01 0.  0.
</event>
<event>
 4    1  0.4973396E-021  0.5000050E+01  0.7818608E-02  0.2136455E+00
        -11   -1    0    0    0    0  0.00000000000E+00  0.00000000000E+00  0.50000499739E+01  0.50000500000E+01  0.51100000000E-03 0. -1.
         11   -1    0    0    0    0 -0.00000000000E+00 -0.00000000000E+00 -0.50000499739E+01  0.50000500000E+01  0.51100000000E-03 0.  1.
         50    1    1    2    0    0 -0.35933256792E-02 -0.19178208889E-01  0.10921850318E-01  0.50000500000E+01  0.50000000000E+01 0.  0.
         50    1    1    2    0    0  0.35933256792E-02  0.19178208889E-01 -0.10921850318E-01  0.50000500000E+01  0.50000000000E+01 0. -1.
</event>
<event>
 4    1  0.4973396E-021  0.5000050E+01  0.7818608E-02  0.2136455E+00
        -11   -1    0    0    0    0  0.00000000000E+00  0.00000000000E+00  0.50000499739E+01  0.50000500000E+01  0.51100000000E-03 0.  1.
         11   -1    0    0    0    0 -0.00000000000E+00 -0.00000000000E+00 -0.50000499739E+01  0.50000500000E+01  0.51100000000E-03 0. -1.
         50    1    1    2    0    0  0.13029737673E-01 -0.88376108034E-02  0.15878446759E-01  0.50000500000E+01  0.50000000000E+01 0.  0.
         50    1    1    2    0    0 -0.13029737673E-01  0.88376108034E-02 -0.15878446759E-01  0.50000500000E+01  0.50000000000E+01 0.  1.
</event>
<event>
 4    1  0.4973396E-021  0.5000050E+01  0.7818608E-02  0.2136455E+00
        -11   -1    0    0    0    0  0.00000000000E+00  0.00000000000E+00  0.50000499739E+01  0.50000500000E+01  0.51100000000E-03 0.  1.
         11   -1    0    0    0    0 -0.00000000000E+00 -0.00000000000E+00 -0.50000499739E+01  0.50000500000E+01  0.51100000000E-03 0. -1.
         50    1    1    2    0    0  0.21405751189E-01 -0.47816806088E-02  0.43510741870E-02  0.50000500000E+01  0.50000000000E+01 0.  0.
         50    1    1    2    0    0 -0.21405751189E-01  0.47816806088E-02 -0.43510741870E-02  0.50000500000E+01  0.50000000000E+01 0.  1.
</event>
<event>
 4    1  0.4973396E-021  0.5000050E+01  0.7818608E-02  0.2136455E+00
        -11   -1    0    0    0    0  0.00000000000E+00  0.00000000000E+00  0.50000499739E+01  0.50000500000E+01  0.51100000000E-03 0. -1.
         11   -1    0    0    0    0 -0.00000000000E+00 -0.00000000000E+00 -0.50000499739E+01  0.50000500000E+01  0.51100000000E-03 0.  1.
         50    1    1    2    0    0  0.55676800964E-02 -0.19725225499E-01  0.89397381024E-02  0.50000500000E+01  0.50000000000E+01 0. -1.
         50    1    1    2    0    0 -0.55676800964E-02  0.19725225499E-01 -0.89397381024E-02  0.50000500000E+01  0.50000000000E+01 0.  1.
</event>
<event>
 4    1  0.4973396E-021  0.5000050E+01  0.7818608E-02  0.2136455E+00
        -11   -1    0    0    0    0  0.00000000000E+00  0.00000000000E+00  0.50000499739E+01  0.50000500000E+01  0.51100000000E-03 0.  1.
         11   -1    0    0    0    0 -0.00000000000E+00 -0.00000000000E+00 -0.50000499739E+01  0.50000500000E+01  0.51100000000E-03 0. -1.
         50    1    1    2    0    0 -0.17100162957E-01  0.11752861408E-01 -0.83340971664E-02  0.50000500000E+01  0.50000000000E+01 0.  0.
         50    1    1    2    0    0  0.17100162957E-01 -0.11752861408E-01  0.83340971664E-02  0.50000500000E+01  0.50000000000E+01 0. -1.
</event>
<event>
 4    1  0.4973396E-021  0.5000050E+01  0.7818608E-02  0.2136455E+00
        -11   -1    0    0    0    0  0.00000000000E+00  0.00000000000E+00  0.50000499739E+01  0.50000500000E+01  0.51100000000E-03 0.  1.
         11   -1    0    0    0    0 -0.00000000000E+00 -0.00000000000E+00 -0.50000499739E+01  0.50000500000E+01  0.51100000000E-03 0. -1.
         50    1    1    2    0    0 -0.16126395972E-01 -0.11299673420E-01  0.10595245799E-01  0.50000500000E+01  0.50000000000E+01 0.  1.
         50    1    1    2    0    0  0.16126395972E-01  0.11299673420E-01 -0.10595245799E-01  0.50000500000E+01  0.50000000000E+01 0.  1.
</event>
<event>
 4    1  0.4973396E-021  0.5000050E+01  0.7818608E-02  0.2136455E+00
        -11   -1    0    0    0    0  0.00000000000E+00  0.00000000000E+00  0.50000499739E+01  0.50000500000E+01  0.51100000000E-03 0. -1.
         11   -1    0    0    0    0 -0.00000000000E+00 -0.00000000000E+00 -0.50000499739E+01  0.50000500000E+01  0.51100000000E-03 0.  1.
         50    1    1    2    0    0  0.26480056963E-03  0.16835655474E-01  0.14713704001E-01  0.50000500000E+01  0.50000000000E+01 0.  0.
         50    1    1    2    0    0 -0.26480056963E-03 -0.16835655474E-01 -0.14713704001E-01  0.50000500000E+01  0.50000000000E+01 0.  0.
</event>
<event>
 4    1  0.4973396E-021  0.5000050E+01  0.7818608E-02  0.2136455E+00
        -11   -1    0    0    0    0  0.00000000000E+00  0.00000000000E+00  0.50000499739E+01  0.50000500000E+01  0.51100000000E-03 0.  1.
         11   -1    0    0    0    0 -0.00000000000E+00 -0.00000000000E+00 -0.50000499739E+01  0.50000500000E+01  0.51100000000E-03 0. -1.
         50    1    1    2    0    0  0.92117859641E-02  0.17622160937E-01 -0.10227655805E-01  0.50000500000E+01  0.50000000000E+01 0.  1.
         50    1    1    2    0    0 -0.92117859641E-02 -0.17622160937E-01  0.10227655805E-01  0.50000500000E+01  0.50000000000E+01 0.  0.
</event>
<event>
 4    1  0.4973396E-021  0.5000050E+01  0.7818608E-02  0.2136455E+00
        -11   -1    0    0    0    0  0.00000000000E+00  0.00000000000E+00  0.50000499739E+01  0.50000500000E+01  0.51100000000E-03 0.  1.
         11   -1    0    0    0    0 -0.00000000000E+00 -0.00000000000E+00 -0.50000499739E+01  0.50000500000E+01  0.51100000000E-03 0. -1.
         50    1    1    2    0    0  0.47935499855E-02 -0.78056588635E-02  0.20398432985E-01  0.50000500000E+01  0.50000000000E+01 0. -1.
         50    1    1    2    0    0 -0.47935499855E-02  0.78056588635E-02 -0.20398432985E-01  0.50000500000E+01  0.50000000000E+01 0. -1.
</event>
<event>
 4    1  0.4973396E-021  0.5000050E+01  0.7818608E-02  0.2136455E+00
        -11   -1    0    0    0    0  0.00000000000E+00  0.00000000000E+00  0.50000499739E+01  0.50000500000E+01  0.51100000000E-03 0.  1.
         11   -1    0    0    0    0 -0.00000000000E+00 -0.00000000000E+00 -0.50000499739E+01  0.50000500000E+01  0.51100000000E-03 0. -1.
         50    1    1    2    0    0 -0.16136564027E-03 -0.19968742883E-01  0.10061101769E-01  0.50000500000E+01  0.50000000000E+01 0.  1.
         50    1    1    2    0    0  0.16136564027E-03  0.19968742883E-01 -0.10061101769E-01  0.50000500000E+01  0.50000000000E+01 0. -1.
</event>
<event>
 4    1  0.4973396E-021  0.5000050E+01  0.7818608E-02  0.2136455E+00
        -11   -1    0    0    0    0  0.00000000000E+00  0.00000000000E+00  0.50000499739E+01  0.50000500000E+01  0.51100000000E-03 0.  1.
         11   -1    0    0    0    0 -0.00000000000E+00 -0.00000000000E+00 -0.50000499739E+01  0.50000500000E+01  0.51100000000E-03 0. -1.
         50    1    1    2    0    0  0.13548266829E-01  0.16736373313E-02 -0.17710050932E-01  0.50000500000E+01  0.50000000000E+01 0. -1.
         50    1    1    2    0    0 -0.13548266829E-01 -0.16736373313E-02  0.17710050932E-01  0.50000500000E+01  0.50000000000E+01 0.  1.
</event>
<event>
 4    1  0.4973396E-021  0.5000050E+01  0.7818608E-02  0.2136455E+00
        -11   -1    0    0    0    0  0.00000000000E+00  0.00000000000E+00  0.50000499739E+01  0.50000500000E+01  0.51100000000E-03 0.  1.
         11   -1    0    0    0    0 -0.00000000000E+00 -0.00000000000E+00 -0.50000499739E+01  0.50000500000E+01  0.51100000000E-03 0. -1.
         50    1    1    2    0    0 -0.21158621346E-01  0.44889201673E-02  0.56714053360E-02  0.50000500000E+01  0.50000000000E+01 0. -1.
         50    1    1    2    0    0  0.21158621346E-01 -0.44889201673E-02 -0.56714053360E-02  0.50000500000E+01  0.50000000000E+01 0.  0.
</event>
<event>
 4    1  0.4973396E-021  0.5000050E+01  0.7818608E-02  0.2136455E+00
        -11   -1    0    0    0    0  0.00000000000E+00  0.00000000000E+00  0.50000499739E+01  0.50000500000E+01  0.51100000000E-03 0. -1.
         11   -1    0    0    0    0 -0.00000000000E+00 -0.00000000000E+00 -0.50000499739E+01  0.50000500000E+01  0.51100000000E-03 0.  1.
         50    1    1    2    0    0  0.92655918756E-02 -0.17735647398E-01 -0.99798856989E-02  0.50000500000E+01  0.50000000000E+01 0.  0.
         50    1    1    2    0    0 -0.92655918756E-02  0.17735647398E-01  0.99798856989E-02  0.50000500000E+01  0.50000000000E+01 0.  0.
</event>
<event>
 4    1  0.4973396E-021  0.5000050E+01  0.7818608E-02  0.2136455E+00
        -11   -1    0    0    0    0  0.00000000000E+00  0.00000000000E+00  0.50000499739E+01  0.50000500000E+01  0.51100000000E-03 0. -1.
         11   -1    0    0    0    0 -0.00000000000E+00 -0.00000000000E+00 -0.50000499739E+01  0.50000500000E+01  0.51100000000E-03 0.  1.
         50    1    1    2    0    0  0.98814287797E-03 -0.22263448577E-01 -0.18343748612E-02  0.50000500000E+01  0.50000000000E+01 0.  1.
         50    1    1    2    0    0 -0.98814287797E-03  0.22263448577E-01  0.18343748612E-02  0.50000500000E+01  0.50000000000E+01 0. -1.
</event>
<event>
 4    1  0.4973396E-021  0.5000050E+01  0.7818608E-02  0.2136455E+00
        -11   -1    0    0    0    0  0.00000000000E+00  0.00000000000E+00  0.50000499739E+01  0.50000500000E+01  0.51100000000E-03 0. -1.
         11   -1    0    0    0    0 -0.00000000000E+00 -0.00000000000E+00 -0.50000499739E+01  0.50000500000E+01  0.51100000000E-03 0.  1.
         50    1    1    2    0    0  0.18355883226E-02  0.21563886604E-01 -0.56242252832E-02  0.50000500000E+01  0.50000000000E+01 0. -1.
         50    1    1    2    0    0 -0.18355883226E-02 -0.21563886604E-01  0.56242252832E-02  0.50000500000E+01  0.50000000000E+01 0.  1.
</event>
<event>
 4    1  0.4973396E-021  0.5000050E+01  0.7818608E-02  0.2136455E+00
        -11   -1    0    0    0    0  0.00000000000E+00  0.00000000000E+00  0.50000499739E+01  0.50000500000E+01  0.51100000000E-03 0. -1.
         11   -1    0    0    0    0 -0.00000000000E+00 -0.00000000000E+00 -0.50000499739E+01  0.50000500000E+01  0.51100000000E-03 0.  1.
         50    1    1    2    0    0 -0.88978602838E-02  0.19973317284E-01 -0.46794421719E-02  0.50000500000E+01  0.50000000000E+01 0.  1.
         50    1    1    2    0    0  0.88978602838E-02 -0.19973317284E-01  0.46794421719E-02  0.50000500000E+01  0.50000000000E+01 0. -1.
</event>
<event>
 4    1  0.4973396E-021  0.5000050E+01  0.7818608E-02  0.2136455E+00
        -11   -1    0    0    0    0  0.00000000000E+00  0.00000000000E+00  0.50000499739E+01  0.50000500000E+01  0.51100000000E-03 0. -1.
         11   -1    0    0    0    0 -0.00000000000E+00 -0.00000000000E+00 -0.50000499739E+01  0.50000500000E+01  0.51100000000E-03 0.  1.
         50    1    1    2    0    0  0.41554822303E-03  0.13230592435E-01  0.18021688142E-01  0.50000500000E+01  0.50000000000E+01 0.  1.
         50    1    1    2    0    0 -0.41554822303E-03 -0.13230592435E-01 -0.18021688142E-01  0.50000500000E+01  0.50000000000E+01 0.  0.
</event>
